 Entering Gaussian System, Link 0=g09
 Input=B3LYP6-31G.ZZZTLC01.gjf
 Output=B3LYP6-31G.ZZZTLC01.log
 Initial command:
 /public/home/users/caep010/software/Gaussian09/g09/l1.exe "/public/home/users/caep010/.cache/gau_scr/Gau-77900.inp" -scrdir="/public/home/users/caep010/.cache/gau_scr/"
 Entering Link 1 = /public/home/users/caep010/software/Gaussian09/g09/l1.exe PID=     77901.
  
 Copyright (c) 1988,1990,1992,1993,1995,1998,2003,2009,2015,
            Gaussian, Inc.  All Rights Reserved.
  
 This is part of the Gaussian(R) 09 program.  It is based on
 the Gaussian(R) 03 system (copyright 2003, Gaussian, Inc.),
 the Gaussian(R) 98 system (copyright 1998, Gaussian, Inc.),
 the Gaussian(R) 94 system (copyright 1995, Gaussian, Inc.),
 the Gaussian 92(TM) system (copyright 1992, Gaussian, Inc.),
 the Gaussian 90(TM) system (copyright 1990, Gaussian, Inc.),
 the Gaussian 88(TM) system (copyright 1988, Gaussian, Inc.),
 the Gaussian 86(TM) system (copyright 1986, Carnegie Mellon
 University), and the Gaussian 82(TM) system (copyright 1983,
 Carnegie Mellon University). Gaussian is a federally registered
 trademark of Gaussian, Inc.
  
 This software contains proprietary and confidential information,
 including trade secrets, belonging to Gaussian, Inc.
  
 This software is provided under written license and may be
 used, copied, transmitted, or stored only in accord with that
 written license.
  
 The following legend is applicable only to US Government
 contracts under FAR:
  
                    RESTRICTED RIGHTS LEGEND
  
 Use, reproduction and disclosure by the US Government is
 subject to restrictions as set forth in subparagraphs (a)
 and (c) of the Commercial Computer Software - Restricted
 Rights clause in FAR 52.227-19.
  
 Gaussian, Inc.
 340 Quinnipiac St., Bldg. 40, Wallingford CT 06492
  
  
 ---------------------------------------------------------------
 Warning -- This program may not be used in any manner that
 competes with the business of Gaussian, Inc. or will provide
 assistance to any competitor of Gaussian, Inc.  The licensee
 of this program is prohibited from giving any competitor of
 Gaussian, Inc. access to this program.  By using this program,
 the user acknowledges that Gaussian, Inc. is engaged in the
 business of creating and licensing software in the field of
 computational chemistry and represents and warrants to the
 licensee that it is not a competitor of Gaussian, Inc. and that
 it will not use this program in any manner prohibited above.
 ---------------------------------------------------------------
  

 Cite this work as:
 Gaussian 09, Revision E.01,
 M. J. Frisch, G. W. Trucks, H. B. Schlegel, G. E. Scuseria, 
 M. A. Robb, J. R. Cheeseman, G. Scalmani, V. Barone, B. Mennucci, 
 G. A. Petersson, H. Nakatsuji, M. Caricato, X. Li, H. P. Hratchian, 
 A. F. Izmaylov, J. Bloino, G. Zheng, J. L. Sonnenberg, M. Hada, 
 M. Ehara, K. Toyota, R. Fukuda, J. Hasegawa, M. Ishida, T. Nakajima, 
 Y. Honda, O. Kitao, H. Nakai, T. Vreven, J. A. Montgomery, Jr., 
 J. E. Peralta, F. Ogliaro, M. Bearpark, J. J. Heyd, E. Brothers, 
 K. N. Kudin, V. N. Staroverov, T. Keith, R. Kobayashi, J. Normand, 
 K. Raghavachari, A. Rendell, J. C. Burant, S. S. Iyengar, J. Tomasi, 
 M. Cossi, N. Rega, J. M. Millam, M. Klene, J. E. Knox, J. B. Cross, 
 V. Bakken, C. Adamo, J. Jaramillo, R. Gomperts, R. E. Stratmann, 
 O. Yazyev, A. J. Austin, R. Cammi, C. Pomelli, J. W. Ochterski, 
 R. L. Martin, K. Morokuma, V. G. Zakrzewski, G. A. Voth, 
 P. Salvador, J. J. Dannenberg, S. Dapprich, A. D. Daniels, 
 O. Farkas, J. B. Foresman, J. V. Ortiz, J. Cioslowski, 
 and D. J. Fox, Gaussian, Inc., Wallingford CT, 2013.
 
 ******************************************
 Gaussian 09:  ES64L-G09RevE.01 30-Nov-2015
                20-Aug-2021 
 ******************************************
 %nproc=32
 Will use up to   32 processors via shared memory.
 %mem=180GB
 -------------------------
 #P OPT Freq B3LYP/6-31G**
 -------------------------
 1/14=-1,18=20,19=15,26=3,38=1/1,3;
 2/9=110,12=2,17=6,18=5,40=1/2;
 3/5=1,6=6,7=101,11=2,16=1,25=1,30=1,71=1,74=-5/1,2,3;
 4//1;
 5/5=2,38=5/2;
 6/7=2,8=2,9=2,10=2,28=1/1;
 7//1,2,3,16;
 1/14=-1,18=20,19=15,26=3/3(2);
 2/9=110/2;
 99//99;
 2/9=110/2;
 3/5=1,6=6,7=101,11=2,16=1,25=1,30=1,71=1,74=-5/1,2,3;
 4/5=5,16=3,69=1/1;
 5/5=2,38=5/2;
 7//1,2,3,16;
 1/14=-1,18=20,19=15,26=3/3(-5);
 2/9=110/2;
 6/7=2,8=2,9=2,10=2,19=2,28=1/1;
 99/9=1/99;
 Leave Link    1 at Fri Aug 20 15:54:57 2021, MaxMem= 24159191040 cpu:         2.5
 (Enter /public/home/users/caep010/software/Gaussian09/g09/l101.exe)
 --------
 ZZZTLC01
 --------
 Symbolic Z-matrix:
 Charge =  0 Multiplicity = 1
 N                     5.9178    2.7327    0.4865 
 O                     5.5565    1.656     0.0562 
 O                     5.5565    3.8095    0.0562 
 N                     6.878     2.7327    1.4676 
 C                     6.9556    1.5107    2.2468 
 C                     6.9556    3.9548    2.2468 
 C                     8.2383    1.4965    3.0524 
 C                     8.2383    3.969     3.0524 
 N                     8.3305    2.7327    3.817 
 N                     9.2555    2.7327    4.8241 
 H                     6.9338    0.7433    1.6539 
 H                     6.9338    4.7222    1.6539 
 H                     6.1942    1.4538    2.8435 
 H                     6.1942    4.0117    2.8435 
 H                     8.2408    0.7357    3.6534 
 H                     8.2408    4.7298    3.6534 
 H                     8.9997    1.4188    2.4579 
 H                     8.9997    4.0467    2.4579 
 O                     9.6205    1.6506    5.2712 
 O                     9.6205    3.8149    5.2712 
 
 NAtoms=     20 NQM=       20 NQMF=       0 NMMI=      0 NMMIF=      0
                NMic=       0 NMicF=      0.
                    Isotopes and Nuclear Properties:
 (Nuclear quadrupole moments (NQMom) in fm**2, nuclear magnetic moments (NMagM)
  in nuclear magnetons)

  Atom         1           2           3           4           5           6           7           8           9          10
 IAtWgt=          14          16          16          14          12          12          12          12          14          14
 AtmWgt=  14.0030740  15.9949146  15.9949146  14.0030740  12.0000000  12.0000000  12.0000000  12.0000000  14.0030740  14.0030740
 NucSpn=           2           0           0           2           0           0           0           0           2           2
 AtZEff=   0.0000000   0.0000000   0.0000000   0.0000000   0.0000000   0.0000000   0.0000000   0.0000000   0.0000000   0.0000000
 NQMom=    2.0440000   0.0000000   0.0000000   2.0440000   0.0000000   0.0000000   0.0000000   0.0000000   2.0440000   2.0440000
 NMagM=    0.4037610   0.0000000   0.0000000   0.4037610   0.0000000   0.0000000   0.0000000   0.0000000   0.4037610   0.4037610
 AtZNuc=   7.0000000   8.0000000   8.0000000   7.0000000   6.0000000   6.0000000   6.0000000   6.0000000   7.0000000   7.0000000

  Atom        11          12          13          14          15          16          17          18          19          20
 IAtWgt=           1           1           1           1           1           1           1           1          16          16
 AtmWgt=   1.0078250   1.0078250   1.0078250   1.0078250   1.0078250   1.0078250   1.0078250   1.0078250  15.9949146  15.9949146
 NucSpn=           1           1           1           1           1           1           1           1           0           0
 AtZEff=   0.0000000   0.0000000   0.0000000   0.0000000   0.0000000   0.0000000   0.0000000   0.0000000   0.0000000   0.0000000
 NQMom=    0.0000000   0.0000000   0.0000000   0.0000000   0.0000000   0.0000000   0.0000000   0.0000000   0.0000000   0.0000000
 NMagM=    2.7928460   2.7928460   2.7928460   2.7928460   2.7928460   2.7928460   2.7928460   2.7928460   0.0000000   0.0000000
 AtZNuc=   1.0000000   1.0000000   1.0000000   1.0000000   1.0000000   1.0000000   1.0000000   1.0000000   8.0000000   8.0000000
 Leave Link  101 at Fri Aug 20 15:54:57 2021, MaxMem= 24159191040 cpu:        10.0
 (Enter /public/home/users/caep010/software/Gaussian09/g09/l103.exe)

 GradGradGradGradGradGradGradGradGradGradGradGradGradGradGradGradGradGrad
 Berny optimization.
 Initialization pass.
                           ----------------------------
                           !    Initial Parameters    !
                           ! (Angstroms and Degrees)  !
 --------------------------                            --------------------------
 ! Name  Definition              Value          Derivative Info.                !
 --------------------------------------------------------------------------------
 ! R1    R(1,2)                  1.2145         estimate D2E/DX2                !
 ! R2    R(1,3)                  1.2146         estimate D2E/DX2                !
 ! R3    R(1,4)                  1.3728         estimate D2E/DX2                !
 ! R4    R(4,5)                  1.4514         estimate D2E/DX2                !
 ! R5    R(4,6)                  1.4514         estimate D2E/DX2                !
 ! R6    R(5,7)                  1.5148         estimate D2E/DX2                !
 ! R7    R(5,11)                 0.97           estimate D2E/DX2                !
 ! R8    R(5,13)                 0.969          estimate D2E/DX2                !
 ! R9    R(6,8)                  1.5148         estimate D2E/DX2                !
 ! R10   R(6,12)                 0.97           estimate D2E/DX2                !
 ! R11   R(6,14)                 0.969          estimate D2E/DX2                !
 ! R12   R(7,9)                  1.4565         estimate D2E/DX2                !
 ! R13   R(7,15)                 0.9695         estimate D2E/DX2                !
 ! R14   R(7,17)                 0.9691         estimate D2E/DX2                !
 ! R15   R(8,9)                  1.4566         estimate D2E/DX2                !
 ! R16   R(8,16)                 0.9695         estimate D2E/DX2                !
 ! R17   R(8,18)                 0.9691         estimate D2E/DX2                !
 ! R18   R(9,10)                 1.3674         estimate D2E/DX2                !
 ! R19   R(10,19)                1.2264         estimate D2E/DX2                !
 ! R20   R(10,20)                1.2265         estimate D2E/DX2                !
 ! A1    A(2,1,3)              124.8872         estimate D2E/DX2                !
 ! A2    A(2,1,4)              117.4708         estimate D2E/DX2                !
 ! A3    A(3,1,4)              117.4686         estimate D2E/DX2                !
 ! A4    A(1,4,5)              114.9034         estimate D2E/DX2                !
 ! A5    A(1,4,6)              114.9019         estimate D2E/DX2                !
 ! A6    A(5,4,6)              114.6988         estimate D2E/DX2                !
 ! A7    A(4,5,7)              109.7974         estimate D2E/DX2                !
 ! A8    A(4,5,11)             109.6789         estimate D2E/DX2                !
 ! A9    A(4,5,13)             109.7563         estimate D2E/DX2                !
 ! A10   A(7,5,11)             109.6752         estimate D2E/DX2                !
 ! A11   A(7,5,13)             109.7138         estimate D2E/DX2                !
 ! A12   A(11,5,13)            108.1959         estimate D2E/DX2                !
 ! A13   A(4,6,8)              109.7963         estimate D2E/DX2                !
 ! A14   A(4,6,12)             109.681          estimate D2E/DX2                !
 ! A15   A(4,6,14)             109.7553         estimate D2E/DX2                !
 ! A16   A(8,6,12)             109.6752         estimate D2E/DX2                !
 ! A17   A(8,6,14)             109.7138         estimate D2E/DX2                !
 ! A18   A(12,6,14)            108.1959         estimate D2E/DX2                !
 ! A19   A(5,7,9)              108.9561         estimate D2E/DX2                !
 ! A20   A(5,7,15)             109.8287         estimate D2E/DX2                !
 ! A21   A(5,7,17)             109.8646         estimate D2E/DX2                !
 ! A22   A(9,7,15)             109.9039         estimate D2E/DX2                !
 ! A23   A(9,7,17)             109.8983         estimate D2E/DX2                !
 ! A24   A(15,7,17)            108.3801         estimate D2E/DX2                !
 ! A25   A(6,8,9)              108.9549         estimate D2E/DX2                !
 ! A26   A(6,8,16)             109.8287         estimate D2E/DX2                !
 ! A27   A(6,8,18)             109.8646         estimate D2E/DX2                !
 ! A28   A(9,8,16)             109.9059         estimate D2E/DX2                !
 ! A29   A(9,8,18)             109.8975         estimate D2E/DX2                !
 ! A30   A(16,8,18)            108.3801         estimate D2E/DX2                !
 ! A31   A(7,9,8)              116.1572         estimate D2E/DX2                !
 ! A32   A(7,9,10)             115.433          estimate D2E/DX2                !
 ! A33   A(8,9,10)             115.4314         estimate D2E/DX2                !
 ! A34   A(9,10,19)            118.0226         estimate D2E/DX2                !
 ! A35   A(9,10,20)            118.0204         estimate D2E/DX2                !
 ! A36   A(19,10,20)           123.8532         estimate D2E/DX2                !
 ! D1    D(2,1,4,5)            -24.1063         estimate D2E/DX2                !
 ! D2    D(2,1,4,6)           -160.444          estimate D2E/DX2                !
 ! D3    D(3,1,4,5)            160.4422         estimate D2E/DX2                !
 ! D4    D(3,1,4,6)             24.1044         estimate D2E/DX2                !
 ! D5    D(1,4,5,7)            166.4806         estimate D2E/DX2                !
 ! D6    D(1,4,5,11)            45.8985         estimate D2E/DX2                !
 ! D7    D(1,4,5,13)           -72.8409         estimate D2E/DX2                !
 ! D8    D(6,4,5,7)            -57.0922         estimate D2E/DX2                !
 ! D9    D(6,4,5,11)          -177.6743         estimate D2E/DX2                !
 ! D10   D(6,4,5,13)            63.5863         estimate D2E/DX2                !
 ! D11   D(1,4,6,8)           -166.4806         estimate D2E/DX2                !
 ! D12   D(1,4,6,12)           -45.8979         estimate D2E/DX2                !
 ! D13   D(1,4,6,14)            72.8423         estimate D2E/DX2                !
 ! D14   D(5,4,6,8)             57.0916         estimate D2E/DX2                !
 ! D15   D(5,4,6,12)           177.6743         estimate D2E/DX2                !
 ! D16   D(5,4,6,14)           -63.5856         estimate D2E/DX2                !
 ! D17   D(4,5,7,9)             52.6856         estimate D2E/DX2                !
 ! D18   D(4,5,7,15)           173.1168         estimate D2E/DX2                !
 ! D19   D(4,5,7,17)           -67.7607         estimate D2E/DX2                !
 ! D20   D(11,5,7,9)           173.2699         estimate D2E/DX2                !
 ! D21   D(11,5,7,15)          -66.2989         estimate D2E/DX2                !
 ! D22   D(11,5,7,17)           52.8236         estimate D2E/DX2                !
 ! D23   D(13,5,7,9)           -68.0185         estimate D2E/DX2                !
 ! D24   D(13,5,7,15)           52.4127         estimate D2E/DX2                !
 ! D25   D(13,5,7,17)          171.5351         estimate D2E/DX2                !
 ! D26   D(4,6,8,9)            -52.6819         estimate D2E/DX2                !
 ! D27   D(4,6,8,16)          -173.1149         estimate D2E/DX2                !
 ! D28   D(4,6,8,18)            67.7626         estimate D2E/DX2                !
 ! D29   D(12,6,8,9)          -173.2681         estimate D2E/DX2                !
 ! D30   D(12,6,8,16)           66.2989         estimate D2E/DX2                !
 ! D31   D(12,6,8,18)          -52.8236         estimate D2E/DX2                !
 ! D32   D(14,6,8,9)            68.0204         estimate D2E/DX2                !
 ! D33   D(14,6,8,16)          -52.4127         estimate D2E/DX2                !
 ! D34   D(14,6,8,18)         -171.5351         estimate D2E/DX2                !
 ! D35   D(5,7,9,8)            -55.2447         estimate D2E/DX2                !
 ! D36   D(5,7,9,10)           164.9974         estimate D2E/DX2                !
 ! D37   D(15,7,9,8)          -175.6297         estimate D2E/DX2                !
 ! D38   D(15,7,9,10)           44.6125         estimate D2E/DX2                !
 ! D39   D(17,7,9,8)            65.1808         estimate D2E/DX2                !
 ! D40   D(17,7,9,10)          -74.577          estimate D2E/DX2                !
 ! D41   D(6,8,9,7)             55.2441         estimate D2E/DX2                !
 ! D42   D(6,8,9,10)          -164.9974         estimate D2E/DX2                !
 ! D43   D(16,8,9,7)           175.6296         estimate D2E/DX2                !
 ! D44   D(16,8,9,10)          -44.6119         estimate D2E/DX2                !
 ! D45   D(18,8,9,7)           -65.1802         estimate D2E/DX2                !
 ! D46   D(18,8,9,10)           74.5783         estimate D2E/DX2                !
 ! D47   D(7,9,10,19)          -21.7538         estimate D2E/DX2                !
 ! D48   D(7,9,10,20)          161.8053         estimate D2E/DX2                !
 ! D49   D(8,9,10,19)         -161.807          estimate D2E/DX2                !
 ! D50   D(8,9,10,20)           21.7522         estimate D2E/DX2                !
 --------------------------------------------------------------------------------
 Trust Radius=3.00D-01 FncErr=1.00D-07 GrdErr=1.00D-06
 Number of steps in this run=    116 maximum allowed number of steps=    120.
 GradGradGradGradGradGradGradGradGradGradGradGradGradGradGradGradGradGrad

 Leave Link  103 at Fri Aug 20 15:54:57 2021, MaxMem= 24159191040 cpu:         0.4
 (Enter /public/home/users/caep010/software/Gaussian09/g09/l202.exe)
                          Input orientation:                          
 ---------------------------------------------------------------------
 Center     Atomic      Atomic             Coordinates (Angstroms)
 Number     Number       Type             X           Y           Z
 ---------------------------------------------------------------------
      1          7           0        5.917800    2.732700    0.486500
      2          8           0        5.556500    1.656000    0.056200
      3          8           0        5.556500    3.809500    0.056200
      4          7           0        6.878000    2.732700    1.467600
      5          6           0        6.955600    1.510700    2.246800
      6          6           0        6.955600    3.954800    2.246800
      7          6           0        8.238300    1.496500    3.052400
      8          6           0        8.238300    3.969000    3.052400
      9          7           0        8.330500    2.732700    3.817000
     10          7           0        9.255500    2.732700    4.824100
     11          1           0        6.933800    0.743300    1.653900
     12          1           0        6.933800    4.722200    1.653900
     13          1           0        6.194200    1.453800    2.843500
     14          1           0        6.194200    4.011700    2.843500
     15          1           0        8.240800    0.735700    3.653400
     16          1           0        8.240800    4.729800    3.653400
     17          1           0        8.999700    1.418800    2.457900
     18          1           0        8.999700    4.046700    2.457900
     19          8           0        9.620500    1.650600    5.271200
     20          8           0        9.620500    3.814900    5.271200
 ---------------------------------------------------------------------
                    Distance matrix (angstroms):
                    1          2          3          4          5
     1  N    0.000000
     2  O    1.214487   0.000000
     3  O    1.214576   2.153500   0.000000
     4  N    1.372786   2.213074   2.213122   0.000000
     5  C    2.380960   2.603329   3.469970   1.451364   0.000000
     6  C    2.381011   3.469970   2.603329   1.451449   2.444100
     7  C    3.673793   4.024265   4.638883   2.426973   1.514765
     8  C    3.673826   4.638883   4.024265   2.427024   2.887482
     9  N    4.112585   4.795620   4.795643   2.762143   2.418504
    10  N    5.473117   6.129825   6.129843   4.113222   3.664055
    11  H    2.520474   2.298395   3.721718   1.998883   0.970004
    12  H    2.520553   3.721718   2.298395   1.998983   3.265844
    13  H    2.695817   2.866459   3.704730   1.999067   0.969030
    14  H    2.695865   3.704730   2.866459   1.999131   2.681563
    15  H    4.406086   4.581732   5.439996   3.259287   2.056912
    16  H    4.406131   5.439996   4.581732   3.259349   3.740704
    17  H    3.887269   4.204766   4.831070   2.684891   2.057025
    18  H    3.887303   4.831070   4.204766   2.684940   3.264078
    19  O    6.146079   6.611532   6.955082   4.812444   4.033393
    20  O    6.146096   6.955082   6.611532   4.812467   4.643062
                    6          7          8          9         10
     6  C    0.000000
     7  C    2.887482   0.000000
     8  C    1.514765   2.472500   0.000000
     9  N    2.418555   1.456470   1.456555   0.000000
    10  N    3.664088   2.387846   2.387897   1.367434   0.000000
    11  H    3.265844   2.055440   3.750022   3.253842   4.404336
    12  H    0.970004   3.750022   2.055440   3.253903   4.404381
    13  H    2.681563   2.055190   3.247802   2.673400   3.863925
    14  H    0.969030   3.247802   2.055190   2.673447   3.863958
    15  H    3.740704   0.969548   3.288683   2.005697   2.527482
    16  H    2.056912   3.288683   0.969548   2.005796   2.527561
    17  H    3.264078   0.969122   2.727028   2.005322   2.718579
    18  H    2.057025   2.727028   0.969122   2.005387   2.718627
    19  O    4.643062   2.618644   3.494071   2.224801   1.226403
    20  O    4.033393   3.494071   2.618644   2.224849   1.226491
                   11         12         13         14         15
    11  H    0.000000
    12  H    3.978900   0.000000
    13  H    1.570658   3.555924   0.000000
    14  H    3.555924   1.570658   2.557900   0.000000
    15  H    2.388788   4.647411   2.315206   3.946731   0.000000
    16  H    4.647411   2.388788   3.946731   2.315206   3.994100
    17  H    2.317468   3.978292   2.832092   3.839616   1.572188
    18  H    3.978292   2.317468   3.839616   2.832092   3.601093
    19  O    4.596347   5.453251   4.203807   4.817474   2.314712
    20  O    5.453251   4.596347   4.817474   4.203807   3.741968
                   16         17         18         19         20
    16  H    0.000000
    17  H    3.601093   0.000000
    18  H    1.572188   2.627900   0.000000
    19  O    3.741968   2.890291   3.747178   0.000000
    20  O    2.314712   3.747178   2.890291   2.164300   0.000000
 Stoichiometry    C4H8N4O4
 Framework group  C1[X(C4H8N4O4)]
 Deg. of freedom    54
 Full point group                 C1      NOp   1
 Largest Abelian subgroup         C1      NOp   1
 Largest concise Abelian subgroup C1      NOp   1
                         Standard orientation:                         
 ---------------------------------------------------------------------
 Center     Atomic      Atomic             Coordinates (Angstroms)
 Number     Number       Type             X           Y           Z
 ---------------------------------------------------------------------
      1          7           0        2.739676   -0.000035    0.032891
      2          8           0        3.301315   -1.076735    0.016859
      3          8           0        3.301315    1.076765    0.016859
      4          7           0        1.374410   -0.000035    0.176384
      5          6           0        0.715431   -1.222035   -0.246608
      6          6           0        0.715431    1.222065   -0.246608
      7          6           0       -0.712511   -1.236235    0.258655
      8          6           0       -0.712511    1.236265    0.258655
      9          7           0       -1.369110   -0.000035   -0.143826
     10          7           0       -2.732901   -0.000035   -0.044070
     11          1           0        1.193727   -1.989435    0.104446
     12          1           0        1.193727    1.989465    0.104447
     13          1           0        0.720461   -1.278935   -1.213953
     14          1           0        0.720461    1.278965   -1.213952
     15          1           0       -1.185172   -1.997035   -0.112558
     16          1           0       -1.185172    1.997065   -0.112557
     17          1           0       -0.719266   -1.313935    1.224634
     18          1           0       -0.719266    1.313965    1.224634
     19          8           0       -3.310007   -1.082135   -0.035569
     20          8           0       -3.310007    1.082165   -0.035569
 ---------------------------------------------------------------------
 Rotational constants (GHZ):      2.8111036      0.5035128      0.4343023
 Leave Link  202 at Fri Aug 20 15:54:57 2021, MaxMem= 24159191040 cpu:         0.5
 (Enter /public/home/users/caep010/software/Gaussian09/g09/l301.exe)
 Standard basis: 6-31G(d,p) (6D, 7F)
 Ernie: Thresh=  0.10000D-02 Tol=  0.10000D-05 Strict=F.
 There are   220 symmetry adapted cartesian basis functions of A   symmetry.
 There are   220 symmetry adapted basis functions of A   symmetry.
   220 basis functions,   392 primitive gaussians,   220 cartesian basis functions
    46 alpha electrons       46 beta electrons
       nuclear repulsion energy       778.7333520988 Hartrees.
 IExCor=  402 DFT=T Ex+Corr=B3LYP ExCW=0 ScaHFX=  0.200000
 ScaDFX=  0.800000  0.720000  1.000000  0.810000 ScalE2=  1.000000  1.000000
 IRadAn=      0 IRanWt=     -1 IRanGd=            0 ICorTp=0 IEmpDi=  4
 NAtoms=   20 NActive=   20 NUniq=   20 SFac= 1.00D+00 NAtFMM=   60 NAOKFM=F Big=F
 Integral buffers will be    131072 words long.
 Raffenetti 2 integral format.
 Two-electron integral symmetry is turned on.
 Leave Link  301 at Fri Aug 20 15:54:58 2021, MaxMem= 24159191040 cpu:         1.9
 (Enter /public/home/users/caep010/software/Gaussian09/g09/l302.exe)
 NPDir=0 NMtPBC=     1 NCelOv=     1 NCel=       1 NClECP=     1 NCelD=      1
         NCelK=      1 NCelE2=     1 NClLst=     1 CellRange=     0.0.
 One-electron integrals computed using PRISM.
 NBasis=   220 RedAO= T EigKep=  1.94D-03  NBF=   220
 NBsUse=   220 1.00D-06 EigRej= -1.00D+00 NBFU=   220
 Precomputing XC quadrature grid using
 IXCGrd= 4 IRadAn=           0 IRanWt=          -1 IRanGd=           0 AccXCQ= 0.00D+00.
 Generated NRdTot=       0 NPtTot=           0 NUsed=           0 NTot=          32
 NSgBfM=   218   218   218   218   218 MxSgAt=    20 MxSgA2=    20.
 Leave Link  302 at Fri Aug 20 15:54:58 2021, MaxMem= 24159191040 cpu:        17.7
 (Enter /public/home/users/caep010/software/Gaussian09/g09/l303.exe)
 DipDrv:  MaxL=1.
 Leave Link  303 at Fri Aug 20 15:54:58 2021, MaxMem= 24159191040 cpu:         1.6
 (Enter /public/home/users/caep010/software/Gaussian09/g09/l401.exe)
 ExpMin= 1.61D-01 ExpMax= 5.48D+03 ExpMxC= 8.25D+02 IAcc=1 IRadAn=         1 AccDes= 0.00D+00
 Harris functional with IExCor=  402 and IRadAn=       1 diagonalized for initial guess.
 HarFok:  IExCor=  402 AccDes= 0.00D+00 IRadAn=         1 IDoV= 1 UseB2=F ITyADJ=14
 ICtDFT=  3500011 ScaDFX=  1.000000  1.000000  1.000000  1.000000
 FoFCou: FMM=F IPFlag=           0 FMFlag=      100000 FMFlg1=           0
         NFxFlg=           0 DoJE=T BraDBF=F KetDBF=T FulRan=T
         wScrn=  0.000000 ICntrl=     500 IOpCl=  0 I1Cent=   200000004 NGrid=           0
         NMat0=    1 NMatS0=      1 NMatT0=    0 NMatD0=    1 NMtDS0=    0 NMtDT0=    0
 Petite list used in FoFCou.
 Harris En= -676.933488844036    
 JPrj=0 DoOrth=F DoCkMO=F.
 Leave Link  401 at Fri Aug 20 15:54:59 2021, MaxMem= 24159191040 cpu:        11.6
 (Enter /public/home/users/caep010/software/Gaussian09/g09/l502.exe)
 Closed shell SCF:
 Using DIIS extrapolation, IDIIS=  1040.
 Integral symmetry usage will be decided dynamically.
 Keep R1 ints in memory in canonical form, NReq=301069467.
 IVT=      172442 IEndB=      172442 NGot= 24159191040 MDV= 23863518394
 LenX= 23863518394 LenY= 23863469553
 Requested convergence on RMS density matrix=1.00D-08 within 128 cycles.
 Requested convergence on MAX density matrix=1.00D-06.
 Requested convergence on             energy=1.00D-06.
 No special actions if energy rises.
 FoFCou: FMM=F IPFlag=           0 FMFlag=           0 FMFlg1=           0
         NFxFlg=           0 DoJE=F BraDBF=F KetDBF=F FulRan=T
         wScrn=  0.000000 ICntrl=     600 IOpCl=  0 I1Cent=           0 NGrid=           0
         NMat0=    1 NMatS0=  24310 NMatT0=    0 NMatD0=    1 NMtDS0=    0 NMtDT0=    0
 Symmetry not used in FoFCou.
 Integral accuracy reduced to 1.0D-05 until final iterations.

 Cycle   1  Pass 0  IDiag  1:
 E= -676.318442203412    
 DIIS: error= 6.43D-02 at cycle   1 NSaved=   1.
 NSaved= 1 IEnMin= 1 EnMin= -676.318442203412     IErMin= 1 ErrMin= 6.43D-02
 ErrMax= 6.43D-02  0.00D+00 EMaxC= 1.00D-01 BMatC= 6.62D-01 BMatP= 6.62D-01
 IDIUse=3 WtCom= 3.57D-01 WtEn= 6.43D-01
 Coeff-Com:  0.100D+01
 Coeff-En:   0.100D+01
 Coeff:      0.100D+01
 Gap=     0.181 Goal=   None    Shift=    0.000
 GapD=    0.181 DampG=1.000 DampE=0.500 DampFc=0.5000 IDamp=-1.
 Damping current iteration by 5.00D-01
 RMSDP=7.23D-03 MaxDP=2.83D-01              OVMax= 3.24D-01

 Cycle   2  Pass 0  IDiag  1:
 E= -676.386366134433     Delta-E=       -0.067923931022 Rises=F Damp=T
 DIIS: error= 2.38D-02 at cycle   2 NSaved=   2.
 NSaved= 2 IEnMin= 2 EnMin= -676.386366134433     IErMin= 2 ErrMin= 2.38D-02
 ErrMax= 2.38D-02  0.00D+00 EMaxC= 1.00D-01 BMatC= 1.52D-01 BMatP= 6.62D-01
 IDIUse=3 WtCom= 7.62D-01 WtEn= 2.38D-01
 Coeff-Com:  0.296D+00 0.704D+00
 Coeff-En:   0.442D+00 0.558D+00
 Coeff:      0.331D+00 0.669D+00
 Gap=     0.213 Goal=   None    Shift=    0.000
 RMSDP=2.10D-03 MaxDP=7.54D-02 DE=-6.79D-02 OVMax= 2.04D-01

 Cycle   3  Pass 0  IDiag  1:
 E= -676.793028574058     Delta-E=       -0.406662439625 Rises=F Damp=F
 DIIS: error= 1.11D-02 at cycle   3 NSaved=   3.
 NSaved= 3 IEnMin= 3 EnMin= -676.793028574058     IErMin= 3 ErrMin= 1.11D-02
 ErrMax= 1.11D-02  0.00D+00 EMaxC= 1.00D-01 BMatC= 2.79D-02 BMatP= 1.52D-01
 IDIUse=3 WtCom= 8.89D-01 WtEn= 1.11D-01
 Coeff-Com:  0.129D+00 0.305D+00 0.566D+00
 Coeff-En:   0.000D+00 0.000D+00 0.100D+01
 Coeff:      0.114D+00 0.271D+00 0.615D+00
 Gap=     0.254 Goal=   None    Shift=    0.000
 RMSDP=1.30D-03 MaxDP=4.48D-02 DE=-4.07D-01 OVMax= 7.97D-02

 Cycle   4  Pass 0  IDiag  1:
 E= -676.807600528233     Delta-E=       -0.014571954175 Rises=F Damp=F
 DIIS: error= 6.81D-03 at cycle   4 NSaved=   4.
 NSaved= 4 IEnMin= 4 EnMin= -676.807600528233     IErMin= 4 ErrMin= 6.81D-03
 ErrMax= 6.81D-03  0.00D+00 EMaxC= 1.00D-01 BMatC= 1.43D-02 BMatP= 2.79D-02
 IDIUse=3 WtCom= 9.32D-01 WtEn= 6.81D-02
 Coeff-Com:  0.454D-01 0.858D-01 0.404D+00 0.465D+00
 Coeff-En:   0.000D+00 0.000D+00 0.338D+00 0.662D+00
 Coeff:      0.423D-01 0.800D-01 0.400D+00 0.478D+00
 Gap=     0.236 Goal=   None    Shift=    0.000
 RMSDP=6.14D-04 MaxDP=2.03D-02 DE=-1.46D-02 OVMax= 3.84D-02

 Cycle   5  Pass 0  IDiag  1:
 E= -676.819785880672     Delta-E=       -0.012185352439 Rises=F Damp=F
 DIIS: error= 1.02D-03 at cycle   5 NSaved=   5.
 NSaved= 5 IEnMin= 5 EnMin= -676.819785880672     IErMin= 5 ErrMin= 1.02D-03
 ErrMax= 1.02D-03  0.00D+00 EMaxC= 1.00D-01 BMatC= 5.06D-04 BMatP= 1.43D-02
 IDIUse=3 WtCom= 9.90D-01 WtEn= 1.02D-02
 Coeff-Com:  0.720D-02 0.452D-02 0.123D+00 0.222D+00 0.643D+00
 Coeff-En:   0.000D+00 0.000D+00 0.000D+00 0.000D+00 0.100D+01
 Coeff:      0.713D-02 0.447D-02 0.122D+00 0.220D+00 0.647D+00
 Gap=     0.237 Goal=   None    Shift=    0.000
 RMSDP=9.59D-05 MaxDP=3.96D-03 DE=-1.22D-02 OVMax= 5.58D-03

 Cycle   6  Pass 0  IDiag  1:
 E= -676.820162056628     Delta-E=       -0.000376175956 Rises=F Damp=F
 DIIS: error= 2.95D-04 at cycle   6 NSaved=   6.
 NSaved= 6 IEnMin= 6 EnMin= -676.820162056628     IErMin= 6 ErrMin= 2.95D-04
 ErrMax= 2.95D-04  0.00D+00 EMaxC= 1.00D-01 BMatC= 4.37D-05 BMatP= 5.06D-04
 IDIUse=3 WtCom= 9.97D-01 WtEn= 2.95D-03
 Coeff-Com:  0.987D-03-0.259D-02 0.383D-01 0.799D-01 0.328D+00 0.556D+00
 Coeff-En:   0.000D+00 0.000D+00 0.000D+00 0.000D+00 0.000D+00 0.100D+01
 Coeff:      0.984D-03-0.258D-02 0.382D-01 0.797D-01 0.327D+00 0.557D+00
 Gap=     0.236 Goal=   None    Shift=    0.000
 RMSDP=2.61D-05 MaxDP=1.19D-03 DE=-3.76D-04 OVMax= 1.00D-03

 Cycle   7  Pass 0  IDiag  1:
 E= -676.820194396615     Delta-E=       -0.000032339987 Rises=F Damp=F
 DIIS: error= 8.49D-05 at cycle   7 NSaved=   7.
 NSaved= 7 IEnMin= 7 EnMin= -676.820194396615     IErMin= 7 ErrMin= 8.49D-05
 ErrMax= 8.49D-05  0.00D+00 EMaxC= 1.00D-01 BMatC= 2.22D-06 BMatP= 4.37D-05
 IDIUse=1 WtCom= 1.00D+00 WtEn= 0.00D+00
 Coeff-Com:  0.494D-04-0.162D-02 0.112D-01 0.242D-01 0.124D+00 0.265D+00
 Coeff-Com:  0.577D+00
 Coeff:      0.494D-04-0.162D-02 0.112D-01 0.242D-01 0.124D+00 0.265D+00
 Coeff:      0.577D+00
 Gap=     0.236 Goal=   None    Shift=    0.000
 RMSDP=8.79D-06 MaxDP=3.09D-04 DE=-3.23D-05 OVMax= 4.51D-04

 Initial convergence to 1.0D-05 achieved.  Increase integral accuracy.
 Cycle   8  Pass 1  IDiag  1:
 E= -676.820009481983     Delta-E=        0.000184914632 Rises=F Damp=F
 DIIS: error= 7.56D-05 at cycle   1 NSaved=   1.
 NSaved= 1 IEnMin= 1 EnMin= -676.820009481983     IErMin= 1 ErrMin= 7.56D-05
 ErrMax= 7.56D-05  0.00D+00 EMaxC= 1.00D-01 BMatC= 9.77D-07 BMatP= 9.77D-07
 IDIUse=1 WtCom= 1.00D+00 WtEn= 0.00D+00
 Coeff-Com:  0.100D+01
 Coeff:      0.100D+01
 Gap=     0.236 Goal=   None    Shift=    0.000
 RMSDP=8.79D-06 MaxDP=3.09D-04 DE= 1.85D-04 OVMax= 5.28D-04

 Cycle   9  Pass 1  IDiag  1:
 E= -676.820008206043     Delta-E=        0.000001275940 Rises=F Damp=F
 DIIS: error= 8.24D-05 at cycle   2 NSaved=   2.
 NSaved= 2 IEnMin= 1 EnMin= -676.820009481983     IErMin= 1 ErrMin= 7.56D-05
 ErrMax= 8.24D-05  0.00D+00 EMaxC= 1.00D-01 BMatC= 2.85D-06 BMatP= 9.77D-07
 IDIUse=1 WtCom= 1.00D+00 WtEn= 0.00D+00
 Coeff-Com:  0.646D+00 0.354D+00
 Coeff:      0.646D+00 0.354D+00
 Gap=     0.236 Goal=   None    Shift=    0.000
 RMSDP=7.18D-06 MaxDP=3.00D-04 DE= 1.28D-06 OVMax= 3.91D-04

 Cycle  10  Pass 1  IDiag  1:
 E= -676.820010331722     Delta-E=       -0.000002125679 Rises=F Damp=F
 DIIS: error= 1.68D-05 at cycle   3 NSaved=   3.
 NSaved= 3 IEnMin= 3 EnMin= -676.820010331722     IErMin= 3 ErrMin= 1.68D-05
 ErrMax= 1.68D-05  0.00D+00 EMaxC= 1.00D-01 BMatC= 7.60D-08 BMatP= 9.77D-07
 IDIUse=1 WtCom= 1.00D+00 WtEn= 0.00D+00
 Coeff-Com:  0.797D-01 0.146D+00 0.775D+00
 Coeff:      0.797D-01 0.146D+00 0.775D+00
 Gap=     0.236 Goal=   None    Shift=    0.000
 RMSDP=1.74D-06 MaxDP=8.22D-05 DE=-2.13D-06 OVMax= 1.55D-04

 Cycle  11  Pass 1  IDiag  1:
 E= -676.820010340097     Delta-E=       -0.000000008375 Rises=F Damp=F
 DIIS: error= 1.98D-05 at cycle   4 NSaved=   4.
 NSaved= 4 IEnMin= 4 EnMin= -676.820010340097     IErMin= 3 ErrMin= 1.68D-05
 ErrMax= 1.98D-05  0.00D+00 EMaxC= 1.00D-01 BMatC= 6.39D-08 BMatP= 7.60D-08
 IDIUse=1 WtCom= 1.00D+00 WtEn= 0.00D+00
 Coeff-Com: -0.118D-02 0.759D-01 0.577D+00 0.349D+00
 Coeff:     -0.118D-02 0.759D-01 0.577D+00 0.349D+00
 Gap=     0.236 Goal=   None    Shift=    0.000
 RMSDP=1.05D-06 MaxDP=5.06D-05 DE=-8.37D-09 OVMax= 9.71D-05

 Cycle  12  Pass 1  IDiag  1:
 E= -676.820010388720     Delta-E=       -0.000000048623 Rises=F Damp=F
 DIIS: error= 2.90D-06 at cycle   5 NSaved=   5.
 NSaved= 5 IEnMin= 5 EnMin= -676.820010388720     IErMin= 5 ErrMin= 2.90D-06
 ErrMax= 2.90D-06  0.00D+00 EMaxC= 1.00D-01 BMatC= 2.11D-09 BMatP= 6.39D-08
 IDIUse=1 WtCom= 1.00D+00 WtEn= 0.00D+00
 Coeff-Com: -0.862D-02 0.292D-01 0.251D+00 0.204D+00 0.524D+00
 Coeff:     -0.862D-02 0.292D-01 0.251D+00 0.204D+00 0.524D+00
 Gap=     0.236 Goal=   None    Shift=    0.000
 RMSDP=1.98D-07 MaxDP=8.25D-06 DE=-4.86D-08 OVMax= 1.37D-05

 Cycle  13  Pass 1  IDiag  1:
 E= -676.820010390302     Delta-E=       -0.000000001582 Rises=F Damp=F
 DIIS: error= 4.52D-07 at cycle   6 NSaved=   6.
 NSaved= 6 IEnMin= 6 EnMin= -676.820010390302     IErMin= 6 ErrMin= 4.52D-07
 ErrMax= 4.52D-07  0.00D+00 EMaxC= 1.00D-01 BMatC= 1.00D-10 BMatP= 2.11D-09
 IDIUse=1 WtCom= 1.00D+00 WtEn= 0.00D+00
 Coeff-Com: -0.440D-02 0.117D-01 0.103D+00 0.902D-01 0.277D+00 0.523D+00
 Coeff:     -0.440D-02 0.117D-01 0.103D+00 0.902D-01 0.277D+00 0.523D+00
 Gap=     0.236 Goal=   None    Shift=    0.000
 RMSDP=4.69D-08 MaxDP=1.81D-06 DE=-1.58D-09 OVMax= 1.87D-06

 Cycle  14  Pass 1  IDiag  1:
 E= -676.820010390365     Delta-E=       -0.000000000063 Rises=F Damp=F
 DIIS: error= 1.84D-07 at cycle   7 NSaved=   7.
 NSaved= 7 IEnMin= 7 EnMin= -676.820010390365     IErMin= 7 ErrMin= 1.84D-07
 ErrMax= 1.84D-07  0.00D+00 EMaxC= 1.00D-01 BMatC= 1.29D-11 BMatP= 1.00D-10
 IDIUse=1 WtCom= 1.00D+00 WtEn= 0.00D+00
 Coeff-Com: -0.166D-02 0.395D-02 0.341D-01 0.304D-01 0.987D-01 0.284D+00
 Coeff-Com:  0.550D+00
 Coeff:     -0.166D-02 0.395D-02 0.341D-01 0.304D-01 0.987D-01 0.284D+00
 Coeff:      0.550D+00
 Gap=     0.236 Goal=   None    Shift=    0.000
 RMSDP=2.05D-08 MaxDP=8.35D-07 DE=-6.34D-11 OVMax= 1.31D-06

 Cycle  15  Pass 1  IDiag  1:
 E= -676.820010390374     Delta-E=       -0.000000000008 Rises=F Damp=F
 DIIS: error= 1.11D-07 at cycle   8 NSaved=   8.
 NSaved= 8 IEnMin= 8 EnMin= -676.820010390374     IErMin= 8 ErrMin= 1.11D-07
 ErrMax= 1.11D-07  0.00D+00 EMaxC= 1.00D-01 BMatC= 3.90D-12 BMatP= 1.29D-11
 IDIUse=1 WtCom= 1.00D+00 WtEn= 0.00D+00
 Coeff-Com: -0.168D-03 0.132D-03 0.497D-03 0.842D-03 0.624D-02 0.751D-01
 Coeff-Com:  0.384D+00 0.534D+00
 Coeff:     -0.168D-03 0.132D-03 0.497D-03 0.842D-03 0.624D-02 0.751D-01
 Coeff:      0.384D+00 0.534D+00
 Gap=     0.236 Goal=   None    Shift=    0.000
 RMSDP=1.03D-08 MaxDP=3.78D-07 DE=-8.41D-12 OVMax= 4.81D-07

 Cycle  16  Pass 1  IDiag  1:
 E= -676.820010390387     Delta-E=       -0.000000000014 Rises=F Damp=F
 DIIS: error= 3.79D-08 at cycle   9 NSaved=   9.
 NSaved= 9 IEnMin= 9 EnMin= -676.820010390387     IErMin= 9 ErrMin= 3.79D-08
 ErrMax= 3.79D-08  0.00D+00 EMaxC= 1.00D-01 BMatC= 3.19D-13 BMatP= 3.90D-12
 IDIUse=1 WtCom= 1.00D+00 WtEn= 0.00D+00
 Coeff-Com:  0.135D-04-0.192D-03-0.206D-02-0.164D-02-0.350D-02 0.233D-01
 Coeff-Com:  0.198D+00 0.331D+00 0.455D+00
 Coeff:      0.135D-04-0.192D-03-0.206D-02-0.164D-02-0.350D-02 0.233D-01
 Coeff:      0.198D+00 0.331D+00 0.455D+00
 Gap=     0.236 Goal=   None    Shift=    0.000
 RMSDP=2.74D-09 MaxDP=1.18D-07 DE=-1.39D-11 OVMax= 2.34D-07

 SCF Done:  E(RB3LYP) =  -676.820010390     A.U. after   16 cycles
            NFock= 16  Conv=0.27D-08     -V/T= 2.0058
 KE= 6.729432674459D+02 PE=-3.140401842488D+03 EE= 1.011905212553D+03
 Leave Link  502 at Fri Aug 20 15:55:10 2021, MaxMem= 24159191040 cpu:       116.9
 (Enter /public/home/users/caep010/software/Gaussian09/g09/l601.exe)
 Copying SCF densities to generalized density rwf, IOpCl= 0 IROHF=0.

 **********************************************************************

            Population analysis using the SCF density.

 **********************************************************************

 Orbital symmetries:
       Occupied  (A) (A) (A) (A) (A) (A) (A) (A) (A) (A) (A) (A)
                 (A) (A) (A) (A) (A) (A) (A) (A) (A) (A) (A) (A)
                 (A) (A) (A) (A) (A) (A) (A) (A) (A) (A) (A) (A)
                 (A) (A) (A) (A) (A) (A) (A) (A) (A) (A)
       Virtual   (A) (A) (A) (A) (A) (A) (A) (A) (A) (A) (A) (A)
                 (A) (A) (A) (A) (A) (A) (A) (A) (A) (A) (A) (A)
                 (A) (A) (A) (A) (A) (A) (A) (A) (A) (A) (A) (A)
                 (A) (A) (A) (A) (A) (A) (A) (A) (A) (A) (A) (A)
                 (A) (A) (A) (A) (A) (A) (A) (A) (A) (A) (A) (A)
                 (A) (A) (A) (A) (A) (A) (A) (A) (A) (A) (A) (A)
                 (A) (A) (A) (A) (A) (A) (A) (A) (A) (A) (A) (A)
                 (A) (A) (A) (A) (A) (A) (A) (A) (A) (A) (A) (A)
                 (A) (A) (A) (A) (A) (A) (A) (A) (A) (A) (A) (A)
                 (A) (A) (A) (A) (A) (A) (A) (A) (A) (A) (A) (A)
                 (A) (A) (A) (A) (A) (A) (A) (A) (A) (A) (A) (A)
                 (A) (A) (A) (A) (A) (A) (A) (A) (A) (A) (A) (A)
                 (A) (A) (A) (A) (A) (A) (A) (A) (A) (A) (A) (A)
                 (A) (A) (A) (A) (A) (A) (A) (A) (A) (A) (A) (A)
                 (A) (A) (A) (A) (A) (A)
 The electronic state is 1-A.
 Alpha  occ. eigenvalues --  -19.18726 -19.18723 -19.18432 -19.18429 -14.61069
 Alpha  occ. eigenvalues --  -14.60774 -14.43013 -14.42774 -10.23973 -10.23972
 Alpha  occ. eigenvalues --  -10.23813 -10.23812  -1.26724  -1.25585  -1.07853
 Alpha  occ. eigenvalues --   -1.06637  -1.02851  -0.99280  -0.84843  -0.83083
 Alpha  occ. eigenvalues --   -0.73301  -0.73068  -0.65937  -0.61882  -0.58293
 Alpha  occ. eigenvalues --   -0.57358  -0.56970  -0.56061  -0.55010  -0.54745
 Alpha  occ. eigenvalues --   -0.52418  -0.51548  -0.48770  -0.47406  -0.46130
 Alpha  occ. eigenvalues --   -0.43840  -0.43451  -0.42121  -0.34089  -0.33580
 Alpha  occ. eigenvalues --   -0.32183  -0.31671  -0.30443  -0.30225  -0.29352
 Alpha  occ. eigenvalues --   -0.29307
 Alpha virt. eigenvalues --   -0.05668  -0.05580   0.08706   0.10035   0.10826
 Alpha virt. eigenvalues --    0.11925   0.12823   0.14459   0.15576   0.15758
 Alpha virt. eigenvalues --    0.17116   0.18239   0.18821   0.20461   0.21130
 Alpha virt. eigenvalues --    0.21817   0.21926   0.22213   0.28928   0.31982
 Alpha virt. eigenvalues --    0.35125   0.37261   0.46907   0.48897   0.49145
 Alpha virt. eigenvalues --    0.50211   0.50747   0.51392   0.52000   0.55052
 Alpha virt. eigenvalues --    0.57109   0.62519   0.63025   0.66795   0.67651
 Alpha virt. eigenvalues --    0.69593   0.71218   0.72641   0.74544   0.75618
 Alpha virt. eigenvalues --    0.78999   0.80087   0.80339   0.82168   0.83718
 Alpha virt. eigenvalues --    0.84358   0.84843   0.86156   0.86463   0.89581
 Alpha virt. eigenvalues --    0.94690   0.95032   0.95572   0.95624   0.97727
 Alpha virt. eigenvalues --    0.97894   0.98162   1.00140   1.00655   1.01537
 Alpha virt. eigenvalues --    1.02519   1.04256   1.04815   1.06870   1.06989
 Alpha virt. eigenvalues --    1.13302   1.15912   1.20872   1.25296   1.25324
 Alpha virt. eigenvalues --    1.27457   1.29051   1.31311   1.34905   1.38800
 Alpha virt. eigenvalues --    1.43931   1.44591   1.46305   1.48424   1.57500
 Alpha virt. eigenvalues --    1.61152   1.63226   1.65092   1.66050   1.70639
 Alpha virt. eigenvalues --    1.71298   1.71950   1.73231   1.74359   1.75223
 Alpha virt. eigenvalues --    1.75652   1.79864   1.81008   1.81802   1.82992
 Alpha virt. eigenvalues --    1.84894   1.87157   1.87468   1.89490   1.97340
 Alpha virt. eigenvalues --    1.98776   1.99923   2.00065   2.00520   2.02589
 Alpha virt. eigenvalues --    2.04986   2.07789   2.08507   2.09069   2.09693
 Alpha virt. eigenvalues --    2.11828   2.17187   2.17481   2.19788   2.27064
 Alpha virt. eigenvalues --    2.27433   2.29236   2.32332   2.33202   2.34350
 Alpha virt. eigenvalues --    2.34871   2.38930   2.42404   2.42825   2.45431
 Alpha virt. eigenvalues --    2.53125   2.55070   2.57475   2.60258   2.60517
 Alpha virt. eigenvalues --    2.63865   2.64359   2.67428   2.72162   2.74082
 Alpha virt. eigenvalues --    2.75875   2.79409   2.83846   2.85348   2.86688
 Alpha virt. eigenvalues --    2.87156   2.87604   2.89010   2.91648   2.98328
 Alpha virt. eigenvalues --    3.02479   3.03734   3.04590   3.05749   3.08738
 Alpha virt. eigenvalues --    3.18342   3.19442   3.20145   3.23176   3.54529
 Alpha virt. eigenvalues --    3.60625   3.62355   3.65739   3.70280   3.71319
 Alpha virt. eigenvalues --    3.73928   3.74548   3.76840   3.77509   3.78100
 Alpha virt. eigenvalues --    3.81972   3.94359   3.96983   4.05736   4.15774
 Alpha virt. eigenvalues --    4.36484   4.44609   4.66050   4.67263
          Condensed to atoms (all electrons):
               1          2          3          4          5          6
     1  N    5.537599   0.344246   0.344215   0.187638  -0.035289  -0.035286
     2  O    0.344246   8.276751  -0.100078  -0.127234   0.001910   0.005002
     3  O    0.344215  -0.100078   8.276811  -0.127223   0.005002   0.001908
     4  N    0.187638  -0.127234  -0.127223   7.158067   0.256935   0.256938
     5  C   -0.035289   0.001910   0.005002   0.256935   4.822606  -0.053479
     6  C   -0.035286   0.005002   0.001908   0.256938  -0.053479   4.822624
     7  C    0.003119   0.000834  -0.000126  -0.035938   0.346086  -0.008418
     8  C    0.003119  -0.000126   0.000834  -0.035935  -0.008417   0.346066
     9  N    0.000064  -0.000014  -0.000014  -0.011196  -0.037477  -0.037473
    10  N    0.000005   0.000000   0.000000   0.000063   0.003283   0.003283
    11  H   -0.007090   0.017893   0.000283  -0.029275   0.392705   0.005759
    12  H   -0.007087   0.000283   0.017892  -0.029266   0.005758   0.392705
    13  H   -0.003859   0.002055   0.000215  -0.052951   0.394075  -0.002759
    14  H   -0.003859   0.000215   0.002055  -0.052945  -0.002757   0.394076
    15  H   -0.000065  -0.000005   0.000001   0.003379  -0.019562  -0.000262
    16  H   -0.000065   0.000001  -0.000005   0.003378  -0.000262  -0.019564
    17  H   -0.000121   0.000012  -0.000003  -0.001696  -0.041832  -0.000573
    18  H   -0.000121  -0.000003   0.000012  -0.001696  -0.000573  -0.041831
    19  O    0.000000  -0.000000  -0.000000  -0.000013   0.000844  -0.000117
    20  O    0.000000  -0.000000  -0.000000  -0.000013  -0.000117   0.000844
               7          8          9         10         11         12
     1  N    0.003119   0.003119   0.000064   0.000005  -0.007090  -0.007087
     2  O    0.000834  -0.000126  -0.000014   0.000000   0.017893   0.000283
     3  O   -0.000126   0.000834  -0.000014   0.000000   0.000283   0.017892
     4  N   -0.035938  -0.035935  -0.011196   0.000063  -0.029275  -0.029266
     5  C    0.346086  -0.008417  -0.037477   0.003283   0.392705   0.005758
     6  C   -0.008418   0.346066  -0.037473   0.003283   0.005759   0.392705
     7  C    4.811933  -0.051695   0.257504  -0.034572  -0.020060  -0.000231
     8  C   -0.051695   4.811952   0.257505  -0.034569  -0.000231  -0.020062
     9  N    0.257504   0.257505   7.151265   0.182555   0.003458   0.003458
    10  N   -0.034572  -0.034569   0.182555   5.568584  -0.000067  -0.000067
    11  H   -0.020060  -0.000231   0.003458  -0.000067   0.524545  -0.000291
    12  H   -0.000231  -0.020062   0.003458  -0.000067  -0.000291   0.524526
    13  H   -0.041793  -0.000605  -0.001849  -0.000135  -0.038262  -0.000222
    14  H   -0.000605  -0.041793  -0.001849  -0.000135  -0.000222  -0.038260
    15  H    0.392732   0.005395  -0.029001  -0.006616  -0.002446   0.000007
    16  H    0.005394   0.392733  -0.028993  -0.006614   0.000007  -0.002445
    17  H    0.394386  -0.002122  -0.051388  -0.003639  -0.004149   0.000039
    18  H   -0.002120   0.394388  -0.051382  -0.003639   0.000039  -0.004150
    19  O    0.002821   0.004732  -0.122959   0.337502  -0.000005   0.000001
    20  O    0.004732   0.002819  -0.122948   0.337472   0.000001  -0.000005
              13         14         15         16         17         18
     1  N   -0.003859  -0.003859  -0.000065  -0.000065  -0.000121  -0.000121
     2  O    0.002055   0.000215  -0.000005   0.000001   0.000012  -0.000003
     3  O    0.000215   0.002055   0.000001  -0.000005  -0.000003   0.000012
     4  N   -0.052951  -0.052945   0.003379   0.003378  -0.001696  -0.001696
     5  C    0.394075  -0.002757  -0.019562  -0.000262  -0.041832  -0.000573
     6  C   -0.002759   0.394076  -0.000262  -0.019564  -0.000573  -0.041831
     7  C   -0.041793  -0.000605   0.392732   0.005394   0.394386  -0.002120
     8  C   -0.000605  -0.041793   0.005395   0.392733  -0.002122   0.394388
     9  N   -0.001849  -0.001849  -0.029001  -0.028993  -0.051388  -0.051382
    10  N   -0.000135  -0.000135  -0.006616  -0.006614  -0.003639  -0.003639
    11  H   -0.038262  -0.000222  -0.002446   0.000007  -0.004149   0.000039
    12  H   -0.000222  -0.038260   0.000007  -0.002445   0.000039  -0.004150
    13  H    0.594964   0.008537  -0.004149   0.000037   0.008866   0.000460
    14  H    0.008537   0.594946   0.000037  -0.004149   0.000460   0.008865
    15  H   -0.004149   0.000037   0.522618  -0.000261  -0.038148  -0.000243
    16  H    0.000037  -0.004149  -0.000261   0.522600  -0.000243  -0.038146
    17  H    0.008866   0.000460  -0.038148  -0.000243   0.591065   0.007422
    18  H    0.000460   0.008865  -0.000243  -0.038146   0.007422   0.591047
    19  O    0.000012  -0.000004   0.017671   0.000275   0.001965   0.000182
    20  O   -0.000004   0.000013   0.000275   0.017670   0.000183   0.001965
              19         20
     1  N    0.000000   0.000000
     2  O   -0.000000  -0.000000
     3  O   -0.000000  -0.000000
     4  N   -0.000013  -0.000013
     5  C    0.000844  -0.000117
     6  C   -0.000117   0.000844
     7  C    0.002821   0.004732
     8  C    0.004732   0.002819
     9  N   -0.122959  -0.122948
    10  N    0.337502   0.337472
    11  H   -0.000005   0.000001
    12  H    0.000001  -0.000005
    13  H    0.000012  -0.000004
    14  H   -0.000004   0.000013
    15  H    0.017671   0.000275
    16  H    0.000275   0.017670
    17  H    0.001965   0.000183
    18  H    0.000182   0.001965
    19  O    8.279004  -0.099240
    20  O   -0.099240   8.279062
 Mulliken charges:
               1
     1  N    0.672837
     2  O   -0.421742
     3  O   -0.421780
     4  N   -0.361016
     5  C   -0.029438
     6  C   -0.029443
     7  C   -0.023983
     8  C   -0.023988
     9  N   -0.359269
    10  N    0.657306
    11  H    0.157408
    12  H    0.157416
    13  H    0.137367
    14  H    0.137374
    15  H    0.158643
    16  H    0.158651
    17  H    0.139516
    18  H    0.139523
    19  O   -0.422671
    20  O   -0.422708
 Sum of Mulliken charges =  -0.00000
 Mulliken charges with hydrogens summed into heavy atoms:
               1
     1  N    0.672837
     2  O   -0.421742
     3  O   -0.421780
     4  N   -0.361016
     5  C    0.265337
     6  C    0.265347
     7  C    0.274175
     8  C    0.274185
     9  N   -0.359269
    10  N    0.657306
    19  O   -0.422671
    20  O   -0.422708
 Electronic spatial extent (au):  <R**2>=           2333.2066
 Charge=             -0.0000 electrons
 Dipole moment (field-independent basis, Debye):
    X=              0.2037    Y=             -0.0006    Z=              0.0242  Tot=              0.2052
 Quadrupole moment (field-independent basis, Debye-Ang):
   XX=           -102.3375   YY=            -65.7187   ZZ=            -64.6848
   XY=             -0.0000   XZ=             -1.6754   YZ=              0.0000
 Traceless Quadrupole moment (field-independent basis, Debye-Ang):
   XX=            -24.7572   YY=             11.8616   ZZ=             12.8956
   XY=             -0.0000   XZ=             -1.6754   YZ=              0.0000
 Octapole moment (field-independent basis, Debye-Ang**2):
  XXX=              3.6237  YYY=              0.0004  ZZZ=             -0.1107  XYY=              0.1896
  XXY=             -0.0081  XXZ=              0.5600  XZZ=              0.0826  YZZ=             -0.0003
  YYZ=              0.1424  XYZ=             -0.0002
 Hexadecapole moment (field-independent basis, Debye-Ang**3):
 XXXX=          -2633.9263 YYYY=           -445.1357 ZZZZ=            -85.5473 XXXY=             -0.0003
 XXXZ=              1.8547 YYYX=             -0.0001 YYYZ=              0.0000 ZZZX=             -1.5838
 ZZZY=              0.0000 XXYY=           -500.1256 XXZZ=           -355.2425 YYZZ=            -90.3396
 XXYZ=              0.0001 YYXZ=              0.8598 ZZXY=             -0.0000
 N-N= 7.787333520988D+02 E-N=-3.140401839389D+03  KE= 6.729432674459D+02
 No NMR shielding tensors so no spin-rotation constants.
 Leave Link  601 at Fri Aug 20 15:55:10 2021, MaxMem= 24159191040 cpu:        11.4
 (Enter /public/home/users/caep010/software/Gaussian09/g09/l701.exe)
 Compute integral first derivatives.
 ... and contract with generalized density number  0.
 Leave Link  701 at Fri Aug 20 15:55:11 2021, MaxMem= 24159191040 cpu:        10.8
 (Enter /public/home/users/caep010/software/Gaussian09/g09/l702.exe)
 L702 exits ... SP integral derivatives will be done elsewhere.
 Leave Link  702 at Fri Aug 20 15:55:11 2021, MaxMem= 24159191040 cpu:         0.5
 (Enter /public/home/users/caep010/software/Gaussian09/g09/l703.exe)
 Compute integral first derivatives, UseDBF=F ICtDFT=           0.
 Integral derivatives from FoFJK, PRISM(SPDF).
 Calling FoFJK, ICntrl=      2127 FMM=F ISym2X=0 I1Cent= 0 IOpClX= 0 NMat=1 NMatS=1 NMatT=0.
 FoFJK:  IHMeth= 1 ICntrl=    2127 DoSepK=F KAlg= 0 I1Cent=   0 FoldK=F
 IRaf=         0 NMat=   1 IRICut=       1 DoRegI=T DoRafI=F ISym2E= 0.
 FoFCou: FMM=F IPFlag=           0 FMFlag=      100000 FMFlg1=         800
         NFxFlg=           0 DoJE=F BraDBF=F KetDBF=F FulRan=T
         wScrn=  0.000000 ICntrl=    2127 IOpCl=  0 I1Cent=           0 NGrid=           0
         NMat0=    1 NMatS0=      1 NMatT0=    0 NMatD0=    1 NMtDS0=    0 NMtDT0=    0
 Symmetry not used in FoFCou.
 Leave Link  703 at Fri Aug 20 15:55:11 2021, MaxMem= 24159191040 cpu:        25.1
 (Enter /public/home/users/caep010/software/Gaussian09/g09/l716.exe)
 Dipole        = 8.01590218D-02-2.22505501D-04 9.51524490D-03
 ***** Axes restored to original set *****
 -------------------------------------------------------------------
 Center     Atomic                   Forces (Hartrees/Bohr)
 Number     Number              X              Y              Z
 -------------------------------------------------------------------
      1        7           0.003704233    0.000094743   -0.007723792
      2        8          -0.006916154   -0.024618769   -0.004239584
      3        8          -0.006883265    0.024522459   -0.004201358
      4        7           0.009794383    0.000048936    0.000299003
      5        6           0.083974970    0.081135240    0.000979274
      6        6           0.083977718   -0.081172881    0.000965117
      7        6          -0.082593505    0.089499697   -0.003079150
      8        6          -0.082595810   -0.089536517   -0.003066046
      9        7          -0.006363347    0.000047901    0.002521912
     10        7           0.009232238    0.000085414    0.018228065
     11        1           0.000156878   -0.087924166   -0.071570983
     12        1           0.000156212    0.087917834   -0.071576050
     13        1          -0.094503420   -0.006386742    0.075299918
     14        1          -0.094503820    0.006383377    0.075296618
     15        1          -0.002262434   -0.087027473    0.073395411
     16        1          -0.002261679    0.087021242    0.073400406
     17        1           0.094510159   -0.008662886   -0.074465836
     18        1           0.094510644    0.008659371   -0.074462603
     19        8          -0.000552471   -0.011838815   -0.002982712
     20        8          -0.000581532    0.011752033   -0.003017609
 -------------------------------------------------------------------
 Cartesian Forces:  Max     0.094510644 RMS     0.053113221
 Leave Link  716 at Fri Aug 20 15:55:12 2021, MaxMem= 24159191040 cpu:         0.7
 (Enter /public/home/users/caep010/software/Gaussian09/g09/l103.exe)

 GradGradGradGradGradGradGradGradGradGradGradGradGradGradGradGradGradGrad
 Berny optimization.
 FormGI is forming the generalized inverse of G from B-inverse, IUseBI=4.
 Internal  Forces:  Max     0.120997709 RMS     0.032679328
 Search for a local minimum.
 Step number   1 out of a maximum of  116
 All quantities printed in internal units (Hartrees-Bohrs-Radians)
 RMS Force = .32679D-01 SwitMx=.10000D-02 MixMth= 1
 Mixed Optimization -- RFO/linear search
 Second derivative matrix not updated -- first step.
 ITU=  0
     Eigenvalues ---    0.00870   0.01148   0.01310   0.01649   0.01655
     Eigenvalues ---    0.01700   0.01726   0.01752   0.02178   0.03108
     Eigenvalues ---    0.04320   0.04822   0.04963   0.05620   0.05889
     Eigenvalues ---    0.06303   0.06322   0.07934   0.08909   0.08932
     Eigenvalues ---    0.09030   0.09074   0.09114   0.09951   0.12584
     Eigenvalues ---    0.15515   0.16428   0.18772   0.20374   0.21588
     Eigenvalues ---    0.25000   0.25000   0.25000   0.25000   0.29390
     Eigenvalues ---    0.30876   0.34462   0.35529   0.37762   0.37766
     Eigenvalues ---    0.50445   0.51473   0.53376   0.53376   0.53469
     Eigenvalues ---    0.53469   0.53557   0.53557   0.53576   0.53576
     Eigenvalues ---    0.92564   0.92602   0.97828   0.97868
 RFO step:  Lambda=-1.62583079D-01 EMin= 8.70438122D-03
 Linear search not attempted -- first point.
 Maximum step size (   0.300) exceeded in Quadratic search.
    -- Step size scaled by   0.621
 Iteration  1 RMS(Cart)=  0.03157783 RMS(Int)=  0.00011183
 Iteration  2 RMS(Cart)=  0.00009283 RMS(Int)=  0.00000969
 Iteration  3 RMS(Cart)=  0.00000001 RMS(Int)=  0.00000969
 ITry= 1 IFail=0 DXMaxC= 9.17D-02 DCOld= 1.00D+10 DXMaxT= 3.00D-01 DXLimC= 3.00D+00 Rises=F
 Variable       Old X    -DE/DX   Delta X   Delta X   Delta X     New X
                                 (Linear)    (Quad)   (Total)
    R1        2.29505   0.02539   0.00000   0.01381   0.01381   2.30885
    R2        2.29522   0.02528   0.00000   0.01375   0.01375   2.30897
    R3        2.59419   0.01861   0.00000   0.01732   0.01732   2.61151
    R4        2.74268   0.01429   0.00000   0.01649   0.01650   2.75918
    R5        2.74284   0.01424   0.00000   0.01644   0.01644   2.75928
    R6        2.86249   0.01062   0.00000   0.01399   0.01399   2.87648
    R7        1.83304   0.11330   0.00000   0.10100   0.10100   1.93404
    R8        1.83120   0.12100   0.00000   0.10755   0.10755   1.93875
    R9        2.86249   0.01062   0.00000   0.01399   0.01399   2.87648
   R10        1.83304   0.11330   0.00000   0.10100   0.10100   1.93404
   R11        1.83120   0.12100   0.00000   0.10755   0.10755   1.93875
   R12        2.75233   0.01026   0.00000   0.01171   0.01171   2.76403
   R13        1.83218   0.11378   0.00000   0.10129   0.10129   1.93347
   R14        1.83138   0.12063   0.00000   0.10725   0.10725   1.93863
   R15        2.75249   0.01021   0.00000   0.01165   0.01165   2.76414
   R16        1.83218   0.11378   0.00000   0.10129   0.10129   1.93347
   R17        1.83138   0.12063   0.00000   0.10725   0.10725   1.93862
   R18        2.58408   0.01448   0.00000   0.01327   0.01327   2.59735
   R19        2.31757   0.00919   0.00000   0.00524   0.00524   2.32281
   R20        2.31773   0.00910   0.00000   0.00519   0.00519   2.32292
    A1        2.17969   0.00677   0.00000   0.01047   0.01041   2.19011
    A2        2.05025  -0.00319   0.00000  -0.00453  -0.00458   2.04567
    A3        2.05021  -0.00319   0.00000  -0.00452  -0.00458   2.04564
    A4        2.00544   0.00050   0.00000   0.00109   0.00108   2.00653
    A5        2.00542   0.00050   0.00000   0.00109   0.00109   2.00650
    A6        2.00187  -0.00044   0.00000  -0.00036  -0.00035   2.00152
    A7        1.91633  -0.00170   0.00000  -0.00305  -0.00305   1.91327
    A8        1.91426  -0.00048   0.00000  -0.00192  -0.00193   1.91233
    A9        1.91561   0.00079   0.00000   0.00152   0.00152   1.91713
   A10        1.91419  -0.00025   0.00000  -0.00133  -0.00134   1.91285
   A11        1.91487   0.00057   0.00000   0.00135   0.00135   1.91622
   A12        1.88838   0.00112   0.00000   0.00353   0.00353   1.89190
   A13        1.91631  -0.00170   0.00000  -0.00304  -0.00304   1.91326
   A14        1.91429  -0.00050   0.00000  -0.00194  -0.00195   1.91235
   A15        1.91559   0.00079   0.00000   0.00152   0.00152   1.91711
   A16        1.91419  -0.00025   0.00000  -0.00133  -0.00134   1.91286
   A17        1.91487   0.00057   0.00000   0.00135   0.00135   1.91622
   A18        1.88838   0.00112   0.00000   0.00353   0.00353   1.89191
   A19        1.90164   0.00176   0.00000   0.00217   0.00217   1.90381
   A20        1.91687  -0.00094   0.00000  -0.00200  -0.00200   1.91488
   A21        1.91750  -0.00000   0.00000   0.00088   0.00088   1.91838
   A22        1.91818  -0.00198   0.00000  -0.00455  -0.00455   1.91363
   A23        1.91809  -0.00047   0.00000  -0.00048  -0.00048   1.91761
   A24        1.89159   0.00162   0.00000   0.00395   0.00395   1.89554
   A25        1.90162   0.00177   0.00000   0.00219   0.00218   1.90380
   A26        1.91687  -0.00094   0.00000  -0.00199  -0.00199   1.91488
   A27        1.91750  -0.00001   0.00000   0.00088   0.00088   1.91838
   A28        1.91822  -0.00199   0.00000  -0.00457  -0.00457   1.91365
   A29        1.91807  -0.00047   0.00000  -0.00049  -0.00049   1.91759
   A30        1.89159   0.00162   0.00000   0.00395   0.00395   1.89554
   A31        2.02733  -0.00149   0.00000  -0.00313  -0.00313   2.02419
   A32        2.01469   0.00074   0.00000   0.00154   0.00155   2.01623
   A33        2.01466   0.00074   0.00000   0.00155   0.00155   2.01621
   A34        2.05988  -0.00598   0.00000  -0.00887  -0.00889   2.05099
   A35        2.05984  -0.00598   0.00000  -0.00887  -0.00889   2.05096
   A36        2.16165   0.01213   0.00000   0.01838   0.01836   2.18001
    D1       -0.42073   0.00298   0.00000   0.01049   0.01049  -0.41024
    D2       -2.80028   0.00252   0.00000   0.00853   0.00853  -2.79174
    D3        2.80024  -0.00252   0.00000  -0.00853  -0.00853   2.79171
    D4        0.42070  -0.00298   0.00000  -0.01049  -0.01049   0.41021
    D5        2.90563  -0.00132   0.00000  -0.00423  -0.00423   2.90141
    D6        0.80108   0.00037   0.00000   0.00054   0.00054   0.80162
    D7       -1.27131  -0.00118   0.00000  -0.00353  -0.00353  -1.27484
    D8       -0.99645  -0.00044   0.00000  -0.00164  -0.00164  -0.99809
    D9       -3.10100   0.00124   0.00000   0.00313   0.00313  -3.09788
   D10        1.10979  -0.00031   0.00000  -0.00094  -0.00094   1.10885
   D11       -2.90563   0.00131   0.00000   0.00423   0.00422  -2.90141
   D12       -0.80107  -0.00037   0.00000  -0.00054  -0.00054  -0.80161
   D13        1.27134   0.00118   0.00000   0.00352   0.00352   1.27486
   D14        0.99644   0.00044   0.00000   0.00164   0.00164   0.99808
   D15        3.10100  -0.00124   0.00000  -0.00313  -0.00312   3.09788
   D16       -1.10978   0.00030   0.00000   0.00093   0.00094  -1.10884
   D17        0.91954   0.00116   0.00000   0.00281   0.00281   0.92235
   D18        3.02146  -0.00075   0.00000  -0.00265  -0.00265   3.01881
   D19       -1.18265   0.00065   0.00000   0.00151   0.00151  -1.18114
   D20        3.02413  -0.00066   0.00000  -0.00232  -0.00232   3.02181
   D21       -1.15713  -0.00258   0.00000  -0.00777  -0.00777  -1.16490
   D22        0.92195  -0.00117   0.00000  -0.00362  -0.00361   0.91833
   D23       -1.18715   0.00090   0.00000   0.00200   0.00200  -1.18515
   D24        0.91477  -0.00102   0.00000  -0.00345  -0.00345   0.91132
   D25        2.99385   0.00038   0.00000   0.00070   0.00070   2.99455
   D26       -0.91947  -0.00117   0.00000  -0.00282  -0.00282  -0.92229
   D27       -3.02143   0.00075   0.00000   0.00264   0.00265  -3.01878
   D28        1.18268  -0.00066   0.00000  -0.00152  -0.00152   1.18116
   D29       -3.02410   0.00066   0.00000   0.00232   0.00232  -3.02178
   D30        1.15713   0.00258   0.00000   0.00778   0.00778   1.16491
   D31       -0.92195   0.00117   0.00000   0.00362   0.00362  -0.91833
   D32        1.18718  -0.00090   0.00000  -0.00201  -0.00201   1.18517
   D33       -0.91477   0.00102   0.00000   0.00345   0.00345  -0.91132
   D34       -2.99385  -0.00039   0.00000  -0.00071  -0.00071  -2.99456
   D35       -0.96420  -0.00084   0.00000  -0.00280  -0.00280  -0.96700
   D36        2.87975  -0.00114   0.00000  -0.00339  -0.00339   2.87636
   D37       -3.06532   0.00043   0.00000   0.00108   0.00108  -3.06424
   D38        0.77864   0.00013   0.00000   0.00049   0.00049   0.77912
   D39        1.13762  -0.00004   0.00000  -0.00067  -0.00067   1.13695
   D40       -1.30161  -0.00034   0.00000  -0.00126  -0.00126  -1.30287
   D41        0.96419   0.00084   0.00000   0.00280   0.00280   0.96699
   D42       -2.87975   0.00114   0.00000   0.00339   0.00339  -2.87636
   D43        3.06531  -0.00043   0.00000  -0.00108  -0.00108   3.06424
   D44       -0.77863  -0.00013   0.00000  -0.00049  -0.00049  -0.77911
   D45       -1.13761   0.00004   0.00000   0.00066   0.00066  -1.13695
   D46        1.30164   0.00034   0.00000   0.00125   0.00125   1.30288
   D47       -0.37968   0.00136   0.00000   0.00510   0.00510  -0.37457
   D48        2.82404  -0.00198   0.00000  -0.00642  -0.00642   2.81761
   D49       -2.82406   0.00198   0.00000   0.00643   0.00643  -2.81764
   D50        0.37965  -0.00136   0.00000  -0.00510  -0.00510   0.37454
         Item               Value     Threshold  Converged?
 Maximum Force            0.120998     0.000450     NO 
 RMS     Force            0.032679     0.000300     NO 
 Maximum Displacement     0.091662     0.001800     NO 
 RMS     Displacement     0.031572     0.001200     NO 
 Predicted change in Energy=-7.698288D-02
 Lowest energy point so far.  Saving SCF results.
 GradGradGradGradGradGradGradGradGradGradGradGradGradGradGradGradGradGrad

 Leave Link  103 at Fri Aug 20 15:55:12 2021, MaxMem= 24159191040 cpu:         3.5
 (Enter /public/home/users/caep010/software/Gaussian09/g09/l202.exe)
                          Input orientation:                          
 ---------------------------------------------------------------------
 Center     Atomic      Atomic             Coordinates (Angstroms)
 Number     Number       Type             X           Y           Z
 ---------------------------------------------------------------------
      1          7           0        5.914584    2.732715    0.469007
      2          8           0        5.549410    1.646610    0.044975
      3          8           0        5.549417    3.818896    0.044991
      4          7           0        6.876207    2.732712    1.461515
      5          6           0        6.952365    1.503498    2.245801
      6          6           0        6.952368    3.961994    2.245797
      7          6           0        8.241601    1.492465    3.054962
      8          6           0        8.241598    3.973027    3.054966
      9          7           0        8.333541    2.732712    3.824845
     10          7           0        9.261090    2.732715    4.839137
     11          1           0        6.933799    0.694984    1.618576
     12          1           0        6.933802    4.770502    1.618567
     13          1           0        6.145696    1.442424    2.876762
     14          1           0        6.145694    4.023063    2.876752
     15          1           0        8.242642    0.691550    3.691645
     16          1           0        8.242640    4.773937    3.691654
     17          1           0        9.048142    1.411783    2.426150
     18          1           0        9.048143    4.053705    2.426160
     19          8           0        9.623934    1.642903    5.276777
     20          8           0        9.623927    3.822604    5.276761
 ---------------------------------------------------------------------
                    Distance matrix (angstroms):
                    1          2          3          4          5
     1  N    0.000000
     2  O    1.221793   0.000000
     3  O    1.221853   2.172286   0.000000
     4  N    1.381952   2.224094   2.224120   0.000000
     5  C    2.396865   2.613886   3.488968   1.460093   0.000000
     6  C    2.396896   3.488970   2.613867   1.460148   2.458496
     7  C    3.693290   4.041247   4.660479   2.437537   1.522167
     8  C    3.693312   4.660487   4.041231   2.437572   2.900938
     9  N    4.136787   4.818550   4.818552   2.776535   2.431459
    10  N    5.504284   6.159560   6.159557   4.134730   3.683283
    11  H    2.551990   2.301814   3.761849   2.044583   1.023450
    12  H    2.552033   3.761839   2.301786   2.044644   3.326723
    13  H    2.741450   2.901081   3.744609   2.049735   1.025942
    14  H    2.741469   3.744603   2.901052   2.049769   2.719748
    15  H    4.468960   4.632909   5.507435   3.317675   2.101080
    16  H    4.468991   5.507443   4.632894   3.317718   3.801456
    17  H    3.923577   4.238663   4.868798   2.718947   2.105521
    18  H    3.923603   4.868808   4.238655   2.718983   3.305809
    19  O    6.169411   6.631253   6.979128   4.826377   4.042713
    20  O    6.169407   6.979128   6.631219   4.826378   4.658564
                    6          7          8          9         10
     6  C    0.000000
     7  C    2.900939   0.000000
     8  C    1.522166   2.480563   0.000000
     9  N    2.431494   1.462664   1.462719   0.000000
    10  N    3.683305   2.400179   2.400209   1.374458   0.000000
    11  H    3.326726   2.099887   3.810396   3.313493   4.465495
    12  H    1.023449   3.810394   2.099890   3.313536   4.465525
    13  H    2.719755   2.104062   3.290671   2.711157   3.901467
    14  H    1.025941   3.290670   2.104062   2.711191   3.901492
    15  H    3.801459   1.023147   3.342672   2.047523   2.553494
    16  H    2.101084   3.342669   1.023147   2.047584   2.553536
    17  H    3.305809   1.025876   2.757879   2.052280   2.759114
    18  H    2.105521   2.757872   1.025875   2.052315   2.759133
    19  O    4.658572   2.621057   3.503824   2.227309   1.229177
    20  O    4.042697   3.503822   2.621037   2.227335   1.229237
                   11         12         13         14         15
    11  H    0.000000
    12  H    4.075518   0.000000
    13  H    1.662169   3.644210   0.000000
    14  H    3.644204   1.662170   2.580639   0.000000
    15  H    2.451672   4.759051   2.371715   4.019978   0.000000
    16  H    4.759051   2.451685   4.019975   2.371720   4.082387
    17  H    2.374115   4.050139   2.937377   3.930144   1.664043
    18  H    4.050142   2.374120   3.930144   2.937377   3.681626
    19  O    4.638730   5.513728   4.230651   4.850097   2.307745
    20  O    5.513720   4.638714   4.850087   4.230642   3.771477
                   16         17         18         19         20
    16  H    0.000000
    17  H    3.681632   0.000000
    18  H    1.664044   2.641923   0.000000
    19  O    3.771467   2.917366   3.777502   0.000000
    20  O    2.307716   3.777508   2.917338   2.179701   0.000000
 Stoichiometry    C4H8N4O4
 Framework group  C1[X(C4H8N4O4)]
 Deg. of freedom    54
 Full point group                 C1      NOp   1
 RotChk:  IX=0 Diff= 9.50D-04
 Largest Abelian subgroup         C1      NOp   1
 Largest concise Abelian subgroup C1      NOp   1
                         Standard orientation:                         
 ---------------------------------------------------------------------
 Center     Atomic      Atomic             Coordinates (Angstroms)
 Number     Number       Type             X           Y           Z
 ---------------------------------------------------------------------
      1          7           0        2.754642   -0.000023    0.039172
      2          8           0        3.313758   -1.086128    0.015835
      3          8           0        3.313741    1.086157    0.015831
      4          7           0        1.379642   -0.000026    0.177619
      5          6           0        0.717285   -1.229241   -0.249217
      6          6           0        0.717286    1.229256   -0.249212
      7          6           0       -0.717165   -1.240274    0.259922
      8          6           0       -0.717166    1.240289    0.259918
      9          7           0       -1.378016   -0.000026   -0.145599
     10          7           0       -2.748962   -0.000023   -0.047390
     11          1           0        1.220731   -2.037754    0.125348
     12          1           0        1.220736    2.037764    0.125356
     13          1           0        0.722880   -1.290314   -1.273324
     14          1           0        0.722888    1.290325   -1.273318
     15          1           0       -1.217156   -2.041189   -0.134254
     16          1           0       -1.217161    2.041198   -0.134261
     17          1           0       -0.724366   -1.320956    1.282596
     18          1           0       -0.724375    1.320967    1.282591
     19          8           0       -3.317305   -1.089836   -0.034323
     20          8           0       -3.317288    1.089865   -0.034319
 ---------------------------------------------------------------------
 Rotational constants (GHZ):      2.7593326      0.4993758      0.4304797
 Leave Link  202 at Fri Aug 20 15:55:12 2021, MaxMem= 24159191040 cpu:         0.3
 (Enter /public/home/users/caep010/software/Gaussian09/g09/l301.exe)
 Standard basis: 6-31G(d,p) (6D, 7F)
 Ernie: Thresh=  0.10000D-02 Tol=  0.10000D-05 Strict=F.
 There are   220 symmetry adapted cartesian basis functions of A   symmetry.
 There are   220 symmetry adapted basis functions of A   symmetry.
   220 basis functions,   392 primitive gaussians,   220 cartesian basis functions
    46 alpha electrons       46 beta electrons
       nuclear repulsion energy       772.7695105905 Hartrees.
 IExCor=  402 DFT=T Ex+Corr=B3LYP ExCW=0 ScaHFX=  0.200000
 ScaDFX=  0.800000  0.720000  1.000000  0.810000 ScalE2=  1.000000  1.000000
 IRadAn=      0 IRanWt=     -1 IRanGd=            0 ICorTp=0 IEmpDi=  4
 NAtoms=   20 NActive=   20 NUniq=   20 SFac= 1.00D+00 NAtFMM=   60 NAOKFM=F Big=F
 Integral buffers will be    131072 words long.
 Raffenetti 2 integral format.
 Two-electron integral symmetry is turned on.
 Leave Link  301 at Fri Aug 20 15:55:12 2021, MaxMem= 24159191040 cpu:         1.7
 (Enter /public/home/users/caep010/software/Gaussian09/g09/l302.exe)
 NPDir=0 NMtPBC=     1 NCelOv=     1 NCel=       1 NClECP=     1 NCelD=      1
         NCelK=      1 NCelE2=     1 NClLst=     1 CellRange=     0.0.
 One-electron integrals computed using PRISM.
 NBasis=   220 RedAO= T EigKep=  2.01D-03  NBF=   220
 NBsUse=   220 1.00D-06 EigRej= -1.00D+00 NBFU=   220
 Precomputing XC quadrature grid using
 IXCGrd= 4 IRadAn=           0 IRanWt=          -1 IRanGd=           0 AccXCQ= 0.00D+00.
 Generated NRdTot=       0 NPtTot=           0 NUsed=           0 NTot=          32
 NSgBfM=   218   218   218   218   218 MxSgAt=    20 MxSgA2=    20.
 Leave Link  302 at Fri Aug 20 15:55:12 2021, MaxMem= 24159191040 cpu:        12.3
 (Enter /public/home/users/caep010/software/Gaussian09/g09/l303.exe)
 DipDrv:  MaxL=1.
 Leave Link  303 at Fri Aug 20 15:55:12 2021, MaxMem= 24159191040 cpu:         0.8
 (Enter /public/home/users/caep010/software/Gaussian09/g09/l401.exe)
 Initial guess from the checkpoint file:  "/public/home/users/caep010/.cache/gau_scr/Gau-77901.chk"
 B after Tr=     0.000000   -0.000000   -0.000000
         Rot=    1.000000   -0.000000   -0.000014    0.000000 Ang=  -0.00 deg.
 Guess basis will be translated and rotated to current coordinates.
 JPrj=2 DoOrth=T DoCkMO=T.
 Generating alternative initial guess.
 ExpMin= 1.61D-01 ExpMax= 5.48D+03 ExpMxC= 8.25D+02 IAcc=1 IRadAn=         1 AccDes= 0.00D+00
 Harris functional with IExCor=  402 and IRadAn=       1 diagonalized for initial guess.
 HarFok:  IExCor=  402 AccDes= 0.00D+00 IRadAn=         1 IDoV= 1 UseB2=F ITyADJ=14
 ICtDFT=  3500011 ScaDFX=  1.000000  1.000000  1.000000  1.000000
 FoFCou: FMM=F IPFlag=           0 FMFlag=      100000 FMFlg1=           0
         NFxFlg=           0 DoJE=T BraDBF=F KetDBF=T FulRan=T
         wScrn=  0.000000 ICntrl=     500 IOpCl=  0 I1Cent=   200000004 NGrid=           0
         NMat0=    1 NMatS0=      1 NMatT0=    0 NMatD0=    1 NMtDS0=    0 NMtDT0=    0
 Petite list used in FoFCou.
 Harris En= -676.966739703482    
 Leave Link  401 at Fri Aug 20 15:55:13 2021, MaxMem= 24159191040 cpu:        14.0
 (Enter /public/home/users/caep010/software/Gaussian09/g09/l502.exe)
 Closed shell SCF:
 Using DIIS extrapolation, IDIIS=  1040.
 Integral symmetry usage will be decided dynamically.
 Keep R1 ints in memory in canonical form, NReq=301069467.
 IVT=      172442 IEndB=      172442 NGot= 24159191040 MDV= 23863518394
 LenX= 23863518394 LenY= 23863469553
 Requested convergence on RMS density matrix=1.00D-08 within 128 cycles.
 Requested convergence on MAX density matrix=1.00D-06.
 Requested convergence on             energy=1.00D-06.
 No special actions if energy rises.
 FoFCou: FMM=F IPFlag=           0 FMFlag=           0 FMFlg1=           0
         NFxFlg=           0 DoJE=F BraDBF=F KetDBF=F FulRan=T
         wScrn=  0.000000 ICntrl=     600 IOpCl=  0 I1Cent=           0 NGrid=           0
         NMat0=    1 NMatS0=  24310 NMatT0=    0 NMatD0=    1 NMtDS0=    0 NMtDT0=    0
 Symmetry not used in FoFCou.
 Integral accuracy reduced to 1.0D-05 until final iterations.

 Cycle   1  Pass 0  IDiag  1:
 E= -676.888582570055    
 DIIS: error= 4.11D-03 at cycle   1 NSaved=   1.
 NSaved= 1 IEnMin= 1 EnMin= -676.888582570055     IErMin= 1 ErrMin= 4.11D-03
 ErrMax= 4.11D-03  0.00D+00 EMaxC= 1.00D-01 BMatC= 3.73D-03 BMatP= 3.73D-03
 IDIUse=3 WtCom= 9.59D-01 WtEn= 4.11D-02
 Coeff-Com:  0.100D+01
 Coeff-En:   0.100D+01
 Coeff:      0.100D+01
 Gap=     1.665 Goal=   None    Shift=    0.000
 GapD=    1.665 DampG=2.000 DampE=1.000 DampFc=2.0000 IDamp=-1.
 RMSDP=4.72D-04 MaxDP=1.34D-02              OVMax= 1.50D-02

 Cycle   2  Pass 0  IDiag  1:
 E= -676.891848876325     Delta-E=       -0.003266306269 Rises=F Damp=F
 DIIS: error= 2.31D-03 at cycle   2 NSaved=   2.
 NSaved= 2 IEnMin= 2 EnMin= -676.891848876325     IErMin= 2 ErrMin= 2.31D-03
 ErrMax= 2.31D-03  0.00D+00 EMaxC= 1.00D-01 BMatC= 1.20D-03 BMatP= 3.73D-03
 IDIUse=3 WtCom= 9.77D-01 WtEn= 2.31D-02
 Coeff-Com:  0.319D+00 0.681D+00
 Coeff-En:   0.000D+00 0.100D+01
 Coeff:      0.312D+00 0.688D+00
 Gap=     0.236 Goal=   None    Shift=    0.000
 RMSDP=2.59D-04 MaxDP=5.83D-03 DE=-3.27D-03 OVMax= 1.16D-02

 Cycle   3  Pass 0  IDiag  1:
 E= -676.892599229717     Delta-E=       -0.000750353393 Rises=F Damp=F
 DIIS: error= 1.51D-03 at cycle   3 NSaved=   3.
 NSaved= 3 IEnMin= 3 EnMin= -676.892599229717     IErMin= 3 ErrMin= 1.51D-03
 ErrMax= 1.51D-03  0.00D+00 EMaxC= 1.00D-01 BMatC= 5.06D-04 BMatP= 1.20D-03
 IDIUse=3 WtCom= 9.85D-01 WtEn= 1.51D-02
 Coeff-Com:  0.620D-01 0.390D+00 0.548D+00
 Coeff-En:   0.000D+00 0.278D+00 0.722D+00
 Coeff:      0.610D-01 0.388D+00 0.551D+00
 Gap=     0.236 Goal=   None    Shift=    0.000
 RMSDP=1.37D-04 MaxDP=3.06D-03 DE=-7.50D-04 OVMax= 7.62D-03

 Cycle   4  Pass 0  IDiag  1:
 E= -676.892994938032     Delta-E=       -0.000395708314 Rises=F Damp=F
 DIIS: error= 4.86D-04 at cycle   4 NSaved=   4.
 NSaved= 4 IEnMin= 4 EnMin= -676.892994938032     IErMin= 4 ErrMin= 4.86D-04
 ErrMax= 4.86D-04  0.00D+00 EMaxC= 1.00D-01 BMatC= 9.37D-05 BMatP= 5.06D-04
 IDIUse=3 WtCom= 9.95D-01 WtEn= 4.86D-03
 Coeff-Com:  0.123D-01 0.194D+00 0.352D+00 0.442D+00
 Coeff-En:   0.000D+00 0.000D+00 0.883D-01 0.912D+00
 Coeff:      0.123D-01 0.193D+00 0.350D+00 0.444D+00
 Gap=     0.233 Goal=   None    Shift=    0.000
 RMSDP=4.62D-05 MaxDP=1.74D-03 DE=-3.96D-04 OVMax= 3.04D-03

 Cycle   5  Pass 0  IDiag  1:
 E= -676.893063721495     Delta-E=       -0.000068783464 Rises=F Damp=F
 DIIS: error= 1.56D-04 at cycle   5 NSaved=   5.
 NSaved= 5 IEnMin= 5 EnMin= -676.893063721495     IErMin= 5 ErrMin= 1.56D-04
 ErrMax= 1.56D-04  0.00D+00 EMaxC= 1.00D-01 BMatC= 7.17D-06 BMatP= 9.37D-05
 IDIUse=3 WtCom= 9.98D-01 WtEn= 1.56D-03
 Coeff-Com: -0.180D-02 0.541D-01 0.117D+00 0.258D+00 0.573D+00
 Coeff-En:   0.000D+00 0.000D+00 0.000D+00 0.473D-01 0.953D+00
 Coeff:     -0.179D-02 0.540D-01 0.117D+00 0.257D+00 0.574D+00
 Gap=     0.233 Goal=   None    Shift=    0.000
 RMSDP=1.08D-05 MaxDP=4.32D-04 DE=-6.88D-05 OVMax= 4.94D-04

 Cycle   6  Pass 0  IDiag  1:
 E= -676.893069207426     Delta-E=       -0.000005485931 Rises=F Damp=F
[...]
 9023,0.01361247,0.01332248,0.54706920,-0.00104337,-0.00406013,0.000320
 10,-0.00089041,0.00040207,-0.00125549,-0.00052555,0.00056452,-0.000572
 31,-0.01931393,-0.00533480,-0.01902654,0.00062204,-0.00059876,0.002101
 97,-0.04331911,-0.00562621,-0.10064989,0.00623178,-0.01361247,0.014762
 67,-0.03822253,0.08980702,0.55868911,0.00150216,0.00000003,0.00127389,
 -0.00088488,0.00020151,-0.00109632,-0.00088490,-0.00020154,-0.00109634
 ,0.00270482,0.,0.00286881,-0.00247371,-0.02993228,-0.01931108,-0.00247
 377,0.02993237,-0.01931115,-0.05759175,0.00515528,-0.02083346,-0.05759
 174,-0.00515520,-0.02083339,0.20744040,0.,-0.00031854,0.,-0.00022597,0
 .00011951,-0.00014731,0.00022598,0.00011951,0.00014731,0.,-0.00061674,
 0.,-0.00774876,-0.00200515,-0.00534817,0.00774876,-0.00200516,0.005348
 17,0.02793908,-0.17739642,-0.04766965,-0.02793903,-0.17739658,0.047669
 87,0.00000048,0.61496094,0.00036052,0.00000003,-0.00035353,-0.00049045
 ,0.00059271,-0.00042114,-0.00049047,-0.00059274,-0.00042116,0.00287147
 ,0.,0.00390926,-0.00770765,-0.02501819,-0.01903720,-0.00770769,0.02501
 822,-0.01903720,0.00315521,-0.03041673,-0.11841237,0.00315541,0.030417
 10,-0.11841257,0.14665729,0.00000024,0.44255794,-0.00308144,0.00000001
 ,-0.00373452,0.00094533,0.00080556,0.00128080,0.00094533,-0.00080558,0
 .00128080,0.00150242,0.,0.00036060,0.00059354,0.00135584,-0.00105571,0
 .00059357,-0.00135580,-0.00105575,-0.02042066,-0.01847085,0.00016628,-
 0.02042086,0.01847087,0.00016593,-0.07113532,0.00000011,-0.05592783,0.
 37857445,-0.00000001,-0.00120735,0.,-0.00037453,-0.00010171,-0.0005039
 4,0.00037454,-0.00010171,0.00050395,-0.00000003,-0.00031821,-0.0000000
 3,0.00073908,-0.00931378,-0.00405893,-0.00073907,-0.00931392,0.0040589
 3,-0.02510567,0.01214699,-0.02281693,0.02510565,0.01214737,0.02281694,
 -0.00000013,-0.14548984,-0.00000009,-0.00000128,1.03880999,-0.00374446
 ,0.,-0.00446205,0.00132682,0.00093019,0.00168616,0.00132683,-0.0009301
 9,0.00168616,0.00127501,0.,-0.00036000,0.00097598,0.00368960,0.0003241
 5,0.00097600,-0.00368955,0.00032411,-0.02220609,-0.02459262,-0.0252901
 9,-0.02220655,0.02459273,-0.02529063,-0.01392705,0.00000016,-0.1182776
 7,0.17945775,-0.00000236,0.49370435,0.00250323,0.00262921,0.00200412,-
 0.00288279,-0.00079238,-0.00287478,-0.00001861,-0.00097299,-0.00040602
 ,-0.00212238,0.00145048,0.00016364,-0.04759396,-0.00196034,0.00380596,
 -0.00025637,0.00065410,-0.00081913,0.00026163,-0.02297498,-0.01670093,
 0.00002691,0.00028969,-0.00007709,-0.00432826,0.00160244,-0.00383554,0
 .00021690,-0.00226324,0.00032674,0.05164623,-0.00226856,-0.00443146,-0
 .00439093,-0.00070307,0.00408490,0.00014817,0.00007266,0.00144458,0.00
 034620,-0.00067335,-0.03009596,-0.01493433,0.00007381,-0.21222286,-0.1
 3397723,0.00145611,-0.00234122,0.00470110,-0.00182070,0.00184794,0.000
 17606,0.00054863,0.00006416,0.00052873,0.00122318,0.00134051,0.0012797
 1,-0.00009509,0.00047726,-0.00017708,0.00234346,0.23635752,0.00052564,
 0.00077519,0.00214758,-0.00326029,0.00083778,-0.00539902,0.00021876,-0
 .00064577,-0.00030334,0.00061546,0.01827570,0.01472116,0.00343687,-0.1
 4494544,-0.16610647,-0.00105096,0.00279363,-0.00284733,0.00189102,-0.0
 1083439,-0.00932549,-0.00012140,0.00017964,-0.00032684,-0.00313807,0.0
 0084002,-0.00134204,-0.00006268,-0.00107502,0.00103628,0.00160973,0.14
 578975,0.17744848,0.00250326,-0.00262926,0.00200414,-0.00001859,0.0009
 7302,-0.00040602,-0.00288296,0.00079234,-0.00287500,-0.00212239,-0.001
 45043,0.00016362,-0.00025638,-0.00065411,-0.00081913,-0.04759399,0.001
 96060,0.00380595,0.00002691,-0.00028969,-0.00007708,0.00026159,0.02297
 501,-0.01670095,-0.00432825,-0.00160244,-0.00383553,0.00021688,0.00226
 326,0.00032672,0.00039986,-0.00014576,0.00009256,0.05164644,0.00226858
 ,-0.00443158,0.00439094,-0.00007266,0.00144461,-0.00034619,0.00070312,
 0.00408500,-0.00014815,0.00067334,-0.03009601,0.01493431,-0.00145612,-
 0.00234124,-0.00470111,-0.00007361,-0.21222271,0.13397697,-0.00054863,
 0.00006416,-0.00052873,0.00182070,0.00184797,-0.00017608,-0.00122319,0
 .00134051,-0.00127972,0.00009509,0.00047727,0.00017708,0.00014576,-0.0
 0115250,0.00098316,-0.00234371,0.23635740,0.00052568,-0.00077526,0.002
 14760,0.00021876,0.00064579,-0.00030334,-0.00326054,-0.00083784,-0.005
 39933,0.00061542,-0.01827565,0.01472113,-0.00105096,-0.00279363,-0.002
 84734,0.00343693,0.14494529,-0.16610622,-0.00012139,-0.00017963,-0.000
 32683,0.00189097,0.01083434,-0.00932547,-0.00313806,-0.00084002,-0.001
 34201,-0.00006269,0.00107503,0.00103626,0.00009256,-0.00098316,0.00071
 254,0.00160996,-0.14578949,0.17744854,0.00217247,-0.00004014,-0.000979
 56,0.00003518,-0.00020839,0.00116368,-0.00078106,0.00058846,0.00043621
 ,0.00700998,-0.00223947,-0.00223157,-0.20487315,-0.01055821,0.11963268
 ,0.00025035,-0.00017243,-0.00034335,-0.02502237,0.00091569,0.01737121,
 -0.00035186,-0.00013835,0.00006437,0.00283271,0.00038339,0.00079057,-0
 .00017438,0.00033484,-0.00048411,0.00096829,0.00035064,-0.00106036,0.0
 0008963,-0.00009244,-0.00008582,0.22089953,-0.00657350,-0.00132769,-0.
 00443426,0.00034347,0.00209959,0.00100781,0.00194487,-0.00137361,0.000
 22357,-0.01868467,-0.01489852,0.03038382,-0.00986556,-0.05124963,0.003
 12769,-0.00168607,0.00346987,0.00293548,0.00000184,-0.00023708,-0.0016
 4296,0.00008469,-0.00061553,-0.00002575,0.00005674,0.00032847,0.001183
 07,-0.00062205,0.00004907,-0.00078164,0.02020651,0.00364322,-0.0135064
 9,0.00050966,-0.00000883,-0.00014959,0.01225293,0.05832688,0.00728681,
 0.00273354,0.00440622,-0.00154081,-0.00273031,0.00023841,-0.00151767,0
 .00120804,-0.00083693,0.00778064,0.01305428,-0.01895242,0.12154875,0.0
 0379162,-0.14401717,-0.00050744,-0.00170381,-0.00030384,-0.01635828,-0
 .00138576,0.01112947,-0.00028844,0.00032711,-0.00006519,0.00081760,0.0
 0086923,0.00142864,-0.00004633,0.00049612,-0.00028133,0.01658672,0.001
 32285,-0.01071170,-0.00018768,0.00006986,0.00005578,-0.13083825,-0.017
 88344,0.15766704,0.00217248,0.00004014,-0.00097958,-0.00078106,-0.0005
 8846,0.00043621,0.00003519,0.00020838,0.00116370,0.00700997,0.00223949
 ,-0.00223158,0.00025035,0.00017242,-0.00034334,-0.20487292,0.01055809,
 0.11963265,-0.00035187,0.00013835,0.00006437,-0.02502235,-0.00091571,0
 .01737127,0.00283272,-0.00038339,0.00079057,-0.00017438,-0.00033485,-0
 .00048411,0.00008963,0.00009244,-0.00008582,0.00096830,-0.00035064,-0.
 00106037,-0.00025010,0.00075770,-0.00009704,0.22089927,0.00657349,-0.0
 0132776,0.00443426,-0.00194487,-0.00137358,-0.00022357,-0.00034344,0.0
 0209961,-0.00100782,0.01868469,-0.01489846,-0.03038388,0.00168606,0.00
 346987,-0.00293547,0.00986542,-0.05124963,-0.00312762,-0.00008469,-0.0
 0061553,0.00002575,-0.00000184,-0.00023709,0.00164298,-0.00005673,0.00
 032846,-0.00118308,0.00062205,0.00004907,0.00078164,-0.00050965,-0.000
 00883,0.00014959,-0.02020653,0.00364321,0.01350650,-0.00075769,0.00013
 175,0.00096162,-0.01225280,0.05832687,0.00728682,-0.00273361,0.0044062
 3,-0.00151767,-0.00120802,-0.00083695,-0.00154082,0.00273034,0.0002384
 5,0.00778064,-0.01305421,-0.01895248,-0.00050744,0.00170381,-0.0003038
 3,0.12154872,-0.00379160,-0.14401733,-0.00028843,-0.00032711,-0.000065
 18,-0.01635826,0.00138576,0.01112947,0.00081759,-0.00086922,0.00142864
 ,-0.00004633,-0.00049613,-0.00028132,-0.00018768,-0.00006986,0.0000557
 8,0.01658674,-0.00132284,-0.01071171,-0.00009703,-0.00096161,0.0006025
 6,-0.13083826,0.01788339,0.15766723,0.00022139,0.00226339,0.00032327,-
 0.00008508,-0.00042095,-0.00003791,-0.00057989,0.00021469,-0.00081336,
 -0.00432990,-0.00160522,-0.00383115,0.00025882,0.02297946,-0.01670219,
 0.00002669,-0.00028982,-0.00007677,-0.04759453,0.00198955,0.00377568,-
 0.00025688,-0.00065555,-0.00081866,-0.00212601,-0.00144867,0.00016638,
 0.00250237,-0.00262548,0.00200502,0.00091194,-0.00041459,0.00034510,-0
 .00005471,0.00001788,-0.00003317,0.00087416,0.00036941,0.00079045,0.00
 001990,0.00008129,0.00006328,0.05164300,0.00009555,0.00047792,0.000177
 03,-0.00001187,-0.00002947,-0.00002988,-0.00022741,0.00026601,-0.00031
 226,-0.00122399,0.00133960,-0.00128010,0.00182217,0.00185175,-0.000178
 38,-0.00054853,0.00006414,-0.00052861,-0.00004301,-0.21225936,0.133971
 84,-0.00145331,-0.00234320,-0.00470287,0.00067223,-0.03009371,0.014939
 29,0.00226700,-0.00443384,0.00439766,0.00041455,0.00034829,0.00007351,
 0.00001785,0.00005840,0.00001173,0.00019598,0.00029039,-0.00005746,0.0
 0006371,0.00005932,0.00007423,-0.00237385,0.23639022,-0.00006124,0.001
 07545,0.00103378,-0.00002066,-0.00032919,-0.00011824,-0.00015765,0.000
 19122,-0.00051867,-0.00313529,-0.00084306,-0.00133851,0.00188730,0.010
 83180,-0.00932349,-0.00012113,-0.00017871,-0.00032576,0.00340688,0.144
 95041,-0.16608573,-0.00104830,-0.00279352,-0.00284969,0.00061366,-0.01
 827111,0.01472087,0.00052795,-0.00077975,0.00215325,0.00034482,-0.0000
 7361,-0.00009462,-0.00003321,0.00001167,-0.00003655,0.00021429,-0.0002
 7853,0.00096350,0.00004083,0.00009491,0.00004614,0.00163559,-0.1457967
 7,0.17742976,0.00022137,-0.00226341,0.00032325,-0.00057989,-0.00021467
 ,-0.00081336,-0.00008508,0.00042096,-0.00003790,-0.00432989,0.00160522
 ,-0.00383113,0.00002669,0.00028981,-0.00007677,0.00025879,-0.02297949,
 -0.01670221,-0.00025689,0.00065556,-0.00081866,-0.04759456,-0.00198978
 ,0.00377570,-0.00212603,0.00144862,0.00016636,0.00250240,0.00262553,0.
 00200504,-0.00005471,-0.00001788,-0.00003317,0.00091194,0.00041460,0.0
 0034510,0.00001990,-0.00008129,0.00006328,0.00087416,-0.00036941,0.000
 79045,0.00040015,0.00014588,0.00009272,0.05164321,-0.00009555,0.000477
 93,-0.00017703,0.00022741,0.00026600,0.00031227,0.00001187,-0.00002947
 ,0.00002988,0.00122400,0.00133960,0.00128011,0.00054853,0.00006414,0.0
 0052861,-0.00182217,0.00185177,0.00017841,0.00145332,-0.00234321,0.004
 70287,0.00004284,-0.21225927,-0.13397159,-0.00067221,-0.03009375,-0.01
 493927,-0.00226701,-0.00443396,-0.00439767,-0.00001785,0.00005840,-0.0
 0001173,-0.00041455,0.00034829,-0.00007351,-0.00006371,0.00005932,-0.0
 0007423,-0.00019598,0.00029039,0.00005746,-0.00014588,-0.00115279,-0.0
 0098368,0.00237407,0.23639015,-0.00006125,-0.00107546,0.00103376,-0.00
 015764,-0.00019121,-0.00051867,-0.00002066,0.00032920,-0.00011823,-0.0
 0313527,0.00084306,-0.00133849,-0.00012112,0.00017870,-0.00032576,0.00
 188725,-0.01083176,-0.00932348,-0.00104830,0.00279352,-0.00284970,0.00
 340696,-0.14495026,-0.16608545,0.00061363,0.01827108,0.01472084,0.0005
 2800,0.00077982,0.00215328,-0.00003321,-0.00001167,-0.00003655,0.00034
 482,0.00007361,-0.00009462,0.00004083,-0.00009490,0.00004614,0.0002142
 9,0.00027853,0.00096350,0.00009272,0.00098368,0.00071329,0.00163579,0.
 14579652,0.17742976,-0.00017490,-0.00033728,-0.00048626,0.00014440,0.0
 0029872,-0.00001025,-0.00004200,0.00009287,0.00004179,0.00283073,-0.00
 038269,0.00079226,-0.02503027,-0.00091919,0.01737474,-0.00035232,0.000
 13779,0.00006447,-0.20484686,0.01052876,0.11962183,0.00025025,0.000171
 89,-0.00034333,0.00702097,0.00224489,-0.00222886,0.00216685,0.00003791
 ,-0.00097458,0.00087430,-0.00019628,0.00021386,0.00001996,0.00006375,0
 .00004085,-0.00385675,0.00053614,-0.00363258,0.00005575,-0.00017513,0.
 00000716,0.00097392,-0.00035259,-0.00106323,0.00009013,0.00009250,-0.0
 0008587,0.22087493,0.00062234,0.00004887,0.00078093,-0.00007817,-0.000
 12949,-0.00011713,-0.00019619,0.00035356,-0.00021774,-0.00005646,0.000
 32795,-0.00118242,-0.00000099,-0.00023517,0.00164203,-0.00008461,-0.00
 061500,0.00002660,0.00983816,-0.05124229,-0.00310212,0.00168620,0.0034
 6967,-0.00293613,0.01868501,-0.01489735,-0.03039338,0.00657236,-0.0013
 3539,0.00444060,-0.00036962,0.00029004,0.00027842,0.00008127,0.0000593
 1,0.00009511,-0.00053630,0.00110509,-0.00058563,-0.00017525,-0.0000168
 8,0.00002340,-0.02021001,0.00364114,0.01350646,-0.00050941,-0.00000774
 ,0.00014843,-0.01222238,0.05832323,-0.00004707,-0.00049713,-0.00028176
 ,0.00009285,0.00032950,0.00002424,0.00004089,0.00006145,0.00010449,0.0
 0081655,-0.00086829,0.00142746,-0.01635577,0.00138310,0.01112909,-0.00
 028849,-0.00032740,-0.00006497,0.12154255,-0.00377098,-0.14402125,-0.0
 0050765,0.00170558,-0.00030365,0.00778696,-0.01305534,-0.01896080,0.00
 728182,-0.00272930,0.00440977,0.00079014,0.00005741,0.00096321,0.00006
 329,0.00007424,0.00004624,-0.00363156,0.00058586,-0.00139887,0.0000071
 9,0.00002350,-0.00009923,0.01658444,-0.00132174,-0.01071179,-0.0001880
 9,-0.00006949,0.00005519,-0.13083167,0.01786500,0.15768354,-0.00017491
 ,0.00033729,-0.00048626,-0.00004200,-0.00009287,0.00004178,0.00014440,
 -0.00029873,-0.00001025,0.00283074,0.00038269,0.00079226,-0.00035232,-
 0.00013779,0.00006447,-0.02503024,0.00091922,0.01737480,0.00025025,-0.
 00017189,-0.00034333,-0.20484666,-0.01052863,0.11962181,0.00702096,-0.
 00224491,-0.00222887,0.00216686,-0.00003791,-0.00097460,0.00001996,-0.
 00006375,0.00004085,0.00087430,0.00019628,0.00021386,0.00005575,0.0001
 7513,0.00000716,-0.00385676,-0.00053614,-0.00363257,0.00009013,-0.0000
 9250,-0.00008587,0.00097392,0.00035258,-0.00106325,-0.00025003,-0.0007
 5788,-0.00009684,0.22087471,-0.00062234,0.00004888,-0.00078093,0.00019
 619,0.00035356,0.00021774,0.00007817,-0.00012949,0.00011712,0.00005645
 ,0.00032794,0.00118242,0.00008461,-0.00061500,-0.00002660,0.00000098,-
 0.00023518,-0.00164204,-0.00168619,0.00346967,0.00293612,-0.00983801,-
 0.05124229,0.00310206,-0.01868502,-0.01489729,0.03039342,-0.00657235,-
 0.00133545,-0.00444060,-0.00008127,0.00005931,-0.00009511,0.00036961,0
 .00029004,-0.00027842,0.00017525,-0.00001688,-0.00002340,0.00053630,0.
 00110509,0.00058563,0.00050941,-0.00000774,-0.00014843,0.02021004,0.00
 364113,-0.01350648,0.00075788,0.00013195,-0.00096216,0.01222225,0.0583
 2321,-0.00004707,0.00049713,-0.00028176,0.00004089,-0.00006145,0.00010
 449,0.00009285,-0.00032950,0.00002424,0.00081655,0.00086829,0.00142746
 ,-0.00028849,0.00032740,-0.00006497,-0.01635575,-0.00138310,0.01112910
 ,-0.00050765,-0.00170558,-0.00030365,0.12154252,0.00377095,-0.14402140
 ,0.00778697,0.01305528,-0.01896086,0.00728183,0.00272938,0.00440978,0.
 00006329,-0.00007423,0.00004624,0.00079014,-0.00005741,0.00096321,0.00
 000719,-0.00002350,-0.00009923,-0.00363156,-0.00058586,-0.00139887,-0.
 00018809,0.00006949,0.00005519,0.01658445,0.00132174,-0.01071180,-0.00
 009684,0.00096216,0.00060285,-0.13083169,-0.01786494,0.15768372,0.0009
 4515,0.00037338,0.00132219,-0.00038394,-0.00051912,-0.00053323,-0.0003
 9185,0.00005106,-0.00057934,-0.00088355,0.00022588,-0.00048873,0.00091
 101,0.00036650,-0.00052229,0.00080028,0.00194771,-0.00088597,-0.001999
 76,0.00159047,-0.00176568,0.00058340,-0.00656787,-0.00399865,-0.012705
 06,0.04232939,-0.03683039,-0.13876067,0.10403666,-0.06250096,-0.000084
 44,0.00001175,-0.00002052,-0.00057736,-0.00022635,-0.00015658,0.000144
 04,0.00007813,0.00009250,-0.00004232,-0.00019592,0.00004060,-0.0028775
 8,0.00070404,-0.00325609,-0.00001787,0.00007189,0.00021862,0.00003259,
 -0.00034024,-0.00154148,-0.00078167,0.00194783,-0.00151805,0.12296920,
 -0.00080678,-0.00010207,-0.00092948,0.00052046,0.00088220,0.00061527,0
 .00005098,0.00059270,0.00009111,-0.00020139,0.00011832,-0.00059344,0.0
 0082784,0.00237391,0.00056250,-0.00150586,-0.00161246,-0.00040240,-0.0
 0803245,-0.00888610,-0.00349981,-0.00109087,0.00371874,0.00101056,0.03
 767822,-0.01166312,0.02948693,0.09899454,-0.44338470,0.12519308,0.0004
 2081,-0.00002923,0.00032937,0.00021468,0.00026592,0.00019179,-0.000297
 15,-0.00012948,-0.00032887,0.00009290,0.00035361,0.00006135,0.00079334
 ,0.00408803,-0.00083422,-0.00097164,0.00144492,-0.00064868,0.00020978,
 0.00210202,0.00272508,0.00058734,-0.00137350,0.00120888,-0.13668540,0.
 55789572,0.00128439,0.00050498,0.00168511,-0.00053500,-0.00061600,-0.0
 0067916,-0.00058130,0.00009070,-0.00079595,-0.00109828,0.00014744,-0.0
 0041965,0.00090937,0.00092955,-0.00057501,0.00134110,0.00379782,-0.001
 25780,-0.00302507,0.00427274,0.00052059,-0.00726598,-0.00544274,0.0006
 6142,-0.03327570,0.04436296,-0.02189382,-0.06817072,0.13068046,-0.1693
 4137,-0.00003848,0.00002969,-0.00011849,-0.00081485,-0.00031244,-0.000
 51937,-0.00001049,0.00011737,0.00002454,0.00004106,-0.00021799,0.00010
 436,-0.00287456,-0.00014469,-0.00540981,-0.00040606,0.00034566,-0.0003
 0292,0.00116251,-0.00100761,0.00023510,0.00043401,0.00022699,-0.000838
 88,0.10733891,-0.16600257,0.16229495,0.00094515,-0.00037339,0.00132220
 ,-0.00039185,-0.00005106,-0.00057935,-0.00038394,0.00051912,-0.0005332
 3,-0.00088356,-0.00022588,-0.00048875,0.00080027,-0.00194771,-0.000885
 98,0.00091103,-0.00036654,-0.00052231,0.00058338,0.00656785,-0.0039987
 0,-0.00199996,-0.00159037,-0.00176591,-0.01270503,-0.04232995,-0.03683
 049,-0.13875919,-0.10403526,-0.06249940,-0.00057736,0.00022635,-0.0001
 5659,-0.00008443,-0.00001175,-0.00002052,-0.00004232,0.00019592,0.0000
 4060,0.00014404,-0.00007813,0.00009250,-0.00001789,-0.00007189,0.00021
 863,-0.00287774,-0.00070409,-0.00325633,-0.00078166,-0.00194783,-0.001
 51805,0.00003260,0.00034021,-0.00154149,0.03312041,0.00920066,0.005585
 13,0.12296805,0.00080680,-0.00010207,0.00092949,-0.00005097,0.00059270
 ,-0.00009110,-0.00052046,0.00088221,-0.00061527,0.00020142,0.00011831,
 0.00059346,0.00150587,-0.00161254,0.00040239,-0.00082786,0.00237397,-0
 .00056249,0.00109079,0.00371891,-0.00101058,0.00803264,-0.00888627,0.0
 0350006,-0.03767873,-0.01166425,-0.02948753,-0.09899341,-0.44338716,-0
 .12519103,-0.00021470,0.00026593,-0.00019181,-0.00042082,-0.00002923,-
 0.00032937,-0.00009289,0.00035361,-0.00006135,0.00029716,-0.00012948,0
 .00032887,0.00097161,0.00144490,0.00064866,-0.00079330,0.00408813,0.00
 083427,-0.00058733,-0.00137353,-0.00120890,-0.00020977,0.00210204,-0.0
 0272510,-0.00919977,-0.10665543,-0.01176230,0.13668373,0.55789924,0.00
 128438,-0.00050499,0.00168510,-0.00058129,-0.00009071,-0.00079595,-0.0
 0053500,0.00061599,-0.00067915,-0.00109831,-0.00014744,-0.00041968,0.0
 0134108,-0.00379780,-0.00125781,0.00090940,-0.00092963,-0.00057504,-0.
 00726602,0.00544272,0.00066142,-0.00302541,-0.00427267,0.00052038,-0.0
 3327577,-0.04436349,-0.02189382,-0.06816919,-0.13067814,-0.16933901,-0
 .00081485,0.00031243,-0.00051937,-0.00003847,-0.00002969,-0.00011848,0
 .00004106,0.00021799,0.00010436,-0.00001049,-0.00011737,0.00002454,-0.
 00040607,-0.00034567,-0.00030292,-0.00287478,0.00014467,-0.00541011,0.
 00043402,-0.00022699,-0.00083886,0.00116253,0.00100761,0.00023514,0.00
 558515,0.01176354,0.03662615,0.10733803,0.16599963,0.16229308\\-0.0000
 8735,-0.00000072,-0.00009012,0.00000485,0.00001557,0.00002589,0.000005
 57,-0.00001507,0.00002674,0.00005808,0.00000039,0.00008058,-0.00000011
 ,-0.00000058,-0.00004267,-0.00000070,0.00000019,-0.00004281,-0.0000185
 6,0.00002058,0.00005236,-0.00001799,-0.00002094,0.00005248,0.00002216,
 0.00000037,-0.00006837,0.00000809,-0.00000073,0.00004475,0.00000195,0.
 00001074,0.00001182,0.00000189,-0.00001056,0.00001151,-0.00002446,-0.0
 0000810,0.00002251,-0.00002451,0.00000815,0.00002256,0.00000034,0.0000
 1069,-0.00001655,0.00000039,-0.00001052,-0.00001625,0.00002418,-0.0000
 0649,-0.00002633,0.00002423,0.00000654,-0.00002638,0.00001131,0.000018
 75,-0.00001047,0.00001064,-0.00001824,-0.00001125\\\@


 I MET A TRAVELLER FROM AN ANTIQUE LAND
 WHO SAID... TWO VAST AND TRUNKLESS LEGS OF STONE
 STAND IN THE DESERT..... NEAR THEM,  ON THE SAND,
 HALF SUNK,  A SHATTERED VISAGE LIES,  WHOSE FROWN,
 AND WRINKLED LIP,  AND SNEER OF COLD COMMAND
 TELL THAT ITS SCULPTOR WELL THOSE PASSIONS READ
 WHICH YET SURVIVE,  STAMPED ON THESE LIFELESS THINGS
 THE HAND THAT MOCKED THEM,  AND THE HEART THAT FED-
 AND ON THE PEDESTAL THESE WORDS APPEAR 
 MY NAME IS OZYMANDIAS, KING OF KINGS--   
 LOOK ON MY WORKS YE MIGHTY AND DESPAIR. 
 NOTHING BESIDE REMAINS,  ROUND THE DECAY 
 OF THAT COLOSSAL WRECK,  BOUNDLESS AND BARE
 THE LONE AND LEVEL SANDS STRETCH FAR AWAY.
                                    SHELLEY
 Job cpu time:       0 days  0 hours 15 minutes 13.7 seconds.
 File lengths (MBytes):  RWF=    120 Int=      0 D2E=      0 Chk=      5 Scr=      1
 Normal termination of Gaussian 09 at Fri Aug 20 15:57:34 2021.
