 Entering Gaussian System, Link 0=g09
 Input=B3LYP6-31G.GADFID.gjf
 Output=B3LYP6-31G.GADFID.log
 Initial command:
 /public/home/users/caep010/software/Gaussian09/g09/l1.exe "/public/home/users/caep010/.cache/gau_scr/Gau-75212.inp" -scrdir="/public/home/users/caep010/.cache/gau_scr/"
 Entering Link 1 = /public/home/users/caep010/software/Gaussian09/g09/l1.exe PID=     75213.
  
 Copyright (c) 1988,1990,1992,1993,1995,1998,2003,2009,2015,
            Gaussian, Inc.  All Rights Reserved.
  
 This is part of the Gaussian(R) 09 program.  It is based on
 the Gaussian(R) 03 system (copyright 2003, Gaussian, Inc.),
 the Gaussian(R) 98 system (copyright 1998, Gaussian, Inc.),
 the Gaussian(R) 94 system (copyright 1995, Gaussian, Inc.),
 the Gaussian 92(TM) system (copyright 1992, Gaussian, Inc.),
 the Gaussian 90(TM) system (copyright 1990, Gaussian, Inc.),
 the Gaussian 88(TM) system (copyright 1988, Gaussian, Inc.),
 the Gaussian 86(TM) system (copyright 1986, Carnegie Mellon
 University), and the Gaussian 82(TM) system (copyright 1983,
 Carnegie Mellon University). Gaussian is a federally registered
 trademark of Gaussian, Inc.
  
 This software contains proprietary and confidential information,
 including trade secrets, belonging to Gaussian, Inc.
  
 This software is provided under written license and may be
 used, copied, transmitted, or stored only in accord with that
 written license.
  
 The following legend is applicable only to US Government
 contracts under FAR:
  
                    RESTRICTED RIGHTS LEGEND
  
 Use, reproduction and disclosure by the US Government is
 subject to restrictions as set forth in subparagraphs (a)
 and (c) of the Commercial Computer Software - Restricted
 Rights clause in FAR 52.227-19.
  
 Gaussian, Inc.
 340 Quinnipiac St., Bldg. 40, Wallingford CT 06492
  
  
 ---------------------------------------------------------------
 Warning -- This program may not be used in any manner that
 competes with the business of Gaussian, Inc. or will provide
 assistance to any competitor of Gaussian, Inc.  The licensee
 of this program is prohibited from giving any competitor of
 Gaussian, Inc. access to this program.  By using this program,
 the user acknowledges that Gaussian, Inc. is engaged in the
 business of creating and licensing software in the field of
 computational chemistry and represents and warrants to the
 licensee that it is not a competitor of Gaussian, Inc. and that
 it will not use this program in any manner prohibited above.
 ---------------------------------------------------------------
  

 Cite this work as:
 Gaussian 09, Revision E.01,
 M. J. Frisch, G. W. Trucks, H. B. Schlegel, G. E. Scuseria, 
 M. A. Robb, J. R. Cheeseman, G. Scalmani, V. Barone, B. Mennucci, 
 G. A. Petersson, H. Nakatsuji, M. Caricato, X. Li, H. P. Hratchian, 
 A. F. Izmaylov, J. Bloino, G. Zheng, J. L. Sonnenberg, M. Hada, 
 M. Ehara, K. Toyota, R. Fukuda, J. Hasegawa, M. Ishida, T. Nakajima, 
 Y. Honda, O. Kitao, H. Nakai, T. Vreven, J. A. Montgomery, Jr., 
 J. E. Peralta, F. Ogliaro, M. Bearpark, J. J. Heyd, E. Brothers, 
 K. N. Kudin, V. N. Staroverov, T. Keith, R. Kobayashi, J. Normand, 
 K. Raghavachari, A. Rendell, J. C. Burant, S. S. Iyengar, J. Tomasi, 
 M. Cossi, N. Rega, J. M. Millam, M. Klene, J. E. Knox, J. B. Cross, 
 V. Bakken, C. Adamo, J. Jaramillo, R. Gomperts, R. E. Stratmann, 
 O. Yazyev, A. J. Austin, R. Cammi, C. Pomelli, J. W. Ochterski, 
 R. L. Martin, K. Morokuma, V. G. Zakrzewski, G. A. Voth, 
 P. Salvador, J. J. Dannenberg, S. Dapprich, A. D. Daniels, 
 O. Farkas, J. B. Foresman, J. V. Ortiz, J. Cioslowski, 
 and D. J. Fox, Gaussian, Inc., Wallingford CT, 2013.
 
 ******************************************
 Gaussian 09:  ES64L-G09RevE.01 30-Nov-2015
                20-Aug-2021 
 ******************************************
 %nproc=32
 Will use up to   32 processors via shared memory.
 %mem=180GB
 -------------------------
 #P OPT Freq B3LYP/6-31G**
 -------------------------
 1/14=-1,18=20,19=15,26=3,38=1/1,3;
 2/9=110,12=2,17=6,18=5,40=1/2;
 3/5=1,6=6,7=101,11=2,16=1,25=1,30=1,71=1,74=-5/1,2,3;
 4//1;
 5/5=2,38=5/2;
 6/7=2,8=2,9=2,10=2,28=1/1;
 7//1,2,3,16;
 1/14=-1,18=20,19=15,26=3/3(2);
 2/9=110/2;
 99//99;
 2/9=110/2;
 3/5=1,6=6,7=101,11=2,16=1,25=1,30=1,71=1,74=-5/1,2,3;
 4/5=5,16=3,69=1/1;
 5/5=2,38=5/2;
 7//1,2,3,16;
 1/14=-1,18=20,19=15,26=3/3(-5);
 2/9=110/2;
 6/7=2,8=2,9=2,10=2,19=2,28=1/1;
 99/9=1/99;
 Leave Link    1 at Fri Aug 20 15:50:38 2021, MaxMem= 24159191040 cpu:         2.2
 (Enter /public/home/users/caep010/software/Gaussian09/g09/l101.exe)
 ------
 GADFID
 ------
 Symbolic Z-matrix:
 Charge =  0 Multiplicity = 1
 N                     4.6919    9.4979    1.0579 
 C                     4.7989    10.9479   1.0881 
 H                     5.6353    11.215    0.7005 
 H                     4.0768    11.3328   0.5863 
 C                     3.697     8.8116    0.5109 
 H                     4.7559    11.2527   1.9971 
 N                     3.8256    7.5157    0.5386 
 C                     5.0391    7.2961    1.1487 
 C                     5.5184    5.9913    1.37 
 C                     5.5793    8.5265    1.4808 
 N                     6.7305    8.8104    2.1856 
 O                     7.4928    7.88      2.4682 
 O                     6.9454    9.9786    2.537 
 C                     4.8237    4.924     0.9457 
 N                     5.1318    3.6416    1.0864 
 C                     4.1936    2.6108    0.7077 
 H                     3.5145    2.9875    0.1436 
 H                     3.7868    2.243     1.496 
 H                     4.6557    1.9155    0.2324 
 C                     6.3319    3.2408    1.7728 
 H                     7.0968    3.6025    1.3175 
 H                     6.3895    2.2831    1.7832 
 H                     6.3102    3.5695    2.6739 
 H                     2.9188    9.243     0.1676 
 H                     3.9787    5.0633    0.4488 
 H                     6.3102    5.9115    1.78 
 
 NAtoms=     26 NQM=       26 NQMF=       0 NMMI=      0 NMMIF=      0
                NMic=       0 NMicF=      0.
                    Isotopes and Nuclear Properties:
 (Nuclear quadrupole moments (NQMom) in fm**2, nuclear magnetic moments (NMagM)
  in nuclear magnetons)

  Atom         1           2           3           4           5           6           7           8           9          10
 IAtWgt=          14          12           1           1          12           1          14          12          12          12
 AtmWgt=  14.0030740  12.0000000   1.0078250   1.0078250  12.0000000   1.0078250  14.0030740  12.0000000  12.0000000  12.0000000
 NucSpn=           2           0           1           1           0           1           2           0           0           0
 AtZEff=   0.0000000   0.0000000   0.0000000   0.0000000   0.0000000   0.0000000   0.0000000   0.0000000   0.0000000   0.0000000
 NQMom=    2.0440000   0.0000000   0.0000000   0.0000000   0.0000000   0.0000000   2.0440000   0.0000000   0.0000000   0.0000000
 NMagM=    0.4037610   0.0000000   2.7928460   2.7928460   0.0000000   2.7928460   0.4037610   0.0000000   0.0000000   0.0000000
 AtZNuc=   7.0000000   6.0000000   1.0000000   1.0000000   6.0000000   1.0000000   7.0000000   6.0000000   6.0000000   6.0000000

  Atom        11          12          13          14          15          16          17          18          19          20
 IAtWgt=          14          16          16          12          14          12           1           1           1          12
 AtmWgt=  14.0030740  15.9949146  15.9949146  12.0000000  14.0030740  12.0000000   1.0078250   1.0078250   1.0078250  12.0000000
 NucSpn=           2           0           0           0           2           0           1           1           1           0
 AtZEff=   0.0000000   0.0000000   0.0000000   0.0000000   0.0000000   0.0000000   0.0000000   0.0000000   0.0000000   0.0000000
 NQMom=    2.0440000   0.0000000   0.0000000   0.0000000   2.0440000   0.0000000   0.0000000   0.0000000   0.0000000   0.0000000
 NMagM=    0.4037610   0.0000000   0.0000000   0.0000000   0.4037610   0.0000000   2.7928460   2.7928460   2.7928460   0.0000000
 AtZNuc=   7.0000000   8.0000000   8.0000000   6.0000000   7.0000000   6.0000000   1.0000000   1.0000000   1.0000000   6.0000000

  Atom        21          22          23          24          25          26
 IAtWgt=           1           1           1           1           1           1
 AtmWgt=   1.0078250   1.0078250   1.0078250   1.0078250   1.0078250   1.0078250
 NucSpn=           1           1           1           1           1           1
 AtZEff=   0.0000000   0.0000000   0.0000000   0.0000000   0.0000000   0.0000000
 NQMom=    0.0000000   0.0000000   0.0000000   0.0000000   0.0000000   0.0000000
 NMagM=    2.7928460   2.7928460   2.7928460   2.7928460   2.7928460   2.7928460
 AtZNuc=   1.0000000   1.0000000   1.0000000   1.0000000   1.0000000   1.0000000
 Leave Link  101 at Fri Aug 20 15:50:38 2021, MaxMem= 24159191040 cpu:        10.4
 (Enter /public/home/users/caep010/software/Gaussian09/g09/l103.exe)

 GradGradGradGradGradGradGradGradGradGradGradGradGradGradGradGradGradGrad
 Berny optimization.
 Initialization pass.
                           ----------------------------
                           !    Initial Parameters    !
                           ! (Angstroms and Degrees)  !
 --------------------------                            --------------------------
 ! Name  Definition              Value          Derivative Info.                !
 --------------------------------------------------------------------------------
 ! R1    R(1,2)                  1.4543         estimate D2E/DX2                !
 ! R2    R(1,5)                  1.3267         estimate D2E/DX2                !
 ! R3    R(1,10)                 1.382          estimate D2E/DX2                !
 ! R4    R(2,3)                  0.9598         estimate D2E/DX2                !
 ! R5    R(2,4)                  0.9599         estimate D2E/DX2                !
 ! R6    R(2,6)                  0.9597         estimate D2E/DX2                !
 ! R7    R(5,7)                  1.3026         estimate D2E/DX2                !
 ! R8    R(5,24)                 0.9537         estimate D2E/DX2                !
 ! R9    R(7,8)                  1.3759         estimate D2E/DX2                !
 ! R10   R(8,9)                  1.4076         estimate D2E/DX2                !
 ! R11   R(8,10)                 1.3842         estimate D2E/DX2                !
 ! R12   R(9,14)                 1.3423         estimate D2E/DX2                !
 ! R13   R(9,26)                 0.8952         estimate D2E/DX2                !
 ! R14   R(10,11)                1.3793         estimate D2E/DX2                !
 ! R15   R(11,12)                1.2356         estimate D2E/DX2                !
 ! R16   R(11,13)                1.2387         estimate D2E/DX2                !
 ! R17   R(14,15)                1.3264         estimate D2E/DX2                !
 ! R18   R(14,25)                0.9901         estimate D2E/DX2                !
 ! R19   R(15,16)                1.4444         estimate D2E/DX2                !
 ! R20   R(15,20)                1.4395         estimate D2E/DX2                !
 ! R21   R(16,17)                0.9598         estimate D2E/DX2                !
 ! R22   R(16,18)                0.9603         estimate D2E/DX2                !
 ! R23   R(16,19)                0.9607         estimate D2E/DX2                !
 ! R24   R(20,21)                0.9608         estimate D2E/DX2                !
 ! R25   R(20,22)                0.9595         estimate D2E/DX2                !
 ! R26   R(20,23)                0.9594         estimate D2E/DX2                !
 ! A1    A(2,1,5)              125.418          estimate D2E/DX2                !
 ! A2    A(2,1,10)             130.3334         estimate D2E/DX2                !
 ! A3    A(5,1,10)             104.128          estimate D2E/DX2                !
 ! A4    A(1,2,3)              109.4642         estimate D2E/DX2                !
 ! A5    A(1,2,4)              109.4877         estimate D2E/DX2                !
 ! A6    A(1,2,6)              109.4535         estimate D2E/DX2                !
 ! A7    A(3,2,4)              109.4431         estimate D2E/DX2                !
 ! A8    A(3,2,6)              109.4615         estimate D2E/DX2                !
 ! A9    A(4,2,6)              109.5174         estimate D2E/DX2                !
 ! A10   A(1,5,7)              115.5856         estimate D2E/DX2                !
 ! A11   A(1,5,24)             121.7582         estimate D2E/DX2                !
 ! A12   A(7,5,24)             122.5641         estimate D2E/DX2                !
 ! A13   A(5,7,8)              104.7913         estimate D2E/DX2                !
 ! A14   A(7,8,9)              121.1986         estimate D2E/DX2                !
 ! A15   A(7,8,10)             107.9822         estimate D2E/DX2                !
 ! A16   A(9,8,10)             130.7976         estimate D2E/DX2                !
 ! A17   A(8,9,14)             120.7405         estimate D2E/DX2                !
 ! A18   A(8,9,26)             117.1178         estimate D2E/DX2                !
 ! A19   A(14,9,26)            122.1169         estimate D2E/DX2                !
 ! A20   A(1,10,8)             107.5048         estimate D2E/DX2                !
 ! A21   A(1,10,11)            123.2019         estimate D2E/DX2                !
 ! A22   A(8,10,11)            129.143          estimate D2E/DX2                !
 ! A23   A(10,11,12)           118.4766         estimate D2E/DX2                !
 ! A24   A(10,11,13)           118.9376         estimate D2E/DX2                !
 ! A25   A(12,11,13)           122.5642         estimate D2E/DX2                !
 ! A26   A(9,14,15)            127.9531         estimate D2E/DX2                !
 ! A27   A(9,14,25)            119.2394         estimate D2E/DX2                !
 ! A28   A(15,14,25)           112.7992         estimate D2E/DX2                !
 ! A29   A(14,15,16)           120.7513         estimate D2E/DX2                !
 ! A30   A(14,15,20)           120.8941         estimate D2E/DX2                !
 ! A31   A(16,15,20)           117.8956         estimate D2E/DX2                !
 ! A32   A(15,16,17)           109.486          estimate D2E/DX2                !
 ! A33   A(15,16,18)           109.4676         estimate D2E/DX2                !
 ! A34   A(15,16,19)           109.4997         estimate D2E/DX2                !
 ! A35   A(17,16,18)           109.4533         estimate D2E/DX2                !
 ! A36   A(17,16,19)           109.4878         estimate D2E/DX2                !
 ! A37   A(18,16,19)           109.4329         estimate D2E/DX2                !
 ! A38   A(15,20,21)           109.4468         estimate D2E/DX2                !
 ! A39   A(15,20,22)           109.4594         estimate D2E/DX2                !
 ! A40   A(15,20,23)           109.488          estimate D2E/DX2                !
 ! A41   A(21,20,22)           109.4564         estimate D2E/DX2                !
 ! A42   A(21,20,23)           109.5171         estimate D2E/DX2                !
 ! A43   A(22,20,23)           109.4595         estimate D2E/DX2                !
 ! D1    D(5,1,2,3)           -124.7417         estimate D2E/DX2                !
 ! D2    D(5,1,2,4)             -4.7704         estimate D2E/DX2                !
 ! D3    D(5,1,2,6)            115.2854         estimate D2E/DX2                !
 ! D4    D(10,1,2,3)            50.6148         estimate D2E/DX2                !
 ! D5    D(10,1,2,4)           170.5861         estimate D2E/DX2                !
 ! D6    D(10,1,2,6)           -69.3581         estimate D2E/DX2                !
 ! D7    D(2,1,5,7)            176.9489         estimate D2E/DX2                !
 ! D8    D(2,1,5,24)            -6.4556         estimate D2E/DX2                !
 ! D9    D(10,1,5,7)             0.5975         estimate D2E/DX2                !
 ! D10   D(10,1,5,24)          177.193          estimate D2E/DX2                !
 ! D11   D(2,1,10,8)          -176.1033         estimate D2E/DX2                !
 ! D12   D(2,1,10,11)            7.9869         estimate D2E/DX2                !
 ! D13   D(5,1,10,8)            -0.0043         estimate D2E/DX2                !
 ! D14   D(5,1,10,11)         -175.9142         estimate D2E/DX2                !
 ! D15   D(1,5,7,8)             -0.9238         estimate D2E/DX2                !
 ! D16   D(24,5,7,8)          -177.489          estimate D2E/DX2                !
 ! D17   D(5,7,8,9)            179.3342         estimate D2E/DX2                !
 ! D18   D(5,7,8,10)             0.851          estimate D2E/DX2                !
 ! D19   D(7,8,9,14)             2.4719         estimate D2E/DX2                !
 ! D20   D(7,8,9,26)          -179.3013         estimate D2E/DX2                !
 ! D21   D(10,8,9,14)         -179.4341         estimate D2E/DX2                !
 ! D22   D(10,8,9,26)           -1.2073         estimate D2E/DX2                !
 ! D23   D(7,8,10,1)            -0.5295         estimate D2E/DX2                !
 ! D24   D(7,8,10,11)          175.0572         estimate D2E/DX2                !
 ! D25   D(9,8,10,1)          -178.8155         estimate D2E/DX2                !
 ! D26   D(9,8,10,11)           -3.2289         estimate D2E/DX2                !
 ! D27   D(8,9,14,15)         -179.3315         estimate D2E/DX2                !
 ! D28   D(8,9,14,25)            1.8021         estimate D2E/DX2                !
 ! D29   D(26,9,14,15)           2.532          estimate D2E/DX2                !
 ! D30   D(26,9,14,25)        -176.3344         estimate D2E/DX2                !
 ! D31   D(1,10,11,12)        -176.7817         estimate D2E/DX2                !
 ! D32   D(1,10,11,13)           4.8653         estimate D2E/DX2                !
 ! D33   D(8,10,11,12)           8.2499         estimate D2E/DX2                !
 ! D34   D(8,10,11,13)        -170.1031         estimate D2E/DX2                !
 ! D35   D(9,14,15,16)         172.6319         estimate D2E/DX2                !
 ! D36   D(9,14,15,20)           0.5688         estimate D2E/DX2                !
 ! D37   D(25,14,15,16)         -8.4411         estimate D2E/DX2                !
 ! D38   D(25,14,15,20)        179.4958         estimate D2E/DX2                !
 ! D39   D(14,15,16,17)         16.5267         estimate D2E/DX2                !
 ! D40   D(14,15,16,18)       -103.4582         estimate D2E/DX2                !
 ! D41   D(14,15,16,19)        136.5735         estimate D2E/DX2                !
 ! D42   D(20,15,16,17)       -171.1782         estimate D2E/DX2                !
 ! D43   D(20,15,16,18)         68.837          estimate D2E/DX2                !
 ! D44   D(20,15,16,19)        -51.1313         estimate D2E/DX2                !
 ! D45   D(14,15,20,21)        -60.353          estimate D2E/DX2                !
 ! D46   D(14,15,20,22)        179.6872         estimate D2E/DX2                !
 ! D47   D(14,15,20,23)         59.6986         estimate D2E/DX2                !
 ! D48   D(16,15,20,21)        127.3633         estimate D2E/DX2                !
 ! D49   D(16,15,20,22)          7.4036         estimate D2E/DX2                !
 ! D50   D(16,15,20,23)       -112.5851         estimate D2E/DX2                !
 --------------------------------------------------------------------------------
 Trust Radius=3.00D-01 FncErr=1.00D-07 GrdErr=1.00D-06
 Number of steps in this run=    129 maximum allowed number of steps=    156.
 GradGradGradGradGradGradGradGradGradGradGradGradGradGradGradGradGradGrad

 Leave Link  103 at Fri Aug 20 15:50:38 2021, MaxMem= 24159191040 cpu:         0.6
 (Enter /public/home/users/caep010/software/Gaussian09/g09/l202.exe)
                          Input orientation:                          
 ---------------------------------------------------------------------
 Center     Atomic      Atomic             Coordinates (Angstroms)
 Number     Number       Type             X           Y           Z
 ---------------------------------------------------------------------
      1          7           0        4.691900    9.497900    1.057900
      2          6           0        4.798900   10.947900    1.088100
      3          1           0        5.635300   11.215000    0.700500
      4          1           0        4.076800   11.332800    0.586300
      5          6           0        3.697000    8.811600    0.510900
      6          1           0        4.755900   11.252700    1.997100
      7          7           0        3.825600    7.515700    0.538600
      8          6           0        5.039100    7.296100    1.148700
      9          6           0        5.518400    5.991300    1.370000
     10          6           0        5.579300    8.526500    1.480800
     11          7           0        6.730500    8.810400    2.185600
     12          8           0        7.492800    7.880000    2.468200
     13          8           0        6.945400    9.978600    2.537000
     14          6           0        4.823700    4.924000    0.945700
     15          7           0        5.131800    3.641600    1.086400
     16          6           0        4.193600    2.610800    0.707700
     17          1           0        3.514500    2.987500    0.143600
     18          1           0        3.786800    2.243000    1.496000
     19          1           0        4.655700    1.915500    0.232400
     20          6           0        6.331900    3.240800    1.772800
     21          1           0        7.096800    3.602500    1.317500
     22          1           0        6.389500    2.283100    1.783200
     23          1           0        6.310200    3.569500    2.673900
     24          1           0        2.918800    9.243000    0.167600
     25          1           0        3.978700    5.063300    0.448800
     26          1           0        6.310200    5.911500    1.780000
 ---------------------------------------------------------------------
                    Distance matrix (angstroms):
                    1          2          3          4          5
     1  N    0.000000
     2  C    1.454256   0.000000
     3  H    1.991525   0.959761   0.000000
     4  H    1.991887   0.959885   1.567112   0.000000
     5  C    1.326666   2.472068   3.093426   2.550761   0.000000
     6  H    1.991360   0.959705   1.567143   1.567785   3.047791
     7  N    2.224694   3.609607   4.121413   3.825654   1.302560
     8  C    2.230855   3.660193   3.989250   4.187751   2.122442
     9  C    3.616179   5.016476   5.267726   5.587846   3.465493
    10  C    1.382006   2.574182   2.800006   3.306502   2.136596
    11  N    2.429044   3.082935   3.031021   3.995295   3.465075
    12  O    3.528681   4.309731   4.206815   5.208880   4.371155
    13  O    2.738078   2.765197   2.572504   3.723970   4.002383
    14  C    4.577174   6.025634   6.347874   6.462178   4.070864
    15  N    5.872868   7.313880   7.599922   7.779311   5.396179
    16  C    6.913978   8.367696   8.724151   8.723627   6.223766
    17  H    6.678886   8.118481   8.514675   8.375930   5.838523
    18  H    7.324255   8.773028   9.194920   9.139810   6.642665
    19  H    7.627290   9.073973   9.362662   9.441711   6.967988
    20  C    6.507840   7.887857   8.076072   8.483733   6.290382
    21  H    6.372337   7.699862   7.776042   8.331422   6.272477
    22  H    7.447231   8.836964   9.028837   9.416911   7.175627
    23  H    6.354233   7.696725   7.924864   8.343559   6.243957
    24  H    2.000373   2.699774   3.398844   2.425600   0.953707
    25  H    4.532696   5.975780   6.375821   6.271775   3.759383
    26  H    4.000324   5.303591   5.454166   5.983602   4.104876
                    6          7          8          9         10
     6  H    0.000000
     7  N    4.117991   0.000000
     8  C    4.056435   1.375874   0.000000
     9  C    5.353222   2.424993   1.407553   0.000000
    10  C    2.894256   2.232694   1.384193   2.538351   0.000000
    11  N    3.146332   3.581522   2.495817   3.175172   1.379349
    12  O    4.368943   4.159859   2.846518   2.944739   2.248200
    13  O    2.590122   4.448891   3.571717   4.392810   2.256188
    14  C    6.415799   2.806928   2.390495   1.342299   3.719579
    15  N    7.674602   4.124911   3.656206   2.398120   4.921184
    16  C    8.755636   4.921591   4.781358   3.690734   6.124815
    17  H    8.560962   4.556029   4.679601   3.813461   6.060695
    18  H    9.075514   5.359056   5.217537   4.130868   6.534192
    19  H    9.503026   5.669662   5.471513   4.318626   6.790940
    20  C    8.168514   5.106815   4.301894   2.896425   5.346989
    21  H    8.029149   5.159512   4.231466   2.863646   5.155119
    22  H    9.119656   5.958415   5.230329   3.831488   6.303008
    23  H    7.868003   5.128863   4.222497   2.862205   5.150685
    24  H    3.280381   1.985823   3.041159   4.333271   3.052233
    25  H    6.427281   2.458815   2.568989   2.020017   3.952303
    26  H    5.566992   3.207455   1.982764   0.895218   2.731659
                   11         12         13         14         15
    11  N    0.000000
    12  O    1.235560   0.000000
    13  O    1.238691   2.169908   0.000000
    14  C    4.503037   4.263805   5.708137   0.000000
    15  N    5.520922   5.044574   6.749145   1.326375   0.000000
    16  C    6.859671   6.461312   8.074851   2.409266   1.444362
    17  H    6.958346   6.720654   8.147080   2.471316   1.983022
    18  H    7.229914   6.815818   8.420210   2.926731   1.983149
    19  H    7.460525   6.973034   8.692956   3.096465   1.983786
    20  C    5.599083   4.832540   6.808695   2.406642   1.439453
    21  H    5.292447   4.447239   6.493439   2.655481   1.978929
    22  H    6.548576   5.745588   7.752287   3.182372   1.978095
    23  H    5.280352   4.474513   6.441955   2.651609   1.978378
    24  H    4.334573   5.298302   4.729553   4.784124   6.092392
    25  H    4.962825   4.935653   6.109179   0.990121   1.938403
    26  H    2.957158   2.397322   4.185431   1.969999   2.649935
                   16         17         18         19         20
    16  C    0.000000
    17  H    0.959838   0.000000
    18  H    0.960302   1.567614   0.000000
    19  H    0.960671   1.568250   1.568097   0.000000
    20  C    2.470560   3.264383   2.747682   2.634179   0.000000
    21  H    3.127922   3.819573   3.582765   3.159491   0.960831
    22  H    2.466995   3.383799   2.618805   2.355031   0.959487
    23  H    3.043853   3.815374   3.084574   3.381421   0.959425
    24  H    6.775168   6.283846   7.177609   7.530822   7.088887
    25  H    2.475473   2.148854   3.014556   3.227042   3.257611
    26  H    4.065027   4.363888   4.461625   4.593523   2.670798
                   21         22         23         24         25
    21  H    0.000000
    22  H    1.567790   0.000000
    23  H    1.568327   1.566672   0.000000
    24  H    7.112889   7.943307   7.069069   0.000000
    25  H    3.551214   3.914344   3.552239   4.321152   0.000000
    26  H    2.482766   3.629268   2.506795   5.019992   2.815569
                   26
    26  H    0.000000
 Stoichiometry    C8H12N4O2
 Framework group  C1[X(C8H12N4O2)]
 Deg. of freedom    72
 Full point group                 C1      NOp   1
 Largest Abelian subgroup         C1      NOp   1
 Largest concise Abelian subgroup C1      NOp   1
                         Standard orientation:                         
 ---------------------------------------------------------------------
 Center     Atomic      Atomic             Coordinates (Angstroms)
 Number     Number       Type             X           Y           Z
 ---------------------------------------------------------------------
      1          7           0       -2.366145   -0.950012   -0.000942
      2          6           0       -3.818939   -0.973415   -0.061802
      3          1           0       -4.115972   -0.454657   -0.812669
      4          1           0       -4.120783   -1.879315   -0.159855
      5          6           0       -1.580177   -2.018592    0.019880
      6          1           0       -4.178730   -0.601267    0.746338
      7          7           0       -0.300455   -1.775835    0.013385
      8          6           0       -0.203355   -0.404286   -0.036132
      9          6           0        1.048979    0.238221   -0.043160
     10          6           0       -1.486382    0.115167   -0.037690
     11          7           0       -1.892537    1.432369    0.013501
     12          8           0       -1.036020    2.317261   -0.086264
     13          8           0       -3.092973    1.683062    0.188035
     14          6           0        2.186043   -0.475071   -0.051294
     15          7           0        3.432865   -0.022653   -0.046342
     16          6           0        4.547028   -0.929656    0.102545
     17          1           0        4.254509   -1.827283   -0.070622
     18          1           0        4.889257   -0.871936    0.997938
     19          1           0        5.239097   -0.692379   -0.520054
     20          6           0        3.706298    1.390312   -0.018232
     21          1           0        3.324312    1.805594   -0.795936
     22          1           0        4.655222    1.532223   -0.013687
     23          1           0        3.321791    1.775071    0.772092
     24          1           0       -1.934864   -2.901383    0.086463
     25          1           0        2.136680   -1.463559   -0.079489
     26          1           0        1.048352    1.133132   -0.066603
 ---------------------------------------------------------------------
 Rotational constants (GHZ):      1.4442770      0.3716214      0.2972296
 Leave Link  202 at Fri Aug 20 15:50:38 2021, MaxMem= 24159191040 cpu:         0.5
 (Enter /public/home/users/caep010/software/Gaussian09/g09/l301.exe)
 Standard basis: 6-31G(d,p) (6D, 7F)
 Ernie: Thresh=  0.10000D-02 Tol=  0.10000D-05 Strict=F.
 There are   270 symmetry adapted cartesian basis functions of A   symmetry.
 There are   270 symmetry adapted basis functions of A   symmetry.
   270 basis functions,   476 primitive gaussians,   270 cartesian basis functions
    52 alpha electrons       52 beta electrons
       nuclear repulsion energy       907.1496968443 Hartrees.
 IExCor=  402 DFT=T Ex+Corr=B3LYP ExCW=0 ScaHFX=  0.200000
 ScaDFX=  0.800000  0.720000  1.000000  0.810000 ScalE2=  1.000000  1.000000
 IRadAn=      0 IRanWt=     -1 IRanGd=            0 ICorTp=0 IEmpDi=  4
 NAtoms=   26 NActive=   26 NUniq=   26 SFac= 1.00D+00 NAtFMM=   60 NAOKFM=F Big=F
 Integral buffers will be    131072 words long.
 Raffenetti 2 integral format.
 Two-electron integral symmetry is turned on.
 Leave Link  301 at Fri Aug 20 15:50:39 2021, MaxMem= 24159191040 cpu:         2.1
 (Enter /public/home/users/caep010/software/Gaussian09/g09/l302.exe)
 NPDir=0 NMtPBC=     1 NCelOv=     1 NCel=       1 NClECP=     1 NCelD=      1
         NCelK=      1 NCelE2=     1 NClLst=     1 CellRange=     0.0.
 One-electron integrals computed using PRISM.
 NBasis=   270 RedAO= T EigKep=  6.56D-04  NBF=   270
 NBsUse=   270 1.00D-06 EigRej= -1.00D+00 NBFU=   270
 Precomputing XC quadrature grid using
 IXCGrd= 4 IRadAn=           0 IRanWt=          -1 IRanGd=           0 AccXCQ= 0.00D+00.
 Generated NRdTot=       0 NPtTot=           0 NUsed=           0 NTot=          32
 NSgBfM=   268   268   268   268   268 MxSgAt=    26 MxSgA2=    26.
 Leave Link  302 at Fri Aug 20 15:50:39 2021, MaxMem= 24159191040 cpu:        13.2
 (Enter /public/home/users/caep010/software/Gaussian09/g09/l303.exe)
 DipDrv:  MaxL=1.
 Leave Link  303 at Fri Aug 20 15:50:39 2021, MaxMem= 24159191040 cpu:         0.9
 (Enter /public/home/users/caep010/software/Gaussian09/g09/l401.exe)
 ExpMin= 1.61D-01 ExpMax= 5.48D+03 ExpMxC= 8.25D+02 IAcc=1 IRadAn=         1 AccDes= 0.00D+00
 Harris functional with IExCor=  402 and IRadAn=       1 diagonalized for initial guess.
 HarFok:  IExCor=  402 AccDes= 0.00D+00 IRadAn=         1 IDoV= 1 UseB2=F ITyADJ=14
 ICtDFT=  3500011 ScaDFX=  1.000000  1.000000  1.000000  1.000000
 FoFCou: FMM=F IPFlag=           0 FMFlag=      100000 FMFlg1=           0
         NFxFlg=           0 DoJE=T BraDBF=F KetDBF=T FulRan=T
         wScrn=  0.000000 ICntrl=     500 IOpCl=  0 I1Cent=   200000004 NGrid=           0
         NMat0=    1 NMatS0=      1 NMatT0=    0 NMatD0=    1 NMtDS0=    0 NMtDT0=    0
 Petite list used in FoFCou.
 Harris En= -681.385450628171    
 JPrj=0 DoOrth=F DoCkMO=F.
 Leave Link  401 at Fri Aug 20 15:50:40 2021, MaxMem= 24159191040 cpu:        12.8
 (Enter /public/home/users/caep010/software/Gaussian09/g09/l502.exe)
 Closed shell SCF:
 Using DIIS extrapolation, IDIIS=  1040.
 Integral symmetry usage will be decided dynamically.
 Keep R1 ints in memory in canonical form, NReq=679448449.
 IVT=      247924 IEndB=      247924 NGot= 24159191040 MDV= 23489693712
 LenX= 23489693712 LenY= 23489620371
 Requested convergence on RMS density matrix=1.00D-08 within 128 cycles.
 Requested convergence on MAX density matrix=1.00D-06.
 Requested convergence on             energy=1.00D-06.
 No special actions if energy rises.
 FoFCou: FMM=F IPFlag=           0 FMFlag=           0 FMFlg1=           0
         NFxFlg=           0 DoJE=F BraDBF=F KetDBF=F FulRan=T
         wScrn=  0.000000 ICntrl=     600 IOpCl=  0 I1Cent=           0 NGrid=           0
         NMat0=    1 NMatS0=  36585 NMatT0=    0 NMatD0=    1 NMtDS0=    0 NMtDT0=    0
 Symmetry not used in FoFCou.
 Integral accuracy reduced to 1.0D-05 until final iterations.

 Cycle   1  Pass 0  IDiag  1:
 E= -680.740672260998    
 DIIS: error= 5.32D-02 at cycle   1 NSaved=   1.
 NSaved= 1 IEnMin= 1 EnMin= -680.740672260998     IErMin= 1 ErrMin= 5.32D-02
 ErrMax= 5.32D-02  0.00D+00 EMaxC= 1.00D-01 BMatC= 5.57D-01 BMatP= 5.57D-01
 IDIUse=3 WtCom= 4.68D-01 WtEn= 5.32D-01
 Coeff-Com:  0.100D+01
 Coeff-En:   0.100D+01
 Coeff:      0.100D+01
 Gap=     0.073 Goal=   None    Shift=    0.000
 GapD=    0.073 DampG=0.500 DampE=0.500 DampFc=0.2500 IDamp=-1.
 Damping current iteration by 2.50D-01
 RMSDP=6.45D-03 MaxDP=2.80D-01              OVMax= 5.07D-01

 Cycle   2  Pass 0  IDiag  1:
 E= -680.912530820903     Delta-E=       -0.171858559906 Rises=F Damp=T
 DIIS: error= 1.90D-02 at cycle   2 NSaved=   2.
 NSaved= 2 IEnMin= 2 EnMin= -680.912530820903     IErMin= 2 ErrMin= 1.90D-02
 ErrMax= 1.90D-02  0.00D+00 EMaxC= 1.00D-01 BMatC= 1.19D-01 BMatP= 5.57D-01
 IDIUse=3 WtCom= 8.10D-01 WtEn= 1.90D-01
 Coeff-Com: -0.570D+00 0.157D+01
 Coeff-En:   0.000D+00 0.100D+01
 Coeff:     -0.462D+00 0.146D+01
 Gap=     0.118 Goal=   None    Shift=    0.000
 RMSDP=2.41D-03 MaxDP=6.90D-02 DE=-1.72D-01 OVMax= 4.80D-01

 Cycle   3  Pass 0  IDiag  1:
 E= -681.160555733546     Delta-E=       -0.248024912642 Rises=F Damp=F
 DIIS: error= 1.48D-02 at cycle   3 NSaved=   3.
 NSaved= 3 IEnMin= 3 EnMin= -681.160555733546     IErMin= 3 ErrMin= 1.48D-02
 ErrMax= 1.48D-02  0.00D+00 EMaxC= 1.00D-01 BMatC= 7.61D-02 BMatP= 1.19D-01
 IDIUse=3 WtCom= 8.52D-01 WtEn= 1.48D-01
 Coeff-Com: -0.360D+00 0.910D+00 0.450D+00
 Coeff-En:   0.000D+00 0.000D+00 0.100D+01
 Coeff:     -0.307D+00 0.775D+00 0.532D+00
 Gap=     0.127 Goal=   None    Shift=    0.000
 RMSDP=1.76D-03 MaxDP=6.59D-02 DE=-2.48D-01 OVMax= 2.10D-01

 Cycle   4  Pass 0  IDiag  1:
 E= -681.211457259609     Delta-E=       -0.050901526063 Rises=F Damp=F
 DIIS: error= 1.47D-02 at cycle   4 NSaved=   4.
 NSaved= 4 IEnMin= 4 EnMin= -681.211457259609     IErMin= 4 ErrMin= 1.47D-02
 ErrMax= 1.47D-02  0.00D+00 EMaxC= 1.00D-01 BMatC= 3.03D-02 BMatP= 7.61D-02
 IDIUse=3 WtCom= 8.53D-01 WtEn= 1.47D-01
 Coeff-Com: -0.142D+00 0.368D+00 0.364D+00 0.410D+00
 Coeff-En:   0.000D+00 0.000D+00 0.295D+00 0.705D+00
 Coeff:     -0.121D+00 0.314D+00 0.354D+00 0.454D+00
 Gap=     0.122 Goal=   None    Shift=    0.000
 RMSDP=8.04D-04 MaxDP=4.66D-02 DE=-5.09D-02 OVMax= 9.10D-02

 Cycle   5  Pass 0  IDiag  1:
 E= -681.234974156919     Delta-E=       -0.023516897310 Rises=F Damp=F
 DIIS: error= 8.19D-03 at cycle   5 NSaved=   5.
 NSaved= 5 IEnMin= 5 EnMin= -681.234974156919     IErMin= 5 ErrMin= 8.19D-03
 ErrMax= 8.19D-03  0.00D+00 EMaxC= 1.00D-01 BMatC= 5.26D-03 BMatP= 3.03D-02
 IDIUse=3 WtCom= 9.18D-01 WtEn= 8.19D-02
 Coeff-Com: -0.241D-01 0.727D-01 0.160D+00 0.332D+00 0.460D+00
 Coeff-En:   0.000D+00 0.000D+00 0.000D+00 0.159D+00 0.841D+00
 Coeff:     -0.221D-01 0.668D-01 0.147D+00 0.318D+00 0.491D+00
 Gap=     0.123 Goal=   None    Shift=    0.000
 RMSDP=2.96D-04 MaxDP=2.04D-02 DE=-2.35D-02 OVMax= 4.42D-02

 Cycle   6  Pass 0  IDiag  1:
 E= -681.238394166737     Delta-E=       -0.003420009818 Rises=F Damp=F
 DIIS: error= 3.36D-03 at cycle   6 NSaved=   6.
 NSaved= 6 IEnMin= 6 EnMin= -681.238394166737     IErMin= 6 ErrMin= 3.36D-03
 ErrMax= 3.36D-03  0.00D+00 EMaxC= 1.00D-01 BMatC= 1.00D-03 BMatP= 5.26D-03
 IDIUse=3 WtCom= 9.66D-01 WtEn= 3.36D-02
 Coeff-Com:  0.848D-03 0.348D-02 0.584D-01 0.168D+00 0.364D+00 0.405D+00
 Coeff-En:   0.000D+00 0.000D+00 0.000D+00 0.000D+00 0.192D+00 0.808D+00
 Coeff:      0.820D-03 0.336D-02 0.565D-01 0.163D+00 0.358D+00 0.418D+00
 Gap=     0.123 Goal=   None    Shift=    0.000
 RMSDP=1.26D-04 MaxDP=7.46D-03 DE=-3.42D-03 OVMax= 1.45D-02

 Cycle   7  Pass 0  IDiag  1:
 E= -681.239183950503     Delta-E=       -0.000789783766 Rises=F Damp=F
 DIIS: error= 3.40D-04 at cycle   7 NSaved=   7.
 NSaved= 7 IEnMin= 7 EnMin= -681.239183950503     IErMin= 7 ErrMin= 3.40D-04
 ErrMax= 3.40D-04  0.00D+00 EMaxC= 1.00D-01 BMatC= 6.01D-05 BMatP= 1.00D-03
 IDIUse=3 WtCom= 9.97D-01 WtEn= 3.40D-03
 Coeff-Com:  0.117D-02-0.280D-02 0.102D-01 0.375D-01 0.134D+00 0.256D+00
 Coeff-Com:  0.565D+00
 Coeff-En:   0.000D+00 0.000D+00 0.000D+00 0.000D+00 0.000D+00 0.319D-01
 Coeff-En:   0.968D+00
 Coeff:      0.117D-02-0.279D-02 0.102D-01 0.373D-01 0.133D+00 0.255D+00
 Coeff:      0.566D+00
 Gap=     0.124 Goal=   None    Shift=    0.000
 RMSDP=3.37D-05 MaxDP=1.48D-03 DE=-7.90D-04 OVMax= 4.07D-03

 Cycle   8  Pass 0  IDiag  1:
 E= -681.239237286532     Delta-E=       -0.000053336029 Rises=F Damp=F
 DIIS: error= 7.71D-05 at cycle   8 NSaved=   8.
 NSaved= 8 IEnMin= 8 EnMin= -681.239237286532     IErMin= 8 ErrMin= 7.71D-05
 ErrMax= 7.71D-05  0.00D+00 EMaxC= 1.00D-01 BMatC= 3.52D-06 BMatP= 6.01D-05
 IDIUse=1 WtCom= 1.00D+00 WtEn= 0.00D+00
 Coeff-Com:  0.437D-03-0.184D-02-0.556D-03 0.246D-02 0.371D-01 0.102D+00
 Coeff-Com:  0.307D+00 0.553D+00
 Coeff:      0.437D-03-0.184D-02-0.556D-03 0.246D-02 0.371D-01 0.102D+00
 Coeff:      0.307D+00 0.553D+00
 Gap=     0.124 Goal=   None    Shift=    0.000
 RMSDP=7.33D-06 MaxDP=2.90D-04 DE=-5.33D-05 OVMax= 4.49D-04

 Initial convergence to 1.0D-05 achieved.  Increase integral accuracy.
 Cycle   9  Pass 1  IDiag  1:
 E= -681.239239412251     Delta-E=       -0.000002125719 Rises=F Damp=F
 DIIS: error= 2.60D-05 at cycle   1 NSaved=   1.
 NSaved= 1 IEnMin= 1 EnMin= -681.239239412251     IErMin= 1 ErrMin= 2.60D-05
 ErrMax= 2.60D-05  0.00D+00 EMaxC= 1.00D-01 BMatC= 2.03D-07 BMatP= 2.03D-07
 IDIUse=1 WtCom= 1.00D+00 WtEn= 0.00D+00
 Coeff-Com:  0.100D+01
 Coeff:      0.100D+01
 Gap=     0.124 Goal=   None    Shift=    0.000
 RMSDP=7.33D-06 MaxDP=2.90D-04 DE=-2.13D-06 OVMax= 3.26D-04

 Cycle  10  Pass 1  IDiag  1:
 E= -681.239239238912     Delta-E=        0.000000173340 Rises=F Damp=F
 DIIS: error= 4.06D-05 at cycle   2 NSaved=   2.
 NSaved= 2 IEnMin= 1 EnMin= -681.239239412251     IErMin= 1 ErrMin= 2.60D-05
 ErrMax= 4.06D-05  0.00D+00 EMaxC= 1.00D-01 BMatC= 4.23D-07 BMatP= 2.03D-07
 IDIUse=1 WtCom= 1.00D+00 WtEn= 0.00D+00
 Coeff-Com:  0.604D+00 0.396D+00
 Coeff:      0.604D+00 0.396D+00
 Gap=     0.124 Goal=   None    Shift=    0.000
 RMSDP=3.03D-06 MaxDP=1.29D-04 DE= 1.73D-07 OVMax= 3.28D-04

 Cycle  11  Pass 1  IDiag  1:
 E= -681.239239603575     Delta-E=       -0.000000364663 Rises=F Damp=F
 DIIS: error= 1.58D-05 at cycle   3 NSaved=   3.
 NSaved= 3 IEnMin= 3 EnMin= -681.239239603575     IErMin= 3 ErrMin= 1.58D-05
 ErrMax= 1.58D-05  0.00D+00 EMaxC= 1.00D-01 BMatC= 3.44D-08 BMatP= 2.03D-07
 IDIUse=1 WtCom= 1.00D+00 WtEn= 0.00D+00
 Coeff-Com:  0.183D+00 0.228D+00 0.589D+00
 Coeff:      0.183D+00 0.228D+00 0.589D+00
 Gap=     0.124 Goal=   None    Shift=    0.000
 RMSDP=1.00D-06 MaxDP=5.65D-05 DE=-3.65D-07 OVMax= 1.11D-04

 Cycle  12  Pass 1  IDiag  1:
 E= -681.239239620215     Delta-E=       -0.000000016639 Rises=F Damp=F
 DIIS: error= 1.45D-05 at cycle   4 NSaved=   4.
 NSaved= 4 IEnMin= 4 EnMin= -681.239239620215     IErMin= 4 ErrMin= 1.45D-05
 ErrMax= 1.45D-05  0.00D+00 EMaxC= 1.00D-01 BMatC= 1.82D-08 BMatP= 3.44D-08
 IDIUse=1 WtCom= 1.00D+00 WtEn= 0.00D+00
 Coeff-Com:  0.190D-01 0.948D-01 0.455D+00 0.431D+00
 Coeff:      0.190D-01 0.948D-01 0.455D+00 0.431D+00
 Gap=     0.124 Goal=   None    Shift=    0.000
 RMSDP=5.13D-07 MaxDP=3.71D-05 DE=-1.66D-08 OVMax= 7.12D-05

 Cycle  13  Pass 1  IDiag  1:
 E= -681.239239633431     Delta-E=       -0.000000013217 Rises=F Damp=F
 DIIS: error= 4.07D-06 at cycle   5 NSaved=   5.
 NSaved= 5 IEnMin= 5 EnMin= -681.239239633431     IErMin= 5 ErrMin= 4.07D-06
 ErrMax= 4.07D-06  0.00D+00 EMaxC= 1.00D-01 BMatC= 1.95D-09 BMatP= 1.82D-08
 IDIUse=1 WtCom= 1.00D+00 WtEn= 0.00D+00
 Coeff-Com: -0.881D-02 0.365D-01 0.240D+00 0.300D+00 0.432D+00
 Coeff:     -0.881D-02 0.365D-01 0.240D+00 0.300D+00 0.432D+00
 Gap=     0.124 Goal=   None    Shift=    0.000
 RMSDP=1.72D-07 MaxDP=1.03D-05 DE=-1.32D-08 OVMax= 1.85D-05

 Cycle  14  Pass 1  IDiag  1:
 E= -681.239239635035     Delta-E=       -0.000000001604 Rises=F Damp=F
 DIIS: error= 5.08D-07 at cycle   6 NSaved=   6.
 NSaved= 6 IEnMin= 6 EnMin= -681.239239635035     IErMin= 6 ErrMin= 5.08D-07
 ErrMax= 5.08D-07  0.00D+00 EMaxC= 1.00D-01 BMatC= 9.49D-11 BMatP= 1.95D-09
 IDIUse=1 WtCom= 1.00D+00 WtEn= 0.00D+00
 Coeff-Com: -0.713D-02 0.133D-01 0.102D+00 0.145D+00 0.259D+00 0.488D+00
 Coeff:     -0.713D-02 0.133D-01 0.102D+00 0.145D+00 0.259D+00 0.488D+00
 Gap=     0.124 Goal=   None    Shift=    0.000
 RMSDP=3.93D-08 MaxDP=2.20D-06 DE=-1.60D-09 OVMax= 2.39D-06

 Cycle  15  Pass 1  IDiag  1:
 E= -681.239239635099     Delta-E=       -0.000000000064 Rises=F Damp=F
 DIIS: error= 1.49D-07 at cycle   7 NSaved=   7.
 NSaved= 7 IEnMin= 7 EnMin= -681.239239635099     IErMin= 7 ErrMin= 1.49D-07
 ErrMax= 1.49D-07  0.00D+00 EMaxC= 1.00D-01 BMatC= 6.97D-12 BMatP= 9.49D-11
 IDIUse=1 WtCom= 1.00D+00 WtEn= 0.00D+00
 Coeff-Com: -0.283D-02 0.256D-02 0.249D-01 0.429D-01 0.911D-01 0.248D+00
 Coeff-Com:  0.594D+00
 Coeff:     -0.283D-02 0.256D-02 0.249D-01 0.429D-01 0.911D-01 0.248D+00
 Coeff:      0.594D+00
 Gap=     0.124 Goal=   None    Shift=    0.000
 RMSDP=1.36D-08 MaxDP=5.46D-07 DE=-6.37D-11 OVMax= 8.25D-07

 Cycle  16  Pass 1  IDiag  1:
 E= -681.239239635100     Delta-E=       -0.000000000002 Rises=F Damp=F
 DIIS: error= 7.56D-08 at cycle   8 NSaved=   8.
 NSaved= 8 IEnMin= 8 EnMin= -681.239239635100     IErMin= 8 ErrMin= 7.56D-08
 ErrMax= 7.56D-08  0.00D+00 EMaxC= 1.00D-01 BMatC= 1.28D-12 BMatP= 6.97D-12
 IDIUse=1 WtCom= 1.00D+00 WtEn= 0.00D+00
 Coeff-Com: -0.483D-03-0.381D-03-0.297D-04 0.466D-02 0.150D-01 0.498D-01
 Coeff-Com:  0.320D+00 0.611D+00
 Coeff:     -0.483D-03-0.381D-03-0.297D-04 0.466D-02 0.150D-01 0.498D-01
 Coeff:      0.320D+00 0.611D+00
 Gap=     0.124 Goal=   None    Shift=    0.000
 RMSDP=6.30D-09 MaxDP=3.36D-07 DE=-1.59D-12 OVMax= 6.88D-07

 SCF Done:  E(RB3LYP) =  -681.239239635     A.U. after   16 cycles
            NFock= 16  Conv=0.63D-08     -V/T= 2.0041
 KE= 6.784565799083D+02 PE=-3.403817239193D+03 EE= 1.136971722806D+03
 Leave Link  502 at Fri Aug 20 15:51:01 2021, MaxMem= 24159191040 cpu:       168.2
 (Enter /public/home/users/caep010/software/Gaussian09/g09/l601.exe)
 Copying SCF densities to generalized density rwf, IOpCl= 0 IROHF=0.

 **********************************************************************

            Population analysis using the SCF density.

 **********************************************************************

 Orbital symmetries:
       Occupied  (A) (A) (A) (A) (A) (A) (A) (A) (A) (A) (A) (A)
                 (A) (A) (A) (A) (A) (A) (A) (A) (A) (A) (A) (A)
                 (A) (A) (A) (A) (A) (A) (A) (A) (A) (A) (A) (A)
                 (A) (A) (A) (A) (A) (A) (A) (A) (A) (A) (A) (A)
                 (A) (A) (A) (A)
       Virtual   (A) (A) (A) (A) (A) (A) (A) (A) (A) (A) (A) (A)
                 (A) (A) (A) (A) (A) (A) (A) (A) (A) (A) (A) (A)
                 (A) (A) (A) (A) (A) (A) (A) (A) (A) (A) (A) (A)
                 (A) (A) (A) (A) (A) (A) (A) (A) (A) (A) (A) (A)
                 (A) (A) (A) (A) (A) (A) (A) (A) (A) (A) (A) (A)
                 (A) (A) (A) (A) (A) (A) (A) (A) (A) (A) (A) (A)
                 (A) (A) (A) (A) (A) (A) (A) (A) (A) (A) (A) (A)
                 (A) (A) (A) (A) (A) (A) (A) (A) (A) (A) (A) (A)
                 (A) (A) (A) (A) (A) (A) (A) (A) (A) (A) (A) (A)
                 (A) (A) (A) (A) (A) (A) (A) (A) (A) (A) (A) (A)
                 (A) (A) (A) (A) (A) (A) (A) (A) (A) (A) (A) (A)
                 (A) (A) (A) (A) (A) (A) (A) (A) (A) (A) (A) (A)
                 (A) (A) (A) (A) (A) (A) (A) (A) (A) (A) (A) (A)
                 (A) (A) (A) (A) (A) (A) (A) (A) (A) (A) (A) (A)
                 (A) (A) (A) (A) (A) (A) (A) (A) (A) (A) (A) (A)
                 (A) (A) (A) (A) (A) (A) (A) (A) (A) (A) (A) (A)
                 (A) (A) (A) (A) (A) (A) (A) (A) (A) (A) (A) (A)
                 (A) (A) (A) (A) (A) (A) (A) (A) (A) (A) (A) (A)
                 (A) (A)
 The electronic state is 1-A.
 Alpha  occ. eigenvalues --  -19.13943 -19.13903 -14.53892 -14.39783 -14.36820
 Alpha  occ. eigenvalues --  -14.30857 -10.24059 -10.23417 -10.21695 -10.20922
 Alpha  occ. eigenvalues --  -10.19643 -10.19336 -10.18598 -10.13909  -1.19265
 Alpha  occ. eigenvalues --   -1.03771  -1.01118  -0.97651  -0.90191  -0.81922
 Alpha  occ. eigenvalues --   -0.79391  -0.77704  -0.75234  -0.71976  -0.68162
 Alpha  occ. eigenvalues --   -0.62040  -0.58042  -0.57372  -0.54277  -0.52443
 Alpha  occ. eigenvalues --   -0.51652  -0.50580  -0.50493  -0.49430  -0.48293
 Alpha  occ. eigenvalues --   -0.47816  -0.45739  -0.45320  -0.44026  -0.42841
 Alpha  occ. eigenvalues --   -0.42291  -0.41496  -0.40747  -0.38276  -0.33734
 Alpha  occ. eigenvalues --   -0.28850  -0.28485  -0.27378  -0.27069  -0.25665
 Alpha  occ. eigenvalues --   -0.25184  -0.17833
 Alpha virt. eigenvalues --   -0.05437   0.02772   0.05234   0.09713   0.12520
 Alpha virt. eigenvalues --    0.13493   0.13974   0.14556   0.15145   0.15664
 Alpha virt. eigenvalues --    0.15921   0.17176   0.18443   0.18958   0.20570
 Alpha virt. eigenvalues --    0.20925   0.22246   0.22719   0.23415   0.25182
 Alpha virt. eigenvalues --    0.26225   0.28884   0.30704   0.31391   0.34031
 Alpha virt. eigenvalues --    0.36488   0.40018   0.40724   0.41917   0.45908
 Alpha virt. eigenvalues --    0.46116   0.47724   0.49489   0.51136   0.52338
 Alpha virt. eigenvalues --    0.53491   0.54441   0.54774   0.55621   0.57575
 Alpha virt. eigenvalues --    0.59869   0.60251   0.61418   0.63609   0.65941
 Alpha virt. eigenvalues --    0.68498   0.68768   0.70485   0.70883   0.71993
 Alpha virt. eigenvalues --    0.73012   0.75734   0.77561   0.77747   0.80229
 Alpha virt. eigenvalues --    0.80768   0.82845   0.85301   0.86230   0.87130
 Alpha virt. eigenvalues --    0.87942   0.88444   0.89797   0.90460   0.92630
 Alpha virt. eigenvalues --    0.93032   0.93279   0.94509   0.94913   0.96871
 Alpha virt. eigenvalues --    0.97380   0.97989   0.99971   1.01316   1.03718
 Alpha virt. eigenvalues --    1.04677   1.05020   1.05489   1.09010   1.09180
 Alpha virt. eigenvalues --    1.10037   1.14450   1.19902   1.20368   1.21741
 Alpha virt. eigenvalues --    1.24352   1.24691   1.27898   1.29094   1.30194
 Alpha virt. eigenvalues --    1.31514   1.33197   1.34763   1.37422   1.39230
 Alpha virt. eigenvalues --    1.41799   1.42829   1.43713   1.45574   1.46707
 Alpha virt. eigenvalues --    1.48161   1.50296   1.52477   1.59925   1.62839
 Alpha virt. eigenvalues --    1.65173   1.67575   1.69866   1.70817   1.72736
 Alpha virt. eigenvalues --    1.74963   1.76349   1.80148   1.84237   1.84736
 Alpha virt. eigenvalues --    1.85617   1.86867   1.90302   1.90948   1.93990
 Alpha virt. eigenvalues --    1.97214   1.98292   1.99575   2.00125   2.00894
 Alpha virt. eigenvalues --    2.01604   2.03254   2.06539   2.08710   2.09017
 Alpha virt. eigenvalues --    2.09382   2.09612   2.11375   2.12617   2.14211
 Alpha virt. eigenvalues --    2.16815   2.19229   2.20777   2.21755   2.23432
 Alpha virt. eigenvalues --    2.25140   2.25358   2.26023   2.26569   2.28349
 Alpha virt. eigenvalues --    2.29625   2.31003   2.33304   2.34747   2.39114
 Alpha virt. eigenvalues --    2.40367   2.40806   2.43271   2.44585   2.49318
 Alpha virt. eigenvalues --    2.53146   2.55358   2.56900   2.59690   2.60890
 Alpha virt. eigenvalues --    2.62984   2.63668   2.65292   2.67740   2.68767
 Alpha virt. eigenvalues --    2.70885   2.73661   2.76543   2.76827   2.78363
 Alpha virt. eigenvalues --    2.78972   2.82847   2.84865   2.86927   2.87427
 Alpha virt. eigenvalues --    2.88012   2.88858   2.92292   2.95619   3.03312
 Alpha virt. eigenvalues --    3.05867   3.10641   3.11645   3.13496   3.14174
 Alpha virt. eigenvalues --    3.15206   3.16618   3.24895   3.32580   3.33853
 Alpha virt. eigenvalues --    3.38689   3.53822   3.64274   3.65624   3.67232
 Alpha virt. eigenvalues --    3.73925   3.74630   3.74951   3.75208   3.75590
 Alpha virt. eigenvalues --    3.77297   3.80570   3.84571   3.86235   4.00636
 Alpha virt. eigenvalues --    4.03686   4.07480   4.11145   4.20953   4.22739
 Alpha virt. eigenvalues --    4.28983   4.33920   4.39730   4.48342   4.51691
 Alpha virt. eigenvalues --    4.53724   4.61291   4.80125
          Condensed to atoms (all electrons):
               1          2          3          4          5          6
     1  N    6.903075   0.293877  -0.031008  -0.033420   0.419487  -0.034566
     2  C    0.293877   4.679209   0.408295   0.383282  -0.035426   0.409019
     3  H   -0.031008   0.408295   0.541469  -0.034954   0.001469  -0.036451
     4  H   -0.033420   0.383282  -0.034954   0.605308  -0.003448  -0.036107
     5  C    0.419487  -0.035426   0.001469  -0.003448   4.559691   0.000958
     6  H   -0.034566   0.409019  -0.036451  -0.036107   0.000958   0.540805
     7  N   -0.075438   0.005120  -0.000207   0.000248   0.509447  -0.000171
     8  C   -0.060165   0.008514   0.000008  -0.000223  -0.089192  -0.000160
     9  C    0.010155  -0.000073  -0.000004  -0.000001   0.008854  -0.000003
    10  C    0.231389  -0.031987  -0.000643   0.004794  -0.096363  -0.000613
    11  N   -0.054682  -0.004763   0.000271   0.000145   0.002568   0.000368
    12  O    0.002867   0.000197  -0.000056   0.000007  -0.000073   0.000003
    13  O   -0.016597   0.006460   0.003866   0.001538  -0.000123   0.004549
    14  C   -0.000077  -0.000002   0.000000  -0.000000   0.000467  -0.000000
    15  N    0.000001  -0.000000   0.000000   0.000000  -0.000005   0.000000
    16  C   -0.000000   0.000000  -0.000000  -0.000000   0.000000  -0.000000
    17  H   -0.000000   0.000000  -0.000000   0.000000  -0.000000   0.000000
    18  H    0.000000  -0.000000   0.000000   0.000000   0.000000  -0.000000
    19  H    0.000000  -0.000000  -0.000000   0.000000  -0.000000   0.000000
    20  C   -0.000000   0.000000   0.000000   0.000000   0.000000   0.000000
    21  H    0.000000   0.000000  -0.000000  -0.000000  -0.000000   0.000000
    22  H    0.000000  -0.000000   0.000000   0.000000  -0.000000   0.000000
    23  H    0.000000  -0.000000   0.000000   0.000000   0.000000  -0.000000
    24  H   -0.065310  -0.001435  -0.000036   0.003526   0.396952   0.000050
    25  H    0.000057  -0.000001   0.000000  -0.000000  -0.000315   0.000000
    26  H    0.000164  -0.000002  -0.000000  -0.000000  -0.000253  -0.000001
               7          8          9         10         11         12
     1  N   -0.075438  -0.060165   0.010155   0.231389  -0.054682   0.002867
     2  C    0.005120   0.008514  -0.000073  -0.031987  -0.004763   0.000197
     3  H   -0.000207   0.000008  -0.000004  -0.000643   0.000271  -0.000056
     4  H    0.000248  -0.000223  -0.000001   0.004794   0.000145   0.000007
     5  C    0.509447  -0.089192   0.008854  -0.096363   0.002568  -0.000073
     6  H   -0.000171  -0.000160  -0.000003  -0.000613   0.000368   0.000003
     7  N    6.858233   0.437057  -0.093992  -0.075028   0.007328   0.000086
     8  C    0.437057   4.737227   0.460045   0.352594  -0.060811  -0.010921
     9  C   -0.093992   0.460045   5.046975  -0.089057  -0.013328  -0.003177
    10  C   -0.075028   0.352594  -0.089057   5.279992   0.130778  -0.086807
    11  N    0.007328  -0.060811  -0.013328   0.130778   6.091721   0.311760
    12  O    0.000086  -0.010921  -0.003177  -0.086807   0.311760   8.298383
    13  O   -0.000093   0.004042   0.000092  -0.075234   0.275172  -0.091611
    14  C   -0.016790   0.011600   0.489766   0.012022  -0.000018   0.000733
    15  N    0.000379   0.000798  -0.043348  -0.000169  -0.000000  -0.000001
    16  C    0.000009   0.000010   0.005005   0.000002   0.000000   0.000000
    17  H   -0.000035   0.000005   0.000200   0.000000  -0.000000  -0.000000
    18  H   -0.000001   0.000001   0.000014  -0.000000  -0.000000   0.000000
    19  H   -0.000000   0.000002  -0.000255  -0.000000  -0.000000  -0.000000
    20  C    0.000000   0.000424  -0.005326  -0.000001   0.000001  -0.000023
    21  H   -0.000002   0.000166   0.005509  -0.000003  -0.000000   0.000001
    22  H    0.000000  -0.000018   0.000271  -0.000000  -0.000000  -0.000000
    23  H   -0.000002   0.000065   0.006527  -0.000017  -0.000000   0.000015
    24  H   -0.042494   0.004300  -0.000512   0.006923  -0.000116   0.000002
    25  H    0.023755  -0.015343  -0.050022   0.000903  -0.000016  -0.000001
    26  H    0.007662  -0.031107   0.376015  -0.017553  -0.000108   0.025380
              13         14         15         16         17         18
     1  N   -0.016597  -0.000077   0.000001  -0.000000  -0.000000   0.000000
     2  C    0.006460  -0.000002  -0.000000   0.000000   0.000000  -0.000000
     3  H    0.003866   0.000000   0.000000  -0.000000  -0.000000   0.000000
     4  H    0.001538  -0.000000   0.000000  -0.000000   0.000000   0.000000
     5  C   -0.000123   0.000467  -0.000005   0.000000  -0.000000   0.000000
     6  H    0.004549  -0.000000   0.000000  -0.000000   0.000000  -0.000000
     7  N   -0.000093  -0.016790   0.000379   0.000009  -0.000035  -0.000001
     8  C    0.004042   0.011600   0.000798   0.000010   0.000005   0.000001
     9  C    0.000092   0.489766  -0.043348   0.005005   0.000200   0.000014
    10  C   -0.075234   0.012022  -0.000169   0.000002   0.000000  -0.000000
    11  N    0.275172  -0.000018  -0.000000   0.000000  -0.000000  -0.000000
    12  O   -0.091611   0.000733  -0.000001   0.000000  -0.000000   0.000000
    13  O    8.357266   0.000004  -0.000000   0.000000  -0.000000   0.000000
    14  C    0.000004   4.746843   0.365500  -0.041787  -0.003229   0.000244
    15  N   -0.000000   0.365500   6.782961   0.345418  -0.031671  -0.052337
    16  C    0.000000  -0.041787   0.345418   4.673540   0.408220   0.407569
    17  H   -0.000000  -0.003229  -0.031671   0.408220   0.552211  -0.036394
    18  H    0.000000   0.000244  -0.052337   0.407569  -0.036394   0.603276
    19  H   -0.000000   0.002142  -0.042307   0.407091  -0.027460  -0.053683
    20  C   -0.000000  -0.048330   0.328002  -0.051387   0.005930  -0.000858
    21  H   -0.000000  -0.004967  -0.041363   0.003860  -0.000291  -0.000817
    22  H   -0.000000   0.005326  -0.032501  -0.004497   0.000277   0.000335
    23  H    0.000000  -0.003960  -0.046619   0.002586  -0.000402   0.002740
    24  H   -0.000004  -0.000004  -0.000000   0.000000   0.000000  -0.000000
    25  H    0.000000   0.382615  -0.062073  -0.010748   0.006708   0.000281
    26  H    0.000147  -0.078406  -0.012789  -0.000043   0.000000   0.000002
              19         20         21         22         23         24
     1  N    0.000000  -0.000000   0.000000   0.000000   0.000000  -0.065310
     2  C   -0.000000   0.000000   0.000000  -0.000000  -0.000000  -0.001435
     3  H   -0.000000   0.000000  -0.000000   0.000000   0.000000  -0.000036
     4  H    0.000000   0.000000  -0.000000   0.000000   0.000000   0.003526
     5  C   -0.000000   0.000000  -0.000000  -0.000000   0.000000   0.396952
     6  H    0.000000   0.000000   0.000000   0.000000  -0.000000   0.000050
     7  N   -0.000000   0.000000  -0.000002   0.000000  -0.000002  -0.042494
     8  C    0.000002   0.000424   0.000166  -0.000018   0.000065   0.004300
     9  C   -0.000255  -0.005326   0.005509   0.000271   0.006527  -0.000512
    10  C   -0.000000  -0.000001  -0.000003  -0.000000  -0.000017   0.006923
    11  N   -0.000000   0.000001  -0.000000  -0.000000  -0.000000  -0.000116
    12  O   -0.000000  -0.000023   0.000001  -0.000000   0.000015   0.000002
    13  O   -0.000000  -0.000000  -0.000000  -0.000000   0.000000  -0.000004
    14  C    0.002142  -0.048330  -0.004967   0.005326  -0.003960  -0.000004
    15  N   -0.042307   0.328002  -0.041363  -0.032501  -0.046619  -0.000000
    16  C    0.407091  -0.051387   0.003860  -0.004497   0.002586   0.000000
    17  H   -0.027460   0.005930  -0.000291   0.000277  -0.000402   0.000000
    18  H   -0.053683  -0.000858  -0.000817   0.000335   0.002740  -0.000000
    19  H    0.592652  -0.003444   0.001607   0.002796  -0.001088  -0.000000
    20  C   -0.003444   4.684715   0.409199   0.404405   0.405122   0.000000
    21  H    0.001607   0.409199   0.570274  -0.032647  -0.049994  -0.000000
    22  H    0.002796   0.404405  -0.032647   0.585165  -0.035395   0.000000
    23  H   -0.001088   0.405122  -0.049994  -0.035395   0.583202   0.000000
    24  H   -0.000000   0.000000  -0.000000   0.000000   0.000000   0.608200
    25  H    0.000384   0.006822  -0.000145  -0.000333  -0.000156  -0.000012
    26  H    0.000002   0.006890   0.000001  -0.000092   0.000820   0.000015
              25         26
     1  N    0.000057   0.000164
     2  C   -0.000001  -0.000002
     3  H    0.000000  -0.000000
     4  H   -0.000000  -0.000000
     5  C   -0.000315  -0.000253
     6  H    0.000000  -0.000001
     7  N    0.023755   0.007662
     8  C   -0.015343  -0.031107
     9  C   -0.050022   0.376015
    10  C    0.000903  -0.017553
    11  N   -0.000016  -0.000108
    12  O   -0.000001   0.025380
    13  O    0.000000   0.000147
    14  C    0.382615  -0.078406
    15  N   -0.062073  -0.012789
    16  C   -0.010748  -0.000043
    17  H    0.006708   0.000000
    18  H    0.000281   0.000002
    19  H    0.000384   0.000002
    20  C    0.006822   0.006890
    21  H   -0.000145   0.000001
    22  H   -0.000333  -0.000092
    23  H   -0.000156   0.000820
    24  H   -0.000012   0.000015
    25  H    0.602714   0.009081
    26  H    0.009081   0.677696
 Mulliken charges:
               1
     1  N   -0.489808
     2  C   -0.120283
     3  H    0.147981
     4  H    0.109306
     5  C    0.325306
     6  H    0.152319
     7  N   -0.545071
     8  C    0.251084
     9  C   -0.110329
    10  C    0.454077
    11  N    0.313728
    12  O   -0.446765
    13  O   -0.469476
    14  C    0.180310
    15  N   -0.457872
    16  C   -0.144847
    17  H    0.125930
    18  H    0.129629
    19  H    0.121560
    20  C   -0.142142
    21  H    0.139614
    22  H    0.106910
    23  H    0.136558
    24  H    0.089957
    25  H    0.105846
    26  H    0.036479
 Sum of Mulliken charges =  -0.00000
 Mulliken charges with hydrogens summed into heavy atoms:
               1
     1  N   -0.489808
     2  C    0.289323
     5  C    0.415263
     7  N   -0.545071
     8  C    0.251084
     9  C   -0.073850
    10  C    0.454077
    11  N    0.313728
    12  O   -0.446765
    13  O   -0.469476
    14  C    0.286155
    15  N   -0.457872
    16  C    0.232272
    20  C    0.240940
 Electronic spatial extent (au):  <R**2>=           3576.3911
 Charge=             -0.0000 electrons
 Dipole moment (field-independent basis, Debye):
    X=              3.5877    Y=             -3.8109    Z=             -0.1035  Tot=              5.2350
 Quadrupole moment (field-independent basis, Debye-Ang):
   XX=            -52.7107   YY=            -86.1153   ZZ=            -80.4821
   XY=             14.6291   XZ=              1.5449   YZ=             -0.3137
 Traceless Quadrupole moment (field-independent basis, Debye-Ang):
   XX=             20.3920   YY=            -13.0126   ZZ=             -7.3794
   XY=             14.6291   XZ=              1.5449   YZ=             -0.3137
 Octapole moment (field-independent basis, Debye-Ang**2):
  XXX=             64.9752  YYY=            -15.2067  ZZZ=              1.0175  XYY=             13.4546
  XXY=            -40.2786  XXZ=             -2.3117  XZZ=             -6.0304  YZZ=              6.5045
  YYZ=             -0.1050  XYZ=              1.2473
 Hexadecapole moment (field-independent basis, Debye-Ang**3):
 XXXX=          -2955.5300 YYYY=           -928.7865 ZZZZ=            -89.4447 XXXY=            110.9112
 XXXZ=             18.8822 YYYX=             60.7820 YYYZ=             -0.7339 ZZZX=              0.4923
 ZZZY=             -0.1180 XXYY=           -696.9386 XXZZ=           -593.6826 YYZZ=           -164.5783
 XXYZ=             -7.0734 YYXZ=              0.4933 ZZXY=             -7.6217
 N-N= 9.071496968443D+02 E-N=-3.403817249518D+03  KE= 6.784565799083D+02
 No NMR shielding tensors so no spin-rotation constants.
 Leave Link  601 at Fri Aug 20 15:51:01 2021, MaxMem= 24159191040 cpu:        11.6
 (Enter /public/home/users/caep010/software/Gaussian09/g09/l701.exe)
 Compute integral first derivatives.
 ... and contract with generalized density number  0.
 Leave Link  701 at Fri Aug 20 15:51:02 2021, MaxMem= 24159191040 cpu:        16.6
 (Enter /public/home/users/caep010/software/Gaussian09/g09/l702.exe)
 L702 exits ... SP integral derivatives will be done elsewhere.
 Leave Link  702 at Fri Aug 20 15:51:02 2021, MaxMem= 24159191040 cpu:         0.6
 (Enter /public/home/users/caep010/software/Gaussian09/g09/l703.exe)
 Compute integral first derivatives, UseDBF=F ICtDFT=           0.
 Integral derivatives from FoFJK, PRISM(SPDF).
 Calling FoFJK, ICntrl=      2127 FMM=F ISym2X=0 I1Cent= 0 IOpClX= 0 NMat=1 NMatS=1 NMatT=0.
 FoFJK:  IHMeth= 1 ICntrl=    2127 DoSepK=F KAlg= 0 I1Cent=   0 FoldK=F
 IRaf=         0 NMat=   1 IRICut=       1 DoRegI=T DoRafI=F ISym2E= 0.
 FoFCou: FMM=F IPFlag=           0 FMFlag=      100000 FMFlg1=         800
         NFxFlg=           0 DoJE=F BraDBF=F KetDBF=F FulRan=T
         wScrn=  0.000000 ICntrl=    2127 IOpCl=  0 I1Cent=           0 NGrid=           0
         NMat0=    1 NMatS0=      1 NMatT0=    0 NMatD0=    1 NMtDS0=    0 NMtDT0=    0
 Symmetry not used in FoFCou.
 Leave Link  703 at Fri Aug 20 15:51:03 2021, MaxMem= 24159191040 cpu:        34.3
 (Enter /public/home/users/caep010/software/Gaussian09/g09/l716.exe)
 Dipole        = 1.41151758D+00-1.49931433D+00-4.07272170D-02
 ***** Axes restored to original set *****
 -------------------------------------------------------------------
 Center     Atomic                   Forces (Hartrees/Bohr)
 Number     Number              X              Y              Z
 -------------------------------------------------------------------
      1        7           0.005929705    0.008675355    0.002625581
      2        6          -0.005407903   -0.114497400    0.001727869
      3        1           0.112105758    0.035766153   -0.050244015
      4        1          -0.098984214    0.046106280   -0.068802229
      5        6           0.070997625   -0.049789127    0.033414675
      6        1          -0.003389437    0.041433333    0.121533956
      7        7           0.002881032   -0.013029556   -0.000858339
      8        6          -0.014948768   -0.007150876   -0.008160080
      9        6          -0.168766911    0.024148776   -0.089565630
     10        6           0.009128145    0.003770459    0.003236644
     11        7           0.006474560    0.000317073    0.006709102
     12        8           0.006853626   -0.013161725    0.000859640
     13        8           0.001041779    0.016542021    0.001110576
     14        6           0.044262264   -0.010237414    0.026400503
     15        7           0.005296867   -0.011709116   -0.003710807
     16        6           0.076698836    0.082396251    0.031257709
     17        1          -0.090870368    0.050409425   -0.075740117
     18        1          -0.057898325   -0.052532884    0.106567047
     19        1           0.061010010   -0.093923354   -0.065115558
     20        6          -0.094613693    0.032617336   -0.054554830
     21        1           0.104568422    0.048695658   -0.060110194
     22        1           0.007720356   -0.128435673    0.001071431
     23        1          -0.000275942    0.044772536    0.125297450
     24        1          -0.106812542    0.063481081   -0.050490983
     25        1          -0.075877516    0.016752631   -0.041564015
     26        1           0.202876634   -0.021417245    0.107104615
 -------------------------------------------------------------------
 Cartesian Forces:  Max     0.202876634 RMS     0.064062537
 Leave Link  716 at Fri Aug 20 15:51:03 2021, MaxMem= 24159191040 cpu:         0.7
 (Enter /public/home/users/caep010/software/Gaussian09/g09/l103.exe)

 GradGradGradGradGradGradGradGradGradGradGradGradGradGradGradGradGradGrad
 Berny optimization.
 FormGI is forming the generalized inverse of G from B-inverse, IUseBI=4.
 Internal  Forces:  Max     0.230401727 RMS     0.044640502
 Search for a local minimum.
 Step number   1 out of a maximum of  129
 All quantities printed in internal units (Hartrees-Bohrs-Radians)
 RMS Force = .44641D-01 SwitMx=.10000D-02 MixMth= 1
 Mixed Optimization -- RFO/linear search
 Second derivative matrix not updated -- first step.
 ITU=  0
     Eigenvalues ---    0.00974   0.01105   0.01170   0.01564   0.01660
     Eigenvalues ---    0.01965   0.01970   0.01989   0.02061   0.02133
     Eigenvalues ---    0.02185   0.02444   0.02533   0.02666   0.02765
     Eigenvalues ---    0.02777   0.02852   0.07650   0.07655   0.07720
     Eigenvalues ---    0.07725   0.07759   0.07765   0.15977   0.15996
     Eigenvalues ---    0.15999   0.16000   0.16000   0.16000   0.16000
     Eigenvalues ---    0.16000   0.16000   0.16000   0.16000   0.16000
     Eigenvalues ---    0.22000   0.22001   0.23554   0.24769   0.24852
     Eigenvalues ---    0.24858   0.24922   0.24981   0.24990   0.25000
     Eigenvalues ---    0.25000   0.37693   0.38993   0.39661   0.44391
     Eigenvalues ---    0.44461   0.45131   0.49216   0.49221   0.49468
     Eigenvalues ---    0.55295   0.55329   0.55408   0.55498   0.55508
     Eigenvalues ---    0.55525   0.55537   0.55584   0.55597   0.56693
     Eigenvalues ---    0.56849   0.57434   0.60370   0.63707   0.72112
     Eigenvalues ---    0.87559   0.88809
 RFO step:  Lambda=-2.76020192D-01 EMin= 9.74075044D-03
 Linear search not attempted -- first point.
 Maximum step size (   0.300) exceeded in Quadratic search.
    -- Step size scaled by   0.527
 Iteration  1 RMS(Cart)=  0.03625125 RMS(Int)=  0.00010771
 Iteration  2 RMS(Cart)=  0.00022244 RMS(Int)=  0.00000356
 Iteration  3 RMS(Cart)=  0.00000004 RMS(Int)=  0.00000356
 ITry= 1 IFail=0 DXMaxC= 1.17D-01 DCOld= 1.00D+10 DXMaxT= 3.00D-01 DXLimC= 3.00D+00 Rises=F
 Variable       Old X    -DE/DX   Delta X   Delta X   Delta X     New X
                                 (Linear)    (Quad)   (Total)
    R1        2.74815   0.00919   0.00000   0.00742   0.00742   2.75557
    R2        2.50704   0.02687   0.00000   0.01671   0.01672   2.52375
    R3        2.61161   0.01700   0.00000   0.01166   0.01165   2.62327
    R4        1.81369   0.12794   0.00000   0.08116   0.08116   1.89485
    R5        1.81392   0.12892   0.00000   0.08181   0.08181   1.89573
    R6        1.81358   0.12842   0.00000   0.08146   0.08146   1.89504
    R7        2.46148   0.02278   0.00000   0.01319   0.01320   2.47468
    R8        1.80224   0.13405   0.00000   0.08370   0.08370   1.88595
    R9        2.60002   0.01207   0.00000   0.00788   0.00787   2.60790
   R10        2.65989   0.02308   0.00000   0.01691   0.01691   2.67680
   R11        2.61575   0.02066   0.00000   0.01363   0.01362   2.62937
   R12        2.53658   0.03041   0.00000   0.01903   0.01903   2.55561
   R13        1.69172   0.23040   0.00000   0.12185   0.12185   1.81357
   R14        2.60659   0.01719   0.00000   0.01180   0.01180   2.61839
   R15        2.33487   0.01434   0.00000   0.00649   0.00649   2.34136
   R16        2.34079   0.01610   0.00000   0.00737   0.00737   2.34816
   R17        2.50649   0.03002   0.00000   0.01800   0.01800   2.52448
   R18        1.87106   0.08797   0.00000   0.06019   0.06019   1.93125
   R19        2.72945   0.01772   0.00000   0.01403   0.01403   2.74348
   R20        2.72017   0.02074   0.00000   0.01626   0.01626   2.73643
   R21        1.81383   0.12859   0.00000   0.08159   0.08159   1.89542
   R22        1.81471   0.13213   0.00000   0.08394   0.08394   1.89864
   R23        1.81540   0.12954   0.00000   0.08237   0.08237   1.89778
   R24        1.81571   0.13006   0.00000   0.08274   0.08274   1.89844
   R25        1.81317   0.12867   0.00000   0.08157   0.08157   1.89474
   R26        1.81305   0.13303   0.00000   0.08432   0.08432   1.89737
    A1        2.18896   0.00005   0.00000  -0.00038  -0.00038   2.18857
    A2        2.27475  -0.00410   0.00000  -0.00455  -0.00456   2.27019
    A3        1.81738   0.00404   0.00000   0.00492   0.00492   1.82230
    A4        1.91051   0.00119   0.00000   0.00142   0.00141   1.91192
    A5        1.91092  -0.00807   0.00000  -0.00979  -0.00979   1.90113
    A6        1.91032   0.00236   0.00000   0.00291   0.00291   1.91323
    A7        1.91014   0.00295   0.00000   0.00345   0.00345   1.91359
    A8        1.91046  -0.00147   0.00000  -0.00171  -0.00171   1.90875
    A9        1.91144   0.00304   0.00000   0.00372   0.00373   1.91517
   A10        2.01735  -0.01092   0.00000  -0.01001  -0.01000   2.00735
   A11        2.12508   0.00282   0.00000   0.00184   0.00184   2.12692
   A12        2.13915   0.00818   0.00000   0.00832   0.00831   2.14746
   A13        1.82895   0.00767   0.00000   0.00814   0.00815   1.83710
   A14        2.11532   0.00902   0.00000   0.00970   0.00970   2.12502
   A15        1.88464  -0.00069   0.00000  -0.00199  -0.00200   1.88265
   A16        2.28285  -0.00831   0.00000  -0.00768  -0.00767   2.27517
   A17        2.10732  -0.00196   0.00000  -0.00208  -0.00208   2.10524
   A18        2.04409   0.00165   0.00000   0.00185   0.00185   2.04594
   A19        2.13134   0.00032   0.00000   0.00025   0.00025   2.13159
   A20        1.87631  -0.00010   0.00000  -0.00105  -0.00106   1.87525
   A21        2.15028   0.00015   0.00000   0.00063   0.00064   2.15092
   A22        2.25397  -0.00004   0.00000   0.00044   0.00045   2.25442
   A23        2.06781  -0.00334   0.00000  -0.00333  -0.00333   2.06447
   A24        2.07585  -0.00223   0.00000  -0.00222  -0.00222   2.07363
   A25        2.13915   0.00565   0.00000   0.00569   0.00568   2.14483
   A26        2.23320  -0.00978   0.00000  -0.01039  -0.01039   2.22281
   A27        2.08112   0.00071   0.00000   0.00015   0.00015   2.08127
   A28        1.96872   0.00907   0.00000   0.01025   0.01025   1.97897
   A29        2.10751   0.00220   0.00000   0.00222   0.00222   2.10972
   A30        2.11000  -0.00397   0.00000  -0.00400  -0.00400   2.10600
   A31        2.05767   0.00176   0.00000   0.00177   0.00177   2.05944
   A32        1.91089  -0.00126   0.00000  -0.00164  -0.00164   1.90925
   A33        1.91057   0.00445   0.00000   0.00551   0.00551   1.91608
   A34        1.91113   0.00102   0.00000   0.00122   0.00121   1.91234
   A35        1.91032  -0.00149   0.00000  -0.00178  -0.00178   1.90854
   A36        1.91092  -0.00107   0.00000  -0.00157  -0.00157   1.90936
   A37        1.90996  -0.00164   0.00000  -0.00174  -0.00174   1.90822
   A38        1.91021   0.00168   0.00000   0.00202   0.00202   1.91222
   A39        1.91043  -0.00115   0.00000  -0.00141  -0.00141   1.90901
   A40        1.91093   0.00348   0.00000   0.00425   0.00425   1.91518
   A41        1.91037  -0.00069   0.00000  -0.00093  -0.00093   1.90944
   A42        1.91143  -0.00233   0.00000  -0.00275  -0.00276   1.90868
   A43        1.91043  -0.00100   0.00000  -0.00117  -0.00117   1.90926
    D1       -2.17715   0.00052   0.00000   0.00086   0.00086  -2.17630
    D2       -0.08326  -0.00008   0.00000  -0.00004  -0.00004  -0.08330
    D3        2.01211   0.00015   0.00000   0.00030   0.00030   2.01241
    D4        0.88339   0.00046   0.00000   0.00072   0.00072   0.88412
    D5        2.97729  -0.00014   0.00000  -0.00018  -0.00017   2.97712
    D6       -1.21053   0.00009   0.00000   0.00017   0.00017  -1.21036
    D7        3.08834  -0.00024   0.00000  -0.00028  -0.00028   3.08806
    D8       -0.11267   0.00153   0.00000   0.00277   0.00277  -0.10990
    D9        0.01043   0.00010   0.00000   0.00015   0.00015   0.01058
   D10        3.09260   0.00186   0.00000   0.00320   0.00320   3.09580
   D11       -3.07358  -0.00041   0.00000  -0.00064  -0.00064  -3.07422
   D12        0.13940  -0.00064   0.00000  -0.00107  -0.00107   0.13832
   D13       -0.00007  -0.00052   0.00000  -0.00086  -0.00086  -0.00093
   D14       -3.07028  -0.00076   0.00000  -0.00129  -0.00129  -3.07157
   D15       -0.01612   0.00027   0.00000   0.00054   0.00054  -0.01558
   D16       -3.09777  -0.00130   0.00000  -0.00229  -0.00230  -3.10007
   D17        3.12997  -0.00007   0.00000  -0.00002  -0.00002   3.12995
   D18        0.01485  -0.00050   0.00000  -0.00097  -0.00098   0.01388
   D19        0.04314  -0.00099   0.00000  -0.00178  -0.00178   0.04136
   D20       -3.12940  -0.00056   0.00000  -0.00101  -0.00101  -3.13041
   D21       -3.13172  -0.00023   0.00000  -0.00039  -0.00039  -3.13210
   D22       -0.02107   0.00021   0.00000   0.00038   0.00039  -0.02069
   D23       -0.00924   0.00067   0.00000   0.00120   0.00120  -0.00804
   D24        3.05532   0.00093   0.00000   0.00167   0.00166   3.05699
   D25       -3.12092  -0.00018   0.00000  -0.00025  -0.00024  -3.12116
   D26       -0.05635   0.00008   0.00000   0.00022   0.00022  -0.05613
   D27       -3.12993  -0.00089   0.00000  -0.00154  -0.00154  -3.13147
   D28        0.03145  -0.00111   0.00000  -0.00191  -0.00191   0.02954
   D29        0.04419  -0.00137   0.00000  -0.00238  -0.00238   0.04181
   D30       -3.07762  -0.00159   0.00000  -0.00275  -0.00275  -3.08037
   D31       -3.08542   0.00085   0.00000   0.00150   0.00150  -3.08392
   D32        0.08492  -0.00219   0.00000  -0.00393  -0.00393   0.08099
   D33        0.14399   0.00057   0.00000   0.00103   0.00103   0.14502
   D34       -2.96886  -0.00248   0.00000  -0.00439  -0.00439  -2.97325
   D35        3.01300   0.00064   0.00000   0.00104   0.00104   3.01404
   D36        0.00993   0.00054   0.00000   0.00099   0.00099   0.01092
   D37       -0.14733   0.00078   0.00000   0.00131   0.00131  -0.14601
   D38        3.13279   0.00068   0.00000   0.00126   0.00126   3.13405
   D39        0.28844   0.00053   0.00000   0.00066   0.00066   0.28910
   D40       -1.80569   0.00040   0.00000   0.00047   0.00048  -1.80521
   D41        2.38366  -0.00094   0.00000  -0.00152  -0.00153   2.38213
   D42       -2.98762   0.00017   0.00000   0.00026   0.00026  -2.98736
   D43        1.20143   0.00005   0.00000   0.00008   0.00008   1.20151
   D44       -0.89241  -0.00129   0.00000  -0.00192  -0.00192  -0.89433
   D45       -1.05336  -0.00008   0.00000  -0.00014  -0.00014  -1.05350
   D46        3.13613   0.00043   0.00000   0.00063   0.00063   3.13677
   D47        1.04194   0.00023   0.00000   0.00033   0.00033   1.04227
   D48        2.22291  -0.00023   0.00000  -0.00025  -0.00025   2.22266
   D49        0.12922   0.00029   0.00000   0.00053   0.00053   0.12974
   D50       -1.96498   0.00008   0.00000   0.00022   0.00022  -1.96476
         Item               Value     Threshold  Converged?
 Maximum Force            0.230402     0.000450     NO 
 RMS     Force            0.044641     0.000300     NO 
 Maximum Displacement     0.117077     0.001800     NO 
 RMS     Displacement     0.036259     0.001200     NO 
 Predicted change in Energy=-1.196142D-01
 Lowest energy point so far.  Saving SCF results.
 GradGradGradGradGradGradGradGradGradGradGradGradGradGradGradGradGradGrad

 Leave Link  103 at Fri Aug 20 15:51:03 2021, MaxMem= 24159191040 cpu:         4.1
 (Enter /public/home/users/caep010/software/Gaussian09/g09/l202.exe)
                          Input orientation:                          
 ---------------------------------------------------------------------
 Center     Atomic      Atomic             Coordinates (Angstroms)
 Number     Number       Type             X           Y           Z
 ---------------------------------------------------------------------
      1          7           0        4.689334    9.514328    1.057436
      2          6           0        4.809838   10.967037    1.095026
      3          1           0        5.685907   11.241520    0.691797
      4          1           0        4.055978   11.369779    0.569802
      5          6           0        3.681863    8.835786    0.502299
      6          1           0        4.767464   11.283954    2.045497
      7          7           0        3.810478    7.532853    0.529403
      8          6           0        5.025031    7.300460    1.142075
      9          6           0        5.508215    5.987796    1.365497
     10          6           0        5.575496    8.532876    1.479920
     11          7           0        6.733580    8.809382    2.188618
     12          8           0        7.490782    7.868780    2.466154
     13          8           0        6.955735    9.980545    2.539416
     14          6           0        4.806950    4.913514    0.937658
     15          7           0        5.128166    3.625097    1.084042
     16          6           0        4.196012    2.577463    0.708228
     17          1           0        3.483256    2.962341    0.116719
     18          1           0        3.771286    2.188751    1.531619
     19          1           0        4.685313    1.853546    0.213184
     20          6           0        6.340178    3.240205    1.776690
     21          1           0        7.136598    3.624200    1.299709
     22          1           0        6.411338    2.240198    1.792003
     23          1           0        6.317114    3.587249    2.718567
     24          1           0        2.872507    9.295301    0.142030
     25          1           0        3.933974    5.058393    0.426429
     26          1           0        6.356709    5.901248    1.805482
 ---------------------------------------------------------------------
                    Distance matrix (angstroms):
                    1          2          3          4          5
     1  N    0.000000
     2  C    1.458183   0.000000
     3  H    2.027324   1.002711   0.000000
     4  H    2.020303   1.003178   1.639513   0.000000
     5  C    1.335512   2.483119   3.136823   2.562350   0.000000
     6  H    2.028287   1.002810   1.636411   1.640504   3.090876
     7  N    2.231019   3.621086   4.159064   3.844983   1.309546
     8  C    2.240774   3.673187   4.021375   4.222074   2.137906
     9  C    3.633441   5.035248   5.299723   5.630973   3.491665
    10  C    1.388173   2.580604   2.823133   3.344438   2.152521
    11  N    2.440382   3.090663   3.041938   4.042988   3.486739
[...]
 0000876,-0.00000782,-0.00000897,-0.00000208,-0.00000462,0.00000078,0.0
 0012066,0.00000946,0.00004743,-0.00058568,0.00004744,0.00019788,0.0005
 0900,-0.00149513,0.00068243,-0.00006304,-0.00009412,-0.00008300,0.0001
 6905,0.00001628,0.00012382,-0.00006248,0.00008559,-0.00003678,-0.00003
 592,-0.00007922,-0.00002842,-0.00254054,-0.00096331,-0.00267817,0.0087
 7350,-0.02528217,-0.01170533,-0.10688736,0.09619217,0.05622533,-0.0088
 0768,0.01579842,0.01233617,-0.00503097,0.00968015,0.00451150,0.1119870
 5,0.00017873,-0.00041025,0.00005304,0.00001185,0.00016206,-0.00000671,
 -0.00000951,-0.00002378,-0.00000806,0.00002160,-0.00001979,0.00001075,
 -0.00006305,0.00013198,-0.00003776,-0.00000997,-0.00002746,-0.00000424
 ,0.00034305,-0.00024176,0.00024911,-0.00082135,0.00084964,-0.00007706,
 0.00005050,-0.00213593,0.00050131,-0.00050654,-0.00022884,-0.00035214,
 0.00078484,0.00028010,0.00047752,-0.00027581,0.00018707,-0.00015281,-0
 .00020450,-0.00042247,-0.00012195,-0.00263617,0.00034182,-0.00462979,0
 .00444610,-0.02893121,-0.00741395,0.08927040,-0.19625509,-0.08968606,0
 .00435266,-0.00678496,-0.00470147,-0.00338546,0.00880523,0.00418575,-0
 .09259815,0.22347407,0.00003167,-0.00006211,0.00000622,0.00000378,0.00
 003003,-0.00000522,-0.00000204,-0.00000244,-0.00000121,0.00000441,-0.0
 0000279,0.00000212,0.00000018,0.00004958,0.00000161,-0.00000137,-0.000
 00461,-0.00000018,0.00009682,-0.00002581,0.00004991,-0.00027876,0.0002
 4485,0.00005294,0.00019357,-0.00060546,0.00006726,-0.00016986,-0.00008
 534,-0.00010889,0.00024203,0.00003539,0.00014980,-0.00009129,0.0001082
 1,-0.00004020,-0.00005274,-0.00011143,-0.00003973,-0.00059358,0.002277
 69,-0.00080406,-0.00257170,-0.00523301,0.00147312,0.05527974,-0.091065
 47,-0.10646997,-0.00788897,0.01563099,0.01065818,0.01489354,-0.0219116
 2,-0.01306627,-0.05975914,0.10126061,0.10803921,0.00149596,-0.00188976
 ,0.00072387,-0.00001819,0.00071511,0.00001370,-0.00002653,-0.00012788,
 -0.00002505,0.00008579,-0.00007642,0.00004696,-0.00056574,0.00029285,-
 0.00035825,-0.00003061,-0.00011525,-0.00001658,0.00151167,-0.00045120,
 0.00113764,-0.00318390,0.00555853,-0.00172782,-0.00035457,-0.01079634,
 0.00152071,-0.00384840,-0.00139341,-0.00241802,0.00553666,0.00045923,0
 .00321781,-0.00206971,0.00225652,-0.00102744,-0.00120698,-0.00186158,-
 0.00073243,-0.01141053,0.02555682,-0.00696225,-0.17383702,0.01039100,-
 0.06248726,-0.02605456,0.00179857,-0.01336650,-0.00085520,-0.00177649,
 0.00009702,0.00192805,0.00175254,-0.00000625,0.00176914,0.00201361,0.0
 0099106,0.51533543,-0.00021360,0.00009528,-0.00011880,-0.00001265,-0.0
 0009224,-0.00001579,0.00000571,-0.00000004,0.00001006,-0.00001865,0.00
 001227,-0.00000954,-0.00009398,-0.00006681,0.00001979,0.00000892,0.000
 00286,-0.00000166,-0.00034498,-0.00039176,-0.00020599,0.00160003,-0.00
 103709,0.00020818,0.00204368,0.00173291,0.00102637,0.00072685,0.000378
 91,0.00044172,-0.00080724,-0.00025550,-0.00053946,0.00018143,-0.000336
 48,0.00018539,0.00016626,0.00051326,0.00013673,0.03313858,-0.01431229,
 0.01952203,0.02094147,-0.10909810,0.01557334,-0.01807958,0.00967935,-0
 .01276187,-0.00376043,-0.00383100,-0.00127549,-0.00017032,-0.00008646,
 0.00050951,-0.00178113,-0.00019779,-0.00126988,0.02726498,0.61589649,0
 .00061405,-0.00090885,0.00044665,0.00000989,0.00032371,-0.00000755,-0.
 00001142,-0.00004297,-0.00000711,0.00003200,-0.00003580,0.00002058,-0.
 00031856,0.00004533,-0.00005017,-0.00001067,-0.00007645,-0.00001129,0.
 00086213,-0.00038760,-0.00001338,-0.00105227,0.00216907,-0.00005036,0.
 00208529,-0.00512108,-0.00055251,-0.00150926,-0.00043826,-0.00085881,0
 .00207792,0.00022666,0.00147839,-0.00075648,0.00074794,-0.00061081,-0.
 00043227,-0.00068705,-0.00041129,-0.00328746,0.00585850,-0.00338551,-0
 .07153859,0.01629130,-0.10363989,-0.00343990,-0.00011547,-0.00532873,-
 0.00043803,-0.00022880,0.00114368,0.00179870,0.00104160,0.00146943,0.0
 0000640,0.00144067,0.00025070,-0.03429712,0.01342549,0.53409457,-0.000
 19889,0.00008649,-0.00010342,-0.00000032,-0.00002667,0.00001329,0.0000
 0156,0.00000370,0.00000060,-0.00000378,0.00000189,-0.00000136,0.000114
 50,0.00005632,0.00007374,-0.00000135,0.00000684,-0.00000254,-0.0000237
 5,-0.00022703,-0.00002124,0.00066924,-0.00028882,0.00013546,0.00045066
 ,0.00122090,0.00008211,0.00040932,0.00017084,0.00021392,-0.00057445,0.
 00013668,-0.00032386,0.00021717,-0.00035740,0.00006118,0.00008454,0.00
 006962,0.00007836,0.00060111,-0.00504413,-0.00014006,-0.02961643,-0.01
 412521,0.00056261,-0.00310880,0.00388950,-0.00006518,-0.00073238,-0.00
 085714,-0.00009367,-0.00018793,-0.00027631,0.00022126,0.00038961,-0.00
 008527,-0.00000711,-0.19399548,-0.11070811,0.06520477,0.21940767,-0.00
 015131,0.00025960,-0.00006869,0.00000165,-0.00010575,-0.00000787,0.000
 00411,0.00001926,0.00000354,-0.00001274,0.00001081,-0.00000740,0.00008
 452,-0.00008861,-0.00003901,0.00000753,0.00001458,0.00000472,-0.000210
 22,0.00014545,-0.00017253,-0.00007660,-0.00077179,0.00088441,-0.000690
 60,-0.00071031,-0.00048367,0.00038036,0.00010567,0.00025570,-0.0004513
 9,-0.00022617,-0.00022758,0.00010894,-0.00003854,0.00011305,0.00013272
 ,0.00028403,0.00004422,0.00111820,0.00177803,-0.00035999,0.00794535,0.
 00633237,-0.00490100,0.00075891,-0.00052785,0.00017324,0.00005295,0.00
 032319,0.00023147,0.00011873,-0.00009278,0.00011851,-0.00040414,0.0003
 0087,0.00021813,-0.11663427,-0.13977793,0.05220791,0.12434608,0.145892
 00,0.00007298,-0.00003056,0.00003769,-0.00001107,-0.00000660,0.0000039
 6,0.00000364,-0.00000299,0.00000504,-0.00000373,0.00000116,-0.00000179
 ,-0.00008177,-0.00000353,-0.00005026,0.00000561,0.00000045,-0.00000098
 ,-0.00001731,0.00011416,0.00000464,-0.00024795,0.00015145,-0.00029790,
 0.00144316,0.00041823,0.00013725,-0.00020434,-0.00010093,-0.00011812,0
 .00039991,-0.00023683,0.00022574,-0.00019654,0.00030212,-0.00012768,-0
 .00006192,0.00009478,-0.00002397,0.00019635,-0.00102655,0.00078532,-0.
 01853730,-0.01281546,0.00554217,-0.00276140,0.00134672,-0.00096760,-0.
 00079432,-0.00053984,-0.00012668,-0.00033726,-0.00025105,-0.00005238,0
 .00007557,0.00007903,-0.00003264,0.06965021,0.05375092,-0.08001735,-0.
 06589383,-0.05590298,0.08299450,-0.00006048,0.00013764,-0.00003342,0.0
 0000321,-0.00003692,0.00001098,0.00000132,0.00000695,0.00000040,-0.000
 00404,0.00000339,-0.00000238,0.00010125,-0.00004487,0.00005633,0.00000
 036,0.00001109,0.00000079,-0.00008531,0.00003607,-0.00000665,0.0004378
 3,-0.00011156,-0.00000618,0.00007213,-0.00050099,-0.00016921,0.0002013
 6,0.00011075,0.00013434,-0.00035299,0.00006255,-0.00023015,0.00014135,
 -0.00020899,0.00005955,0.00006488,0.00006057,0.00005554,-0.00560131,-0
 .00243371,-0.00229448,-0.01168958,0.03362862,0.00213681,0.00062631,0.0
 0256893,0.00095281,0.00036104,-0.00015976,0.00010312,-0.00044981,-0.00
 019723,0.00003331,-0.00001244,-0.00063851,-0.00065915,-0.05972011,0.04
 495094,0.00949587,0.00771101,-0.02243417,-0.00627109,0.06838894,0.0000
 8399,-0.00027334,0.00003597,0.00000275,0.00011817,-0.00000097,-0.00000
 679,-0.00001780,-0.00000582,0.00001545,-0.00001199,0.00000850,-0.00002
 608,0.00012051,0.00002896,-0.00000833,-0.00001869,-0.00000415,0.000282
 20,-0.00030500,0.00014569,-0.00004144,0.00074093,-0.00018550,-0.000044
 74,-0.00058886,-0.00007851,-0.00033945,-0.00009232,-0.00020434,0.00043
 519,0.00027820,0.00025866,-0.00015113,0.00001604,-0.00008817,-0.000128
 59,-0.00032219,-0.00007899,0.00125020,0.00177303,-0.00045197,0.0028333
 5,-0.00928997,0.00138381,-0.00251200,0.00044229,-0.00035466,-0.0003317
 1,0.00040086,0.00020802,0.00024184,0.00008818,-0.00024406,0.00051880,0
 .00078373,0.00033392,0.05430055,-0.29690281,-0.05003465,0.00410715,-0.
 01448654,-0.00432019,-0.06044233,0.32033394,-0.00004905,0.00008965,-0.
 00002725,0.00000201,-0.00001803,0.00000323,-0.00000013,0.00000509,-0.0
 0000054,-0.00000076,0.00000211,-0.00000025,0.00007117,-0.00000495,0.00
 001174,-0.00000048,0.00000762,0.00000078,-0.00005233,0.00006018,0.0000
 0015,0.00004142,-0.00011686,0.00012876,-0.00041839,0.00006494,-0.00000
 248,0.00011716,0.00005312,0.00006403,-0.00021127,0.00006325,-0.0001340
 4,0.00007633,-0.00011375,0.00008504,0.00004207,0.00000680,0.00002330,-
 0.00330732,-0.00009615,-0.00125913,-0.00565753,0.02065433,0.00124293,-
 0.00014999,0.00133901,0.00118929,0.00018814,0.00019718,-0.00003598,0.0
 0023155,-0.00038461,-0.00024635,-0.00000603,-0.00037700,-0.00014818,0.
 01164763,-0.05604653,-0.06077198,-0.00317735,0.01104873,0.00220092,-0.
 00535343,0.05404095,0.06203024,-0.00019172,0.00026991,-0.00008272,0.00
 000819,-0.00011416,-0.00001134,0.00000417,0.00002183,0.00000808,-0.000
 01653,0.00001188,-0.00000965,0.00004621,-0.00007332,0.00001818,0.00001
 018,0.00001428,0.00000277,-0.00024647,0.00012730,-0.00023011,0.0001873
 3,-0.00094237,0.00046780,0.00108517,0.00203035,0.00099639,0.00055895,0
 .00019901,0.00035844,-0.00072628,-0.00019726,-0.00039766,0.00023455,-0
 .00023906,0.00011091,0.00017795,0.00038055,0.00008586,0.00069930,-0.00
 578810,-0.00131924,-0.00598656,0.00096388,-0.03753341,0.00201915,0.002
 50036,-0.00211752,-0.00058227,-0.00027803,0.00029834,-0.00003797,-0.00
 040069,0.00112504,-0.00028725,-0.00021472,0.00003259,-0.05322648,0.003
 91308,0.03536874,-0.00197784,0.00432263,0.02380901,-0.00057989,-0.0004
 1488,0.00586279,0.05929155,-0.00006539,0.00010068,-0.00003910,-0.00000
 706,-0.00004667,0.00000709,0.00000439,0.00000493,0.00000256,-0.0000060
 8,0.00000476,-0.00000322,-0.00002087,-0.00002302,0.00002096,0.00000279
 ,0.00000776,0.00000117,-0.00014060,0.00012945,-0.00005122,0.00020494,-
 0.00032078,-0.00041498,-0.00110643,0.00049954,-0.00105493,0.00011110,-
 0.00000890,0.00007058,-0.00005629,-0.00014236,-0.00005425,0.00003359,0
 .00007844,-0.00005220,0.00001560,0.00011182,0.00003443,0.00058743,0.00
 369736,0.00188277,0.00157758,-0.00054425,0.01089311,0.00007414,0.00010
 349,-0.00011063,-0.00018622,0.00013168,0.00021041,-0.00015583,0.000011
 31,0.00006285,0.00050914,0.00019737,0.00021832,0.00392192,-0.05534849,
 -0.03408300,-0.00297566,0.00285917,0.01951780,0.00425746,-0.00270336,-
 0.03133473,-0.00637468,0.05141700,-0.00041577,0.00048188,-0.00022186,0
 .00001295,-0.00018240,-0.00001218,0.00000490,0.00003102,0.00000621,-0.
 00002129,0.00001888,-0.00001264,0.00015576,-0.00002937,0.00012542,0.00
 000721,0.00003242,0.00000545,-0.00038432,0.00006685,-0.00021002,0.0008
 7425,-0.00137521,0.00018633,0.00053792,0.00257807,0.00007970,0.0010103
 2,0.00033104,0.00065372,-0.00142722,-0.00009880,-0.00090395,0.00049611
 ,-0.00060532,0.00037349,0.00031008,0.00046400,0.00020350,0.00064953,-0
 .00640682,-0.00004583,-0.01528105,0.00612417,-0.01559146,0.00122397,0.
 00162329,-0.00093229,-0.00041504,-0.00017042,0.00010195,-0.00052489,-0
 .00072228,-0.00007714,0.00010178,-0.00033816,-0.00010940,0.03582364,-0
 .03350985,-0.28738235,0.00267164,-0.00213824,-0.00997726,0.00187559,-0
 .00072733,-0.00428430,-0.02723213,0.03409281,0.31778554,-0.01599275,0.
 01269231,-0.00945832,-0.00063404,0.00192762,0.00099667,-0.00002780,-0.
 00021936,-0.00007299,0.00050672,-0.00090850,0.00006069,-0.21848955,0.1
 0332318,-0.10821928,0.00029372,-0.00020219,0.00012374,0.00224957,0.003
 00529,0.00331042,0.00349258,-0.00064423,-0.00234359,0.00033790,0.00024
 833,-0.00021631,0.00041604,-0.00405342,-0.00141456,0.00045248,0.000990
 59,-0.00135034,-0.00058464,-0.00018874,0.00024431,-0.00000018,-0.00003
 914,-0.00000280,-0.00002884,-0.00020826,-0.00009775,-0.00008116,0.0002
 0360,0.00004354,-0.00003943,-0.00003837,-0.00002548,0.00000194,-0.0000
 0292,-0.00000180,0.00001801,0.00001354,-0.00000431,0.00000157,0.000014
 98,0.00000260,0.00006842,-0.00001101,0.00002317,-0.00000540,-0.0000050
 9,-0.00000078,-0.00000484,0.00000779,-0.00000180,-0.00001047,-0.000005
 51,-0.00001609,0.22810759,-0.01581402,0.00965412,-0.00908969,-0.001071
 16,0.00210162,-0.00046558,0.00006091,0.00001284,0.00003927,0.00016885,
 -0.00010932,0.00007957,0.10910055,-0.12473897,0.06135474,0.00008730,0.
 00001486,0.00004410,0.02378563,-0.01337876,0.01382646,0.00039024,-0.00
 518115,-0.00028298,0.00126162,0.00057814,0.00074126,-0.00136729,-0.003
 39154,-0.00106643,-0.00063055,0.00041430,-0.00047143,-0.00027116,0.000
 15030,-0.00011442,0.00001181,0.00048198,0.00002517,-0.00003348,0.00037
 755,0.00001288,0.00004715,-0.00026443,-0.00003806,0.00010020,0.0000687
 1,0.00004407,-0.00000350,0.00000794,-0.00000340,-0.00002789,-0.0000283
 4,0.00001187,-0.00000669,-0.00002737,-0.00000160,-0.00003714,-0.000014
 15,-0.00003301,-0.00002066,0.00001072,0.00001785,-0.00000352,-0.000025
 80,-0.00000001,0.00001509,0.00000982,0.00000781,-0.11585750,0.13374806
 ,-0.01062332,0.00795934,-0.00534911,0.00086456,0.00133149,-0.00158988,
 0.00030765,-0.00011391,0.00025254,0.00011260,-0.00056010,0.00037564,-0
 .10800786,0.05794819,-0.09283938,-0.00022779,-0.00014165,-0.00006603,0
 .00420658,0.00132790,-0.00048110,-0.00230779,-0.00091500,0.00593149,-0
 .00016237,0.00014392,0.00060312,-0.00134552,-0.00265745,0.00158287,-0.
 00139459,0.00050359,0.00196612,0.00023272,-0.00005916,-0.00086927,-0.0
 0000350,-0.00001153,-0.00000071,-0.00005979,-0.00009393,0.00002584,-0.
 00002608,0.00009096,-0.00000978,-0.00001885,-0.00002424,-0.00002059,-0
 .00000154,-0.00000151,0.00000374,0.00001074,0.00001299,-0.00000495,0.0
 0000058,0.00000431,0.00000042,0.00003290,0.00000069,0.00002613,-0.0000
 0115,-0.00001206,0.00000174,-0.00000314,0.00000597,-0.00000341,-0.0000
 0590,0.00000171,-0.00000994,0.11832746,-0.06469333,0.09061075,-0.00015
 824,0.00034245,-0.00014841,0.00012475,-0.00003403,-0.00010826,-0.00000
 937,0.00005597,-0.00000332,-0.00000305,-0.00000010,-0.00000417,0.00023
 775,0.00002809,0.00047734,-0.00000202,-0.00000872,0.00000872,0.0002579
 4,0.00119353,0.00015727,-0.00179471,0.00039625,0.00146776,-0.01025552,
 0.00271163,-0.00988461,0.00024754,0.00006955,0.00027053,-0.00081279,0.
 00036132,-0.00035066,0.00010337,-0.00070475,0.00016679,0.00018481,-0.0
 0008287,-0.00001564,-0.26511570,0.03305980,-0.12130667,-0.00847023,0.0
 0401349,-0.00587867,-0.00010192,-0.00213108,0.00137556,0.00108864,0.00
 001725,0.00038719,0.00017258,-0.00009114,0.00007795,0.00033427,-0.0000
 4931,0.00021344,0.00317059,0.00018639,-0.00110087,0.00018597,-0.000190
 70,0.00007008,0.00011883,0.00021231,-0.00021979,-0.00060106,0.00028207
 ,-0.00031052,-0.00000690,0.00000815,-0.00000460,0.27909183,0.00064636,
 0.00075165,0.00042036,0.00010124,-0.00017741,0.00007673,0.00001157,0.0
 0006793,-0.00001225,0.00000174,-0.00000800,0.00000030,0.00062163,-0.00
 091577,0.00022503,-0.00000668,0.00007677,0.00002044,-0.00056195,-0.000
 74290,-0.00029754,-0.00145867,0.00036541,-0.00076162,-0.02192526,0.008
 45969,-0.01239232,0.00027047,0.00056171,0.00015844,-0.00078648,0.00079
 917,-0.00045339,0.00023297,-0.00091807,0.00010156,0.00021895,-0.000327
 29,0.00013257,0.02954225,-0.06160110,0.01525167,0.02990951,-0.00921587
 ,0.01610852,0.00292869,0.00028334,0.00190504,-0.00062281,-0.00100881,-
 0.00047952,-0.00026334,-0.00012383,-0.00014792,-0.00018534,0.00021488,
 -0.00004079,-0.00043499,-0.00495833,-0.00118669,-0.00004815,0.00012383
 ,-0.00018601,0.00135702,-0.00022137,0.00083789,-0.00004177,0.00000936,
 0.00008913,-0.00001772,0.00004316,-0.00001367,-0.03808198,0.07202326,0
 .00000811,0.00010187,0.00017151,-0.00010082,0.00002163,0.00023709,0.00
 001334,-0.00004147,-0.00001078,0.00000525,-0.00000717,0.00000769,0.000
 38756,-0.00008091,-0.00024504,-0.00001793,0.00006038,-0.00001140,0.000
 34778,0.00079703,0.00018655,0.00143749,0.00117887,-0.00418003,-0.01148
 327,-0.00029058,0.00040985,-0.00012881,-0.00012186,-0.00033931,0.00010
 505,0.00033789,-0.00009080,0.00007278,-0.00023607,-0.00024295,-0.00012
 336,-0.00027948,0.00013825,-0.12245426,0.02018661,-0.11057199,-0.00218
 971,-0.00067209,0.00112223,0.00113896,-0.00155183,-0.00156251,0.000073
 31,0.00021303,0.00043960,-0.00009330,0.00046470,-0.00012213,0.00022496
 ,-0.00029127,0.00020315,-0.00118087,0.00043340,0.00434012,-0.00033049,
 0.00012924,-0.00026074,-0.00050439,-0.00006296,0.00008341,0.00081829,-
 0.00054127,0.00027483,-0.00000354,-0.00000249,0.00000698,0.13773347,-0
 .01837471,0.10364038,-0.00018736,0.00005074,0.00025841,-0.00004119,-0.
 00004180,0.00007095,-0.00000056,-0.00000414,0.00001294,0.00000677,0.00
 000063,0.00000402,-0.00010815,0.00009272,-0.00067507,0.00001667,0.0000
 2445,0.00000842,0.00180446,0.00085525,-0.00072652,-0.00649003,0.000869
 21,-0.00357250,-0.26580060,0.02382029,-0.14092409,-0.00091791,-0.00067
 413,-0.00021245,0.00121749,-0.00014167,0.00127097,-0.00350135,-0.00277
 922,-0.00182915,0.00005245,0.00022292,-0.00045389,-0.00860826,0.001399
 01,-0.00699587,-0.00119855,0.00147236,0.00188209,-0.00034350,-0.000326
 88,0.00027710,0.00008237,0.00010279,0.00000805,-0.00005746,-0.00001943
 ,-0.00017364,0.00019465,0.00001000,0.00009029,-0.00049770,0.00087335,0
 .00061398,0.00018447,0.00187856,-0.00030591,0.00033100,0.00015592,0.00
 032538,0.00014810,-0.00048154,0.00027267,-0.00004055,0.00010707,0.0000
 9797,0.00201264,-0.00140726,-0.00375559,0.28174211,0.00025834,-0.00094
 361,0.00013011,-0.00011895,0.00017608,-0.00005441,0.00000355,-0.000097
 63,0.00004714,-0.00003074,0.00001844,-0.00001789,0.00111939,0.00067406
 ,0.00067565,0.00004631,-0.00009200,-0.00002427,0.00131344,-0.00593894,
 0.00044238,0.02587552,0.00452069,0.01560735,0.02095228,-0.05904575,0.0
 1183908,-0.00256262,-0.00038819,-0.00152098,0.00564419,-0.00492962,0.0
 0320927,-0.00377591,0.00219081,-0.00213480,-0.00094635,0.00144561,-0.0
 0052640,-0.02199177,0.00728231,-0.01300144,0.00113108,0.00104794,0.000
 51440,-0.00011329,-0.00013821,0.00020909,0.00019126,0.00009663,0.00008
 525,-0.00002403,-0.00001986,0.00000084,0.00008977,-0.00002210,0.000014
 64,-0.00068747,-0.00160405,-0.00039852,0.00094456,-0.00163332,-0.00037
 116,0.00002059,0.00016415,0.00002175,0.00030888,-0.00023614,0.00036284
 ,-0.00002525,-0.00051429,-0.00003351,-0.00156355,-0.00356141,-0.001370
 49,-0.02605920,0.06154840,0.00024437,0.00003120,-0.00043652,0.00006494
 ,-0.00001119,-0.00011403,0.00001613,0.00002656,0.00000736,0.00000416,0
 .00000092,0.00000224,-0.00063055,0.00007757,0.00058148,0.00000581,-0.0
 0001818,-0.00001242,-0.00072592,0.00027861,0.00264944,-0.00298614,0.00
 070419,-0.00195764,-0.14152892,0.01368650,-0.11526642,-0.00024194,-0.0
 0039107,-0.00078820,0.00142271,-0.00020295,-0.00005116,-0.00183086,-0.
 00153630,-0.00176057,-0.00047600,0.00013297,0.00051874,-0.00700918,0.0
 0092279,-0.00065838,0.00136110,0.00064568,-0.00304969,0.00003495,0.000
 00822,-0.00063327,0.00011388,-0.00025903,0.00014522,0.00017855,0.00008
 280,0.00023350,-0.00021548,-0.00006368,-0.00012870,-0.00029733,0.00051
 124,-0.00017116,0.00084233,-0.00111181,0.00011635,0.00061824,0.0003918
 1,-0.00014993,-0.00042354,0.00072294,-0.00002553,0.00009716,0.00005739
 ,-0.00014325,-0.00306991,-0.00098126,0.00637603,0.15443143,-0.01370592
 ,0.11471650\\-0.00001201,0.00000322,0.00000034,-0.00000012,-0.00000158
 ,0.00000426,-0.00000022,0.00000197,-0.00000157,-0.00000129,-0.00000023
 ,0.00000016,0.00000392,-0.00000714,0.00000304,0.00000209,-0.00000095,-
 0.00000540,-0.00000393,0.00000443,0.00000225,0.00000631,-0.00000409,-0
 .00000227,-0.00002777,0.00000930,-0.00001539,0.00000638,0.00000004,0.0
 0000491,-0.00000463,-0.00000695,-0.00000591,0.00000142,0.00000245,-0.0
 0000289,0.00000288,0.00000354,0.00000047,0.00000576,-0.00001052,0.0000
 0513,-0.00000046,0.00001017,-0.00000796,0.00000011,-0.00000822,0.00000
 946,-0.00000049,-0.00000029,0.00000311,0.00000465,0.00000240,-0.000005
 08,-0.00000316,0.00000391,0.00000150,0.00000143,-0.00000130,0.00000496
 ,-0.00000076,-0.00000246,-0.00000077,0.00000027,0.00000086,-0.00000077
 ,0.00000245,-0.00000003,-0.00000616,-0.00000007,0.00000033,0.00000289,
 -0.00000249,0.00000263,0.00000124,0.00001973,-0.00000146,0.00001043\\\
 @


 AN AIRPLANE IS A COLLECTION OF SPARE PARTS
 FLYING IN CLOSE FORMATION.
 Job cpu time:       0 days  0 hours 24 minutes 36.1 seconds.
 File lengths (MBytes):  RWF=    213 Int=      0 D2E=      0 Chk=      7 Scr=      1
 Normal termination of Gaussian 09 at Fri Aug 20 15:58:16 2021.
