 Entering Gaussian System, Link 0=g09
 Input=B3LYP6-31G.BABBUB.gjf
 Output=B3LYP6-31G.BABBUB.log
 Initial command:
 /public/home/users/caep010/software/Gaussian09/g09/l1.exe "/public/home/users/caep010/.cache/gau_scr/Gau-130763.inp" -scrdir="/public/home/users/caep010/.cache/gau_scr/"
 Entering Link 1 = /public/home/users/caep010/software/Gaussian09/g09/l1.exe PID=    130764.
  
 Copyright (c) 1988,1990,1992,1993,1995,1998,2003,2009,2015,
            Gaussian, Inc.  All Rights Reserved.
  
 This is part of the Gaussian(R) 09 program.  It is based on
 the Gaussian(R) 03 system (copyright 2003, Gaussian, Inc.),
 the Gaussian(R) 98 system (copyright 1998, Gaussian, Inc.),
 the Gaussian(R) 94 system (copyright 1995, Gaussian, Inc.),
 the Gaussian 92(TM) system (copyright 1992, Gaussian, Inc.),
 the Gaussian 90(TM) system (copyright 1990, Gaussian, Inc.),
 the Gaussian 88(TM) system (copyright 1988, Gaussian, Inc.),
 the Gaussian 86(TM) system (copyright 1986, Carnegie Mellon
 University), and the Gaussian 82(TM) system (copyright 1983,
 Carnegie Mellon University). Gaussian is a federally registered
 trademark of Gaussian, Inc.
  
 This software contains proprietary and confidential information,
 including trade secrets, belonging to Gaussian, Inc.
  
 This software is provided under written license and may be
 used, copied, transmitted, or stored only in accord with that
 written license.
  
 The following legend is applicable only to US Government
 contracts under FAR:
  
                    RESTRICTED RIGHTS LEGEND
  
 Use, reproduction and disclosure by the US Government is
 subject to restrictions as set forth in subparagraphs (a)
 and (c) of the Commercial Computer Software - Restricted
 Rights clause in FAR 52.227-19.
  
 Gaussian, Inc.
 340 Quinnipiac St., Bldg. 40, Wallingford CT 06492
  
  
 ---------------------------------------------------------------
 Warning -- This program may not be used in any manner that
 competes with the business of Gaussian, Inc. or will provide
 assistance to any competitor of Gaussian, Inc.  The licensee
 of this program is prohibited from giving any competitor of
 Gaussian, Inc. access to this program.  By using this program,
 the user acknowledges that Gaussian, Inc. is engaged in the
 business of creating and licensing software in the field of
 computational chemistry and represents and warrants to the
 licensee that it is not a competitor of Gaussian, Inc. and that
 it will not use this program in any manner prohibited above.
 ---------------------------------------------------------------
  

 Cite this work as:
 Gaussian 09, Revision E.01,
 M. J. Frisch, G. W. Trucks, H. B. Schlegel, G. E. Scuseria, 
 M. A. Robb, J. R. Cheeseman, G. Scalmani, V. Barone, B. Mennucci, 
 G. A. Petersson, H. Nakatsuji, M. Caricato, X. Li, H. P. Hratchian, 
 A. F. Izmaylov, J. Bloino, G. Zheng, J. L. Sonnenberg, M. Hada, 
 M. Ehara, K. Toyota, R. Fukuda, J. Hasegawa, M. Ishida, T. Nakajima, 
 Y. Honda, O. Kitao, H. Nakai, T. Vreven, J. A. Montgomery, Jr., 
 J. E. Peralta, F. Ogliaro, M. Bearpark, J. J. Heyd, E. Brothers, 
 K. N. Kudin, V. N. Staroverov, T. Keith, R. Kobayashi, J. Normand, 
 K. Raghavachari, A. Rendell, J. C. Burant, S. S. Iyengar, J. Tomasi, 
 M. Cossi, N. Rega, J. M. Millam, M. Klene, J. E. Knox, J. B. Cross, 
 V. Bakken, C. Adamo, J. Jaramillo, R. Gomperts, R. E. Stratmann, 
 O. Yazyev, A. J. Austin, R. Cammi, C. Pomelli, J. W. Ochterski, 
 R. L. Martin, K. Morokuma, V. G. Zakrzewski, G. A. Voth, 
 P. Salvador, J. J. Dannenberg, S. Dapprich, A. D. Daniels, 
 O. Farkas, J. B. Foresman, J. V. Ortiz, J. Cioslowski, 
 and D. J. Fox, Gaussian, Inc., Wallingford CT, 2013.
 
 ******************************************
 Gaussian 09:  ES64L-G09RevE.01 30-Nov-2015
                20-Aug-2021 
 ******************************************
 %nproc=32
 Will use up to   32 processors via shared memory.
 %mem=180GB
 -------------------------
 #P OPT Freq B3LYP/6-31G**
 -------------------------
 1/14=-1,18=20,19=15,26=3,38=1/1,3;
 2/9=110,12=2,17=6,18=5,40=1/2;
 3/5=1,6=6,7=101,11=2,16=1,25=1,30=1,71=1,74=-5/1,2,3;
 4//1;
 5/5=2,38=5/2;
 6/7=2,8=2,9=2,10=2,28=1/1;
 7//1,2,3,16;
 1/14=-1,18=20,19=15,26=3/3(2);
 2/9=110/2;
 99//99;
 2/9=110/2;
 3/5=1,6=6,7=101,11=2,16=1,25=1,30=1,71=1,74=-5/1,2,3;
 4/5=5,16=3,69=1/1;
 5/5=2,38=5/2;
 7//1,2,3,16;
 1/14=-1,18=20,19=15,26=3/3(-5);
 2/9=110/2;
 6/7=2,8=2,9=2,10=2,19=2,28=1/1;
 99/9=1/99;
 Leave Link    1 at Fri Aug 20 15:35:33 2021, MaxMem= 24159191040 cpu:         1.8
 (Enter /public/home/users/caep010/software/Gaussian09/g09/l101.exe)
 ------
 BABBUB
 ------
 Symbolic Z-matrix:
 Charge =  0 Multiplicity = 1
 C                     0.9801    7.7376    5.0695 
 N                     1.5033    7.0993    4.0312 
 C                     1.4931    5.6528    4.2455 
 C                     0.6852    5.5054    5.5251 
 H                    -0.1843    5.1062    5.3437 
 N                     0.5397    6.8756    5.9721 
 H                     0.1358    7.1213    6.6453 
 N                     0.836     9.0533    5.3526 
 N                     1.2798    9.94      4.4521 
 O                     1.7996    9.6179    3.3756 
 H                     1.9204    7.497     3.3645 
 O                     1.1207    11.1265   4.7644 
 H                     2.4247    5.3282    4.3616 
 H                     1.1105    5.2086    3.4499 
 H                     1.1057    4.9354    6.2036 
 
 Add atom      9 valence  3 ND=      2 dihedral       8      9     10     12
 NAtoms=     15 NQM=       15 NQMF=       0 NMMI=      0 NMMIF=      0
                NMic=       0 NMicF=      0.
                    Isotopes and Nuclear Properties:
 (Nuclear quadrupole moments (NQMom) in fm**2, nuclear magnetic moments (NMagM)
  in nuclear magnetons)

  Atom         1           2           3           4           5           6           7           8           9          10
 IAtWgt=          12          14          12          12           1          14           1          14          14          16
 AtmWgt=  12.0000000  14.0030740  12.0000000  12.0000000   1.0078250  14.0030740   1.0078250  14.0030740  14.0030740  15.9949146
 NucSpn=           0           2           0           0           1           2           1           2           2           0
 AtZEff=   0.0000000   0.0000000   0.0000000   0.0000000   0.0000000   0.0000000   0.0000000   0.0000000   0.0000000   0.0000000
 NQMom=    0.0000000   2.0440000   0.0000000   0.0000000   0.0000000   2.0440000   0.0000000   2.0440000   2.0440000   0.0000000
 NMagM=    0.0000000   0.4037610   0.0000000   0.0000000   2.7928460   0.4037610   2.7928460   0.4037610   0.4037610   0.0000000
 AtZNuc=   6.0000000   7.0000000   6.0000000   6.0000000   1.0000000   7.0000000   1.0000000   7.0000000   7.0000000   8.0000000

  Atom        11          12          13          14          15
 IAtWgt=           1          16           1           1           1
 AtmWgt=   1.0078250  15.9949146   1.0078250   1.0078250   1.0078250
 NucSpn=           1           0           1           1           1
 AtZEff=   0.0000000   0.0000000   0.0000000   0.0000000   0.0000000
 NQMom=    0.0000000   0.0000000   0.0000000   0.0000000   0.0000000
 NMagM=    2.7928460   0.0000000   2.7928460   2.7928460   2.7928460
 AtZNuc=   1.0000000   8.0000000   1.0000000   1.0000000   1.0000000
 Leave Link  101 at Fri Aug 20 15:35:33 2021, MaxMem= 24159191040 cpu:        10.7
 (Enter /public/home/users/caep010/software/Gaussian09/g09/l103.exe)

 GradGradGradGradGradGradGradGradGradGradGradGradGradGradGradGradGradGrad
 Berny optimization.
 Initialization pass.
                           ----------------------------
                           !    Initial Parameters    !
                           ! (Angstroms and Degrees)  !
 --------------------------                            --------------------------
 ! Name  Definition              Value          Derivative Info.                !
 --------------------------------------------------------------------------------
 ! R1    R(1,2)                  1.3264         estimate D2E/DX2                !
 ! R2    R(1,6)                  1.3235         estimate D2E/DX2                !
 ! R3    R(1,8)                  1.3535         estimate D2E/DX2                !
 ! R4    R(2,3)                  1.4623         estimate D2E/DX2                !
 ! R5    R(2,11)                 0.8813         estimate D2E/DX2                !
 ! R6    R(3,4)                  1.5205         estimate D2E/DX2                !
 ! R7    R(3,13)                 0.9933         estimate D2E/DX2                !
 ! R8    R(3,14)                 0.9883         estimate D2E/DX2                !
 ! R9    R(4,5)                  0.9738         estimate D2E/DX2                !
 ! R10   R(4,6)                  1.4486         estimate D2E/DX2                !
 ! R11   R(4,15)                 0.9809         estimate D2E/DX2                !
 ! R12   R(6,7)                  0.8226         estimate D2E/DX2                !
 ! R13   R(8,9)                  1.3394         estimate D2E/DX2                !
 ! R14   R(9,10)                 1.2381         estimate D2E/DX2                !
 ! R15   R(9,12)                 1.2372         estimate D2E/DX2                !
 ! A1    A(2,1,6)              110.5906         estimate D2E/DX2                !
 ! A2    A(2,1,8)              132.3402         estimate D2E/DX2                !
 ! A3    A(6,1,8)              117.0674         estimate D2E/DX2                !
 ! A4    A(1,2,3)              111.0119         estimate D2E/DX2                !
 ! A5    A(1,2,11)             124.1766         estimate D2E/DX2                !
 ! A6    A(3,2,11)             124.0951         estimate D2E/DX2                !
 ! A7    A(2,3,4)              102.8814         estimate D2E/DX2                !
 ! A8    A(2,3,13)             109.5012         estimate D2E/DX2                !
 ! A9    A(2,3,14)             109.2282         estimate D2E/DX2                !
 ! A10   A(4,3,13)             111.6098         estimate D2E/DX2                !
 ! A11   A(4,3,14)             115.3554         estimate D2E/DX2                !
 ! A12   A(13,3,14)            108.077          estimate D2E/DX2                !
 ! A13   A(3,4,5)              110.9411         estimate D2E/DX2                !
 ! A14   A(3,4,6)              102.7892         estimate D2E/DX2                !
 ! A15   A(3,4,15)             114.249          estimate D2E/DX2                !
 ! A16   A(5,4,6)              110.8272         estimate D2E/DX2                !
 ! A17   A(5,4,15)             105.8678         estimate D2E/DX2                !
 ! A18   A(6,4,15)             112.2891         estimate D2E/DX2                !
 ! A19   A(1,6,4)              111.8507         estimate D2E/DX2                !
 ! A20   A(1,6,7)              121.7996         estimate D2E/DX2                !
 ! A21   A(4,6,7)              125.7577         estimate D2E/DX2                !
 ! A22   A(1,8,9)              117.8793         estimate D2E/DX2                !
 ! A23   A(8,9,10)             123.4664         estimate D2E/DX2                !
 ! A24   A(8,9,12)             114.9962         estimate D2E/DX2                !
 ! A25   A(10,9,12)            121.5328         estimate D2E/DX2                !
 ! D1    D(6,1,2,3)             -3.0722         estimate D2E/DX2                !
 ! D2    D(6,1,2,11)          -173.6999         estimate D2E/DX2                !
 ! D3    D(8,1,2,3)            176.4062         estimate D2E/DX2                !
 ! D4    D(8,1,2,11)             5.7784         estimate D2E/DX2                !
 ! D5    D(2,1,6,4)             -3.4696         estimate D2E/DX2                !
 ! D6    D(2,1,6,7)           -175.1237         estimate D2E/DX2                !
 ! D7    D(8,1,6,4)            176.9634         estimate D2E/DX2                !
 ! D8    D(8,1,6,7)              5.3093         estimate D2E/DX2                !
 ! D9    D(2,1,8,9)              0.3518         estimate D2E/DX2                !
 ! D10   D(6,1,8,9)            179.8035         estimate D2E/DX2                !
 ! D11   D(1,2,3,4)              7.7548         estimate D2E/DX2                !
 ! D12   D(1,2,3,13)          -111.0463         estimate D2E/DX2                !
 ! D13   D(1,2,3,14)           130.7799         estimate D2E/DX2                !
 ! D14   D(11,2,3,4)           178.3917         estimate D2E/DX2                !
 ! D15   D(11,2,3,13)           59.5905         estimate D2E/DX2                !
 ! D16   D(11,2,3,14)          -58.5833         estimate D2E/DX2                !
 ! D17   D(2,3,4,5)            109.5561         estimate D2E/DX2                !
 ! D18   D(2,3,4,6)             -8.9498         estimate D2E/DX2                !
 ! D19   D(2,3,4,15)          -130.8753         estimate D2E/DX2                !
 ! D20   D(13,3,4,5)          -133.1262         estimate D2E/DX2                !
 ! D21   D(13,3,4,6)           108.3679         estimate D2E/DX2                !
 ! D22   D(13,3,4,15)          -13.5576         estimate D2E/DX2                !
 ! D23   D(14,3,4,5)            -9.2743         estimate D2E/DX2                !
 ! D24   D(14,3,4,6)          -127.7802         estimate D2E/DX2                !
 ! D25   D(14,3,4,15)          110.2943         estimate D2E/DX2                !
 ! D26   D(3,4,6,1)              8.0207         estimate D2E/DX2                !
 ! D27   D(3,4,6,7)            179.2768         estimate D2E/DX2                !
 ! D28   D(5,4,6,1)           -110.5652         estimate D2E/DX2                !
 ! D29   D(5,4,6,7)             60.6909         estimate D2E/DX2                !
 ! D30   D(15,4,6,1)           131.2648         estimate D2E/DX2                !
 ! D31   D(15,4,6,7)           -57.4791         estimate D2E/DX2                !
 ! D32   D(1,8,9,10)             0.7311         estimate D2E/DX2                !
 ! D33   D(1,8,9,12)           179.9589         estimate D2E/DX2                !
 ! D34   D(8,9,10,12)          179.1789         estimate D2E/DX2                !
 --------------------------------------------------------------------------------
 Trust Radius=3.00D-01 FncErr=1.00D-07 GrdErr=1.00D-06
 Number of steps in this run=     84 maximum allowed number of steps=    100.
 GradGradGradGradGradGradGradGradGradGradGradGradGradGradGradGradGradGrad

 Leave Link  103 at Fri Aug 20 15:35:33 2021, MaxMem= 24159191040 cpu:         0.4
 (Enter /public/home/users/caep010/software/Gaussian09/g09/l202.exe)
                          Input orientation:                          
 ---------------------------------------------------------------------
 Center     Atomic      Atomic             Coordinates (Angstroms)
 Number     Number       Type             X           Y           Z
 ---------------------------------------------------------------------
      1          6           0        0.980100    7.737600    5.069500
      2          7           0        1.503300    7.099300    4.031200
      3          6           0        1.493100    5.652800    4.245500
      4          6           0        0.685200    5.505400    5.525100
      5          1           0       -0.184300    5.106200    5.343700
      6          7           0        0.539700    6.875600    5.972100
      7          1           0        0.135800    7.121300    6.645300
      8          7           0        0.836000    9.053300    5.352600
      9          7           0        1.279800    9.940000    4.452100
     10          8           0        1.799600    9.617900    3.375600
     11          1           0        1.920400    7.497000    3.364500
     12          8           0        1.120700   11.126500    4.764400
     13          1           0        2.424700    5.328200    4.361600
     14          1           0        1.110500    5.208600    3.449900
     15          1           0        1.105700    4.935400    6.203600
 ---------------------------------------------------------------------
                    Distance matrix (angstroms):
                    1          2          3          4          5
     1  C    0.000000
     2  N    1.326360   0.000000
     3  C    2.299682   1.462324   0.000000
     4  C    2.297228   2.332711   1.520462   0.000000
     5  H    2.890550   2.922858   2.078097   0.973805   0.000000
     6  N    1.323512   2.178453   2.320638   1.448595   2.012421
     7  H    1.890982   2.950264   3.123747   2.041524   2.420177
     8  N    1.353505   2.451429   3.636049   3.555291   4.076848
     9  N    2.306853   2.880397   4.297472   4.601147   5.128758
    10  O    2.660151   2.619342   4.070956   4.772305   5.307044
    11  H    1.961907   0.881264   2.088018   3.187535   3.750056
    12  O    3.405510   4.111241   5.510838   5.689032   6.187295
    13  H    2.897102   2.023595   0.993339   2.100236   2.796549
    14  H    3.005986   2.016668   0.988269   2.139024   2.296404
    15  H    3.025605   3.091904   2.121060   0.980858   1.559712
                    6          7          8          9         10
     6  N    0.000000
     7  H    0.822619   0.000000
     8  N    2.283408   2.427751   0.000000
     9  N    3.499814   3.750191   1.339439   0.000000
    10  O    3.981127   4.437587   2.270645   1.238060   0.000000
    11  H    3.015302   3.753611   2.747824   2.749817   2.124366
    12  O    4.457157   4.533149   2.173751   1.237185   2.159987
    13  H    2.922564   3.697236   4.169223   4.752650   4.445725
    14  H    3.076718   3.849551   4.298527   4.839340   4.463441
    15  H    2.034287   2.431864   4.213554   5.305100   5.514063
                   11         12         13         14         15
    11  H    0.000000
    12  O    3.971462   0.000000
    13  H    2.439717   5.956756   0.000000
    14  H    2.428993   6.062141   1.603940   0.000000
    15  H    3.909734   6.356197   2.299351   2.767223   0.000000
 Stoichiometry    C3H6N4O2
 Framework group  C1[X(C3H6N4O2)]
 Deg. of freedom    39
 Full point group                 C1      NOp   1
 Largest Abelian subgroup         C1      NOp   1
 Largest concise Abelian subgroup C1      NOp   1
                         Standard orientation:                         
 ---------------------------------------------------------------------
 Center     Atomic      Atomic             Coordinates (Angstroms)
 Number     Number       Type             X           Y           Z
 ---------------------------------------------------------------------
      1          6           0        0.337884   -0.320223    0.005119
      2          7           0        0.779530    0.930190   -0.020304
      3          6           0        2.239097    0.972462    0.058861
      4          6           0        2.627665   -0.492565   -0.061630
      5          1           0        3.054366   -0.670112   -0.918776
      6          7           0        1.351142   -1.171362    0.028649
      7          1           0        1.235144   -1.984673   -0.013449
      8          7           0       -0.909024   -0.846513    0.019901
      9          7           0       -1.946580    0.000364    0.000555
     10          8           0       -1.822336    1.231399   -0.043131
     11          1           0        0.260675    1.639823    0.041648
     12          8           0       -3.060680   -0.537418    0.014623
     13          1           0        2.512806    1.352692    0.934779
     14          1           0        2.586739    1.562490   -0.653661
     15          1           0        3.261045   -0.798867    0.621810
 ---------------------------------------------------------------------
 Rotational constants (GHZ):      5.0289712      1.0478108      0.8752323
 Leave Link  202 at Fri Aug 20 15:35:33 2021, MaxMem= 24159191040 cpu:         0.4
 (Enter /public/home/users/caep010/software/Gaussian09/g09/l301.exe)
 Standard basis: 6-31G(d,p) (6D, 7F)
 Ernie: Thresh=  0.10000D-02 Tol=  0.10000D-05 Strict=F.
 There are   165 symmetry adapted cartesian basis functions of A   symmetry.
 There are   165 symmetry adapted basis functions of A   symmetry.
   165 basis functions,   294 primitive gaussians,   165 cartesian basis functions
    34 alpha electrons       34 beta electrons
       nuclear repulsion energy       471.8697003367 Hartrees.
 IExCor=  402 DFT=T Ex+Corr=B3LYP ExCW=0 ScaHFX=  0.200000
 ScaDFX=  0.800000  0.720000  1.000000  0.810000 ScalE2=  1.000000  1.000000
 IRadAn=      0 IRanWt=     -1 IRanGd=            0 ICorTp=0 IEmpDi=  4
 NAtoms=   15 NActive=   15 NUniq=   15 SFac= 1.00D+00 NAtFMM=   60 NAOKFM=F Big=F
 Integral buffers will be    131072 words long.
 Raffenetti 2 integral format.
 Two-electron integral symmetry is turned on.
 Leave Link  301 at Fri Aug 20 15:35:33 2021, MaxMem= 24159191040 cpu:         1.9
 (Enter /public/home/users/caep010/software/Gaussian09/g09/l302.exe)
 NPDir=0 NMtPBC=     1 NCelOv=     1 NCel=       1 NClECP=     1 NCelD=      1
         NCelK=      1 NCelE2=     1 NClLst=     1 CellRange=     0.0.
 One-electron integrals computed using PRISM.
 NBasis=   165 RedAO= T EigKep=  1.60D-03  NBF=   165
 NBsUse=   165 1.00D-06 EigRej= -1.00D+00 NBFU=   165
 Precomputing XC quadrature grid using
 IXCGrd= 4 IRadAn=           0 IRanWt=          -1 IRanGd=           0 AccXCQ= 0.00D+00.
 Generated NRdTot=       0 NPtTot=           0 NUsed=           0 NTot=          32
 NSgBfM=   164   164   164   164   164 MxSgAt=    15 MxSgA2=    15.
 Leave Link  302 at Fri Aug 20 15:35:34 2021, MaxMem= 24159191040 cpu:        11.3
 (Enter /public/home/users/caep010/software/Gaussian09/g09/l303.exe)
 DipDrv:  MaxL=1.
 Leave Link  303 at Fri Aug 20 15:35:34 2021, MaxMem= 24159191040 cpu:         0.7
 (Enter /public/home/users/caep010/software/Gaussian09/g09/l401.exe)
 ExpMin= 1.61D-01 ExpMax= 5.48D+03 ExpMxC= 8.25D+02 IAcc=1 IRadAn=         1 AccDes= 0.00D+00
 Harris functional with IExCor=  402 and IRadAn=       1 diagonalized for initial guess.
 HarFok:  IExCor=  402 AccDes= 0.00D+00 IRadAn=         1 IDoV= 1 UseB2=F ITyADJ=14
 ICtDFT=  3500011 ScaDFX=  1.000000  1.000000  1.000000  1.000000
 FoFCou: FMM=F IPFlag=           0 FMFlag=      100000 FMFlg1=           0
         NFxFlg=           0 DoJE=T BraDBF=F KetDBF=T FulRan=T
         wScrn=  0.000000 ICntrl=     500 IOpCl=  0 I1Cent=   200000004 NGrid=           0
         NMat0=    1 NMatS0=      1 NMatT0=    0 NMatD0=    1 NMtDS0=    0 NMtDT0=    0
 Petite list used in FoFCou.
 Harris En= -487.226050310583    
 JPrj=0 DoOrth=F DoCkMO=F.
 Leave Link  401 at Fri Aug 20 15:35:34 2021, MaxMem= 24159191040 cpu:        10.9
 (Enter /public/home/users/caep010/software/Gaussian09/g09/l502.exe)
 Closed shell SCF:
 Using DIIS extrapolation, IDIIS=  1040.
 Integral symmetry usage will be decided dynamically.
 Keep R1 ints in memory in canonical form, NReq=96177169.
 IVT=      106744 IEndB=      106744 NGot= 24159191040 MDV= 24065300937
 LenX= 24065300937 LenY= 24065273271
 Requested convergence on RMS density matrix=1.00D-08 within 128 cycles.
 Requested convergence on MAX density matrix=1.00D-06.
 Requested convergence on             energy=1.00D-06.
 No special actions if energy rises.
 FoFCou: FMM=F IPFlag=           0 FMFlag=           0 FMFlg1=           0
         NFxFlg=           0 DoJE=F BraDBF=F KetDBF=F FulRan=T
         wScrn=  0.000000 ICntrl=     600 IOpCl=  0 I1Cent=           0 NGrid=           0
         NMat0=    1 NMatS0=  13695 NMatT0=    0 NMatD0=    1 NMtDS0=    0 NMtDT0=    0
 Symmetry not used in FoFCou.
 Integral accuracy reduced to 1.0D-05 until final iterations.

 Cycle   1  Pass 0  IDiag  1:
 E= -486.874785774020    
 DIIS: error= 4.80D-02 at cycle   1 NSaved=   1.
 NSaved= 1 IEnMin= 1 EnMin= -486.874785774020     IErMin= 1 ErrMin= 4.80D-02
 ErrMax= 4.80D-02  0.00D+00 EMaxC= 1.00D-01 BMatC= 3.95D-01 BMatP= 3.95D-01
 IDIUse=3 WtCom= 5.20D-01 WtEn= 4.80D-01
 Coeff-Com:  0.100D+01
 Coeff-En:   0.100D+01
 Coeff:      0.100D+01
 Gap=     0.149 Goal=   None    Shift=    0.000
 GapD=    0.149 DampG=1.000 DampE=0.500 DampFc=0.5000 IDamp=-1.
 Damping current iteration by 5.00D-01
 RMSDP=6.91D-03 MaxDP=2.69D-01              OVMax= 3.27D-01

 Cycle   2  Pass 0  IDiag  1:
 E= -486.938840754298     Delta-E=       -0.064054980277 Rises=F Damp=T
 DIIS: error= 1.82D-02 at cycle   2 NSaved=   2.
 NSaved= 2 IEnMin= 2 EnMin= -486.938840754298     IErMin= 2 ErrMin= 1.82D-02
 ErrMax= 1.82D-02  0.00D+00 EMaxC= 1.00D-01 BMatC= 7.31D-02 BMatP= 3.95D-01
 IDIUse=3 WtCom= 8.18D-01 WtEn= 1.82D-01
 Coeff-Com:  0.253D+00 0.747D+00
 Coeff-En:   0.393D+00 0.607D+00
 Coeff:      0.279D+00 0.721D+00
 Gap=     0.193 Goal=   None    Shift=    0.000
 RMSDP=2.40D-03 MaxDP=9.81D-02 DE=-6.41D-02 OVMax= 2.33D-01

 Cycle   3  Pass 0  IDiag  1:
 E= -487.139055929055     Delta-E=       -0.200215174758 Rises=F Damp=F
 DIIS: error= 2.05D-02 at cycle   3 NSaved=   3.
 NSaved= 3 IEnMin= 3 EnMin= -487.139055929055     IErMin= 2 ErrMin= 1.82D-02
 ErrMax= 2.05D-02  0.00D+00 EMaxC= 1.00D-01 BMatC= 4.13D-02 BMatP= 7.31D-02
 IDIUse=3 WtCom= 7.95D-01 WtEn= 2.05D-01
 Coeff-Com:  0.112D+00 0.423D+00 0.464D+00
 Coeff-En:   0.000D+00 0.000D+00 0.100D+01
 Coeff:      0.894D-01 0.337D+00 0.574D+00
 Gap=     0.223 Goal=   None    Shift=    0.000
 RMSDP=1.96D-03 MaxDP=8.23D-02 DE=-2.00D-01 OVMax= 1.57D-01

 Cycle   4  Pass 0  IDiag  1:
 E= -487.148275585275     Delta-E=       -0.009219656220 Rises=F Damp=F
 DIIS: error= 2.22D-02 at cycle   4 NSaved=   4.
 NSaved= 4 IEnMin= 4 EnMin= -487.148275585275     IErMin= 2 ErrMin= 1.82D-02
 ErrMax= 2.22D-02  0.00D+00 EMaxC= 1.00D-01 BMatC= 3.16D-02 BMatP= 4.13D-02
 IDIUse=3 WtCom= 7.78D-01 WtEn= 2.22D-01
 Coeff-Com:  0.421D-01 0.140D+00 0.430D+00 0.389D+00
 Coeff-En:   0.000D+00 0.000D+00 0.441D+00 0.559D+00
 Coeff:      0.328D-01 0.109D+00 0.432D+00 0.426D+00
 Gap=     0.210 Goal=   None    Shift=    0.000
 RMSDP=1.02D-03 MaxDP=4.97D-02 DE=-9.22D-03 OVMax= 8.28D-02

 Cycle   5  Pass 0  IDiag  1:
 E= -487.171447989544     Delta-E=       -0.023172404269 Rises=F Damp=F
 DIIS: error= 4.55D-03 at cycle   5 NSaved=   5.
 NSaved= 5 IEnMin= 5 EnMin= -487.171447989544     IErMin= 5 ErrMin= 4.55D-03
 ErrMax= 4.55D-03  0.00D+00 EMaxC= 1.00D-01 BMatC= 2.53D-03 BMatP= 3.16D-02
 IDIUse=3 WtCom= 9.54D-01 WtEn= 4.55D-02
 Coeff-Com:  0.142D-01 0.287D-01 0.227D+00 0.294D+00 0.436D+00
 Coeff-En:   0.000D+00 0.000D+00 0.000D+00 0.569D-01 0.943D+00
 Coeff:      0.136D-01 0.274D-01 0.217D+00 0.283D+00 0.459D+00
 Gap=     0.203 Goal=   None    Shift=    0.000
 RMSDP=3.20D-04 MaxDP=1.27D-02 DE=-2.32D-02 OVMax= 2.27D-02

 Cycle   6  Pass 0  IDiag  1:
 E= -487.173286431436     Delta-E=       -0.001838441892 Rises=F Damp=F
 DIIS: error= 1.65D-03 at cycle   6 NSaved=   6.
 NSaved= 6 IEnMin= 6 EnMin= -487.173286431436     IErMin= 6 ErrMin= 1.65D-03
 ErrMax= 1.65D-03  0.00D+00 EMaxC= 1.00D-01 BMatC= 2.52D-04 BMatP= 2.53D-03
 IDIUse=3 WtCom= 9.83D-01 WtEn= 1.65D-02
 Coeff-Com:  0.235D-02-0.477D-03 0.717D-01 0.114D+00 0.295D+00 0.517D+00
 Coeff-En:   0.000D+00 0.000D+00 0.000D+00 0.000D+00 0.958D-01 0.904D+00
 Coeff:      0.231D-02-0.469D-03 0.706D-01 0.112D+00 0.292D+00 0.524D+00
 Gap=     0.203 Goal=   None    Shift=    0.000
 RMSDP=9.80D-05 MaxDP=3.66D-03 DE=-1.84D-03 OVMax= 5.21D-03

 Cycle   7  Pass 0  IDiag  1:
 E= -487.173479487233     Delta-E=       -0.000193055797 Rises=F Damp=F
 DIIS: error= 2.51D-04 at cycle   7 NSaved=   7.
 NSaved= 7 IEnMin= 7 EnMin= -487.173479487233     IErMin= 7 ErrMin= 2.51D-04
 ErrMax= 2.51D-04  0.00D+00 EMaxC= 1.00D-01 BMatC= 1.32D-05 BMatP= 2.52D-04
 IDIUse=3 WtCom= 9.97D-01 WtEn= 2.51D-03
 Coeff-Com: -0.890D-04-0.190D-02 0.177D-01 0.321D-01 0.115D+00 0.284D+00
 Coeff-Com:  0.553D+00
 Coeff-En:   0.000D+00 0.000D+00 0.000D+00 0.000D+00 0.000D+00 0.000D+00
 Coeff-En:   0.100D+01
 Coeff:     -0.888D-04-0.189D-02 0.176D-01 0.320D-01 0.115D+00 0.283D+00
 Coeff:      0.554D+00
 Gap=     0.203 Goal=   None    Shift=    0.000
 RMSDP=2.21D-05 MaxDP=6.34D-04 DE=-1.93D-04 OVMax= 9.12D-04

 Cycle   8  Pass 0  IDiag  1:
 E= -487.173489625163     Delta-E=       -0.000010137930 Rises=F Damp=F
 DIIS: error= 3.97D-05 at cycle   8 NSaved=   8.
 NSaved= 8 IEnMin= 8 EnMin= -487.173489625163     IErMin= 8 ErrMin= 3.97D-05
 ErrMax= 3.97D-05  0.00D+00 EMaxC= 1.00D-01 BMatC= 7.58D-07 BMatP= 1.32D-05
 IDIUse=1 WtCom= 1.00D+00 WtEn= 0.00D+00
 Coeff-Com: -0.284D-03-0.756D-03 0.359D-02 0.708D-02 0.360D-01 0.105D+00
 Coeff-Com:  0.273D+00 0.577D+00
 Coeff:     -0.284D-03-0.756D-03 0.359D-02 0.708D-02 0.360D-01 0.105D+00
 Coeff:      0.273D+00 0.577D+00
 Gap=     0.203 Goal=   None    Shift=    0.000
 RMSDP=5.57D-06 MaxDP=2.25D-04 DE=-1.01D-05 OVMax= 2.50D-04

 Initial convergence to 1.0D-05 achieved.  Increase integral accuracy.
 Cycle   9  Pass 1  IDiag  1:
 E= -487.173531591876     Delta-E=       -0.000041966713 Rises=F Damp=F
 DIIS: error= 2.40D-05 at cycle   1 NSaved=   1.
 NSaved= 1 IEnMin= 1 EnMin= -487.173531591876     IErMin= 1 ErrMin= 2.40D-05
 ErrMax= 2.40D-05  0.00D+00 EMaxC= 1.00D-01 BMatC= 1.37D-07 BMatP= 1.37D-07
 IDIUse=1 WtCom= 1.00D+00 WtEn= 0.00D+00
 Coeff-Com:  0.100D+01
 Coeff:      0.100D+01
 Gap=     0.203 Goal=   None    Shift=    0.000
 RMSDP=5.57D-06 MaxDP=2.25D-04 DE=-4.20D-05 OVMax= 1.80D-04

 Cycle  10  Pass 1  IDiag  1:
 E= -487.173531596401     Delta-E=       -0.000000004525 Rises=F Damp=F
 DIIS: error= 2.27D-05 at cycle   2 NSaved=   2.
 NSaved= 2 IEnMin= 2 EnMin= -487.173531596401     IErMin= 2 ErrMin= 2.27D-05
 ErrMax= 2.27D-05  0.00D+00 EMaxC= 1.00D-01 BMatC= 1.44D-07 BMatP= 1.37D-07
 IDIUse=1 WtCom= 1.00D+00 WtEn= 0.00D+00
 Coeff-Com:  0.507D+00 0.493D+00
 Coeff:      0.507D+00 0.493D+00
 Gap=     0.203 Goal=   None    Shift=    0.000
 RMSDP=2.68D-06 MaxDP=1.15D-04 DE=-4.53D-09 OVMax= 1.59D-04

 Cycle  11  Pass 1  IDiag  1:
 E= -487.173531702817     Delta-E=       -0.000000106416 Rises=F Damp=F
 DIIS: error= 8.34D-06 at cycle   3 NSaved=   3.
 NSaved= 3 IEnMin= 3 EnMin= -487.173531702817     IErMin= 3 ErrMin= 8.34D-06
 ErrMax= 8.34D-06  0.00D+00 EMaxC= 1.00D-01 BMatC= 1.84D-08 BMatP= 1.37D-07
 IDIUse=1 WtCom= 1.00D+00 WtEn= 0.00D+00
 Coeff-Com:  0.489D-01 0.263D+00 0.688D+00
 Coeff:      0.489D-01 0.263D+00 0.688D+00
 Gap=     0.203 Goal=   None    Shift=    0.000
 RMSDP=9.36D-07 MaxDP=3.02D-05 DE=-1.06D-07 OVMax= 4.84D-05

 Cycle  12  Pass 1  IDiag  1:
 E= -487.173531716185     Delta-E=       -0.000000013368 Rises=F Damp=F
 DIIS: error= 3.76D-06 at cycle   4 NSaved=   4.
 NSaved= 4 IEnMin= 4 EnMin= -487.173531716185     IErMin= 4 ErrMin= 3.76D-06
 ErrMax= 3.76D-06  0.00D+00 EMaxC= 1.00D-01 BMatC= 2.95D-09 BMatP= 1.84D-08
 IDIUse=1 WtCom= 1.00D+00 WtEn= 0.00D+00
 Coeff-Com: -0.686D-02 0.127D+00 0.418D+00 0.462D+00
 Coeff:     -0.686D-02 0.127D+00 0.418D+00 0.462D+00
 Gap=     0.203 Goal=   None    Shift=    0.000
 RMSDP=3.26D-07 MaxDP=1.47D-05 DE=-1.34D-08 OVMax= 2.25D-05

 Cycle  13  Pass 1  IDiag  1:
 E= -487.173531718218     Delta-E=       -0.000000002033 Rises=F Damp=F
 DIIS: error= 1.88D-06 at cycle   5 NSaved=   5.
 NSaved= 5 IEnMin= 5 EnMin= -487.173531718218     IErMin= 5 ErrMin= 1.88D-06
 ErrMax= 1.88D-06  0.00D+00 EMaxC= 1.00D-01 BMatC= 3.50D-10 BMatP= 2.95D-09
 IDIUse=1 WtCom= 1.00D+00 WtEn= 0.00D+00
 Coeff-Com: -0.760D-02 0.656D-01 0.230D+00 0.314D+00 0.398D+00
 Coeff:     -0.760D-02 0.656D-01 0.230D+00 0.314D+00 0.398D+00
 Gap=     0.203 Goal=   None    Shift=    0.000
 RMSDP=1.09D-07 MaxDP=4.59D-06 DE=-2.03D-09 OVMax= 7.02D-06

 Cycle  14  Pass 1  IDiag  1:
 E= -487.173531718484     Delta-E=       -0.000000000266 Rises=F Damp=F
 DIIS: error= 4.73D-07 at cycle   6 NSaved=   6.
 NSaved= 6 IEnMin= 6 EnMin= -487.173531718484     IErMin= 6 ErrMin= 4.73D-07
 ErrMax= 4.73D-07  0.00D+00 EMaxC= 1.00D-01 BMatC= 2.46D-11 BMatP= 3.50D-10
 IDIUse=1 WtCom= 1.00D+00 WtEn= 0.00D+00
 Coeff-Com: -0.433D-02 0.319D-01 0.115D+00 0.167D+00 0.261D+00 0.429D+00
 Coeff:     -0.433D-02 0.319D-01 0.115D+00 0.167D+00 0.261D+00 0.429D+00
 Gap=     0.203 Goal=   None    Shift=    0.000
 RMSDP=3.11D-08 MaxDP=1.26D-06 DE=-2.66D-10 OVMax= 2.29D-06

 Cycle  15  Pass 1  IDiag  1:
 E= -487.173531718498     Delta-E=       -0.000000000014 Rises=F Damp=F
 DIIS: error= 1.82D-07 at cycle   7 NSaved=   7.
 NSaved= 7 IEnMin= 7 EnMin= -487.173531718498     IErMin= 7 ErrMin= 1.82D-07
 ErrMax= 1.82D-07  0.00D+00 EMaxC= 1.00D-01 BMatC= 3.37D-12 BMatP= 2.46D-11
 IDIUse=1 WtCom= 1.00D+00 WtEn= 0.00D+00
 Coeff-Com: -0.127D-02 0.745D-02 0.280D-01 0.472D-01 0.957D-01 0.290D+00
 Coeff-Com:  0.533D+00
 Coeff:     -0.127D-02 0.745D-02 0.280D-01 0.472D-01 0.957D-01 0.290D+00
 Coeff:      0.533D+00
 Gap=     0.203 Goal=   None    Shift=    0.000
 RMSDP=1.13D-08 MaxDP=4.71D-07 DE=-1.40D-11 OVMax= 7.99D-07

 Cycle  16  Pass 1  IDiag  1:
 E= -487.173531718503     Delta-E=       -0.000000000005 Rises=F Damp=F
 DIIS: error= 3.65D-08 at cycle   8 NSaved=   8.
 NSaved= 8 IEnMin= 8 EnMin= -487.173531718503     IErMin= 8 ErrMin= 3.65D-08
 ErrMax= 3.65D-08  0.00D+00 EMaxC= 1.00D-01 BMatC= 3.49D-13 BMatP= 3.37D-12
 IDIUse=1 WtCom= 1.00D+00 WtEn= 0.00D+00
 Coeff-Com: -0.238D-03 0.632D-03 0.290D-02 0.861D-02 0.274D-01 0.115D+00
 Coeff-Com:  0.318D+00 0.528D+00
 Coeff:     -0.238D-03 0.632D-03 0.290D-02 0.861D-02 0.274D-01 0.115D+00
 Coeff:      0.318D+00 0.528D+00
 Gap=     0.203 Goal=   None    Shift=    0.000
 RMSDP=2.82D-09 MaxDP=9.17D-08 DE=-4.55D-12 OVMax= 1.12D-07

 SCF Done:  E(RB3LYP) =  -487.173531719     A.U. after   16 cycles
            NFock= 16  Conv=0.28D-08     -V/T= 2.0054
 KE= 4.845724904054D+02 PE=-2.082884731914D+03 EE= 6.392690094529D+02
 Leave Link  502 at Fri Aug 20 15:35:39 2021, MaxMem= 24159191040 cpu:        82.4
 (Enter /public/home/users/caep010/software/Gaussian09/g09/l601.exe)
 Copying SCF densities to generalized density rwf, IOpCl= 0 IROHF=0.

 **********************************************************************

            Population analysis using the SCF density.

 **********************************************************************

 Orbital symmetries:
       Occupied  (A) (A) (A) (A) (A) (A) (A) (A) (A) (A) (A) (A)
                 (A) (A) (A) (A) (A) (A) (A) (A) (A) (A) (A) (A)
                 (A) (A) (A) (A) (A) (A) (A) (A) (A) (A)
       Virtual   (A) (A) (A) (A) (A) (A) (A) (A) (A) (A) (A) (A)
                 (A) (A) (A) (A) (A) (A) (A) (A) (A) (A) (A) (A)
                 (A) (A) (A) (A) (A) (A) (A) (A) (A) (A) (A) (A)
                 (A) (A) (A) (A) (A) (A) (A) (A) (A) (A) (A) (A)
                 (A) (A) (A) (A) (A) (A) (A) (A) (A) (A) (A) (A)
                 (A) (A) (A) (A) (A) (A) (A) (A) (A) (A) (A) (A)
                 (A) (A) (A) (A) (A) (A) (A) (A) (A) (A) (A) (A)
                 (A) (A) (A) (A) (A) (A) (A) (A) (A) (A) (A) (A)
                 (A) (A) (A) (A) (A) (A) (A) (A) (A) (A) (A) (A)
                 (A) (A) (A) (A) (A) (A) (A) (A) (A) (A) (A) (A)
                 (A) (A) (A) (A) (A) (A) (A) (A) (A) (A) (A)
 The electronic state is 1-A.
 Alpha  occ. eigenvalues --  -19.13828 -19.12807 -14.55621 -14.37915 -14.37534
 Alpha  occ. eigenvalues --  -14.34137 -10.32507 -10.24640 -10.24535  -1.19854
 Alpha  occ. eigenvalues --   -1.06635  -1.00566  -0.95167  -0.92797  -0.81960
 Alpha  occ. eigenvalues --   -0.71715  -0.70966  -0.66425  -0.55798  -0.55597
 Alpha  occ. eigenvalues --   -0.53269  -0.51265  -0.50902  -0.49483  -0.46580
 Alpha  occ. eigenvalues --   -0.45579  -0.44199  -0.41997  -0.32185  -0.28219
 Alpha  occ. eigenvalues --   -0.27769  -0.26816  -0.25231  -0.23589
 Alpha virt. eigenvalues --   -0.03315   0.06358   0.07718   0.09697   0.11499
 Alpha virt. eigenvalues --    0.12175   0.14560   0.15122   0.17531   0.20606
 Alpha virt. eigenvalues --    0.21923   0.25208   0.26528   0.32471   0.35344
 Alpha virt. eigenvalues --    0.36194   0.45905   0.46074   0.47577   0.51794
 Alpha virt. eigenvalues --    0.52595   0.56776   0.57889   0.59634   0.62607
 Alpha virt. eigenvalues --    0.63619   0.65199   0.68667   0.69924   0.72533
 Alpha virt. eigenvalues --    0.73136   0.76013   0.79621   0.80473   0.81039
 Alpha virt. eigenvalues --    0.83943   0.86638   0.87633   0.89266   0.91354
 Alpha virt. eigenvalues --    0.94390   0.96697   0.98202   0.99001   0.99422
 Alpha virt. eigenvalues --    1.00923   1.02937   1.03439   1.05426   1.14877
 Alpha virt. eigenvalues --    1.18917   1.21646   1.23748   1.27405   1.32577
 Alpha virt. eigenvalues --    1.36189   1.39613   1.40130   1.44102   1.46306
 Alpha virt. eigenvalues --    1.50150   1.56510   1.60668   1.63808   1.67264
 Alpha virt. eigenvalues --    1.71189   1.76451   1.76929   1.80933   1.82982
 Alpha virt. eigenvalues --    1.84013   1.84562   1.85654   1.87680   1.92279
 Alpha virt. eigenvalues --    1.93135   1.96353   2.02327   2.08452   2.09518
 Alpha virt. eigenvalues --    2.11089   2.13498   2.14228   2.18144   2.24706
 Alpha virt. eigenvalues --    2.26408   2.29660   2.30731   2.32415   2.32788
 Alpha virt. eigenvalues --    2.36705   2.41859   2.47650   2.50042   2.52054
 Alpha virt. eigenvalues --    2.53568   2.56888   2.59393   2.62339   2.66188
 Alpha virt. eigenvalues --    2.70197   2.75092   2.75603   2.78767   2.80426
 Alpha virt. eigenvalues --    2.85871   2.88632   2.90953   2.94163   2.96588
 Alpha virt. eigenvalues --    3.01583   3.04830   3.13520   3.22222   3.32296
 Alpha virt. eigenvalues --    3.45519   3.51473   3.58417   3.62556   3.68902
 Alpha virt. eigenvalues --    3.75660   3.75983   3.79169   3.91589   3.93583
 Alpha virt. eigenvalues --    4.11894   4.21535   4.27363   4.45402   4.71458
 Alpha virt. eigenvalues --    4.77531
          Condensed to atoms (all electrons):
               1          2          3          4          5          6
     1  C    4.334780   0.310974  -0.062983  -0.056558   0.003329   0.378557
     2  N    0.310974   6.842747   0.275021  -0.036014   0.001198  -0.095920
     3  C   -0.062983   0.275021   4.756760   0.374406  -0.032914  -0.036014
     4  C   -0.056558  -0.036014   0.374406   4.722066   0.405798   0.299696
     5  H    0.003329   0.001198  -0.032914   0.405798   0.593472  -0.048539
     6  N    0.378557  -0.095920  -0.036014   0.299696  -0.048539   6.699046
     7  H   -0.025367   0.010118   0.005811  -0.032760  -0.000771   0.400615
     8  N    0.377714  -0.069319   0.002773   0.003953   0.000010  -0.084647
     9  N   -0.046467  -0.012375   0.000330  -0.000165   0.000004   0.002971
    10  O    0.011253  -0.013034   0.000995  -0.000026  -0.000001   0.000386
    11  H   -0.035087   0.381236  -0.023434   0.004152  -0.000131   0.006219
    12  O    0.007083  -0.000033   0.000006   0.000001  -0.000000  -0.000077
    13  H    0.002661  -0.046482   0.402815  -0.033076   0.006230   0.001559
    14  H    0.000822  -0.039351   0.408463  -0.028269  -0.009590   0.003264
    15  H    0.001846   0.003170  -0.027541   0.409034  -0.058876  -0.038575
               7          8          9         10         11         12
     1  C   -0.025367   0.377714  -0.046467   0.011253  -0.035087   0.007083
     2  N    0.010118  -0.069319  -0.012375  -0.013034   0.381236  -0.000033
     3  C    0.005811   0.002773   0.000330   0.000995  -0.023434   0.000006
     4  C   -0.032760   0.003953  -0.000165  -0.000026   0.004152   0.000001
     5  H   -0.000771   0.000010   0.000004  -0.000001  -0.000131  -0.000000
     6  N    0.400615  -0.084647   0.002971   0.000386   0.006219  -0.000077
     7  H    0.426190   0.004358  -0.000274   0.000072  -0.000079  -0.000026
     8  N    0.004358   7.183964   0.246883  -0.112800  -0.006607  -0.112253
     9  N   -0.000274   0.246883   5.585172   0.304411  -0.002483   0.328769
    10  O    0.000072  -0.112800   0.304411   8.350127   0.039889  -0.100798
    11  H   -0.000079  -0.006607  -0.002483   0.039889   0.387307   0.000254
    12  O   -0.000026  -0.112253   0.328769  -0.100798   0.000254   8.299989
    13  H   -0.000164  -0.000028  -0.000001  -0.000010  -0.001001  -0.000000
    14  H   -0.000059  -0.000122  -0.000006   0.000001  -0.000290  -0.000000
    15  H   -0.000559  -0.000075   0.000002   0.000000  -0.000055  -0.000000
              13         14         15
     1  C    0.002661   0.000822   0.001846
     2  N   -0.046482  -0.039351   0.003170
     3  C    0.402815   0.408463  -0.027541
     4  C   -0.033076  -0.028269   0.409034
     5  H    0.006230  -0.009590  -0.058876
     6  N    0.001559   0.003264  -0.038575
     7  H   -0.000164  -0.000059  -0.000559
     8  N   -0.000028  -0.000122  -0.000075
     9  N   -0.000001  -0.000006   0.000002
    10  O   -0.000010   0.000001   0.000000
    11  H   -0.001001  -0.000290  -0.000055
    12  O   -0.000000  -0.000000  -0.000000
    13  H    0.585282  -0.052008  -0.009614
    14  H   -0.052008   0.573099   0.003891
    15  H   -0.009614   0.003891   0.581412
 Mulliken charges:
               1
     1  C    0.797441
     2  N   -0.511935
     3  C   -0.044494
     4  C   -0.032238
     5  H    0.140781
     6  N   -0.488541
     7  H    0.212896
     8  N   -0.433805
     9  N    0.593228
    10  O   -0.480465
    11  H    0.250112
    12  O   -0.422914
    13  H    0.143838
    14  H    0.140155
    15  H    0.135939
 Sum of Mulliken charges =  -0.00000
 Mulliken charges with hydrogens summed into heavy atoms:
               1
     1  C    0.797441
     2  N   -0.261822
     3  C    0.239500
     4  C    0.244482
     6  N   -0.275645
     8  N   -0.433805
     9  N    0.593228
    10  O   -0.480465
    12  O   -0.422914
 Electronic spatial extent (au):  <R**2>=           1239.0632
 Charge=              0.0000 electrons
 Dipole moment (field-independent basis, Debye):
    X=              9.3881    Y=              0.4973    Z=              0.0270  Tot=              9.4013
 Quadrupole moment (field-independent basis, Debye-Ang):
   XX=            -54.8705   YY=            -48.5980   ZZ=            -49.8026
   XY=             -1.1860   XZ=             -0.1439   YZ=              0.6419
 Traceless Quadrupole moment (field-independent basis, Debye-Ang):
   XX=             -3.7802   YY=              2.4924   ZZ=              1.2878
   XY=             -1.1860   XZ=             -0.1439   YZ=              0.6419
 Octapole moment (field-independent basis, Debye-Ang**2):
  XXX=             61.8277  YYY=              0.2621  ZZZ=             -0.1158  XYY=             15.2658
  XXY=              1.7034  XXZ=             -0.2495  XZZ=             -3.7235  YZZ=              1.4632
  YYZ=             -0.0822  XYZ=             -0.0254
 Hexadecapole moment (field-independent basis, Debye-Ang**3):
 XXXX=          -1218.7179 YYYY=           -247.5792 ZZZZ=            -52.2440 XXXY=            -17.3833
 XXXZ=              0.5023 YYYX=             -9.2514 YYYZ=              0.6978 ZZZX=             -0.1364
 ZZZY=              0.7338 XXYY=           -241.3613 XXZZ=           -193.7284 YYZZ=            -55.3033
 XXYZ=              0.5024 YYXZ=             -0.6866 ZZXY=             -0.3333
 N-N= 4.718697003367D+02 E-N=-2.082884734530D+03  KE= 4.845724904054D+02
 No NMR shielding tensors so no spin-rotation constants.
 Leave Link  601 at Fri Aug 20 15:35:40 2021, MaxMem= 24159191040 cpu:        10.8
 (Enter /public/home/users/caep010/software/Gaussian09/g09/l701.exe)
 Compute integral first derivatives.
 ... and contract with generalized density number  0.
 Leave Link  701 at Fri Aug 20 15:35:40 2021, MaxMem= 24159191040 cpu:        10.4
 (Enter /public/home/users/caep010/software/Gaussian09/g09/l702.exe)
 L702 exits ... SP integral derivatives will be done elsewhere.
 Leave Link  702 at Fri Aug 20 15:35:40 2021, MaxMem= 24159191040 cpu:         0.5
 (Enter /public/home/users/caep010/software/Gaussian09/g09/l703.exe)
 Compute integral first derivatives, UseDBF=F ICtDFT=           0.
 Integral derivatives from FoFJK, PRISM(SPDF).
 Calling FoFJK, ICntrl=      2127 FMM=F ISym2X=0 I1Cent= 0 IOpClX= 0 NMat=1 NMatS=1 NMatT=0.
 FoFJK:  IHMeth= 1 ICntrl=    2127 DoSepK=F KAlg= 0 I1Cent=   0 FoldK=F
 IRaf=         0 NMat=   1 IRICut=       1 DoRegI=T DoRafI=F ISym2E= 0.
 FoFCou: FMM=F IPFlag=           0 FMFlag=      100000 FMFlg1=         800
         NFxFlg=           0 DoJE=F BraDBF=F KetDBF=F FulRan=T
         wScrn=  0.000000 ICntrl=    2127 IOpCl=  0 I1Cent=           0 NGrid=           0
         NMat0=    1 NMatS0=      1 NMatT0=    0 NMatD0=    1 NMtDS0=    0 NMtDT0=    0
 Symmetry not used in FoFCou.
 Leave Link  703 at Fri Aug 20 15:35:41 2021, MaxMem= 24159191040 cpu:        15.5
 (Enter /public/home/users/caep010/software/Gaussian09/g09/l716.exe)
 Dipole        = 3.69354925D+00 1.95642097D-01 1.06070612D-02
 ***** Axes restored to original set *****
 -------------------------------------------------------------------
 Center     Atomic                   Forces (Hartrees/Bohr)
 Number     Number              X              Y              Z
 -------------------------------------------------------------------
      1        6           0.002895275    0.060317546   -0.002287915
      2        7          -0.076619325   -0.088631017    0.118242861
      3        6          -0.025760312    0.067533826    0.046868613
      4        6           0.034482222    0.083362780   -0.038287147
      5        1          -0.103020966   -0.043103143   -0.023728642
      6        7           0.147550442   -0.105431995   -0.237379272
      7        1          -0.155434320    0.093809886    0.258853011
      8        7          -0.006092372   -0.036019640    0.011992337
      9        7          -0.001253821    0.033004653   -0.001858742
     10        8           0.008297514   -0.014965173   -0.014367916
     11        1           0.080930450    0.085463547   -0.130939194
     12        8          -0.000113150   -0.004643953    0.001838691
     13        1           0.083797817   -0.029600338    0.011924826
     14        1          -0.041682335   -0.045217036   -0.070775800
     15        1           0.052022883   -0.055879941    0.069904286
 -------------------------------------------------------------------
 Cartesian Forces:  Max     0.258853011 RMS     0.083301685
 Leave Link  716 at Fri Aug 20 15:35:41 2021, MaxMem= 24159191040 cpu:         0.7
 (Enter /public/home/users/caep010/software/Gaussian09/g09/l103.exe)

 GradGradGradGradGradGradGradGradGradGradGradGradGradGradGradGradGradGrad
 Berny optimization.
 FormGI is forming the generalized inverse of G from B-inverse, IUseBI=4.
 GSVD:  received Info=                   1 from GESDD.
 Internal  Forces:  Max     0.316172389 RMS     0.048705928
 Search for a local minimum.
 Step number   1 out of a maximum of   84
 All quantities printed in internal units (Hartrees-Bohrs-Radians)
 RMS Force = .48706D-01 SwitMx=.10000D-02 MixMth= 1
 Mixed Optimization -- RFO/linear search
 Second derivative matrix not updated -- first step.
 ITU=  0
     Eigenvalues ---    0.00751   0.01522   0.01693   0.01941   0.02096
     Eigenvalues ---    0.02307   0.02630   0.03026   0.04310   0.04513
     Eigenvalues ---    0.05599   0.05985   0.08324   0.08418   0.08545
     Eigenvalues ---    0.10665   0.15678   0.15762   0.21776   0.23150
     Eigenvalues ---    0.24999   0.24999   0.25000   0.25000   0.29521
     Eigenvalues ---    0.34332   0.37541   0.48879   0.49812   0.51219
     Eigenvalues ---    0.52607   0.54282   0.56245   0.57331   0.58706
     Eigenvalues ---    0.76544   0.87809   0.88157   0.99717
 RFO step:  Lambda=-1.82820610D-01 EMin= 7.50543924D-03
 Linear search not attempted -- first point.
 Maximum step size (   0.300) exceeded in Quadratic search.
    -- Step size scaled by   0.666
 Iteration  1 RMS(Cart)=  0.04464958 RMS(Int)=  0.00051807
 Iteration  2 RMS(Cart)=  0.00059989 RMS(Int)=  0.00001072
 Iteration  3 RMS(Cart)=  0.00000032 RMS(Int)=  0.00001072
 ITry= 1 IFail=0 DXMaxC= 1.84D-01 DCOld= 1.00D+10 DXMaxT= 3.00D-01 DXLimC= 3.00D+00 Rises=F
 Variable       Old X    -DE/DX   Delta X   Delta X   Delta X     New X
                                 (Linear)    (Quad)   (Total)
    R1        2.50646   0.01818   0.00000   0.01601   0.01601   2.52247
    R2        2.50107   0.02962   0.00000   0.02593   0.02593   2.52701
    R3        2.55775  -0.02259   0.00000  -0.02074  -0.02074   2.53702
    R4        2.76339   0.01103   0.00000   0.01244   0.01243   2.77583
    R5        1.66535   0.17593   0.00000   0.12361   0.12361   1.78896
    R6        2.87326   0.01922   0.00000   0.02479   0.02478   2.89804
    R7        1.87714   0.08966   0.00000   0.08894   0.08894   1.96608
    R8        1.86756   0.09343   0.00000   0.09142   0.09142   1.95898
    R9        1.84023   0.11407   0.00000   0.10721   0.10721   1.94744
   R10        2.73745   0.01273   0.00000   0.01515   0.01515   2.75260
   R11        1.85355   0.10313   0.00000   0.09887   0.09887   1.95242
   R12        1.55452   0.31617   0.00000   0.17852   0.17852   1.73304
   R13        2.53117   0.02084   0.00000   0.01836   0.01836   2.54954
   R14        2.33959   0.01987   0.00000   0.01248   0.01248   2.35207
   R15        2.33794  -0.00398   0.00000  -0.00249  -0.00249   2.33545
    A1        1.93017  -0.00622   0.00000  -0.00674  -0.00674   1.92343
    A2        2.30977  -0.00235   0.00000  -0.00503  -0.00503   2.30474
    A3        2.04321   0.00858   0.00000   0.01178   0.01178   2.05499
    A4        1.93752   0.00401   0.00000   0.00662   0.00661   1.94414
    A5        2.16729  -0.00740   0.00000  -0.01400  -0.01400   2.15329
    A6        2.16587   0.00346   0.00000   0.00746   0.00747   2.17334
    A7        1.79562   0.00094   0.00000  -0.00185  -0.00186   1.79376
    A8        1.91116   0.00058   0.00000   0.00287   0.00286   1.91402
    A9        1.90639   0.00235   0.00000   0.00723   0.00720   1.91359
   A10        1.94796   0.00007   0.00000   0.00131   0.00131   1.94927
   A11        2.01333  -0.00572   0.00000  -0.01334  -0.01333   2.00000
   A12        1.88630   0.00200   0.00000   0.00436   0.00433   1.89062
   A13        1.93629  -0.00002   0.00000   0.00140   0.00140   1.93769
   A14        1.79401   0.00108   0.00000  -0.00093  -0.00095   1.79306
   A15        1.99402  -0.00379   0.00000  -0.00886  -0.00887   1.98515
   A16        1.93430  -0.00009   0.00000   0.00047   0.00047   1.93477
   A17        1.84774   0.00388   0.00000   0.00981   0.00982   1.85756
   A18        1.95982  -0.00126   0.00000  -0.00228  -0.00232   1.95749
   A19        1.95216  -0.00013   0.00000   0.00193   0.00194   1.95410
   A20        2.12580   0.00070   0.00000   0.00018   0.00017   2.12598
   A21        2.19489  -0.00057   0.00000  -0.00216  -0.00216   2.19272
   A22        2.05738  -0.01822   0.00000  -0.02804  -0.02804   2.02934
   A23        2.15490  -0.01351   0.00000  -0.02080  -0.02080   2.13410
   A24        2.00706   0.00332   0.00000   0.00511   0.00511   2.01217
   A25        2.12115   0.01021   0.00000   0.01573   0.01573   2.13687
    D1       -0.05362  -0.00095   0.00000  -0.00293  -0.00293  -0.05655
    D2       -3.03164  -0.00188   0.00000  -0.00445  -0.00444  -3.03608
    D3        3.07887  -0.00020   0.00000  -0.00090  -0.00091   3.07795
    D4        0.10085  -0.00113   0.00000  -0.00242  -0.00242   0.09843
    D5       -0.06056  -0.00040   0.00000  -0.00111  -0.00111  -0.06167
    D6       -3.05648  -0.00031   0.00000  -0.00059  -0.00060  -3.05708
    D7        3.08859  -0.00097   0.00000  -0.00271  -0.00272   3.08587
    D8        0.09266  -0.00087   0.00000  -0.00220  -0.00221   0.09046
    D9        0.00614  -0.00133   0.00000  -0.00418  -0.00418   0.00196
   D10        3.13816  -0.00062   0.00000  -0.00213  -0.00212   3.13604
   D11        0.13535   0.00173   0.00000   0.00503   0.00504   0.14039
   D12       -1.93812   0.00089   0.00000   0.00320   0.00321  -1.93492
   D13        2.28254  -0.00326   0.00000  -0.00802  -0.00805   2.27449
   D14        3.11352   0.00145   0.00000   0.00416   0.00417   3.11769
   D15        1.04005   0.00060   0.00000   0.00232   0.00233   1.04239
   D16       -1.02247  -0.00355   0.00000  -0.00890  -0.00892  -1.03139
   D17        1.91212  -0.00140   0.00000  -0.00415  -0.00414   1.90797
   D18       -0.15620  -0.00189   0.00000  -0.00483  -0.00482  -0.16102
   D19       -2.28420   0.00100   0.00000   0.00345   0.00344  -2.28076
   D20       -2.32349  -0.00015   0.00000  -0.00124  -0.00124  -2.32473
   D21        1.89138  -0.00065   0.00000  -0.00192  -0.00191   1.88946
   D22       -0.23662   0.00225   0.00000   0.00636   0.00635  -0.23028
   D23       -0.16187  -0.00192   0.00000  -0.00480  -0.00480  -0.16667
   D24       -2.23019  -0.00241   0.00000  -0.00548  -0.00548  -2.23567
   D25        1.92500   0.00048   0.00000   0.00280   0.00278   1.92778
   D26        0.13999   0.00125   0.00000   0.00386   0.00385   0.14383
   D27        3.12897   0.00128   0.00000   0.00357   0.00356   3.13253
   D28       -1.92973   0.00071   0.00000   0.00253   0.00252  -1.92720
   D29        1.05926   0.00073   0.00000   0.00224   0.00224   1.06150
   D30        2.29100  -0.00332   0.00000  -0.00868  -0.00868   2.28232
   D31       -1.00320  -0.00329   0.00000  -0.00896  -0.00896  -1.01216
   D32        0.01276  -0.00113   0.00000  -0.00357  -0.00356   0.00920
   D33        3.14088   0.00007   0.00000   0.00010   0.00009   3.14096
   D34        3.12726   0.00120   0.00000   0.00380   0.00381   3.13107
         Item               Value     Threshold  Converged?
 Maximum Force            0.316172     0.000450     NO 
 RMS     Force            0.048706     0.000300     NO 
 Maximum Displacement     0.184235     0.001800     NO 
 RMS     Displacement     0.044792     0.001200     NO 
 Predicted change in Energy=-8.951421D-02
 Lowest energy point so far.  Saving SCF results.
 GradGradGradGradGradGradGradGradGradGradGradGradGradGradGradGradGradGrad

 Leave Link  103 at Fri Aug 20 15:35:41 2021, MaxMem= 24159191040 cpu:         3.2
 (Enter /public/home/users/caep010/software/Gaussian09/g09/l202.exe)
                          Input orientation:                          
 ---------------------------------------------------------------------
 Center     Atomic      Atomic             Coordinates (Angstroms)
 Number     Number       Type             X           Y           Z
 ---------------------------------------------------------------------
      1          6           0        0.971994    7.758008    5.086348
      2          7           0        1.498713    7.124063    4.036367
      3          6           0        1.500640    5.668649    4.234971
      4          6           0        0.684655    5.501020    5.522576
      5          1           0       -0.233819    5.077193    5.325627
      6          7           0        0.533586    6.873017    5.987894
      7          1           0        0.083345    7.134664    6.742793
      8          7           0        0.826971    9.062355    5.369261
      9          7           0        1.285354    9.929027    4.442446
     10          8           0        1.805760    9.549469    3.377410
     11          1           0        1.939279    7.569269    3.326516
     12          8           0        1.142072   11.124540    4.720995
     13          1           0        2.478219    5.332667    4.352876
     14          1           0        1.094054    5.202895    3.402868
     15          1           0        1.139477    4.898263    6.227751
 ---------------------------------------------------------------------
                    Distance matrix (angstroms):
                    1          2          3          4          5
     1  C    0.000000
     2  N    1.334833   0.000000
     3  C    2.317268   1.468903   0.000000
     4  C    2.316647   2.346439   1.533577   0.000000
     5  H    2.949239   2.975489   2.132534   1.030540   0.000000
     6  N    1.337234   2.191563   2.336329   1.456612   2.062157
     7  H    1.980421   3.054197   3.232197   2.125863   2.518360
     8  N    1.342532   2.446389   3.641111   3.567473   4.124160
     9  N    2.286073   2.842226   4.270857   4.597256   5.160251
    10  O    2.612463   2.532015   3.986135   4.716837   5.287408
    11  H    2.016995   0.946676   2.151755   3.267172   3.863838
    12  O    3.390567   4.074276   5.489220   5.698749   6.231297
    13  H    2.947707   2.066085   1.040407   2.147886   2.892519
    14  H    3.062287   2.062997   1.036646   2.179368   2.340097
    15  H    3.083666   3.144105   2.166819   1.033175   1.652811
                    6          7          8          9         10
     6  N    0.000000
     7  H    0.917087   0.000000
     8  N    2.293901   2.481041   0.000000
     9  N    3.506103   3.813776   1.349156   0.000000
    10  O    3.949233   4.485956   2.272175   1.244664   0.000000
    11  H    3.089283   3.912073   2.763936   2.690981   1.985349
    12  O    4.477804   4.596486   2.184524   1.235868   2.174063
    13  H    2.971121   3.833317   4.203598   4.749472   4.380086
    14  H    3.128225   3.988528   4.339754   4.842896   4.404529
    15  H    2.079493   2.526296   4.263136   5.340148   5.495643
                   11         12         13         14         15
    11  H    0.000000
    12  O    3.901290   0.000000
    13  H    2.519178   5.955384   0.000000
    14  H    2.513953   6.066765   1.683826   0.000000
    15  H    4.023819   6.406001   2.344375   2.841624   0.000000
 Stoichiometry    C3H6N4O2
 Framework group  C1[X(C3H6N4O2)]
 Deg. of freedom    39
 Full point group                 C1      NOp   1
 RotChk:  IX=2 Diff= 8.68D-03
 Largest Abelian subgroup         C1      NOp   1
 Largest concise Abelian subgroup C1      NOp   1
                         Standard orientation:                         
 ---------------------------------------------------------------------
 Center     Atomic      Atomic             Coordinates (Angstroms)
 Number     Number       Type             X           Y           Z
 ---------------------------------------------------------------------
      1          6           0        0.320084   -0.342578    0.005929
      2          7           0        0.747922    0.921495   -0.023240
      3          6           0        2.212716    0.993377    0.059767
      4          6           0        2.631836   -0.476761   -0.062255
      5          1           0        3.085347   -0.657767   -0.969767
      6          7           0        1.360775   -1.181908    0.032042
      7          1           0        1.249669   -2.091184   -0.011781
      8          7           0       -0.912424   -0.874669    0.019915
      9          7           0       -1.940323   -0.001038   -0.000468
     10          8           0       -1.765098    1.230588   -0.040257
     11          1           0        0.169739    1.668541    0.038580
     12          8           0       -3.066328   -0.510275    0.012169
     13          1           0        2.492005    1.397912    0.976716
     14          1           0        2.574515    1.608913   -0.691799
     15          1           0        3.300662   -0.780300    0.664372
 ---------------------------------------------------------------------
 Rotational constants (GHZ):      4.9381505      1.0565855      0.8793906
 Leave Link  202 at Fri Aug 20 15:35:41 2021, MaxMem= 24159191040 cpu:         0.3
 (Enter /public/home/users/caep010/software/Gaussian09/g09/l301.exe)
 Standard basis: 6-31G(d,p) (6D, 7F)
 Ernie: Thresh=  0.10000D-02 Tol=  0.10000D-05 Strict=F.
 There are   165 symmetry adapted cartesian basis functions of A   symmetry.
 There are   165 symmetry adapted basis functions of A   symmetry.
   165 basis functions,   294 primitive gaussians,   165 cartesian basis functions
    34 alpha electrons       34 beta electrons
       nuclear repulsion energy       469.5620467760 Hartrees.
 IExCor=  402 DFT=T Ex+Corr=B3LYP ExCW=0 ScaHFX=  0.200000
 ScaDFX=  0.800000  0.720000  1.000000  0.810000 ScalE2=  1.000000  1.000000
 IRadAn=      0 IRanWt=     -1 IRanGd=            0 ICorTp=0 IEmpDi=  4
 NAtoms=   15 NActive=   15 NUniq=   15 SFac= 1.00D+00 NAtFMM=   60 NAOKFM=F Big=F
 Integral buffers will be    131072 words long.
 Raffenetti 2 integral format.
 Two-electron integral symmetry is turned on.
 Leave Link  301 at Fri Aug 20 15:35:41 2021, MaxMem= 24159191040 cpu:         1.8
 (Enter /public/home/users/caep010/software/Gaussian09/g09/l302.exe)
 NPDir=0 NMtPBC=     1 NCelOv=     1 NCel=       1 NClECP=     1 NCelD=      1
         NCelK=      1 NCelE2=     1 NClLst=     1 CellRange=     0.0.
 One-electron integrals computed using PRISM.
 NBasis=   165 RedAO= T EigKep=  1.63D-03  NBF=   165
 NBsUse=   165 1.00D-06 EigRej= -1.00D+00 NBFU=   165
 Precomputing XC quadrature grid using
 IXCGrd= 4 IRadAn=           0 IRanWt=          -1 IRanGd=           0 AccXCQ= 0.00D+00.
 Generated NRdTot=       0 NPtTot=           0 NUsed=           0 NTot=          32
 NSgBfM=   164   164   164   164   164 MxSgAt=    15 MxSgA2=    15.
 Leave Link  302 at Fri Aug 20 15:35:42 2021, MaxMem= 24159191040 cpu:        12.1
 (Enter /public/home/users/caep010/software/Gaussian09/g09/l303.exe)
 DipDrv:  MaxL=1.
 Leave Link  303 at Fri Aug 20 15:35:42 2021, MaxMem= 24159191040 cpu:         1.2
 (Enter /public/home/users/caep010/software/Gaussian09/g09/l401.exe)
 Initial guess from the checkpoint file:  "/public/home/users/caep010/.cache/gau_scr/Gau-130764.chk"
 B after Tr=    -0.000000    0.000000   -0.000000
         Rot=    1.000000    0.000240    0.000170   -0.000284 Ang=   0.05 deg.
 Guess basis will be translated and rotated to current coordinates.
 JPrj=2 DoOrth=T DoCkMO=T.
 Generating alternative initial guess.
 ExpMin= 1.61D-01 ExpMax= 5.48D+03 ExpMxC= 8.25D+02 IAcc=1 IRadAn=         1 AccDes= 0.00D+00
 Harris functional with IExCor=  402 and IRadAn=       1 diagonalized for initial guess.
 HarFok:  IExCor=  402 AccDes= 0.00D+00 IRadAn=         1 IDoV= 1 UseB2=F ITyADJ=14
 ICtDFT=  3500011 ScaDFX=  1.000000  1.000000  1.000000  1.000000
 FoFCou: FMM=F IPFlag=           0 FMFlag=      100000 FMFlg1=           0
         NFxFlg=           0 DoJE=T BraDBF=F KetDBF=T FulRan=T
         wScrn=  0.000000 ICntrl=     500 IOpCl=  0 I1Cent=   200000004 NGrid=           0
         NMat0=    1 NMatS0=      1 NMatT0=    0 NMatD0=    1 NMtDS0=    0 NMtDT0=    0
 Petite list used in FoFCou.
 Harris En= -487.277000124938    
 Leave Link  401 at Fri Aug 20 15:35:42 2021, MaxMem= 24159191040 cpu:        12.3
 (Enter /public/home/users/caep010/software/Gaussian09/g09/l502.exe)
 Closed shell SCF:
 Using DIIS extrapolation, IDIIS=  1040.
 Integral symmetry usage will be decided dynamically.
 Keep R1 ints in memory in canonical form, NReq=96177169.
 IVT=      106744 IEndB=      106744 NGot= 24159191040 MDV= 24065300937
 LenX= 24065300937 LenY= 24065273271
 Requested convergence on RMS density matrix=1.00D-08 within 128 cycles.
 Requested convergence on MAX density matrix=1.00D-06.
 Requested convergence on             energy=1.00D-06.
 No special actions if energy rises.
 FoFCou: FMM=F IPFlag=           0 FMFlag=           0 FMFlg1=           0
         NFxFlg=           0 DoJE=F BraDBF=F KetDBF=F FulRan=T
         wScrn=  0.000000 ICntrl=     600 IOpCl=  0 I1Cent=           0 NGrid=           0
         NMat0=    1 NMatS0=  13695 NMatT0=    0 NMatD0=    1 NMtDS0=    0 NMtDT0=    0
 Symmetry not used in FoFCou.
 Integral accuracy reduced to 1.0D-05 until final iterations.

 Cycle   1  Pass 0  IDiag  1:
 E= -487.247830105161    
 DIIS: error= 3.99D-03 at cycle   1 NSaved=   1.
 NSaved= 1 IEnMin= 1 EnMin= -487.247830105161     IErMin= 1 ErrMin= 3.99D-03
 ErrMax= 3.99D-03  0.00D+00 EMaxC= 1.00D-01 BMatC= 6.53D-03 BMatP= 6.53D-03
 IDIUse=3 WtCom= 9.60D-01 WtEn= 3.99D-02
 Coeff-Com:  0.100D+01
 Coeff-En:   0.100D+01
 Coeff:      0.100D+01
 Gap=     1.634 Goal=   None    Shift=    0.000
 GapD=    1.634 DampG=2.000 DampE=1.000 DampFc=2.0000 IDamp=-1.
 RMSDP=7.99D-04 MaxDP=1.81D-02              OVMax= 1.80D-02

 Cycle   2  Pass 0  IDiag  1:
 E= -487.254203166260     Delta-E=       -0.006373061099 Rises=F Damp=F
 DIIS: error= 2.37D-03 at cycle   2 NSaved=   2.
 NSaved= 2 IEnMin= 2 EnMin= -487.254203166260     IErMin= 2 ErrMin= 2.37D-03
 ErrMax= 2.37D-03  0.00D+00 EMaxC= 1.00D-01 BMatC= 1.50D-03 BMatP= 6.53D-03
 IDIUse=3 WtCom= 9.76D-01 WtEn= 2.37D-02
 Coeff-Com:  0.257D+00 0.743D+00
 Coeff-En:   0.000D+00 0.100D+01
 Coeff:      0.251D+00 0.749D+00
 Gap=     0.203 Goal=   None    Shift=    0.000
 RMSDP=3.97D-04 MaxDP=1.44D-02 DE=-6.37D-03 OVMax= 2.32D-02

 Cycle   3  Pass 0  IDiag  1:
 E= -487.254637101582     Delta-E=       -0.000433935322 Rises=F Damp=F
 DIIS: error= 2.29D-03 at cycle   3 NSaved=   3.
 NSaved= 3 IEnMin= 3 EnMin= -487.254637101582     IErMin= 3 ErrMin= 2.29D-03
 ErrMax= 2.29D-03  0.00D+00 EMaxC= 1.00D-01 BMatC= 1.11D-03 BMatP= 1.50D-03
 IDIUse=3 WtCom= 9.77D-01 WtEn= 2.29D-02
 Coeff-Com:  0.294D-01 0.458D+00 0.512D+00
 Coeff-En:   0.000D+00 0.417D+00 0.583D+00
 Coeff:      0.287D-01 0.457D+00 0.514D+00
 Gap=     0.206 Goal=   None    Shift=    0.000
 RMSDP=2.04D-04 MaxDP=6.21D-03 DE=-4.34D-04 OVMax= 1.18D-02

 Cycle   4  Pass 0  IDiag  1:
 E= -487.255566563573     Delta-E=       -0.000929461992 Rises=F Damp=F
 DIIS: error= 5.12D-04 at cycle   4 NSaved=   4.
 NSaved= 4 IEnMin= 4 EnMin= -487.255566563573     IErMin= 4 ErrMin= 5.12D-04
 ErrMax= 5.12D-04  0.00D+00 EMaxC= 1.00D-01 BMatC= 3.64D-05 BMatP= 1.11D-03
 IDIUse=3 WtCom= 9.95D-01 WtEn= 5.12D-03
 Coeff-Com: -0.412D-03 0.173D+00 0.236D+00 0.591D+00
 Coeff-En:   0.000D+00 0.000D+00 0.000D+00 0.100D+01
 Coeff:     -0.409D-03 0.172D+00 0.235D+00 0.593D+00
 Gap=     0.206 Goal=   None    Shift=    0.000
 RMSDP=4.88D-05 MaxDP=1.70D-03 DE=-9.29D-04 OVMax= 2.61D-03

 Cycle   5  Pass 0  IDiag  1:
 E= -487.255584660359     Delta-E=       -0.000018096786 Rises=F Damp=F
 DIIS: error= 3.75D-04 at cycle   5 NSaved=   5.
 NSaved= 5 IEnMin= 5 EnMin= -487.255584660359     IErMin= 5 ErrMin= 3.75D-04
 ErrMax= 3.75D-04  0.00D+00 EMaxC= 1.00D-01 BMatC= 1.55D-05 BMatP= 3.64D-05
 IDIUse=3 WtCom= 9.96D-01 WtEn= 3.75D-03
 Coeff-Com: -0.318D-02 0.687D-01 0.103D+00 0.410D+00 0.420D+00
 Coeff-En:   0.000D+00 0.000D+00 0.000D+00 0.304D+00 0.696D+00
 Coeff:     -0.317D-02 0.685D-01 0.103D+00 0.410D+00 0.422D+00
 Gap=     0.206 Goal=   None    Shift=    0.000
 RMSDP=2.37D-05 MaxDP=1.22D-03 DE=-1.81D-05 OVMax= 1.47D-03

 Cycle   6  Pass 0  IDiag  1:
 E= -487.255595521291     Delta-E=       -0.000010860932 Rises=F Damp=F
 DIIS: error= 1.21D-04 at cycle   6 NSaved=   6.
 NSaved= 6 IEnMin= 6 EnMin= -487.255595521291     IErMin= 6 ErrMin= 1.21D-04
 ErrMax= 1.21D-04  0.00D+00 EMaxC= 1.00D-01 BMatC= 1.94D-06 BMatP= 1.55D-05
 IDIUse=3 WtCom= 9.99D-01 WtEn= 1.21D-03
 Coeff-Com: -0.232D-02 0.257D-01 0.417D-01 0.213D+00 0.294D+00 0.428D+00
 Coeff-En:   0.000D+00 0.000D+00 0.000D+00 0.000D+00 0.953D-01 0.905D+00
 Coeff:     -0.232D-02 0.256D-01 0.417D-01 0.213D+00 0.293D+00 0.429D+00
 Gap=     0.206 Goal=   None    Shift=    0.000
 RMSDP=8.11D-06 MaxDP=3.47D-04 DE=-1.09D-05 OVMax= 4.44D-04

 Initial convergence to 1.0D-05 achieved.  Increase integral accuracy.
 Cycle   7  Pass 1  IDiag  1:
 E= -487.255634654377     Delta-E=       -0.000039133085 Rises=F Damp=F
 DIIS: error= 2.72D-05 at cycle   1 NSaved=   1.
 NSaved= 1 IEnMin= 1 EnMin= -487.255634654377     IErMin= 1 ErrMin= 2.72D-05
 ErrMax= 2.72D-05  0.00D+00 EMaxC= 1.00D-01 BMatC= 2.15D-07 BMatP= 2.15D-07
 IDIUse=1 WtCom= 1.00D+00 WtEn= 0.00D+00
 Coeff-Com:  0.100D+01
 Coeff:      0.100D+01
 Gap=     0.206 Goal=   None    Shift=    0.000
 RMSDP=8.11D-06 MaxDP=3.47D-04 DE=-3.91D-05 OVMax= 3.57D-04

 Cycle   8  Pass 1  IDiag  1:
 E= -487.255634155555     Delta-E=        0.000000498822 Rises=F Damp=F
 DIIS: error= 7.50D-05 at cycle   2 NSaved=   2.
 NSaved= 2 IEnMin= 1 EnMin= -487.255634654377     IErMin= 1 ErrMin= 2.72D-05
 ErrMax= 7.50D-05  0.00D+00 EMaxC= 1.00D-01 BMatC= 8.59D-07 BMatP= 2.15D-07
 IDIUse=1 WtCom= 1.00D+00 WtEn= 0.00D+00
 Coeff-Com:  0.683D+00 0.317D+00
 Coeff:      0.683D+00 0.317D+00
 Gap=     0.206 Goal=   None    Shift=    0.000
 RMSDP=5.21D-06 MaxDP=2.24D-04 DE= 4.99D-07 OVMax= 3.28D-04

 Cycle   9  Pass 1  IDiag  1:
 E= -487.255634817799     Delta-E=       -0.000000662244 Rises=F Damp=F
 DIIS: error= 1.59D-05 at cycle   3 NSaved=   3.
 NSaved= 3 IEnMin= 3 EnMin= -487.255634817799     IErMin= 3 ErrMin= 1.59D-05
 ErrMax= 1.59D-05  0.00D+00 EMaxC= 1.00D-01 BMatC= 3.22D-08 BMatP= 2.15D-07
 IDIUse=1 WtCom= 1.00D+00 WtEn= 0.00D+00
 Coeff-Com:  0.192D+00 0.174D+00 0.634D+00
 Coeff:      0.192D+00 0.174D+00 0.634D+00
 Gap=     0.206 Goal=   None    Shift=    0.000
 RMSDP=1.35D-06 MaxDP=6.48D-05 DE=-6.62D-07 OVMax= 7.61D-05

 Cycle  10  Pass 1  IDiag  1:
 E= -487.255634831990     Delta-E=       -0.000000014191 Rises=F Damp=F
 DIIS: error= 1.12D-05 at cycle   4 NSaved=   4.
 NSaved= 4 IEnMin= 4 EnMin= -487.255634831990     IErMin= 4 ErrMin= 1.12D-05
 ErrMax= 1.12D-05  0.00D+00 EMaxC= 1.00D-01 BMatC= 1.45D-08 BMatP= 3.22D-08
 IDIUse=1 WtCom= 1.00D+00 WtEn= 0.00D+00
 Coeff-Com:  0.434D-02 0.639D-01 0.464D+00 0.468D+00
 Coeff:      0.434D-02 0.639D-01 0.464D+00 0.468D+00
 Gap=     0.206 Goal=   None    Shift=    0.000
 RMSDP=7.19D-07 MaxDP=2.79D-05 DE=-1.42D-08 OVMax= 4.94D-05

 Cycle  11  Pass 1  IDiag  1:
 E= -487.255634843105     Delta-E=       -0.000000011115 Rises=F Damp=F
 DIIS: error= 2.16D-06 at cycle   5 NSaved=   5.
 NSaved= 5 IEnMin= 5 EnMin= -487.255634843105     IErMin= 5 ErrMin= 2.16D-06
 ErrMax= 2.16D-06  0.00D+00 EMaxC= 1.00D-01 BMatC= 6.82D-10 BMatP= 1.45D-08
 IDIUse=1 WtCom= 1.00D+00 WtEn= 0.00D+00
 Coeff-Com: -0.686D-02 0.294D-01 0.250D+00 0.287D+00 0.441D+00
 Coeff:     -0.686D-02 0.294D-01 0.250D+00 0.287D+00 0.441D+00
 Gap=     0.206 Goal=   None    Shift=    0.000
 RMSDP=1.49D-07 MaxDP=4.40D-06 DE=-1.11D-08 OVMax= 6.95D-06

 Cycle  12  Pass 1  IDiag  1:
 E= -487.255634843643     Delta-E=       -0.000000000538 Rises=F Damp=F
 DIIS: error= 3.96D-07 at cycle   6 NSaved=   6.
 NSaved= 6 IEnMin= 6 EnMin= -487.255634843643     IErMin= 6 ErrMin= 3.96D-07
 ErrMax= 3.96D-07  0.00D+00 EMaxC= 1.00D-01 BMatC= 2.85D-11 BMatP= 6.82D-10
 IDIUse=1 WtCom= 1.00D+00 WtEn= 0.00D+00
 Coeff-Com: -0.419D-02 0.869D-02 0.851D-01 0.104D+00 0.224D+00 0.582D+00
 Coeff:     -0.419D-02 0.869D-02 0.851D-01 0.104D+00 0.224D+00 0.582D+00
 Gap=     0.206 Goal=   None    Shift=    0.000
 RMSDP=2.52D-08 MaxDP=9.89D-07 DE=-5.38D-10 OVMax= 1.25D-06

 Cycle  13  Pass 1  IDiag  1:
 E= -487.255634843648     Delta-E=       -0.000000000005 Rises=F Damp=F
 DIIS: error= 1.20D-07 at cycle   7 NSaved=   7.
 NSaved= 7 IEnMin= 7 EnMin= -487.255634843648     IErMin= 7 ErrMin= 1.20D-07
 ErrMax= 1.20D-07  0.00D+00 EMaxC= 1.00D-01 BMatC= 2.22D-12 BMatP= 2.85D-11
 IDIUse=1 WtCom= 1.00D+00 WtEn= 0.00D+00
 Coeff-Com: -0.177D-02 0.284D-02 0.304D-01 0.379D-01 0.931D-01 0.305D+00
 Coeff-Com:  0.532D+00
 Coeff:     -0.177D-02 0.284D-02 0.304D-01 0.379D-01 0.931D-01 0.305D+00
 Coeff:      0.532D+00
 Gap=     0.206 Goal=   None    Shift=    0.000
 RMSDP=8.46D-09 MaxDP=2.86D-07 DE=-4.77D-12 OVMax= 3.73D-07

 SCF Done:  E(RB3LYP) =  -487.255634844     A.U. after   13 cycles
            NFock= 13  Conv=0.85D-08     -V/T= 2.0073
 KE= 4.837251289015D+02 PE=-2.077942673940D+03 EE= 6.373998634192D+02
 Leave Link  502 at Fri Aug 20 15:35:46 2021, MaxMem= 24159191040 cpu:        60.4
 (Enter /public/home/users/caep010/software/Gaussian09/g09/l701.exe)
 Compute integral first derivatives.
 ... and contract with generalized density number  0.
 Leave Link  701 at Fri Aug 20 15:35:47 2021, MaxMem= 24159191040 cpu:        10.7
 (Enter /public/home/users/caep010/software/Gaussian09/g09/l702.exe)
 L702 exits ... SP integral derivatives will be done elsewhere.
 Leave Link  702 at Fri Aug 20 15:35:47 2021, MaxMem= 24159191040 cpu:         0.5
 (Enter /public/home/users/caep010/software/Gaussian09/g09/l703.exe)
 Compute integral first derivatives, UseDBF=F ICtDFT=           0.
 Integral derivatives from FoFJK, PRISM(SPDF).
 Calling FoFJK, ICntrl=      2127 FMM=F ISym2X=0 I1Cent= 0 IOpClX= 0 NMat=1 NMatS=1 NMatT=0.
 FoFJK:  IHMeth= 1 ICntrl=    2127 DoSepK=F KAlg= 0 I1Cent=   0 FoldK=F
 IRaf=         0 NMat=   1 IRICut=       1 DoRegI=T DoRafI=F ISym2E= 0.
 FoFCou: FMM=F IPFlag=           0 FMFlag=      100000 FMFlg1=         800
         NFxFlg=           0 DoJE=F BraDBF=F KetDBF=F FulRan=T
         wScrn=  0.000000 ICntrl=    2127 IOpCl=  0 I1Cent=           0 NGrid=           0
         NMat0=    1 NMatS0=      1 NMatT0=    0 NMatD0=    1 NMtDS0=    0 NMtDT0=    0
 Symmetry not used in FoFCou.
 Leave Link  703 at Fri Aug 20 15:35:47 2021, MaxMem= 24159191040 cpu:        16.3
 (Enter /public/home/users/caep010/software/Gaussian09/g09/l716.exe)
 Dipole        = 3.51101486D+00 1.59612593D-01 1.04404738D-02
 ***** Axes restored to original set *****
 -------------------------------------------------------------------
 Center     Atomic                   Forces (Hartrees/Bohr)
 Number     Number              X              Y              Z
 -------------------------------------------------------------------
      1        6           0.001692848    0.036172859   -0.000487883
      2        7          -0.029235802   -0.048063272    0.043785490
      3        6          -0.008788422    0.036454356    0.020886392
      4        6           0.009528969    0.036523358   -0.015796575
      5        1          -0.047034046   -0.019382440   -0.011221167
      6        7           0.052457950   -0.042061397   -0.080266454
      7        1          -0.054437902    0.031845471    0.090126966
      8        7          -0.004176464   -0.022716314    0.007764785
      9        7          -0.000806156    0.024896435   -0.001286662
     10        8           0.005617557   -0.002642796   -0.009474598
     11        1           0.029389573    0.037564558   -0.048088535
     12        8           0.000981653   -0.007022650   -0.000961606
     13        1           0.039344347   -0.014486983    0.005400382
     14        1          -0.020350232   -0.022171723   -0.031776526
     15        1           0.025816125   -0.024909462    0.031395990
 -------------------------------------------------------------------
 Cartesian Forces:  Max     0.090126966 RMS     0.032539255
 Leave Link  716 at Fri Aug 20 15:35:47 2021, MaxMem= 24159191040 cpu:         0.6
 (Enter /public/home/users/caep010/software/Gaussian09/g09/l103.exe)

 GradGradGradGradGradGradGradGradGradGradGradGradGradGradGradGradGradGrad
 Berny optimization.
 Using GEDIIS/GDIIS optimizer.
 FormGI is forming the generalized inverse of G from B-inverse, IUseBI=4.
 GSVD:  received Info=                   1 from GESDD.
 Internal  Forces:  Max     0.110000539 RMS     0.019047475
 Search for a local minimum.
 Step number   2 out of a maximum of   84
 All quantities printed in internal units (Hartrees-Bohrs-Radians)
 RMS Force = .19047D-01 SwitMx=.10000D-02 MixMth= 1
 Mixed Optimization -- RFO/linear search
 Update second derivatives using D2CorX and points    1    2
 DE= -8.21D-02 DEPred=-8.95D-02 R= 9.17D-01
 TightC=F SS=  1.41D+00  RLast= 3.01D-01 DXNew= 5.0454D-01 9.0323D-01
 Trust test= 9.17D-01 RLast= 3.01D-01 DXMaxT set to 5.05D-01
 ITU=  1  0
 Use linear search instead of GDIIS.
     Eigenvalues ---    0.00752   0.01513   0.01691   0.01937   0.02096
     Eigenvalues ---    0.02307   0.02630   0.03030   0.04344   0.04548
     Eigenvalues ---    0.05642   0.06014   0.08303   0.08380   0.08487
     Eigenvalues ---    0.10645   0.15661   0.15762   0.21787   0.23080
     Eigenvalues ---    0.24970   0.24999   0.25000   0.25269   0.29567
     Eigenvalues ---    0.34360   0.37585   0.48968   0.49953   0.51409
     Eigenvalues ---    0.52813   0.54378   0.56130   0.57292   0.58688
     Eigenvalues ---    0.78261   0.87692   0.88114   1.10017
 RFO step:  Lambda=-1.90163390D-02 EMin= 7.51920681D-03
 Quartic linear search produced a step of  1.06871.
 Iteration  1 RMS(Cart)=  0.09612355 RMS(Int)=  0.00390105
 Iteration  2 RMS(Cart)=  0.00428013 RMS(Int)=  0.00056379
 Iteration  3 RMS(Cart)=  0.00001158 RMS(Int)=  0.00056372
 Iteration  4 RMS(Cart)=  0.00000001 RMS(Int)=  0.00056372
 ITry= 1 IFail=0 DXMaxC= 4.40D-01 DCOld= 1.00D+10 DXMaxT= 5.05D-01 DXLimC= 3.00D+00 Rises=F
 Variable       Old X    -DE/DX   Delta X   Delta X   Delta X     New X
                                 (Linear)    (Quad)   (Total)
    R1        2.52247   0.01041   0.01711   0.01297   0.02997   2.55244
    R2        2.52701   0.01725   0.02771   0.02331   0.05120   2.57820
    R3        2.53702  -0.00829  -0.02216  -0.00181  -0.02397   2.51305
    R4        2.77583   0.00330   0.01329  -0.00288   0.01018   2.78600
    R5        1.78896   0.06740   0.13210   0.00147   0.13357   1.92253
    R6        2.89804   0.00973   0.02649   0.02710   0.05352   2.95156
    R7        1.96608   0.04226   0.09506   0.05039   0.14544   2.11153
    R8        1.95898   0.04345   0.09770   0.04836   0.14606   2.10504
    R9        1.94744   0.05203   0.11458   0.04950   0.16408   2.11152
   R10        2.75260   0.00454   0.01619   0.00503   0.02146   2.77406
   R11        1.95242   0.04733   0.10566   0.04824   0.15390   2.10632
   R12        1.73304   0.11000   0.19078  -0.03491   0.15587   1.88892
   R13        2.54954   0.01981   0.01963   0.04354   0.06316   2.61270
   R14        2.35207   0.01126   0.01334   0.00799   0.02133   2.37340
   R15        2.33545  -0.00713  -0.00266  -0.01275  -0.01541   2.32004
    A1        1.92343  -0.00702  -0.00720  -0.03722  -0.04457   1.87886
    A2        2.30474   0.00623  -0.00538   0.04980   0.04441   2.34915
    A3        2.05499   0.00079   0.01259  -0.01248   0.00010   2.05509
    A4        1.94414   0.00412   0.00707   0.02347   0.03007   1.97420
    A5        2.15329  -0.00780  -0.01496  -0.06978  -0.08444   2.06885
    A6        2.17334   0.00371   0.00798   0.04461   0.05274   2.22608
    A7        1.79376   0.00065  -0.00198  -0.00500  -0.00736   1.78640
    A8        1.91402   0.00067   0.00306   0.02830   0.03088   1.94490
    A9        1.91359   0.00182   0.00769   0.03086   0.03738   1.95097
   A10        1.94927   0.00013   0.00140   0.00796   0.00922   1.95849
   A11        2.00000  -0.00416  -0.01425  -0.07085  -0.08482   1.91518
   A12        1.89062   0.00106   0.00462   0.01259   0.01543   1.90606
   A13        1.93769   0.00048   0.00149   0.02020   0.02210   1.95978
   A14        1.79306  -0.00041  -0.00101  -0.01962  -0.02186   1.77121
   A15        1.98515  -0.00233  -0.00948  -0.04604  -0.05683   1.92832
   A16        1.93477   0.00045   0.00051   0.01264   0.01325   1.94802
   A17        1.85756   0.00233   0.01049   0.05407   0.06533   1.92289
   A18        1.95749  -0.00062  -0.00248  -0.02343  -0.02827   1.92923
   A19        1.95410   0.00236   0.00208   0.02771   0.02990   1.98400
   A20        2.12598  -0.00151   0.00019  -0.02113  -0.02108   2.10490
   A21        2.19272  -0.00090  -0.00231  -0.00958  -0.01208   2.18065
   A22        2.02934   0.01149  -0.02997   0.12232   0.09235   2.12170
   A23        2.13410   0.00171  -0.02223   0.03860   0.01615   2.15025
   A24        2.01217  -0.00147   0.00546  -0.01738  -0.01214   2.00003
   A25        2.13687  -0.00024   0.01681  -0.02091  -0.00433   2.13255
    D1       -0.05655  -0.00082  -0.00313  -0.02923  -0.03258  -0.08914
    D2       -3.03608  -0.00149  -0.00475  -0.02368  -0.02887  -3.06494
    D3        3.07795  -0.00026  -0.00098  -0.01049  -0.01145   3.06650
    D4        0.09843  -0.00093  -0.00259  -0.00494  -0.00774   0.09069
    D5       -0.06167  -0.00049  -0.00119  -0.01153  -0.01319  -0.07486
    D6       -3.05708  -0.00015  -0.00064   0.00989   0.00888  -3.04820
    D7        3.08587  -0.00099  -0.00291  -0.02756  -0.03043   3.05543
    D8        0.09046  -0.00065  -0.00236  -0.00614  -0.00836   0.08209
    D9        0.00196  -0.00117  -0.00447  -0.05459  -0.05937  -0.05741
   D10        3.13604  -0.00060  -0.00227  -0.03477  -0.03673   3.09930
   D11        0.14039   0.00158   0.00538   0.05314   0.05891   0.19930
   D12       -1.93492   0.00077   0.00343   0.03370   0.03780  -1.89712
   D13        2.27449  -0.00203  -0.00860  -0.01742  -0.02672   2.24777
[...]
    A8        1.94126  -0.00000   0.00000  -0.00004  -0.00004   1.94122
    A9        1.94712   0.00000   0.00000  -0.00005  -0.00005   1.94707
   A10        1.94167  -0.00000   0.00000  -0.00002  -0.00002   1.94165
   A11        1.96567   0.00000   0.00000  -0.00007  -0.00007   1.96559
   A12        1.89848   0.00001   0.00000   0.00016   0.00016   1.89864
   A13        1.93768  -0.00001   0.00000  -0.00012  -0.00012   1.93756
   A14        1.76284   0.00000   0.00000  -0.00007  -0.00007   1.76277
   A15        1.96442  -0.00000   0.00000   0.00007   0.00007   1.96448
   A16        1.94987  -0.00000   0.00000  -0.00010  -0.00010   1.94978
   A17        1.89928   0.00001   0.00000   0.00018   0.00018   1.89946
   A18        1.94796  -0.00000   0.00000   0.00001   0.00001   1.94797
   A19        1.91974   0.00000   0.00000   0.00015   0.00014   1.91988
   A20        2.04862  -0.00000   0.00000   0.00033   0.00033   2.04895
   A21        2.13306   0.00001   0.00000   0.00042   0.00042   2.13347
   A22        2.04164   0.00001   0.00000   0.00003   0.00003   2.04167
   A23        2.12491  -0.00000   0.00000  -0.00001  -0.00001   2.12489
   A24        2.00925  -0.00000   0.00000   0.00001   0.00001   2.00926
   A25        2.14897   0.00000   0.00000   0.00000   0.00000   2.14897
    D1       -0.12710   0.00000   0.00000  -0.00058  -0.00058  -0.12768
    D2       -2.86507   0.00001   0.00000   0.00159   0.00159  -2.86348
    D3        3.03593  -0.00000   0.00000  -0.00039  -0.00039   3.03555
    D4        0.29797   0.00000   0.00000   0.00178   0.00178   0.29975
    D5       -0.21604   0.00000   0.00000   0.00046   0.00046  -0.21558
    D6       -2.76103  -0.00001   0.00000  -0.00097  -0.00097  -2.76200
    D7        2.90766   0.00000   0.00000   0.00030   0.00030   2.90795
    D8        0.36267  -0.00001   0.00000  -0.00113  -0.00113   0.36153
    D9       -0.10141  -0.00000   0.00000  -0.00059  -0.00059  -0.10199
   D10        3.06329  -0.00001   0.00000  -0.00038  -0.00038   3.06291
   D11        0.38719  -0.00000   0.00000   0.00044   0.00044   0.38763
   D12       -1.67753   0.00000   0.00000   0.00049   0.00049  -1.67705
   D13        2.48245  -0.00000   0.00000   0.00034   0.00034   2.48279
   D14        3.07654  -0.00001   0.00000  -0.00195  -0.00195   3.07459
   D15        1.01182  -0.00000   0.00000  -0.00191  -0.00191   1.00991
   D16       -1.11138  -0.00001   0.00000  -0.00206  -0.00206  -1.11343
   D17        1.59753  -0.00000   0.00000  -0.00035  -0.00035   1.59718
   D18       -0.47231   0.00000   0.00000  -0.00015  -0.00015  -0.47247
   D19       -2.55175   0.00000   0.00000  -0.00015  -0.00015  -2.55191
   D20       -2.62122  -0.00001   0.00000  -0.00041  -0.00041  -2.62163
   D21        1.59212  -0.00000   0.00000  -0.00021  -0.00021   1.59191
   D22       -0.48732  -0.00000   0.00000  -0.00021  -0.00021  -0.48753
   D23       -0.48452  -0.00000   0.00000  -0.00027  -0.00027  -0.48478
   D24       -2.55436   0.00000   0.00000  -0.00007  -0.00007  -2.55443
   D25        1.64938   0.00001   0.00000  -0.00007  -0.00007   1.64932
   D26        0.43802  -0.00000   0.00000  -0.00016  -0.00016   0.43786
   D27        2.94894   0.00000   0.00000   0.00131   0.00131   2.95025
   D28       -1.62298   0.00001   0.00000   0.00006   0.00006  -1.62292
   D29        0.88795   0.00001   0.00000   0.00153   0.00153   0.88947
   D30        2.52928  -0.00000   0.00000  -0.00012  -0.00012   2.52916
   D31       -1.24299   0.00000   0.00000   0.00135   0.00135  -1.24164
   D32       -0.08599  -0.00001   0.00000  -0.00119  -0.00119  -0.08718
   D33        3.06689  -0.00000   0.00000  -0.00097  -0.00097   3.06593
   D34       -3.12939   0.00001   0.00000   0.00024   0.00024  -3.12915
         Item               Value     Threshold  Converged?
 Maximum Force            0.000047     0.000450     YES
 RMS     Force            0.000013     0.000300     YES
 Maximum Displacement     0.002628     0.001800     NO 
 RMS     Displacement     0.000529     0.001200     YES
 Predicted change in Energy=-7.757903D-08
 GradGradGradGradGradGradGradGradGradGradGradGradGradGradGradGradGradGrad

 Leave Link  103 at Fri Aug 20 15:37:29 2021, MaxMem= 24159191040 cpu:         2.6
 (Enter /public/home/users/caep010/software/Gaussian09/g09/l9999.exe)
 1\1\GINC-B1933\Freq\RB3LYP\6-31G(d,p)\C3H6N4O2\ROOT\20-Aug-2021\0\\#P 
 Geom=AllCheck Guess=TCheck SCRF=Check GenChk RB3LYP/6-31G(d,p) Freq\\B
 ABBUB\\0,1\C,1.0216495783,7.760594949,5.1086505498\N,1.3997209157,7.10
 04756727,3.9896986497\C,1.5357373066,5.6694772919,4.2505689563\C,0.645
 9811786,5.5041193393,5.500506157\H,-0.3851363439,5.2485657806,5.219357
 797\N,0.7320865951,6.842843058,6.0835780337\H,0.131037185,7.140996319,
 6.8381558014\N,0.8755227326,9.0443236418,5.3880617977\N,1.266611529,9.
 9464274244,4.4157028115\O,1.8216694791,9.5742122791,3.3563188692\H,1.8
 743585454,7.6363685783,3.2737263233\O,1.0413768988,11.1202534697,4.675
 626073\H,2.5787128001,5.4020463297,4.4662678776\H,1.1874173827,5.07240
 98059,3.4048946026\H,1.0235542167,4.7419860606,6.1855857002\\Version=E
 S64L-G09RevE.01\State=1-A\HF=-487.2821927\RMSD=5.593e-09\RMSF=2.026e-0
 5\ZeroPoint=0.1149562\Thermal=0.1225571\Dipole=-0.2094808,-3.0875175,0
 .3276742\DipoleDeriv=0.390817,-0.172498,-0.1800901,0.1193251,2.3383913
 ,-0.3492421,-0.2584147,0.2226147,1.0510173,-0.3841391,0.0098418,0.0111
 542,0.1402439,-0.9844245,-0.1878468,0.1123149,-0.3726025,-0.7825405,0.
 3118444,-0.004897,0.0980195,-0.1338478,0.6544899,0.1182894,0.0935527,-
 0.0485637,0.1951525,0.2776305,-0.0517133,0.1514582,0.1089552,0.6466552
 ,-0.053715,0.1332757,0.1590542,0.1690498,-0.1490159,-0.0900123,-0.0206
 302,-0.0417346,-0.0897742,0.0148366,-0.0549111,-0.0926109,0.0339619,-0
 .3630692,0.0214103,-0.12229,-0.2011255,-1.0235489,0.3668274,0.0271851,
 0.4165605,-0.7881182,0.2512144,-0.0261047,0.1095766,0.0086575,0.111625
 1,-0.0287192,0.0176686,-0.054888,0.3337849,-0.348553,-0.0570708,0.0875
 048,-0.1575607,-2.0401718,0.4266278,0.1032964,0.3655337,-0.5389949,0.5
 799747,0.122755,-0.4938756,-0.0661223,2.3746356,-0.1382186,-0.498168,-
 0.6920232,1.337675,-0.4586475,-0.0111355,0.3285073,0.0576901,-0.640755
 5,-0.0615162,0.3267942,0.1051332,-0.9197094,0.2805743,0.0660679,0.0529
 262,0.0005019,0.3190085,-0.0022443,0.0012258,-0.0497477,0.3253779,-0.3
 190982,0.0996134,0.0797512,0.1160801,-1.4211896,-0.0914058,0.0796865,-
 0.0156789,-0.4110767,-0.143421,0.0839401,0.000424,0.0400882,-0.0962277
 ,-0.0162654,-0.0401527,0.0615263,0.0356528,0.0381048,-0.0299984,-0.052
 0573,-0.0022526,-0.060338,-0.0668184,-0.0202803,-0.0883533,-0.0380565,
 0.0357837,0.0398016,-0.0503786,0.0111013,-0.0883754,0.0694105,-0.02307
 31,0.0840455,-0.0031759\Polar=42.2165982,-0.1845047,102.4084496,-10.58
 38328,-3.59875,58.6864075\PG=C01 [X(C3H6N4O2)]\NImag=0\\0.26153986,-0.
 01949568,0.88127425,-0.17925586,0.02813908,0.63623506,-0.09012129,0.02
 882437,0.09893790,0.24449098,0.02843773,-0.18579817,-0.08885824,0.0281
 6638,0.65016526,0.07232554,-0.05868924,-0.26202133,-0.31124052,-0.0841
 0396,0.69425816,-0.00167660,0.00486249,-0.01194686,-0.07518459,0.02633
 556,0.02351056,0.56582473,0.01811724,-0.04418221,-0.03286776,0.0152812
 5,-0.19932393,0.01687221,-0.02273078,0.50893350,0.00013502,-0.02921515
 ,0.00976149,0.01711948,0.03167509,-0.09882772,0.04595183,0.10077085,0.
 54457522,-0.00040616,0.00345932,-0.01374666,0.00172182,-0.00391019,0.0
 0377793,-0.11965353,-0.01259823,0.04368018,0.56333613,-0.01391336,-0.0
 5401755,0.01461353,-0.01858301,-0.02358982,0.02376997,-0.00006106,-0.0
 6903688,-0.00369942,0.00948616,0.55968546,-0.00341128,0.01269862,0.018
 52510,0.01089024,0.01952410,-0.02584498,0.04386851,0.01903903,-0.13212
 844,0.05371348,-0.09670292,0.49687465,0.00072987,0.00066485,-0.0005246
 0,0.00047879,-0.00075597,0.00071346,-0.01737793,-0.00020699,-0.0036316
 6,-0.27514679,-0.04558494,-0.05990260,0.29431115,-0.00113247,0.0038430
 8,-0.00929955,0.00089431,0.00178707,0.00170306,-0.00098040,-0.00067669
 ,-0.00052607,-0.04378638,-0.06074449,-0.00743346,0.05491749,0.07207444
 ,0.00022597,0.00275377,-0.00524271,-0.00108514,0.00032546,0.00136047,0
 .02719042,0.00280218,0.00701313,-0.06198783,-0.00722319,-0.06903878,0.
 06518904,0.01796410,0.07121225,-0.08103634,-0.04216269,0.08393700,0.00
 676914,-0.00726374,0.02446347,-0.00010638,0.01755185,0.01611774,-0.074
 85227,-0.01148598,0.01757316,0.00687345,-0.03171969,-0.01163059,0.2974
 1485,-0.02327207,-0.19721953,0.10068088,-0.00019945,0.01553816,0.00819
 324,0.00498227,-0.01198600,-0.01513720,-0.03289245,-0.18614727,-0.0513
 3388,-0.00583466,-0.02299415,-0.01376715,0.00011231,0.60054771,0.05556
 618,0.07667298,-0.21848562,0.02497735,0.01386680,-0.08035109,0.0053560
 6,-0.01982490,-0.03445460,0.01719160,-0.03539647,-0.11038470,-0.002764
 95,-0.00860355,-0.00030221,-0.32989316,0.04050377,0.66805835,-0.005327
 03,0.00819776,-0.00534129,0.00234717,0.00026921,0.00245806,0.00044644,
 -0.00212162,-0.00152769,0.00104836,-0.00136107,-0.00900581,0.00051548,
 -0.00022684,-0.00064968,-0.17278756,0.06403482,0.22371377,0.17306320,-
 0.01698333,0.01769010,0.01766976,-0.00127206,-0.00412811,0.00520964,-0
 .00146968,-0.00656304,-0.00197418,0.01937685,0.00058179,-0.01836552,-0
 .00059600,0.00088185,0.00006591,0.06660401,-0.10211903,-0.08997735,-0.
 06869784,0.09328675,0.01443410,-0.00517543,-0.02177686,0.00310006,0.00
 322348,0.00058880,0.00016709,-0.00035850,-0.00082651,0.00102567,0.0011
 2168,-0.00314165,0.00030293,0.00047224,0.00027435,0.19070235,-0.083252
 95,-0.25582181,-0.20791102,0.08885321,0.28129974,-0.07317503,0.0232542
 5,0.03161587,0.01477209,0.01247922,0.00533794,0.00672849,-0.00051440,0
 .00488678,0.00025444,-0.00058069,0.00157300,-0.00009453,0.00026697,-0.
 00018988,0.00833998,-0.01013401,-0.00500651,-0.00073991,0.00064200,-0.
 00073116,0.10420530,0.03447059,-0.36873731,-0.07689510,0.00936938,-0.0
 2919197,-0.04088128,0.00385165,0.00728742,-0.00144395,-0.00356618,0.00
 643514,0.00412123,-0.00031185,-0.00306058,-0.00192816,0.00451328,-0.06
 992832,0.02340488,-0.00071084,-0.00062665,-0.00530094,-0.01541413,0.66
 667803,0.02639836,-0.04396277,-0.12729093,0.00694945,-0.03979286,0.003
 86450,0.00295040,0.00273632,-0.00594940,0.00195379,0.00007849,-0.00356
 037,0.00009500,0.00156251,0.00091131,-0.00439332,0.03735847,0.01144748
 ,-0.00067032,0.00031757,0.00155237,-0.09848213,0.00027864,0.29381021,-
 0.00754363,-0.01675287,-0.01770353,-0.00419162,0.00134511,0.00957504,-
 0.00283073,-0.00100413,0.00122830,0.00553980,-0.00189513,0.00097214,-0
 .00024922,0.00151710,0.00080085,0.00506689,0.00799579,0.00110009,-0.00
 071651,0.00019837,-0.00108998,-0.08652785,-0.00811091,0.03083499,0.355
 76871,-0.01198801,-0.08712060,0.03806144,-0.00134603,0.01160773,0.0084
 7648,-0.00128058,-0.00492057,0.00196425,0.00146859,-0.00357169,0.00048
 413,0.00034586,0.00131013,0.00092434,-0.00058746,0.00912326,-0.0117605
 4,-0.00017955,-0.00003165,0.00219068,0.00287451,-0.11686841,-0.0031728
 9,-0.11046586,0.86958708,-0.01770149,0.03675989,0.02304812,0.00289539,
 -0.00383535,-0.02360076,0.00445602,0.00141524,-0.00240018,-0.00100277,
 0.00448507,0.00082399,-0.00015024,-0.00140297,-0.00104834,0.00569591,-
 0.01370312,0.00798586,-0.00078958,-0.00084119,-0.00237724,0.03100677,0
 .02195075,-0.14018194,-0.19165386,0.12983422,0.61718339,-0.00307026,0.
 01604467,0.00693204,0.00466976,-0.00168102,-0.00621007,0.00176647,0.00
 006692,-0.00023245,-0.00121260,0.00124306,0.00008969,0.00005457,-0.000
 51640,-0.00030693,0.00014527,-0.00372438,-0.00017159,0.00031074,0.0004
 6630,-0.00022881,0.00741773,-0.01352893,0.03628926,-0.15336948,0.04549
 253,0.13622435,0.13614076,0.00231914,-0.00436512,-0.00690360,0.0001618
 2,-0.02001601,0.00544385,-0.00433663,0.00119940,0.00295519,0.00082474,
 -0.00153487,0.00036024,-0.00021853,0.00005378,0.00003997,-0.00045831,-
 0.00003492,0.00196613,-0.00004514,-0.00001859,-0.00030123,-0.00997503,
 0.02570612,0.01914634,0.03591446,-0.16077022,-0.05841398,-0.06638333,0
 .19739753,0.00715671,-0.03200137,-0.01455517,-0.00283580,0.00184823,0.
 01432438,-0.00124654,0.00012069,0.00218473,0.00046677,-0.00239020,-0.0
 0082325,0.00007575,0.00073515,0.00051921,-0.00193070,0.00680908,-0.000
 68853,-0.00017068,-0.00072382,0.00136905,0.03618867,0.02980035,-0.0544
 2778,0.13667775,-0.08061021,-0.34396892,-0.20305342,0.10998957,0.42095
 532,-0.00534772,-0.00621878,-0.00064737,-0.11306172,-0.09175844,0.1702
 0197,0.00094633,0.00190099,-0.01023508,0.00005566,0.00263223,-0.000614
 74,-0.00036807,-0.00014324,-0.00003419,0.00285549,-0.00054430,0.002159
 57,0.00156622,0.00024110,0.00006729,-0.00165280,-0.00012787,-0.0004380
 0,-0.00095100,0.00194240,-0.00096726,-0.00370137,-0.00301883,0.0006503
 9,0.11790744,0.00579402,0.03274453,-0.00299082,-0.09107669,-0.16086571
 ,0.13922553,-0.01069005,-0.00445902,0.01334559,0.00097647,-0.00441257,
 -0.00000298,0.00007107,-0.00004250,0.00016731,0.00190126,-0.00282125,-
 0.00787908,0.00015554,0.00113399,-0.00080983,-0.00157299,-0.01353658,0
 .00474282,0.01232404,0.00193427,-0.02530637,-0.00824879,-0.00173247,0.
 01681626,0.09470422,0.14872181,0.01496159,0.01175804,-0.02523136,0.149
 68643,0.13289527,-0.24034999,-0.00670175,-0.00134281,0.00426573,0.0006
 5705,-0.00247574,0.00016683,-0.00032497,0.00008988,0.00004395,0.003620
 49,-0.00304577,-0.00022678,0.00001392,0.00094679,-0.00098046,-0.002317
 81,0.00473781,-0.00006020,-0.00151382,-0.00581224,0.00343074,0.0007680
 8,0.00567396,-0.00607665,-0.16015065,-0.14357523,0.26539090,0.00628677
 ,0.00027775,0.00535726,0.00022175,0.00118906,-0.00221676,-0.00030056,-
 0.00016844,-0.00085864,-0.00092006,0.00028005,-0.00010629,0.00007329,-
 0.00021895,-0.00012183,-0.00057412,-0.00106239,-0.00053378,0.00009439,
 0.00007740,0.00019172,0.02089413,-0.01080431,-0.00165691,-0.10988946,0
 .07415564,0.03161705,0.01075117,0.04528161,0.02823617,0.00097420,-0.00
 352826,0.00119587,0.07235034,-0.00253151,0.01190045,0.00735817,-0.0012
 6412,-0.00598527,-0.00125324,0.00032258,0.00263515,0.00034341,-0.00065
 650,0.00111921,0.00084617,-0.00016867,-0.00076612,-0.00046449,0.000960
 21,-0.00639712,0.00150752,0.00003642,-0.00036135,-0.00103777,-0.001205
 10,-0.09786000,0.02191224,0.07827866,-0.52406895,-0.08727573,0.0315089
 1,-0.03589793,-0.05200899,0.00018869,0.00302918,0.00041006,-0.10555270
 ,0.65468516,0.00505254,0.00119928,-0.00464105,-0.00130147,-0.00069576,
 0.00395672,-0.00101082,0.00020132,0.00069703,-0.00008754,-0.00074437,-
 0.00046111,0.00005396,0.00014912,0.00011155,-0.00067571,0.00212529,0.0
 0024563,0.00005223,-0.00015647,0.00023479,-0.00276753,0.04207478,0.018
 43921,0.03110891,-0.07967131,-0.13889713,0.02993234,-0.08025996,-0.018
 95472,0.00088693,0.00581933,-0.00070718,-0.06114278,0.10939677,0.13982
 815,0.00081409,-0.00053878,-0.00139691,0.00560187,0.00787952,-0.001007
 49,-0.28186516,0.04952412,-0.04880626,-0.01716643,0.00029403,-0.003445
 46,-0.00074986,0.00013241,0.00344042,0.00050237,0.00042546,0.00085686,
 -0.00038929,0.00010385,-0.00024992,-0.00026275,0.00018348,0.00007861,0
 .00003499,-0.00039794,0.00003203,-0.00000964,0.00028849,-0.00001892,-0
 .00001698,0.00018296,0.00048627,0.00001464,0.00017995,-0.00001014,0.30
 170535,0.00083713,0.00121646,0.01132609,0.03477805,-0.02492708,0.00228
 464,0.04812533,-0.05901575,0.00667767,-0.00603427,-0.00006587,-0.00118
 668,-0.00103088,0.00085105,0.00179753,-0.00064294,0.00210698,-0.001532
 05,0.00008838,0.00025571,-0.00000837,-0.00147539,-0.00299322,-0.001246
 80,0.00088727,0.00183450,-0.00186147,-0.00059344,0.00023810,0.00051389
 ,0.00062258,0.00033929,0.00002239,0.00013401,-0.00096665,0.00023704,-0
 .05940340,0.07447087,0.00095336,-0.00106163,-0.00367005,-0.00462801,0.
 00716354,0.00358872,-0.05114147,0.00668063,-0.06544675,0.02677529,-0.0
 0319784,0.00619086,0.00338219,-0.00052952,-0.00380529,-0.00126652,-0.0
 0020911,0.00128530,-0.00000943,-0.00034033,-0.00017783,-0.00006980,0.0
 0089105,0.00016606,-0.00031158,-0.00064786,0.00071190,0.00021283,-0.00
 007624,-0.00023325,-0.00060819,0.00022789,0.00005230,-0.00000674,0.000
 32311,-0.00008798,0.05212689,-0.01391921,0.06346416,-0.00089966,0.0013
 6105,0.00197115,0.00340790,0.00144504,0.00426000,-0.08295410,-0.048835
 74,-0.07454381,0.00557028,0.01163147,0.01379365,0.00123770,0.00040974,
 -0.00017984,-0.00200262,0.00090416,0.00415920,0.00057708,0.00086530,0.
 00039547,-0.00008747,-0.00011979,0.00018816,0.00001976,0.00004796,-0.0
 0023422,0.00000538,0.00007317,0.00004975,0.00014350,-0.00042944,-0.000
 24137,0.00000985,-0.00004723,-0.00000065,-0.00946918,-0.01598243,-0.02
 512020,0.08474125,-0.00471875,-0.00492551,0.00432334,-0.00423963,-0.02
 591753,-0.02633366,-0.04593908,-0.12081269,-0.10630846,0.00361283,0.00
 481649,0.00383336,0.00040553,0.00080665,-0.00015545,-0.00131703,0.0005
 1089,0.00083534,0.00006147,0.00056463,0.00002468,0.00190887,-0.0012445
 4,-0.00128119,0.00007783,0.00137218,-0.00079042,0.00000373,-0.00018696
 ,0.00056363,-0.00045473,-0.00017737,-0.00039320,-0.00012983,-0.0005017
 0,0.00010873,0.00150331,0.00594389,0.00478101,0.04903914,0.14013898,0.
 00114277,0.00287590,-0.00150391,0.00365932,0.00599906,0.01247101,-0.07
 090309,-0.11273732,-0.21658063,-0.00935625,-0.01303754,-0.01493063,-0.
 00001728,-0.00015862,0.00181631,0.00275944,0.00053384,-0.00301880,-0.0
 0062762,-0.00086132,-0.00015115,-0.00068469,-0.00024808,0.00062365,0.0
 0010614,0.00010675,-0.00014790,-0.00012218,-0.00009058,-0.00000516,0.0
 0038256,-0.00022028,-0.00016350,0.00003553,-0.00011408,0.00003115,-0.0
 0194607,-0.00297856,-0.00387313,0.07475528,0.12076034,0.22654801,-0.00
 076686,-0.00177772,0.00181186,-0.00192203,-0.00217746,0.00405086,0.006
 23712,-0.01426204,0.01071625,-0.08816865,0.06789824,-0.06598767,-0.010
 28787,0.02058635,-0.02066079,0.00339186,-0.00079111,0.00328931,-0.0000
 0876,0.00044371,-0.00017579,-0.00007183,0.00030641,-0.00009737,-0.0001
 6064,-0.00008207,0.00057191,0.00010151,-0.00042762,-0.00024590,0.00065
 083,-0.00056335,-0.00013932,0.00001369,-0.00004958,-0.00009026,0.00125
 597,-0.00031000,-0.00028862,-0.00029964,0.00018636,0.00081615,0.090035
 29,0.00405934,-0.00230287,-0.00435722,0.00050542,0.00064539,0.00008275
 ,-0.00099161,0.00092131,0.00057239,0.06423923,-0.16951708,0.11411858,-
 0.00169630,0.00667648,-0.00330214,0.00399493,-0.02817942,0.01621652,0.
 00049929,-0.00054642,0.00035905,-0.00055408,-0.00205914,0.00132313,-0.
 00030973,0.00058293,-0.00101459,-0.00014981,-0.00003783,0.00053776,0.0
 0003400,0.00014440,0.00011081,0.00006936,-0.00056404,0.00021623,-0.000
 35749,0.00071169,-0.00008550,-0.00036240,-0.00038742,0.00017050,-0.068
 98012,0.19391203,0.00201650,-0.00275197,-0.00315077,0.00287531,0.00076
 513,-0.00341690,-0.01050035,0.01649283,-0.01188309,-0.06306072,0.12079
 896,-0.16226752,-0.00249601,0.00527767,-0.00382520,0.00492045,-0.01575
 538,0.01471151,0.00046514,0.00017731,-0.00006558,-0.00035952,-0.000561
 98,0.00065584,-0.00013144,-0.00036723,-0.00056159,-0.00012313,0.000470
 34,0.00038075,-0.00065323,0.00043985,0.00044566,0.00001013,0.00005687,
 0.00020496,-0.00013992,-0.00012609,0.00183497,0.00074744,0.00003195,-0
 .00111532,0.06642937,-0.12494826,0.16805227\\0.00002002,0.00001115,-0.
 00004985,0.00001793,-0.00000957,0.00003348,-0.00000135,0.00001126,-0.0
 0000046,-0.00000092,0.00002021,-0.00000559,0.00000732,-0.00001148,0.00
 001285,-0.00001433,-0.00002059,0.00004976,0.00000750,-0.00001640,-0.00
 004796,-0.00000533,-0.00000631,0.00001270,0.00002651,0.00000646,-0.000
 02696,-0.00001165,0.00000772,0.00002050,-0.00002013,-0.00001199,0.0000
 1065,0.00000788,-0.00000836,-0.00000654,-0.00003350,-0.00000432,-0.000
 00914,0.00002384,0.00001460,0.00002796,-0.00002380,0.00001762,-0.00002
 142\\\@


 ALTHOUGH J.J. COULD DIAGNOSE THE FAULTS OF AN
 APPARATUS WITH UNCANNY ACCURACY, IT WAS JUST AS
 WELL NOT TO LET HIM HANDLE IT.
   -- GEORGE THOMPSON, ABOUT HIS FATHER
 Job cpu time:       0 days  0 hours  7 minutes 46.3 seconds.
 File lengths (MBytes):  RWF=     53 Int=      0 D2E=      0 Chk=      3 Scr=      1
 Normal termination of Gaussian 09 at Fri Aug 20 15:37:29 2021.
