 Entering Gaussian System, Link 0=g09
 Input=B3LYP6-31G.IJIVIG.gjf
 Output=B3LYP6-31G.IJIVIG.log
 Initial command:
 /public/home/users/caep010/software/Gaussian09/g09/l1.exe "/public/home/users/caep010/.cache/gau_scr/Gau-30688.inp" -scrdir="/public/home/users/caep010/.cache/gau_scr/"
 Entering Link 1 = /public/home/users/caep010/software/Gaussian09/g09/l1.exe PID=     30689.
  
 Copyright (c) 1988,1990,1992,1993,1995,1998,2003,2009,2015,
            Gaussian, Inc.  All Rights Reserved.
  
 This is part of the Gaussian(R) 09 program.  It is based on
 the Gaussian(R) 03 system (copyright 2003, Gaussian, Inc.),
 the Gaussian(R) 98 system (copyright 1998, Gaussian, Inc.),
 the Gaussian(R) 94 system (copyright 1995, Gaussian, Inc.),
 the Gaussian 92(TM) system (copyright 1992, Gaussian, Inc.),
 the Gaussian 90(TM) system (copyright 1990, Gaussian, Inc.),
 the Gaussian 88(TM) system (copyright 1988, Gaussian, Inc.),
 the Gaussian 86(TM) system (copyright 1986, Carnegie Mellon
 University), and the Gaussian 82(TM) system (copyright 1983,
 Carnegie Mellon University). Gaussian is a federally registered
 trademark of Gaussian, Inc.
  
 This software contains proprietary and confidential information,
 including trade secrets, belonging to Gaussian, Inc.
  
 This software is provided under written license and may be
 used, copied, transmitted, or stored only in accord with that
 written license.
  
 The following legend is applicable only to US Government
 contracts under FAR:
  
                    RESTRICTED RIGHTS LEGEND
  
 Use, reproduction and disclosure by the US Government is
 subject to restrictions as set forth in subparagraphs (a)
 and (c) of the Commercial Computer Software - Restricted
 Rights clause in FAR 52.227-19.
  
 Gaussian, Inc.
 340 Quinnipiac St., Bldg. 40, Wallingford CT 06492
  
  
 ---------------------------------------------------------------
 Warning -- This program may not be used in any manner that
 competes with the business of Gaussian, Inc. or will provide
 assistance to any competitor of Gaussian, Inc.  The licensee
 of this program is prohibited from giving any competitor of
 Gaussian, Inc. access to this program.  By using this program,
 the user acknowledges that Gaussian, Inc. is engaged in the
 business of creating and licensing software in the field of
 computational chemistry and represents and warrants to the
 licensee that it is not a competitor of Gaussian, Inc. and that
 it will not use this program in any manner prohibited above.
 ---------------------------------------------------------------
  

 Cite this work as:
 Gaussian 09, Revision E.01,
 M. J. Frisch, G. W. Trucks, H. B. Schlegel, G. E. Scuseria, 
 M. A. Robb, J. R. Cheeseman, G. Scalmani, V. Barone, B. Mennucci, 
 G. A. Petersson, H. Nakatsuji, M. Caricato, X. Li, H. P. Hratchian, 
 A. F. Izmaylov, J. Bloino, G. Zheng, J. L. Sonnenberg, M. Hada, 
 M. Ehara, K. Toyota, R. Fukuda, J. Hasegawa, M. Ishida, T. Nakajima, 
 Y. Honda, O. Kitao, H. Nakai, T. Vreven, J. A. Montgomery, Jr., 
 J. E. Peralta, F. Ogliaro, M. Bearpark, J. J. Heyd, E. Brothers, 
 K. N. Kudin, V. N. Staroverov, T. Keith, R. Kobayashi, J. Normand, 
 K. Raghavachari, A. Rendell, J. C. Burant, S. S. Iyengar, J. Tomasi, 
 M. Cossi, N. Rega, J. M. Millam, M. Klene, J. E. Knox, J. B. Cross, 
 V. Bakken, C. Adamo, J. Jaramillo, R. Gomperts, R. E. Stratmann, 
 O. Yazyev, A. J. Austin, R. Cammi, C. Pomelli, J. W. Ochterski, 
 R. L. Martin, K. Morokuma, V. G. Zakrzewski, G. A. Voth, 
 P. Salvador, J. J. Dannenberg, S. Dapprich, A. D. Daniels, 
 O. Farkas, J. B. Foresman, J. V. Ortiz, J. Cioslowski, 
 and D. J. Fox, Gaussian, Inc., Wallingford CT, 2013.
 
 ******************************************
 Gaussian 09:  ES64L-G09RevE.01 30-Nov-2015
                20-Aug-2021 
 ******************************************
 %nproc=32
 Will use up to   32 processors via shared memory.
 %mem=180GB
 -------------------------
 #P OPT Freq B3LYP/6-31G**
 -------------------------
 1/14=-1,18=20,19=15,26=3,38=1/1,3;
 2/9=110,12=2,17=6,18=5,40=1/2;
 3/5=1,6=6,7=101,11=2,16=1,25=1,30=1,71=1,74=-5/1,2,3;
 4//1;
 5/5=2,38=5/2;
 6/7=2,8=2,9=2,10=2,28=1/1;
 7//1,2,3,16;
 1/14=-1,18=20,19=15,26=3/3(2);
 2/9=110/2;
 99//99;
 2/9=110/2;
 3/5=1,6=6,7=101,11=2,16=1,25=1,30=1,71=1,74=-5/1,2,3;
 4/5=5,16=3,69=1/1;
 5/5=2,38=5/2;
 7//1,2,3,16;
 1/14=-1,18=20,19=15,26=3/3(-5);
 2/9=110/2;
 6/7=2,8=2,9=2,10=2,19=2,28=1/1;
 99/9=1/99;
 Leave Link    1 at Fri Aug 20 15:35:04 2021, MaxMem= 24159191040 cpu:         2.5
 (Enter /public/home/users/caep010/software/Gaussian09/g09/l101.exe)
 ------
 IJIVIG
 ------
 Symbolic Z-matrix:
 Charge =  0 Multiplicity = 1
 O                     0.8448   -1.7905    1.8794 
 N                     1.3822   -1.2771    2.9818 
 C                     2.6494   -0.8048    2.9281 
 C                     3.2399   -0.321     4.0714 
 N                     4.5292    0.2254    4.143 
 C                     2.5176   -0.2929    5.2599 
 N                     5.5328   -0.0715    3.3051 
 O                     6.632     0.3878    3.6116 
 O                     5.314    -0.7544    2.3085 
 C                     1.2259   -0.7688    5.255 
 C                     0.6691   -1.2556    4.1124 
 H                     4.8494    0.6302    4.9644 
 H                     3.033    -0.86      2.0966 
 H                     2.9654    0.0704    6.0764 
 H                     0.6759   -0.9045    6.0722 
 H                    -0.2366   -1.6719    4.0731 
 
 NAtoms=     16 NQM=       16 NQMF=       0 NMMI=      0 NMMIF=      0
                NMic=       0 NMicF=      0.
                    Isotopes and Nuclear Properties:
 (Nuclear quadrupole moments (NQMom) in fm**2, nuclear magnetic moments (NMagM)
  in nuclear magnetons)

  Atom         1           2           3           4           5           6           7           8           9          10
 IAtWgt=          16          14          12          12          14          12          14          16          16          12
 AtmWgt=  15.9949146  14.0030740  12.0000000  12.0000000  14.0030740  12.0000000  14.0030740  15.9949146  15.9949146  12.0000000
 NucSpn=           0           2           0           0           2           0           2           0           0           0
 AtZEff=   0.0000000   0.0000000   0.0000000   0.0000000   0.0000000   0.0000000   0.0000000   0.0000000   0.0000000   0.0000000
 NQMom=    0.0000000   2.0440000   0.0000000   0.0000000   2.0440000   0.0000000   2.0440000   0.0000000   0.0000000   0.0000000
 NMagM=    0.0000000   0.4037610   0.0000000   0.0000000   0.4037610   0.0000000   0.4037610   0.0000000   0.0000000   0.0000000
 AtZNuc=   8.0000000   7.0000000   6.0000000   6.0000000   7.0000000   6.0000000   7.0000000   8.0000000   8.0000000   6.0000000

  Atom        11          12          13          14          15          16
 IAtWgt=          12           1           1           1           1           1
 AtmWgt=  12.0000000   1.0078250   1.0078250   1.0078250   1.0078250   1.0078250
 NucSpn=           0           1           1           1           1           1
 AtZEff=   0.0000000   0.0000000   0.0000000   0.0000000   0.0000000   0.0000000
 NQMom=    0.0000000   0.0000000   0.0000000   0.0000000   0.0000000   0.0000000
 NMagM=    0.0000000   2.7928460   2.7928460   2.7928460   2.7928460   2.7928460
 AtZNuc=   6.0000000   1.0000000   1.0000000   1.0000000   1.0000000   1.0000000
 Leave Link  101 at Fri Aug 20 15:35:04 2021, MaxMem= 24159191040 cpu:        10.5
 (Enter /public/home/users/caep010/software/Gaussian09/g09/l103.exe)

 GradGradGradGradGradGradGradGradGradGradGradGradGradGradGradGradGradGrad
 Berny optimization.
 Initialization pass.
                           ----------------------------
                           !    Initial Parameters    !
                           ! (Angstroms and Degrees)  !
 --------------------------                            --------------------------
 ! Name  Definition              Value          Derivative Info.                !
 --------------------------------------------------------------------------------
 ! R1    R(1,2)                  1.3295         estimate D2E/DX2                !
 ! R2    R(2,3)                  1.3534         estimate D2E/DX2                !
 ! R3    R(2,11)                 1.3369         estimate D2E/DX2                !
 ! R4    R(3,4)                  1.3747         estimate D2E/DX2                !
 ! R5    R(3,13)                 0.9174         estimate D2E/DX2                !
 ! R6    R(4,5)                  1.4021         estimate D2E/DX2                !
 ! R7    R(4,6)                  1.3911         estimate D2E/DX2                !
 ! R8    R(5,7)                  1.3407         estimate D2E/DX2                !
 ! R9    R(5,12)                 0.9701         estimate D2E/DX2                !
 ! R10   R(6,10)                 1.3766         estimate D2E/DX2                !
 ! R11   R(6,14)                 0.9996         estimate D2E/DX2                !
 ! R12   R(7,8)                  1.2301         estimate D2E/DX2                !
 ! R13   R(7,9)                  1.2278         estimate D2E/DX2                !
 ! R14   R(10,11)                1.3611         estimate D2E/DX2                !
 ! R15   R(10,15)                0.9943         estimate D2E/DX2                !
 ! R16   R(11,16)                0.9976         estimate D2E/DX2                !
 ! A1    A(1,2,3)              118.7054         estimate D2E/DX2                !
 ! A2    A(1,2,11)             119.461          estimate D2E/DX2                !
 ! A3    A(3,2,11)             121.828          estimate D2E/DX2                !
 ! A4    A(2,3,4)              119.4712         estimate D2E/DX2                !
 ! A5    A(2,3,13)             113.9835         estimate D2E/DX2                !
 ! A6    A(4,3,13)             126.5385         estimate D2E/DX2                !
 ! A7    A(3,4,5)              125.0704         estimate D2E/DX2                !
 ! A8    A(3,4,6)              119.6451         estimate D2E/DX2                !
 ! A9    A(5,4,6)              115.2114         estimate D2E/DX2                !
 ! A10   A(4,5,7)              124.7586         estimate D2E/DX2                !
 ! A11   A(4,5,12)             120.621          estimate D2E/DX2                !
 ! A12   A(7,5,12)             111.9939         estimate D2E/DX2                !
 ! A13   A(4,6,10)             118.5028         estimate D2E/DX2                !
 ! A14   A(4,6,14)             118.2045         estimate D2E/DX2                !
 ! A15   A(10,6,14)            123.2925         estimate D2E/DX2                !
 ! A16   A(5,7,8)              115.4995         estimate D2E/DX2                !
 ! A17   A(5,7,9)              119.8066         estimate D2E/DX2                !
 ! A18   A(8,7,9)              124.6928         estimate D2E/DX2                !
 ! A19   A(6,10,11)            120.6968         estimate D2E/DX2                !
 ! A20   A(6,10,15)            124.2823         estimate D2E/DX2                !
 ! A21   A(11,10,15)           114.509          estimate D2E/DX2                !
 ! A22   A(2,11,10)            119.8344         estimate D2E/DX2                !
 ! A23   A(2,11,16)            116.3758         estimate D2E/DX2                !
 ! A24   A(10,11,16)           123.6241         estimate D2E/DX2                !
 ! D1    D(1,2,3,4)           -177.3437         estimate D2E/DX2                !
 ! D2    D(1,2,3,13)             1.7719         estimate D2E/DX2                !
 ! D3    D(11,2,3,4)             1.7939         estimate D2E/DX2                !
 ! D4    D(11,2,3,13)         -179.0906         estimate D2E/DX2                !
 ! D5    D(1,2,11,10)          178.0224         estimate D2E/DX2                !
 ! D6    D(1,2,11,16)            2.5324         estimate D2E/DX2                !
 ! D7    D(3,2,11,10)           -1.1088         estimate D2E/DX2                !
 ! D8    D(3,2,11,16)         -176.5988         estimate D2E/DX2                !
 ! D9    D(2,3,4,5)           -178.2945         estimate D2E/DX2                !
 ! D10   D(2,3,4,6)             -1.5574         estimate D2E/DX2                !
 ! D11   D(13,3,4,5)             2.7113         estimate D2E/DX2                !
 ! D12   D(13,3,4,6)           179.4483         estimate D2E/DX2                !
 ! D13   D(3,4,5,7)            -26.1187         estimate D2E/DX2                !
 ! D14   D(3,4,5,12)           173.753          estimate D2E/DX2                !
 ! D15   D(6,4,5,7)            157.0155         estimate D2E/DX2                !
 ! D16   D(6,4,5,12)            -3.1127         estimate D2E/DX2                !
 ! D17   D(3,4,6,10)             0.6832         estimate D2E/DX2                !
 ! D18   D(3,4,6,14)          -179.4908         estimate D2E/DX2                !
 ! D19   D(5,4,6,10)           177.7318         estimate D2E/DX2                !
 ! D20   D(5,4,6,14)            -2.4422         estimate D2E/DX2                !
 ! D21   D(4,5,7,8)           -172.086          estimate D2E/DX2                !
 ! D22   D(4,5,7,9)              8.2716         estimate D2E/DX2                !
 ! D23   D(12,5,7,8)           -10.4755         estimate D2E/DX2                !
 ! D24   D(12,5,7,9)           169.8821         estimate D2E/DX2                !
 ! D25   D(4,6,10,11)           -0.001          estimate D2E/DX2                !
 ! D26   D(4,6,10,15)          171.3322         estimate D2E/DX2                !
 ! D27   D(14,6,10,11)        -179.8176         estimate D2E/DX2                !
 ! D28   D(14,6,10,15)          -8.4844         estimate D2E/DX2                !
 ! D29   D(6,10,11,2)            0.1962         estimate D2E/DX2                !
 ! D30   D(6,10,11,16)         175.343          estimate D2E/DX2                !
 ! D31   D(15,10,11,2)        -171.9389         estimate D2E/DX2                !
 ! D32   D(15,10,11,16)          3.208          estimate D2E/DX2                !
 --------------------------------------------------------------------------------
 Trust Radius=3.00D-01 FncErr=1.00D-07 GrdErr=1.00D-06
 Number of steps in this run=     82 maximum allowed number of steps=    100.
 GradGradGradGradGradGradGradGradGradGradGradGradGradGradGradGradGradGrad

 Leave Link  103 at Fri Aug 20 15:35:04 2021, MaxMem= 24159191040 cpu:         0.6
 (Enter /public/home/users/caep010/software/Gaussian09/g09/l202.exe)
                          Input orientation:                          
 ---------------------------------------------------------------------
 Center     Atomic      Atomic             Coordinates (Angstroms)
 Number     Number       Type             X           Y           Z
 ---------------------------------------------------------------------
      1          8           0        0.844800   -1.790500    1.879400
      2          7           0        1.382200   -1.277100    2.981800
      3          6           0        2.649400   -0.804800    2.928100
      4          6           0        3.239900   -0.321000    4.071400
      5          7           0        4.529200    0.225400    4.143000
      6          6           0        2.517600   -0.292900    5.259900
      7          7           0        5.532800   -0.071500    3.305100
      8          8           0        6.632000    0.387800    3.611600
      9          8           0        5.314000   -0.754400    2.308500
     10          6           0        1.225900   -0.768800    5.255000
     11          6           0        0.669100   -1.255600    4.112400
     12          1           0        4.849400    0.630200    4.964400
     13          1           0        3.033000   -0.860000    2.096600
     14          1           0        2.965400    0.070400    6.076400
     15          1           0        0.675900   -0.904500    6.072200
     16          1           0       -0.236600   -1.671900    4.073100
 ---------------------------------------------------------------------
                    Distance matrix (angstroms):
                    1          2          3          4          5
     1  O    0.000000
     2  N    1.329535   0.000000
     3  C    2.308237   1.353420   0.000000
     4  C    3.563818   2.356354   1.374732   0.000000
     5  N    4.771010   3.675527   2.463928   1.402132   0.000000
     6  C    4.058183   2.729015   2.390963   1.391057   2.358524
     7  N    5.192776   4.334221   2.998975   2.430403   1.340686
     8  O    6.421619   5.543369   4.213143   3.495734   2.174978
     9  O    4.607752   4.023133   2.736154   2.756364   2.222906
    10  C    3.547363   2.334574   2.728023   2.378577   3.624468
    11  C    2.302885   1.336873   2.351037   2.735721   4.134570
    12  H    5.604805   4.426056   3.323514   2.071888   0.970097
    13  H    2.387724   1.919034   0.917381   2.057465   2.757619
    14  H    5.057144   3.728113   3.282929   2.061206   2.491492
    15  H    4.288717   3.191906   3.713490   3.304205   4.454931
    16  H    2.448635   1.991812   3.223644   3.729743   5.130057
                    6          7          8          9         10
     6  C    0.000000
     7  N    3.600235   0.000000
     8  O    4.484254   1.230097   0.000000
     9  O    4.091894   1.227777   2.177111   0.000000
    10  C    1.376588   4.778883   5.767530   5.039309   0.000000
    11  C    2.379180   5.070444   6.205461   5.008029   1.361079
    12  H    2.525218   1.926835   2.250886   3.030969   3.895048
    13  H    3.254797   2.886383   4.099394   2.293254   3.639975
    14  H    0.999592   3.780447   4.429440   4.515893   2.098765
    15  H    2.103745   5.651567   6.572649   5.974943   0.994349
    16  H    3.300872   6.036313   7.185611   5.896167   2.085997
                   11         12         13         14         15
    11  C    0.000000
    12  H    4.664446   0.000000
    13  H    3.131768   3.707328   0.000000
    14  H    3.299783   2.258180   4.087667   0.000000
    15  H    1.991013   4.582644   4.622045   2.488425   0.000000
    16  H    0.997568   5.653448   3.905895   4.159522   2.327651
                   16
    16  H    0.000000
 Stoichiometry    C5H5N3O3
 Framework group  C1[X(C5H5N3O3)]
 Deg. of freedom    42
 Full point group                 C1      NOp   1
 Largest Abelian subgroup         C1      NOp   1
 Largest concise Abelian subgroup C1      NOp   1
                         Standard orientation:                         
 ---------------------------------------------------------------------
 Center     Atomic      Atomic             Coordinates (Angstroms)
 Number     Number       Type             X           Y           Z
 ---------------------------------------------------------------------
      1          8           0       -2.502957   -1.905980   -0.062223
      2          7           0       -1.896531   -0.722831   -0.053872
      3          6           0       -0.548606   -0.682417   -0.168811
      4          6           0        0.099477    0.528386   -0.106901
      5          7           0        1.482903    0.709712   -0.245565
      6          6           0       -0.639587    1.697659    0.040156
      7          7           0        2.407501   -0.219870    0.034495
      8          8           0        3.574841    0.166224   -0.002782
      9          8           0        2.059056   -1.367422    0.297452
     10          6           0       -2.009593    1.601420    0.134043
     11          6           0       -2.626014    0.388963    0.083965
     12          1           0        1.863297    1.601422   -0.280838
     13          1           0       -0.158227   -1.506251   -0.271226
     14          1           0       -0.146925    2.566714    0.074961
     15          1           0       -2.609990    2.360265    0.362969
     16          1           0       -3.606846    0.262129    0.214443
 ---------------------------------------------------------------------
 Rotational constants (GHZ):      2.5255758      0.7203921      0.5649018
 Leave Link  202 at Fri Aug 20 15:35:05 2021, MaxMem= 24159191040 cpu:         0.4
 (Enter /public/home/users/caep010/software/Gaussian09/g09/l301.exe)
 Standard basis: 6-31G(d,p) (6D, 7F)
 Ernie: Thresh=  0.10000D-02 Tol=  0.10000D-05 Strict=F.
 There are   190 symmetry adapted cartesian basis functions of A   symmetry.
 There are   190 symmetry adapted basis functions of A   symmetry.
   190 basis functions,   343 primitive gaussians,   190 cartesian basis functions
    40 alpha electrons       40 beta electrons
       nuclear repulsion energy       602.2888330375 Hartrees.
 IExCor=  402 DFT=T Ex+Corr=B3LYP ExCW=0 ScaHFX=  0.200000
 ScaDFX=  0.800000  0.720000  1.000000  0.810000 ScalE2=  1.000000  1.000000
 IRadAn=      0 IRanWt=     -1 IRanGd=            0 ICorTp=0 IEmpDi=  4
 NAtoms=   16 NActive=   16 NUniq=   16 SFac= 1.00D+00 NAtFMM=   60 NAOKFM=F Big=F
 Integral buffers will be    131072 words long.
 Raffenetti 2 integral format.
 Two-electron integral symmetry is turned on.
 Leave Link  301 at Fri Aug 20 15:35:05 2021, MaxMem= 24159191040 cpu:         2.4
 (Enter /public/home/users/caep010/software/Gaussian09/g09/l302.exe)
 NPDir=0 NMtPBC=     1 NCelOv=     1 NCel=       1 NClECP=     1 NCelD=      1
         NCelK=      1 NCelE2=     1 NClLst=     1 CellRange=     0.0.
 One-electron integrals computed using PRISM.
 NBasis=   190 RedAO= T EigKep=  6.05D-04  NBF=   190
 NBsUse=   190 1.00D-06 EigRej= -1.00D+00 NBFU=   190
 Precomputing XC quadrature grid using
 IXCGrd= 4 IRadAn=           0 IRanWt=          -1 IRanGd=           0 AccXCQ= 0.00D+00.
 Generated NRdTot=       0 NPtTot=           0 NUsed=           0 NTot=          32
 NSgBfM=   189   189   189   189   189 MxSgAt=    16 MxSgA2=    16.
 Leave Link  302 at Fri Aug 20 15:35:05 2021, MaxMem= 24159191040 cpu:        12.4
 (Enter /public/home/users/caep010/software/Gaussian09/g09/l303.exe)
 DipDrv:  MaxL=1.
 Leave Link  303 at Fri Aug 20 15:35:05 2021, MaxMem= 24159191040 cpu:         0.8
 (Enter /public/home/users/caep010/software/Gaussian09/g09/l401.exe)
 ExpMin= 1.61D-01 ExpMax= 5.48D+03 ExpMxC= 8.25D+02 IAcc=1 IRadAn=         1 AccDes= 0.00D+00
 Harris functional with IExCor=  402 and IRadAn=       1 diagonalized for initial guess.
 HarFok:  IExCor=  402 AccDes= 0.00D+00 IRadAn=         1 IDoV= 1 UseB2=F ITyADJ=14
 ICtDFT=  3500011 ScaDFX=  1.000000  1.000000  1.000000  1.000000
 FoFCou: FMM=F IPFlag=           0 FMFlag=      100000 FMFlg1=           0
         NFxFlg=           0 DoJE=T BraDBF=F KetDBF=T FulRan=T
         wScrn=  0.000000 ICntrl=     500 IOpCl=  0 I1Cent=   200000004 NGrid=           0
         NMat0=    1 NMatS0=      1 NMatT0=    0 NMatD0=    1 NMtDS0=    0 NMtDT0=    0
 Petite list used in FoFCou.
 Harris En= -583.306438619784    
 JPrj=0 DoOrth=F DoCkMO=F.
 Leave Link  401 at Fri Aug 20 15:35:06 2021, MaxMem= 24159191040 cpu:        14.3
 (Enter /public/home/users/caep010/software/Gaussian09/g09/l502.exe)
 Closed shell SCF:
 Using DIIS extrapolation, IDIIS=  1040.
 Integral symmetry usage will be decided dynamically.
 Keep R1 ints in memory in canonical form, NReq=168247776.
 IVT=      134351 IEndB=      134351 NGot= 24159191040 MDV= 23994427105
 LenX= 23994427105 LenY= 23994390564
 Requested convergence on RMS density matrix=1.00D-08 within 128 cycles.
 Requested convergence on MAX density matrix=1.00D-06.
 Requested convergence on             energy=1.00D-06.
 No special actions if energy rises.
 FoFCou: FMM=F IPFlag=           0 FMFlag=           0 FMFlg1=           0
         NFxFlg=           0 DoJE=F BraDBF=F KetDBF=F FulRan=T
         wScrn=  0.000000 ICntrl=     600 IOpCl=  0 I1Cent=           0 NGrid=           0
         NMat0=    1 NMatS0=  18145 NMatT0=    0 NMatD0=    1 NMtDS0=    0 NMtDT0=    0
 Symmetry not used in FoFCou.
 Integral accuracy reduced to 1.0D-05 until final iterations.

 Cycle   1  Pass 0  IDiag  1:
 E= -582.847962551179    
 DIIS: error= 3.85D-02 at cycle   1 NSaved=   1.
 NSaved= 1 IEnMin= 1 EnMin= -582.847962551179     IErMin= 1 ErrMin= 3.85D-02
 ErrMax= 3.85D-02  0.00D+00 EMaxC= 1.00D-01 BMatC= 4.84D-01 BMatP= 4.84D-01
 IDIUse=3 WtCom= 6.15D-01 WtEn= 3.85D-01
 Coeff-Com:  0.100D+01
 Coeff-En:   0.100D+01
 Coeff:      0.100D+01
 Gap=     0.203 Goal=   None    Shift=    0.000
 GapD=    0.203 DampG=1.000 DampE=0.500 DampFc=0.5000 IDamp=-1.
 Damping current iteration by 5.00D-01
 RMSDP=9.00D-03 MaxDP=2.92D-01              OVMax= 3.26D-01

 Cycle   2  Pass 0  IDiag  1:
 E= -582.879861044704     Delta-E=       -0.031898493525 Rises=F Damp=T
 DIIS: error= 1.83D-02 at cycle   2 NSaved=   2.
 NSaved= 2 IEnMin= 2 EnMin= -582.879861044704     IErMin= 2 ErrMin= 1.83D-02
 ErrMax= 1.83D-02  0.00D+00 EMaxC= 1.00D-01 BMatC= 1.31D-01 BMatP= 4.84D-01
 IDIUse=3 WtCom= 8.17D-01 WtEn= 1.83D-01
 Coeff-Com:  0.310D+00 0.690D+00
 Coeff-En:   0.466D+00 0.534D+00
 Coeff:      0.339D+00 0.661D+00
 Gap=     0.174 Goal=   None    Shift=    0.000
 RMSDP=3.07D-03 MaxDP=9.92D-02 DE=-3.19D-02 OVMax= 2.74D-01

 Cycle   3  Pass 0  IDiag  1:
 E= -583.178038092199     Delta-E=       -0.298177047496 Rises=F Damp=F
 DIIS: error= 1.68D-02 at cycle   3 NSaved=   3.
 NSaved= 3 IEnMin= 3 EnMin= -583.178038092199     IErMin= 3 ErrMin= 1.68D-02
 ErrMax= 1.68D-02  0.00D+00 EMaxC= 1.00D-01 BMatC= 5.48D-02 BMatP= 1.31D-01
 IDIUse=3 WtCom= 8.32D-01 WtEn= 1.68D-01
 Coeff-Com:  0.151D+00 0.389D+00 0.460D+00
 Coeff-En:   0.000D+00 0.000D+00 0.100D+01
 Coeff:      0.126D+00 0.324D+00 0.550D+00
 Gap=     0.140 Goal=   None    Shift=    0.000
 RMSDP=2.54D-03 MaxDP=1.01D-01 DE=-2.98D-01 OVMax= 2.51D-01

 Cycle   4  Pass 0  IDiag  1:
 E= -583.188136675298     Delta-E=       -0.010098583098 Rises=F Damp=F
 DIIS: error= 1.89D-02 at cycle   4 NSaved=   4.
 NSaved= 4 IEnMin= 4 EnMin= -583.188136675298     IErMin= 3 ErrMin= 1.68D-02
 ErrMax= 1.89D-02  0.00D+00 EMaxC= 1.00D-01 BMatC= 4.63D-02 BMatP= 5.48D-02
 IDIUse=3 WtCom= 8.11D-01 WtEn= 1.89D-01
 Coeff-Com:  0.605D-01 0.134D+00 0.432D+00 0.373D+00
 Coeff-En:   0.000D+00 0.000D+00 0.462D+00 0.538D+00
 Coeff:      0.491D-01 0.109D+00 0.438D+00 0.404D+00
 Gap=     0.158 Goal=   None    Shift=    0.000
 RMSDP=1.52D-03 MaxDP=6.95D-02 DE=-1.01D-02 OVMax= 1.60D-01

 Cycle   5  Pass 0  IDiag  1:
 E= -583.230487907390     Delta-E=       -0.042351232093 Rises=F Damp=F
 DIIS: error= 3.03D-03 at cycle   5 NSaved=   5.
 NSaved= 5 IEnMin= 5 EnMin= -583.230487907390     IErMin= 5 ErrMin= 3.03D-03
 ErrMax= 3.03D-03  0.00D+00 EMaxC= 1.00D-01 BMatC= 2.76D-03 BMatP= 4.63D-02
 IDIUse=3 WtCom= 9.70D-01 WtEn= 3.03D-02
 Coeff-Com:  0.150D-01 0.200D-01 0.205D+00 0.260D+00 0.501D+00
 Coeff-En:   0.000D+00 0.000D+00 0.000D+00 0.263D-01 0.974D+00
 Coeff:      0.146D-01 0.194D-01 0.198D+00 0.253D+00 0.515D+00
 Gap=     0.147 Goal=   None    Shift=    0.000
 RMSDP=3.61D-04 MaxDP=1.35D-02 DE=-4.24D-02 OVMax= 2.81D-02

 Cycle   6  Pass 0  IDiag  1:
 E= -583.232749222413     Delta-E=       -0.002261315023 Rises=F Damp=F
 DIIS: error= 8.90D-04 at cycle   6 NSaved=   6.
 NSaved= 6 IEnMin= 6 EnMin= -583.232749222413     IErMin= 6 ErrMin= 8.90D-04
 ErrMax= 8.90D-04  0.00D+00 EMaxC= 1.00D-01 BMatC= 2.77D-04 BMatP= 2.76D-03
 IDIUse=3 WtCom= 9.91D-01 WtEn= 8.90D-03
 Coeff-Com:  0.663D-03-0.367D-02 0.551D-01 0.900D-01 0.296D+00 0.562D+00
 Coeff-En:   0.000D+00 0.000D+00 0.000D+00 0.000D+00 0.486D-01 0.951D+00
 Coeff:      0.658D-03-0.364D-02 0.546D-01 0.892D-01 0.294D+00 0.565D+00
 Gap=     0.149 Goal=   None    Shift=    0.000
 RMSDP=9.69D-05 MaxDP=3.68D-03 DE=-2.26D-03 OVMax= 5.39D-03

 Cycle   7  Pass 0  IDiag  1:
 E= -583.232944457202     Delta-E=       -0.000195234789 Rises=F Damp=F
 DIIS: error= 3.83D-04 at cycle   7 NSaved=   7.
 NSaved= 7 IEnMin= 7 EnMin= -583.232944457202     IErMin= 7 ErrMin= 3.83D-04
 ErrMax= 3.83D-04  0.00D+00 EMaxC= 1.00D-01 BMatC= 3.46D-05 BMatP= 2.77D-04
 IDIUse=3 WtCom= 9.96D-01 WtEn= 3.83D-03
 Coeff-Com: -0.991D-03-0.248D-02 0.102D-01 0.213D-01 0.109D+00 0.334D+00
 Coeff-Com:  0.529D+00
 Coeff-En:   0.000D+00 0.000D+00 0.000D+00 0.000D+00 0.000D+00 0.918D-01
 Coeff-En:   0.908D+00
 Coeff:     -0.987D-03-0.247D-02 0.102D-01 0.212D-01 0.108D+00 0.333D+00
 Coeff:      0.531D+00
 Gap=     0.150 Goal=   None    Shift=    0.000
 RMSDP=3.77D-05 MaxDP=9.23D-04 DE=-1.95D-04 OVMax= 2.52D-03

 Cycle   8  Pass 0  IDiag  1:
 E= -583.232972399790     Delta-E=       -0.000027942588 Rises=F Damp=F
 DIIS: error= 1.14D-04 at cycle   8 NSaved=   8.
 NSaved= 8 IEnMin= 8 EnMin= -583.232972399790     IErMin= 8 ErrMin= 1.14D-04
 ErrMax= 1.14D-04  0.00D+00 EMaxC= 1.00D-01 BMatC= 4.11D-06 BMatP= 3.46D-05
 IDIUse=3 WtCom= 9.99D-01 WtEn= 1.14D-03
 Coeff-Com: -0.656D-03-0.860D-03 0.258D-03 0.318D-02 0.343D-01 0.146D+00
 Coeff-Com:  0.323D+00 0.495D+00
 Coeff-En:   0.000D+00 0.000D+00 0.000D+00 0.000D+00 0.000D+00 0.000D+00
 Coeff-En:   0.789D-01 0.921D+00
 Coeff:     -0.656D-03-0.859D-03 0.258D-03 0.318D-02 0.342D-01 0.146D+00
 Coeff:      0.322D+00 0.496D+00
 Gap=     0.150 Goal=   None    Shift=    0.000
 RMSDP=1.21D-05 MaxDP=3.53D-04 DE=-2.79D-05 OVMax= 9.32D-04

 Cycle   9  Pass 0  IDiag  1:
 E= -583.232976473538     Delta-E=       -0.000004073748 Rises=F Damp=F
 DIIS: error= 2.56D-05 at cycle   9 NSaved=   9.
 NSaved= 9 IEnMin= 9 EnMin= -583.232976473538     IErMin= 9 ErrMin= 2.56D-05
 ErrMax= 2.56D-05  0.00D+00 EMaxC= 1.00D-01 BMatC= 2.03D-07 BMatP= 4.11D-06
 IDIUse=1 WtCom= 1.00D+00 WtEn= 0.00D+00
 Coeff-Com: -0.198D-03-0.649D-04-0.921D-03-0.870D-03 0.475D-02 0.355D-01
 Coeff-Com:  0.937D-01 0.236D+00 0.632D+00
 Coeff:     -0.198D-03-0.649D-04-0.921D-03-0.870D-03 0.475D-02 0.355D-01
 Coeff:      0.937D-01 0.236D+00 0.632D+00
 Gap=     0.150 Goal=   None    Shift=    0.000
 RMSDP=3.03D-06 MaxDP=9.84D-05 DE=-4.07D-06 OVMax= 2.11D-04

 Initial convergence to 1.0D-05 achieved.  Increase integral accuracy.
 Cycle  10  Pass 1  IDiag  1:
 E= -583.232979559274     Delta-E=       -0.000003085735 Rises=F Damp=F
 DIIS: error= 1.35D-05 at cycle   1 NSaved=   1.
 NSaved= 1 IEnMin= 1 EnMin= -583.232979559274     IErMin= 1 ErrMin= 1.35D-05
 ErrMax= 1.35D-05  0.00D+00 EMaxC= 1.00D-01 BMatC= 9.17D-08 BMatP= 9.17D-08
 IDIUse=1 WtCom= 1.00D+00 WtEn= 0.00D+00
 Coeff-Com:  0.100D+01
 Coeff:      0.100D+01
 Gap=     0.150 Goal=   None    Shift=    0.000
 RMSDP=3.03D-06 MaxDP=9.84D-05 DE=-3.09D-06 OVMax= 2.32D-04

 Cycle  11  Pass 1  IDiag  1:
 E= -583.232979453065     Delta-E=        0.000000106208 Rises=F Damp=F
 DIIS: error= 3.24D-05 at cycle   2 NSaved=   2.
 NSaved= 2 IEnMin= 1 EnMin= -583.232979559274     IErMin= 1 ErrMin= 1.35D-05
 ErrMax= 3.24D-05  0.00D+00 EMaxC= 1.00D-01 BMatC= 2.36D-07 BMatP= 9.17D-08
 IDIUse=1 WtCom= 1.00D+00 WtEn= 0.00D+00
 Coeff-Com:  0.636D+00 0.364D+00
 Coeff:      0.636D+00 0.364D+00
 Gap=     0.150 Goal=   None    Shift=    0.000
 RMSDP=2.91D-06 MaxDP=1.10D-04 DE= 1.06D-07 OVMax= 2.31D-04

 Cycle  12  Pass 1  IDiag  1:
 E= -583.232979636775     Delta-E=       -0.000000183709 Rises=F Damp=F
 DIIS: error= 1.29D-05 at cycle   3 NSaved=   3.
 NSaved= 3 IEnMin= 3 EnMin= -583.232979636775     IErMin= 3 ErrMin= 1.29D-05
 ErrMax= 1.29D-05  0.00D+00 EMaxC= 1.00D-01 BMatC= 2.55D-08 BMatP= 9.17D-08
 IDIUse=1 WtCom= 1.00D+00 WtEn= 0.00D+00
 Coeff-Com:  0.172D+00 0.241D+00 0.586D+00
 Coeff:      0.172D+00 0.241D+00 0.586D+00
 Gap=     0.150 Goal=   None    Shift=    0.000
 RMSDP=1.04D-06 MaxDP=4.75D-05 DE=-1.84D-07 OVMax= 9.18D-05

 Cycle  13  Pass 1  IDiag  1:
 E= -583.232979651304     Delta-E=       -0.000000014529 Rises=F Damp=F
 DIIS: error= 4.56D-06 at cycle   4 NSaved=   4.
 NSaved= 4 IEnMin= 4 EnMin= -583.232979651304     IErMin= 4 ErrMin= 4.56D-06
 ErrMax= 4.56D-06  0.00D+00 EMaxC= 1.00D-01 BMatC= 7.77D-09 BMatP= 2.55D-08
 IDIUse=1 WtCom= 1.00D+00 WtEn= 0.00D+00
 Coeff-Com: -0.115D-01 0.973D-01 0.426D+00 0.488D+00
 Coeff:     -0.115D-01 0.973D-01 0.426D+00 0.488D+00
 Gap=     0.150 Goal=   None    Shift=    0.000
 RMSDP=4.31D-07 MaxDP=1.32D-05 DE=-1.45D-08 OVMax= 2.66D-05

 Cycle  14  Pass 1  IDiag  1:
 E= -583.232979657630     Delta-E=       -0.000000006327 Rises=F Damp=F
 DIIS: error= 7.11D-07 at cycle   5 NSaved=   5.
 NSaved= 5 IEnMin= 5 EnMin= -583.232979657630     IErMin= 5 ErrMin= 7.11D-07
 ErrMax= 7.11D-07  0.00D+00 EMaxC= 1.00D-01 BMatC= 2.13D-10 BMatP= 7.77D-09
 IDIUse=1 WtCom= 1.00D+00 WtEn= 0.00D+00
 Coeff-Com: -0.125D-01 0.481D-01 0.228D+00 0.282D+00 0.455D+00
 Coeff:     -0.125D-01 0.481D-01 0.228D+00 0.282D+00 0.455D+00
 Gap=     0.150 Goal=   None    Shift=    0.000
 RMSDP=8.98D-08 MaxDP=2.62D-06 DE=-6.33D-09 OVMax= 6.07D-06

 Cycle  15  Pass 1  IDiag  1:
 E= -583.232979657817     Delta-E=       -0.000000000187 Rises=F Damp=F
 DIIS: error= 1.57D-07 at cycle   6 NSaved=   6.
 NSaved= 6 IEnMin= 6 EnMin= -583.232979657817     IErMin= 6 ErrMin= 1.57D-07
 ErrMax= 1.57D-07  0.00D+00 EMaxC= 1.00D-01 BMatC= 9.54D-12 BMatP= 2.13D-10
 IDIUse=1 WtCom= 1.00D+00 WtEn= 0.00D+00
 Coeff-Com: -0.552D-02 0.188D-01 0.905D-01 0.115D+00 0.239D+00 0.542D+00
 Coeff:     -0.552D-02 0.188D-01 0.905D-01 0.115D+00 0.239D+00 0.542D+00
 Gap=     0.150 Goal=   None    Shift=    0.000
 RMSDP=1.97D-08 MaxDP=6.73D-07 DE=-1.87D-10 OVMax= 1.17D-06

 Cycle  16  Pass 1  IDiag  1:
 E= -583.232979657820     Delta-E=       -0.000000000003 Rises=F Damp=F
 DIIS: error= 7.90D-08 at cycle   7 NSaved=   7.
 NSaved= 7 IEnMin= 7 EnMin= -583.232979657820     IErMin= 7 ErrMin= 7.90D-08
 ErrMax= 7.90D-08  0.00D+00 EMaxC= 1.00D-01 BMatC= 1.85D-12 BMatP= 9.54D-12
 IDIUse=1 WtCom= 1.00D+00 WtEn= 0.00D+00
 Coeff-Com: -0.887D-03 0.175D-02 0.893D-02 0.130D-01 0.514D-01 0.327D+00
 Coeff-Com:  0.599D+00
 Coeff:     -0.887D-03 0.175D-02 0.893D-02 0.130D-01 0.514D-01 0.327D+00
 Coeff:      0.599D+00
 Gap=     0.150 Goal=   None    Shift=    0.000
 RMSDP=8.10D-09 MaxDP=3.13D-07 DE=-2.73D-12 OVMax= 3.78D-07

 SCF Done:  E(RB3LYP) =  -583.232979658     A.U. after   16 cycles
            NFock= 16  Conv=0.81D-08     -V/T= 2.0070
 KE= 5.791764479300D+02 PE=-2.567011686646D+03 EE= 8.023134260206D+02
 Leave Link  502 at Fri Aug 20 15:35:12 2021, MaxMem= 24159191040 cpu:        75.1
 (Enter /public/home/users/caep010/software/Gaussian09/g09/l601.exe)
 Copying SCF densities to generalized density rwf, IOpCl= 0 IROHF=0.

 **********************************************************************

            Population analysis using the SCF density.

 **********************************************************************

 Orbital symmetries:
       Occupied  (A) (A) (A) (A) (A) (A) (A) (A) (A) (A) (A) (A)
                 (A) (A) (A) (A) (A) (A) (A) (A) (A) (A) (A) (A)
                 (A) (A) (A) (A) (A) (A) (A) (A) (A) (A) (A) (A)
                 (A) (A) (A) (A)
       Virtual   (A) (A) (A) (A) (A) (A) (A) (A) (A) (A) (A) (A)
                 (A) (A) (A) (A) (A) (A) (A) (A) (A) (A) (A) (A)
                 (A) (A) (A) (A) (A) (A) (A) (A) (A) (A) (A) (A)
                 (A) (A) (A) (A) (A) (A) (A) (A) (A) (A) (A) (A)
                 (A) (A) (A) (A) (A) (A) (A) (A) (A) (A) (A) (A)
                 (A) (A) (A) (A) (A) (A) (A) (A) (A) (A) (A) (A)
                 (A) (A) (A) (A) (A) (A) (A) (A) (A) (A) (A) (A)
                 (A) (A) (A) (A) (A) (A) (A) (A) (A) (A) (A) (A)
                 (A) (A) (A) (A) (A) (A) (A) (A) (A) (A) (A) (A)
                 (A) (A) (A) (A) (A) (A) (A) (A) (A) (A) (A) (A)
                 (A) (A) (A) (A) (A) (A) (A) (A) (A) (A) (A) (A)
                 (A) (A) (A) (A) (A) (A) (A) (A) (A) (A) (A) (A)
                 (A) (A) (A) (A) (A) (A)
 The electronic state is 1-A.
 Alpha  occ. eigenvalues --  -19.19578 -19.19085 -19.12131 -14.62349 -14.49004
 Alpha  occ. eigenvalues --  -14.45321 -10.28835 -10.24028 -10.23915 -10.22693
 Alpha  occ. eigenvalues --  -10.22619  -1.26897  -1.09680  -1.07655  -1.02649
 Alpha  occ. eigenvalues --   -0.91842  -0.83441  -0.82493  -0.74449  -0.69177
 Alpha  occ. eigenvalues --   -0.67932  -0.59609  -0.58340  -0.57664  -0.57454
 Alpha  occ. eigenvalues --   -0.53609  -0.51244  -0.50322  -0.48400  -0.47085
 Alpha  occ. eigenvalues --   -0.44352  -0.41489  -0.40413  -0.34460  -0.33919
 Alpha  occ. eigenvalues --   -0.32517  -0.30667  -0.28153  -0.24796  -0.22569
 Alpha virt. eigenvalues --   -0.07608  -0.05750  -0.02427   0.05643   0.09182
 Alpha virt. eigenvalues --    0.10439   0.13146   0.14275   0.17126   0.18833
 Alpha virt. eigenvalues --    0.20308   0.21282   0.22603   0.26090   0.28473
 Alpha virt. eigenvalues --    0.30298   0.34784   0.35595   0.40201   0.42624
 Alpha virt. eigenvalues --    0.47516   0.51635   0.52086   0.52705   0.54058
 Alpha virt. eigenvalues --    0.55292   0.55696   0.57187   0.57927   0.59877
 Alpha virt. eigenvalues --    0.61947   0.63290   0.64373   0.68724   0.69317
 Alpha virt. eigenvalues --    0.74179   0.76441   0.79579   0.81073   0.81688
 Alpha virt. eigenvalues --    0.81923   0.82967   0.84547   0.87770   0.88404
 Alpha virt. eigenvalues --    0.90322   0.91422   0.93552   0.97308   0.98098
 Alpha virt. eigenvalues --    0.98433   0.99795   1.00446   1.02162   1.05542
 Alpha virt. eigenvalues --    1.07914   1.08976   1.14043   1.16791   1.18375
 Alpha virt. eigenvalues --    1.19111   1.24107   1.25600   1.28638   1.30475
 Alpha virt. eigenvalues --    1.32696   1.34505   1.37858   1.38320   1.39568
 Alpha virt. eigenvalues --    1.40890   1.43466   1.49499   1.55675   1.58807
 Alpha virt. eigenvalues --    1.68409   1.72014   1.72519   1.76113   1.78278
 Alpha virt. eigenvalues --    1.78655   1.79877   1.82942   1.83419   1.84427
 Alpha virt. eigenvalues --    1.85629   1.87402   1.91938   1.94818   1.95879
 Alpha virt. eigenvalues --    1.96682   1.97708   1.99670   2.02955   2.05332
 Alpha virt. eigenvalues --    2.07604   2.10115   2.11185   2.14469   2.19101
 Alpha virt. eigenvalues --    2.22107   2.26647   2.27550   2.28462   2.34455
 Alpha virt. eigenvalues --    2.38607   2.39381   2.40033   2.43832   2.45357
 Alpha virt. eigenvalues --    2.47892   2.50143   2.52455   2.53687   2.58779
 Alpha virt. eigenvalues --    2.59464   2.61165   2.66682   2.69495   2.70271
 Alpha virt. eigenvalues --    2.71550   2.74803   2.82992   2.85119   2.86050
 Alpha virt. eigenvalues --    2.86721   2.93540   3.00702   3.04868   3.07432
 Alpha virt. eigenvalues --    3.18260   3.22176   3.31764   3.38876   3.47599
 Alpha virt. eigenvalues --    3.56952   3.59982   3.62456   3.70497   3.72393
 Alpha virt. eigenvalues --    3.87511   3.91945   4.02855   4.08418   4.15993
 Alpha virt. eigenvalues --    4.21385   4.23138   4.34193   4.45842   4.81633
          Condensed to atoms (all electrons):
               1          2          3          4          5          6
     1  O    8.399922   0.151002  -0.037358   0.006151  -0.000037   0.000602
     2  N    0.151002   6.341662   0.336186   0.011596   0.003009  -0.047240
     3  C   -0.037358   0.336186   4.893905   0.403940  -0.041333  -0.073206
     4  C    0.006151   0.011596   0.403940   4.846999   0.154834   0.475659
     5  N   -0.000037   0.003009  -0.041333   0.154834   7.093302  -0.051379
     6  C    0.000602  -0.047240  -0.073206   0.475659  -0.051379   4.945548
     7  N    0.000000   0.000065  -0.007373  -0.032757   0.178518   0.004570
     8  O   -0.000000   0.000001   0.000263   0.006370  -0.118896  -0.000248
     9  O   -0.000002   0.000411  -0.004466   0.007113  -0.117214   0.000726
    10  C    0.006741  -0.001631  -0.035372   0.008881   0.005718   0.514411
    11  C   -0.037774   0.380766  -0.066515  -0.034380   0.000089  -0.043187
    12  H    0.000000  -0.000026   0.003379  -0.028226   0.343380  -0.005669
    13  H    0.007759  -0.045351   0.370884  -0.037087  -0.009777   0.008355
    14  H    0.000003  -0.000047   0.007489  -0.058940  -0.011207   0.379749
    15  H   -0.000128   0.004528   0.000860   0.003840  -0.000144  -0.036159
    16  H    0.005568  -0.045260   0.006074  -0.000099   0.000005   0.005563
               7          8          9         10         11         12
     1  O    0.000000  -0.000000  -0.000002   0.006741  -0.037774   0.000000
     2  N    0.000065   0.000001   0.000411  -0.001631   0.380766  -0.000026
     3  C   -0.007373   0.000263  -0.004466  -0.035372  -0.066515   0.003379
     4  C   -0.032757   0.006370   0.007113   0.008881  -0.034380  -0.028226
     5  N    0.178518  -0.118896  -0.117214   0.005718   0.000089   0.343380
     6  C    0.004570  -0.000248   0.000726   0.514411  -0.043187  -0.005669
     7  N    5.596728   0.312303   0.340065  -0.000089   0.000004  -0.020930
     8  O    0.312303   8.302342  -0.102316  -0.000000   0.000000   0.015357
     9  O    0.340065  -0.102316   8.262606  -0.000025   0.000013   0.005475
    10  C   -0.000089  -0.000000  -0.000025   4.874929   0.446040   0.000033
    11  C    0.000004   0.000000   0.000013   0.446040   4.826524   0.000007
    12  H   -0.020930   0.015357   0.005475   0.000033   0.000007   0.394971
    13  H    0.000250   0.000100   0.020181  -0.001250   0.007512  -0.000261
    14  H    0.000169  -0.000030   0.000011  -0.038542   0.006039   0.004480
    15  H    0.000001  -0.000000  -0.000000   0.381291  -0.034691  -0.000013
    16  H   -0.000000   0.000000   0.000000  -0.039700   0.383734  -0.000000
              13         14         15         16
     1  O    0.007759   0.000003  -0.000128   0.005568
     2  N   -0.045351  -0.000047   0.004528  -0.045260
     3  C    0.370884   0.007489   0.000860   0.006074
     4  C   -0.037087  -0.058940   0.003840  -0.000099
     5  N   -0.009777  -0.011207  -0.000144   0.000005
     6  C    0.008355   0.379749  -0.036159   0.005563
     7  N    0.000250   0.000169   0.000001  -0.000000
     8  O    0.000100  -0.000030  -0.000000   0.000000
     9  O    0.020181   0.000011  -0.000000   0.000000
    10  C   -0.001250  -0.038542   0.381291  -0.039700
    11  C    0.007512   0.006039  -0.034691   0.383734
    12  H   -0.000261   0.004480  -0.000013  -0.000000
    13  H    0.555032  -0.000176   0.000038  -0.000308
    14  H   -0.000176   0.625686  -0.006188  -0.000191
    15  H    0.000038  -0.006188   0.586668  -0.006500
    16  H   -0.000308  -0.000191  -0.006500   0.556252
 Mulliken charges:
               1
     1  O   -0.502451
     2  N   -0.089672
     3  C    0.242642
     4  C    0.266107
     5  N   -0.428869
     6  C   -0.078095
     7  N    0.628477
     8  O   -0.415245
     9  O   -0.412579
    10  C   -0.121435
    11  C    0.165820
    12  H    0.288042
    13  H    0.124100
    14  H    0.091697
    15  H    0.106597
    16  H    0.134864
 Sum of Mulliken charges =  -0.00000
 Mulliken charges with hydrogens summed into heavy atoms:
               1
     1  O   -0.502451
     2  N   -0.089672
     3  C    0.366742
     4  C    0.266107
     5  N   -0.140827
     6  C    0.013602
     7  N    0.628477
     8  O   -0.415245
     9  O   -0.412579
    10  C   -0.014839
    11  C    0.300684
 Electronic spatial extent (au):  <R**2>=           1821.9303
 Charge=             -0.0000 electrons
 Dipole moment (field-independent basis, Debye):
    X=             -1.0789    Y=              6.3430    Z=             -0.2151  Tot=              6.4377
 Quadrupole moment (field-independent basis, Debye-Ang):
   XX=            -72.3199   YY=            -61.9462   ZZ=            -61.2506
   XY=             -5.5266   XZ=             -2.2330   YZ=              1.0110
 Traceless Quadrupole moment (field-independent basis, Debye-Ang):
   XX=             -7.1476   YY=              3.2260   ZZ=              3.9216
   XY=             -5.5266   XZ=             -2.2330   YZ=              1.0110
 Octapole moment (field-independent basis, Debye-Ang**2):
  XXX=            -37.1982  YYY=             21.1700  ZZZ=              0.8899  XYY=             19.1699
  XXY=             34.8619  XXZ=              2.1630  XZZ=              8.4424  YZZ=             -5.3557
  YYZ=             -0.1021  XYZ=             -0.1778
 Hexadecapole moment (field-independent basis, Debye-Ang**3):
 XXXX=          -1758.7403 YYYY=           -512.6004 ZZZZ=            -62.1058 XXXY=            -60.2916
 XXXZ=            -17.1347 YYYX=            -17.0397 YYYZ=              1.9066 ZZZX=              2.6882
 ZZZY=             -0.9952 XXYY=           -384.6207 XXZZ=           -276.9773 YYZZ=           -100.6527
 XXYZ=              5.5120 YYXZ=             -8.4321 ZZXY=              4.9970
 N-N= 6.022888330375D+02 E-N=-2.567011694638D+03  KE= 5.791764479300D+02
 No NMR shielding tensors so no spin-rotation constants.
 Leave Link  601 at Fri Aug 20 15:35:12 2021, MaxMem= 24159191040 cpu:        10.9
 (Enter /public/home/users/caep010/software/Gaussian09/g09/l701.exe)
 Compute integral first derivatives.
 ... and contract with generalized density number  0.
 Leave Link  701 at Fri Aug 20 15:35:13 2021, MaxMem= 24159191040 cpu:        11.0
 (Enter /public/home/users/caep010/software/Gaussian09/g09/l702.exe)
 L702 exits ... SP integral derivatives will be done elsewhere.
 Leave Link  702 at Fri Aug 20 15:35:13 2021, MaxMem= 24159191040 cpu:         0.5
 (Enter /public/home/users/caep010/software/Gaussian09/g09/l703.exe)
 Compute integral first derivatives, UseDBF=F ICtDFT=           0.
 Integral derivatives from FoFJK, PRISM(SPDF).
 Calling FoFJK, ICntrl=      2127 FMM=F ISym2X=0 I1Cent= 0 IOpClX= 0 NMat=1 NMatS=1 NMatT=0.
 FoFJK:  IHMeth= 1 ICntrl=    2127 DoSepK=F KAlg= 0 I1Cent=   0 FoldK=F
 IRaf=         0 NMat=   1 IRICut=       1 DoRegI=T DoRafI=F ISym2E= 0.
 FoFCou: FMM=F IPFlag=           0 FMFlag=      100000 FMFlg1=         800
         NFxFlg=           0 DoJE=F BraDBF=F KetDBF=F FulRan=T
         wScrn=  0.000000 ICntrl=    2127 IOpCl=  0 I1Cent=           0 NGrid=           0
         NMat0=    1 NMatS0=      1 NMatT0=    0 NMatD0=    1 NMtDS0=    0 NMtDT0=    0
 Symmetry not used in FoFCou.
 Leave Link  703 at Fri Aug 20 15:35:13 2021, MaxMem= 24159191040 cpu:        18.4
 (Enter /public/home/users/caep010/software/Gaussian09/g09/l716.exe)
 Dipole        =-4.24479001D-01 2.49551516D+00-8.46207205D-02
 ***** Axes restored to original set *****
 -------------------------------------------------------------------
 Center     Atomic                   Forces (Hartrees/Bohr)
 Number     Number              X              Y              Z
 -------------------------------------------------------------------
      1        8           0.017315227    0.017358222    0.033842140
      2        7          -0.022287382   -0.024056652   -0.059008351
      3        6          -0.070211413    0.011144825    0.152223146
      4        6           0.001876926    0.005933326    0.007181857
      5        7          -0.032128374   -0.015298954   -0.028374482
      6        6          -0.023519497   -0.018462635   -0.047526344
      7        7           0.032009584   -0.007057039   -0.020846023
      8        8           0.001621722    0.004659535    0.007011539
      9        8          -0.008612458   -0.000132175    0.000087033
     10        6           0.036637342    0.003273447   -0.047140337
     11        6           0.051671349    0.022026458    0.006402753
     12        1           0.014329607    0.017763561    0.034127114
     13        1           0.080968995   -0.011014890   -0.168012189
     14        1           0.029557627    0.024956949    0.064973134
     15        1          -0.040781657   -0.000789998    0.071671090
     16        1          -0.068447599   -0.030303980   -0.006612079
 -------------------------------------------------------------------
 Cartesian Forces:  Max     0.168012189 RMS     0.046329585
 Leave Link  716 at Fri Aug 20 15:35:14 2021, MaxMem= 24159191040 cpu:         0.8
 (Enter /public/home/users/caep010/software/Gaussian09/g09/l103.exe)

 GradGradGradGradGradGradGradGradGradGradGradGradGradGradGradGradGradGrad
 Berny optimization.
 FormGI is forming the generalized inverse of G from B-inverse, IUseBI=4.
 Internal  Forces:  Max     0.186803581 RMS     0.028951425
 Search for a local minimum.
 Step number   1 out of a maximum of   82
 All quantities printed in internal units (Hartrees-Bohrs-Radians)
 RMS Force = .28951D-01 SwitMx=.10000D-02 MixMth= 1
 Mixed Optimization -- RFO/linear search
 Second derivative matrix not updated -- first step.
 ITU=  0
     Eigenvalues ---    0.01664   0.02061   0.02079   0.02080   0.02130
     Eigenvalues ---    0.02287   0.02325   0.02370   0.02400   0.02428
     Eigenvalues ---    0.02515   0.02536   0.02578   0.15593   0.15843
     Eigenvalues ---    0.15956   0.15998   0.16000   0.22012   0.22136
     Eigenvalues ---    0.23465   0.23513   0.24962   0.24997   0.25000
     Eigenvalues ---    0.25000   0.44678   0.45269   0.45840   0.47760
     Eigenvalues ---    0.48118   0.48696   0.49266   0.51809   0.53066
     Eigenvalues ---    0.53357   0.56595   0.57052   0.59616   0.65751
     Eigenvalues ---    0.91046   0.92019
 RFO step:  Lambda=-9.12699778D-02 EMin= 1.66357867D-02
 Linear search not attempted -- first point.
 Maximum step size (   0.300) exceeded in Quadratic search.
    -- Step size scaled by   0.798
 Iteration  1 RMS(Cart)=  0.04322609 RMS(Int)=  0.00057595
 Iteration  2 RMS(Cart)=  0.00064579 RMS(Int)=  0.00007531
 Iteration  3 RMS(Cart)=  0.00000061 RMS(Int)=  0.00007531
 ITry= 1 IFail=0 DXMaxC= 1.86D-01 DCOld= 1.00D+10 DXMaxT= 3.00D-01 DXLimC= 3.00D+00 Rises=F
 Variable       Old X    -DE/DX   Delta X   Delta X   Delta X     New X
                                 (Linear)    (Quad)   (Total)
    R1        2.51246  -0.04176   0.00000  -0.04845  -0.04845   2.46401
    R2        2.55759   0.01540   0.00000   0.01955   0.01954   2.57713
    R3        2.52632   0.02598   0.00000   0.03159   0.03160   2.55792
    R4        2.59787   0.01693   0.00000   0.02222   0.02220   2.62007
    R5        1.73360   0.18680   0.00000   0.19897   0.19897   1.93256
    R6        2.64965   0.00621   0.00000   0.00910   0.00910   2.65874
    R7        2.62872   0.01736   0.00000   0.02379   0.02378   2.65250
    R8        2.53353   0.02788   0.00000   0.03360   0.03360   2.56713
    R9        1.83322   0.04104   0.00000   0.05238   0.05238   1.88560
   R10        2.60137   0.01320   0.00000   0.01772   0.01773   2.61910
   R11        1.88895   0.07538   0.00000   0.10568   0.10568   1.99464
   R12        2.32455   0.00494   0.00000   0.00393   0.00393   2.32848
   R13        2.32016   0.00154   0.00000   0.00121   0.00121   2.32138
   R14        2.57207   0.02735   0.00000   0.03583   0.03585   2.60791
   R15        1.87905   0.08157   0.00000   0.11250   0.11250   1.99155
   R16        1.88513   0.07505   0.00000   0.10456   0.10456   1.98969
    A1        2.07180   0.00083   0.00000   0.00118   0.00117   2.07297
    A2        2.08499   0.00333   0.00000   0.00701   0.00700   2.09199
    A3        2.12630  -0.00415   0.00000  -0.00812  -0.00811   2.11819
    A4        2.08517   0.00019   0.00000  -0.00032  -0.00033   2.08484
    A5        1.98939   0.00247   0.00000   0.00832   0.00832   1.99771
    A6        2.20851  -0.00266   0.00000  -0.00799  -0.00798   2.20053
    A7        2.18289  -0.00841   0.00000  -0.01846  -0.01846   2.16443
    A8        2.08820   0.00539   0.00000   0.01019   0.01018   2.09838
    A9        2.01082   0.00301   0.00000   0.00824   0.00824   2.01906
   A10        2.17745   0.00893   0.00000   0.02291   0.02291   2.20036
   A11        2.10523  -0.00349   0.00000  -0.00823  -0.00824   2.09700
   A12        1.95466  -0.00496   0.00000  -0.01284  -0.01285   1.94181
   A13        2.06826  -0.00092   0.00000  -0.00424  -0.00422   2.06404
   A14        2.06306   0.00587   0.00000   0.01929   0.01928   2.08234
   A15        2.15186  -0.00495   0.00000  -0.01504  -0.01505   2.13681
   A16        2.01585  -0.00441   0.00000  -0.01033  -0.01034   2.00550
   A17        2.09102  -0.00747   0.00000  -0.01748  -0.01749   2.07353
   A18        2.17630   0.01188   0.00000   0.02774   0.02773   2.20403
   A19        2.10656  -0.00202   0.00000  -0.00401  -0.00404   2.10252
   A20        2.16914  -0.00782   0.00000  -0.02543  -0.02556   2.14357
   A21        1.99856   0.01023   0.00000   0.03221   0.03216   2.03072
   A22        2.09150   0.00152   0.00000   0.00656   0.00657   2.09808
   A23        2.03114  -0.00380   0.00000  -0.01264  -0.01269   2.01845
   A24        2.15765   0.00241   0.00000   0.00705   0.00700   2.16465
    D1       -3.09523  -0.00118   0.00000  -0.00819  -0.00819  -3.10342
    D2        0.03093  -0.00109   0.00000  -0.00728  -0.00728   0.02365
    D3        0.03131  -0.00048   0.00000  -0.00274  -0.00270   0.02861
    D4       -3.12572  -0.00039   0.00000  -0.00183  -0.00178  -3.12750
    D5        3.10708   0.00110   0.00000   0.00775   0.00775   3.11482
    D6        0.04420  -0.00085   0.00000  -0.00563  -0.00562   0.03858
    D7       -0.01935   0.00042   0.00000   0.00231   0.00225  -0.01711
    D8       -3.08223  -0.00153   0.00000  -0.01107  -0.01112  -3.09335
    D9       -3.11183   0.00028   0.00000   0.00258   0.00258  -3.10925
   D10       -0.02718   0.00020   0.00000   0.00203   0.00206  -0.02512
   D11        0.04732   0.00012   0.00000   0.00138   0.00138   0.04870
   D12        3.13196   0.00004   0.00000   0.00082   0.00086   3.13283
   D13       -0.45586   0.00074   0.00000   0.00462   0.00465  -0.45121
   D14        3.03256   0.00004   0.00000   0.00058   0.00060   3.03316
   D15        2.74044   0.00072   0.00000   0.00505   0.00503   2.74547
   D16       -0.05433   0.00002   0.00000   0.00101   0.00098  -0.05335
   D17        0.01192  -0.00012   0.00000  -0.00143  -0.00148   0.01044
   D18       -3.13270   0.00050   0.00000   0.00230   0.00223  -3.13048
   D19        3.10200  -0.00057   0.00000  -0.00280  -0.00281   3.09919
   D20       -0.04262   0.00006   0.00000   0.00093   0.00089  -0.04173
   D21       -3.00347  -0.00015   0.00000  -0.00076  -0.00076  -3.00423
   D22        0.14437   0.00124   0.00000   0.00916   0.00917   0.15353
   D23       -0.18283   0.00047   0.00000   0.00306   0.00306  -0.17978
   D24        2.96500   0.00187   0.00000   0.01299   0.01298   2.97798
   D25       -0.00002   0.00013   0.00000   0.00116   0.00117   0.00116
   D26        2.99031   0.00428   0.00000   0.02718   0.02687   3.01718
   D27       -3.13841  -0.00055   0.00000  -0.00283  -0.00272  -3.14113
   D28       -0.14808   0.00359   0.00000   0.02319   0.02297  -0.12511
   D29        0.00342  -0.00024   0.00000  -0.00151  -0.00148   0.00195
   D30        3.06031   0.00156   0.00000   0.01197   0.01214   3.07245
   D31       -3.00090  -0.00262   0.00000  -0.02066  -0.02102  -3.02192
   D32        0.05599  -0.00081   0.00000  -0.00719  -0.00740   0.04859
         Item               Value     Threshold  Converged?
 Maximum Force            0.186804     0.000450     NO 
 RMS     Force            0.028951     0.000300     NO 
 Maximum Displacement     0.185625     0.001800     NO 
 RMS     Displacement     0.043260     0.001200     NO 
 Predicted change in Energy=-4.798829D-02
 Lowest energy point so far.  Saving SCF results.
 GradGradGradGradGradGradGradGradGradGradGradGradGradGradGradGradGradGrad

 Leave Link  103 at Fri Aug 20 15:35:14 2021, MaxMem= 24159191040 cpu:         2.8
 (Enter /public/home/users/caep010/software/Gaussian09/g09/l202.exe)
                          Input orientation:                          
 ---------------------------------------------------------------------
 Center     Atomic      Atomic             Coordinates (Angstroms)
 Number     Number       Type             X           Y           Z
 ---------------------------------------------------------------------
      1          8           0        0.847818   -1.783600    1.878560
      2          7           0        1.372765   -1.288905    2.964770
      3          6           0        2.650820   -0.815244    2.919356
      4          6           0        3.238857   -0.328113    4.076611
      5          7           0        4.534926    0.216564    4.131668
      6          6           0        2.513542   -0.295026    5.277872
      7          7           0        5.559135   -0.069012    3.286167
      8          8           0        6.648129    0.407515    3.610626
      9          8           0        5.329847   -0.743051    2.285112
     10          6           0        1.211842   -0.770891    5.271813
     11          6           0        0.652423   -1.263775    4.110498
     12          1           0        4.867387    0.634805    4.974390
     13          1           0        3.091548   -0.873545    1.998371
     14          1           0        2.972093    0.088163    6.147938
     15          1           0        0.640171   -0.881854    6.150191
     16          1           0       -0.307305   -1.693231    4.054956
 ---------------------------------------------------------------------
                    Distance matrix (angstroms):
                    1          2          3          4          5
     1  O    0.000000
     2  N    1.303896   0.000000
     3  C    2.296037   1.363760   0.000000
     4  C    3.559064   2.375207   1.386479   0.000000
     5  N    4.761503   3.691523   2.466613   1.406946   0.000000
     6  C    4.067654   2.763984   2.419106   1.403640   2.379390
     7  N    5.207463   4.372313   3.024848   2.464878   1.358466
     8  O    6.437751   5.578927   4.236917   3.518725   2.184851
     9  O    4.619156   4.051961   2.754026   2.784579   2.227674
    10  C    3.559811   2.369953   2.758021   2.394441   3.649367
    11  C    2.299988   1.353594   2.369302   2.750682   4.155199
    12  H    5.620479   4.466723   3.352459   2.094118   0.997816
    13  H    2.424227   2.015109   1.022669   2.153666   2.796897
    14  H    5.122854   3.819257   3.367953   2.129518   2.554267
    15  H    4.370709   3.293826   3.805975   3.370391   4.522176
    16  H    2.465598   2.043189   3.288001   3.799905   5.205804
                    6          7          8          9         10
     6  C    0.000000
     7  N    3.646040   0.000000
     8  O    4.513101   1.232177   0.000000
     9  O    4.133874   1.228419   2.195144   0.000000
    10  C    1.385968   4.830567   5.805290   5.087152   0.000000
    11  C    2.401042   5.116913   6.244323   5.047919   1.380049
    12  H    2.548975   1.955498   2.254452   3.056890   3.927780
    13  H    3.379926   2.897356   4.109714   2.260361   3.776142
    14  H    1.055518   3.860987   4.478078   4.601233   2.145706
    15  H    2.148215   5.749744   6.648867   6.078747   1.053883
    16  H    3.377526   6.135490   7.279328   5.984369   2.153894
                   11         12         13         14         15
    11  C    0.000000
    12  H    4.702854   0.000000
    13  H    3.250029   3.779605   0.000000
    14  H    3.370425   2.295250   4.261227   0.000000
    15  H    2.075177   4.642426   4.821507   2.525629   0.000000
    16  H    1.052899   5.748265   4.056307   4.278831   2.438453
                   16
    16  H    0.000000
 Stoichiometry    C5H5N3O3
 Framework group  C1[X(C5H5N3O3)]
 Deg. of freedom    42
 Full point group                 C1      NOp   1
 RotChk:  IX=0 Diff= 9.19D-03
 Largest Abelian subgroup         C1      NOp   1
 Largest concise Abelian subgroup C1      NOp   1
                         Standard orientation:                         
 ---------------------------------------------------------------------
 Center     Atomic      Atomic             Coordinates (Angstroms)
 Number     Number       Type             X           Y           Z
 ---------------------------------------------------------------------
      1          8           0       -2.491149   -1.913847   -0.064503
      2          7           0       -1.906872   -0.748269   -0.050605
      3          6           0       -0.548553   -0.693554   -0.159309
      4          6           0        0.091140    0.535119   -0.100321
      5          7           0        1.480721    0.706405   -0.238967
      6          6           0       -0.656267    1.714951    0.039625
      7          7           0        2.432728   -0.221982    0.038900
      8          8           0        3.592009    0.192560   -0.010925
      9          8           0        2.082078   -1.371475    0.293311
     10          6           0       -2.035498    1.611400    0.128547
     11          6           0       -2.648937    0.376092    0.081188
     12          1           0        1.871003    1.623830   -0.279552
     13          1           0       -0.095353   -1.603971   -0.267021
     14          1           0       -0.155019    2.643264    0.072815
     15          1           0       -2.657392    2.434581    0.343703
     16          1           0       -3.684083    0.227263    0.203322
 ---------------------------------------------------------------------
 Rotational constants (GHZ):      2.4825862      0.7119417      0.5573365
 Leave Link  202 at Fri Aug 20 15:35:14 2021, MaxMem= 24159191040 cpu:         0.2
 (Enter /public/home/users/caep010/software/Gaussian09/g09/l301.exe)
 Standard basis: 6-31G(d,p) (6D, 7F)
 Ernie: Thresh=  0.10000D-02 Tol=  0.10000D-05 Strict=F.
 There are   190 symmetry adapted cartesian basis functions of A   symmetry.
 There are   190 symmetry adapted basis functions of A   symmetry.
   190 basis functions,   343 primitive gaussians,   190 cartesian basis functions
    40 alpha electrons       40 beta electrons
       nuclear repulsion energy       597.3261766926 Hartrees.
 IExCor=  402 DFT=T Ex+Corr=B3LYP ExCW=0 ScaHFX=  0.200000
 ScaDFX=  0.800000  0.720000  1.000000  0.810000 ScalE2=  1.000000  1.000000
 IRadAn=      0 IRanWt=     -1 IRanGd=            0 ICorTp=0 IEmpDi=  4
 NAtoms=   16 NActive=   16 NUniq=   16 SFac= 1.00D+00 NAtFMM=   60 NAOKFM=F Big=F
 Integral buffers will be    131072 words long.
 Raffenetti 2 integral format.
 Two-electron integral symmetry is turned on.
 Leave Link  301 at Fri Aug 20 15:35:14 2021, MaxMem= 24159191040 cpu:         1.6
 (Enter /public/home/users/caep010/software/Gaussian09/g09/l302.exe)
 NPDir=0 NMtPBC=     1 NCelOv=     1 NCel=       1 NClECP=     1 NCelD=      1
         NCelK=      1 NCelE2=     1 NClLst=     1 CellRange=     0.0.
 One-electron integrals computed using PRISM.
 NBasis=   190 RedAO= T EigKep=  6.66D-04  NBF=   190
 NBsUse=   190 1.00D-06 EigRej= -1.00D+00 NBFU=   190
 Precomputing XC quadrature grid using
 IXCGrd= 4 IRadAn=           0 IRanWt=          -1 IRanGd=           0 AccXCQ= 0.00D+00.
 Generated NRdTot=       0 NPtTot=           0 NUsed=           0 NTot=          32
 NSgBfM=   190   190   190   190   190 MxSgAt=    16 MxSgA2=    16.
 Leave Link  302 at Fri Aug 20 15:35:14 2021, MaxMem= 24159191040 cpu:        11.4
 (Enter /public/home/users/caep010/software/Gaussian09/g09/l303.exe)
 DipDrv:  MaxL=1.
 Leave Link  303 at Fri Aug 20 15:35:14 2021, MaxMem= 24159191040 cpu:         0.8
 (Enter /public/home/users/caep010/software/Gaussian09/g09/l401.exe)
 Initial guess from the checkpoint file:  "/public/home/users/caep010/.cache/gau_scr/Gau-30689.chk"
 B after Tr=     0.000000    0.000000   -0.000000
         Rot=    0.999997    0.000586    0.000060   -0.002427 Ang=   0.29 deg.
 Guess basis will be translated and rotated to current coordinates.
 JPrj=2 DoOrth=T DoCkMO=T.
 Generating alternative initial guess.
 ExpMin= 1.61D-01 ExpMax= 5.48D+03 ExpMxC= 8.25D+02 IAcc=1 IRadAn=         1 AccDes= 0.00D+00
 Harris functional with IExCor=  402 and IRadAn=       1 diagonalized for initial guess.
 HarFok:  IExCor=  402 AccDes= 0.00D+00 IRadAn=         1 IDoV= 1 UseB2=F ITyADJ=14
 ICtDFT=  3500011 ScaDFX=  1.000000  1.000000  1.000000  1.000000
 FoFCou: FMM=F IPFlag=           0 FMFlag=      100000 FMFlg1=           0
         NFxFlg=           0 DoJE=T BraDBF=F KetDBF=T FulRan=T
         wScrn=  0.000000 ICntrl=     500 IOpCl=  0 I1Cent=   200000004 NGrid=           0
         NMat0=    1 NMatS0=      1 NMatT0=    0 NMatD0=    1 NMtDS0=    0 NMtDT0=    0
 Petite list used in FoFCou.
 Harris En= -583.325211856550    
 Leave Link  401 at Fri Aug 20 15:35:15 2021, MaxMem= 24159191040 cpu:        13.0
 (Enter /public/home/users/caep010/software/Gaussian09/g09/l502.exe)
 Closed shell SCF:
 Using DIIS extrapolation, IDIIS=  1040.
 Integral symmetry usage will be decided dynamically.
 Keep R1 ints in memory in canonical form, NReq=168247776.
 IVT=      134351 IEndB=      134351 NGot= 24159191040 MDV= 23994427105
 LenX= 23994427105 LenY= 23994390564
 Requested convergence on RMS density matrix=1.00D-08 within 128 cycles.
 Requested convergence on MAX density matrix=1.00D-06.
 Requested convergence on             energy=1.00D-06.
 No special actions if energy rises.
 FoFCou: FMM=F IPFlag=           0 FMFlag=           0 FMFlg1=           0
         NFxFlg=           0 DoJE=F BraDBF=F KetDBF=F FulRan=T
         wScrn=  0.000000 ICntrl=     600 IOpCl=  0 I1Cent=           0 NGrid=           0
         NMat0=    1 NMatS0=  18145 NMatT0=    0 NMatD0=    1 NMtDS0=    0 NMtDT0=    0
 Symmetry not used in FoFCou.
 Integral accuracy reduced to 1.0D-05 until final iterations.

 Cycle   1  Pass 0  IDiag  1:
 E= -583.272393638860    
 DIIS: error= 2.99D-03 at cycle   1 NSaved=   1.
 NSaved= 1 IEnMin= 1 EnMin= -583.272393638860     IErMin= 1 ErrMin= 2.99D-03
 ErrMax= 2.99D-03  0.00D+00 EMaxC= 1.00D-01 BMatC= 4.14D-03 BMatP= 4.14D-03
 IDIUse=3 WtCom= 9.70D-01 WtEn= 2.99D-02
 Coeff-Com:  0.100D+01
 Coeff-En:   0.100D+01
 Coeff:      0.100D+01
 Gap=     1.659 Goal=   None    Shift=    0.000
 GapD=    1.659 DampG=2.000 DampE=1.000 DampFc=2.0000 IDamp=-1.
 RMSDP=7.13D-04 MaxDP=1.64D-02              OVMax= 1.72D-02

 Cycle   2  Pass 0  IDiag  1:
 E= -583.276625120003     Delta-E=       -0.004231481143 Rises=F Damp=F
 DIIS: error= 2.71D-03 at cycle   2 NSaved=   2.
 NSaved= 2 IEnMin= 2 EnMin= -583.276625120003     IErMin= 2 ErrMin= 2.71D-03
 ErrMax= 2.71D-03  0.00D+00 EMaxC= 1.00D-01 BMatC= 1.17D-03 BMatP= 4.14D-03
 IDIUse=3 WtCom= 9.73D-01 WtEn= 2.71D-02
 Coeff-Com:  0.290D+00 0.710D+00
 Coeff-En:   0.000D+00 0.100D+01
 Coeff:      0.282D+00 0.718D+00
 Gap=     0.145 Goal=   None    Shift=    0.000
 RMSDP=4.30D-04 MaxDP=1.76D-02 DE=-4.23D-03 OVMax= 4.08D-02

 Cycle   3  Pass 0  IDiag  1:
 E= -583.275743203010     Delta-E=        0.000881916993 Rises=F Damp=F
 DIIS: error= 4.74D-03 at cycle   3 NSaved=   3.
 NSaved= 3 IEnMin= 2 EnMin= -583.276625120003     IErMin= 2 ErrMin= 2.71D-03
 ErrMax= 4.74D-03  0.00D+00 EMaxC= 1.00D-01 BMatC= 2.29D-03 BMatP= 1.17D-03
 IDIUse=3 WtCom= 1.27D-01 WtEn= 8.73D-01
 Coeff-Com:  0.665D-01 0.567D+00 0.367D+00
 Coeff-En:   0.000D+00 0.608D+00 0.392D+00
 Coeff:      0.844D-02 0.603D+00 0.389D+00
 Gap=     0.151 Goal=   None    Shift=    0.000
 RMSDP=3.02D-04 MaxDP=1.37D-02 DE= 8.82D-04 OVMax= 2.88D-02

 Cycle   4  Pass 0  IDiag  1:
 E= -583.277668322371     Delta-E=       -0.001925119361 Rises=F Damp=F
 DIIS: error= 7.35D-04 at cycle   4 NSaved=   4.
 NSaved= 4 IEnMin= 4 EnMin= -583.277668322371     IErMin= 4 ErrMin= 7.35D-04
 ErrMax= 7.35D-04  0.00D+00 EMaxC= 1.00D-01 BMatC= 1.34D-04 BMatP= 1.17D-03
 IDIUse=3 WtCom= 9.93D-01 WtEn= 7.35D-03
 Coeff-Com:  0.110D-01 0.318D+00 0.225D+00 0.446D+00
 Coeff-En:   0.000D+00 0.000D+00 0.000D+00 0.100D+01
 Coeff:      0.109D-01 0.315D+00 0.224D+00 0.450D+00
 Gap=     0.148 Goal=   None    Shift=    0.000
 RMSDP=7.91D-05 MaxDP=2.84D-03 DE=-1.93D-03 OVMax= 5.87D-03

 Cycle   5  Pass 0  IDiag  1:
 E= -583.277784363397     Delta-E=       -0.000116041026 Rises=F Damp=F
 DIIS: error= 2.22D-04 at cycle   5 NSaved=   5.
 NSaved= 5 IEnMin= 5 EnMin= -583.277784363397     IErMin= 5 ErrMin= 2.22D-04
 ErrMax= 2.22D-04  0.00D+00 EMaxC= 1.00D-01 BMatC= 1.14D-05 BMatP= 1.34D-04
 IDIUse=3 WtCom= 9.98D-01 WtEn= 2.22D-03
 Coeff-Com: -0.362D-02 0.939D-01 0.619D-01 0.250D+00 0.598D+00
 Coeff-En:   0.000D+00 0.000D+00 0.000D+00 0.386D-01 0.961D+00
 Coeff:     -0.361D-02 0.936D-01 0.618D-01 0.249D+00 0.599D+00
 Gap=     0.149 Goal=   None    Shift=    0.000
 RMSDP=2.18D-05 MaxDP=7.46D-04 DE=-1.16D-04 OVMax= 1.89D-03

 Cycle   6  Pass 0  IDiag  1:
 E= -583.277793835234     Delta-E=       -0.000009471837 Rises=F Damp=F
 DIIS: error= 6.20D-05 at cycle   6 NSaved=   6.
 NSaved= 6 IEnMin= 6 EnMin= -583.277793835234     IErMin= 6 ErrMin= 6.20D-05
 ErrMax= 6.20D-05  0.00D+00 EMaxC= 1.00D-01 BMatC= 1.68D-06 BMatP= 1.14D-05
 IDIUse=1 WtCom= 1.00D+00 WtEn= 0.00D+00
 Coeff-Com: -0.284D-02 0.341D-01 0.207D-01 0.117D+00 0.370D+00 0.461D+00
 Coeff:     -0.284D-02 0.341D-01 0.207D-01 0.117D+00 0.370D+00 0.461D+00
 Gap=     0.149 Goal=   None    Shift=    0.000
 RMSDP=7.08D-06 MaxDP=2.37D-04 DE=-9.47D-06 OVMax= 5.39D-04

 Initial convergence to 1.0D-05 achieved.  Increase integral accuracy.
 Cycle   7  Pass 1  IDiag  1:
 E= -583.277800040995     Delta-E=       -0.000006205761 Rises=F Damp=F
 DIIS: error= 2.05D-05 at cycle   1 NSaved=   1.
 NSaved= 1 IEnMin= 1 EnMin= -583.277800040995     IErMin= 1 ErrMin= 2.05D-05
 ErrMax= 2.05D-05  0.00D+00 EMaxC= 1.00D-01 BMatC= 1.49D-07 BMatP= 1.49D-07
 IDIUse=1 WtCom= 1.00D+00 WtEn= 0.00D+00
 Coeff-Com:  0.100D+01
 Coeff:      0.100D+01
 Gap=     0.149 Goal=   None    Shift=    0.000
 RMSDP=7.08D-06 MaxDP=2.37D-04 DE=-6.21D-06 OVMax= 3.29D-04

 Cycle   8  Pass 1  IDiag  1:
 E= -583.277799827388     Delta-E=        0.000000213607 Rises=F Damp=F
 DIIS: error= 3.59D-05 at cycle   2 NSaved=   2.
 NSaved= 2 IEnMin= 1 EnMin= -583.277800040995     IErMin= 1 ErrMin= 2.05D-05
 ErrMax= 3.59D-05  0.00D+00 EMaxC= 1.00D-01 BMatC= 4.12D-07 BMatP= 1.49D-07
 IDIUse=1 WtCom= 1.00D+00 WtEn= 0.00D+00
 Coeff-Com:  0.636D+00 0.364D+00
 Coeff:      0.636D+00 0.364D+00
 Gap=     0.149 Goal=   None    Shift=    0.000
 RMSDP=3.65D-06 MaxDP=1.15D-04 DE= 2.14D-07 OVMax= 3.27D-04

 Cycle   9  Pass 1  IDiag  1:
 E= -583.277800165750     Delta-E=       -0.000000338362 Rises=F Damp=F
 DIIS: error= 1.26D-05 at cycle   3 NSaved=   3.
 NSaved= 3 IEnMin= 3 EnMin= -583.277800165750     IErMin= 3 ErrMin= 1.26D-05
 ErrMax= 1.26D-05  0.00D+00 EMaxC= 1.00D-01 BMatC= 2.10D-08 BMatP= 1.49D-07
 IDIUse=1 WtCom= 1.00D+00 WtEn= 0.00D+00
 Coeff-Com:  0.222D+00 0.206D+00 0.572D+00
 Coeff:      0.222D+00 0.206D+00 0.572D+00
 Gap=     0.149 Goal=   None    Shift=    0.000
 RMSDP=1.27D-06 MaxDP=5.06D-05 DE=-3.38D-07 OVMax= 1.11D-04

 Cycle  10  Pass 1  IDiag  1:
 E= -583.277800175350     Delta-E=       -0.000000009599 Rises=F Damp=F
 DIIS: error= 9.70D-06 at cycle   4 NSaved=   4.
 NSaved= 4 IEnMin= 4 EnMin= -583.277800175350     IErMin= 4 ErrMin= 9.70D-06
 ErrMax= 9.70D-06  0.00D+00 EMaxC= 1.00D-01 BMatC= 1.14D-08 BMatP= 2.10D-08
 IDIUse=1 WtCom= 1.00D+00 WtEn= 0.00D+00
 Coeff-Com:  0.171D-01 0.763D-01 0.455D+00 0.452D+00
 Coeff:      0.171D-01 0.763D-01 0.455D+00 0.452D+00
 Gap=     0.149 Goal=   None    Shift=    0.000
 RMSDP=6.12D-07 MaxDP=2.58D-05 DE=-9.60D-09 OVMax= 4.76D-05

 Cycle  11  Pass 1  IDiag  1:
 E= -583.277800184206     Delta-E=       -0.000000008857 Rises=F Damp=F
 DIIS: error= 1.31D-06 at cycle   5 NSaved=   5.
 NSaved= 5 IEnMin= 5 EnMin= -583.277800184206     IErMin= 5 ErrMin= 1.31D-06
 ErrMax= 1.31D-06  0.00D+00 EMaxC= 1.00D-01 BMatC= 8.26D-10 BMatP= 1.14D-08
 IDIUse=1 WtCom= 1.00D+00 WtEn= 0.00D+00
 Coeff-Com: -0.931D-02 0.314D-01 0.247D+00 0.292D+00 0.439D+00
 Coeff:     -0.931D-02 0.314D-01 0.247D+00 0.292D+00 0.439D+00
 Gap=     0.149 Goal=   None    Shift=    0.000
 RMSDP=1.56D-07 MaxDP=5.11D-06 DE=-8.86D-09 OVMax= 8.92D-06

 Cycle  12  Pass 1  IDiag  1:
 E= -583.277800184840     Delta-E=       -0.000000000634 Rises=F Damp=F
 DIIS: error= 2.89D-07 at cycle   6 NSaved=   6.
 NSaved= 6 IEnMin= 6 EnMin= -583.277800184840     IErMin= 6 ErrMin= 2.89D-07
 ErrMax= 2.89D-07  0.00D+00 EMaxC= 1.00D-01 BMatC= 3.12D-11 BMatP= 8.26D-10
 IDIUse=1 WtCom= 1.00D+00 WtEn= 0.00D+00
 Coeff-Com: -0.625D-02 0.108D-01 0.947D-01 0.118D+00 0.232D+00 0.551D+00
 Coeff:     -0.625D-02 0.108D-01 0.947D-01 0.118D+00 0.232D+00 0.551D+00
 Gap=     0.149 Goal=   None    Shift=    0.000
 RMSDP=3.33D-08 MaxDP=1.15D-06 DE=-6.34D-10 OVMax= 1.80D-06

 Cycle  13  Pass 1  IDiag  1:
 E= -583.277800184867     Delta-E=       -0.000000000027 Rises=F Damp=F
 DIIS: error= 1.54D-07 at cycle   7 NSaved=   7.
 NSaved= 7 IEnMin= 7 EnMin= -583.277800184867     IErMin= 7 ErrMin= 1.54D-07
 ErrMax= 1.54D-07  0.00D+00 EMaxC= 1.00D-01 BMatC= 3.28D-12 BMatP= 3.12D-11
 IDIUse=1 WtCom= 1.00D+00 WtEn= 0.00D+00
 Coeff-Com: -0.257D-02 0.359D-02 0.313D-01 0.409D-01 0.852D-01 0.302D+00
 Coeff-Com:  0.540D+00
 Coeff:     -0.257D-02 0.359D-02 0.313D-01 0.409D-01 0.852D-01 0.302D+00
 Coeff:      0.540D+00
 Gap=     0.149 Goal=   None    Shift=    0.000
 RMSDP=1.13D-08 MaxDP=3.84D-07 DE=-2.68D-11 OVMax= 8.00D-07

 Cycle  14  Pass 1  IDiag  1:
 E= -583.277800184884     Delta-E=       -0.000000000017 Rises=F Damp=F
 DIIS: error= 5.23D-08 at cycle   8 NSaved=   8.
 NSaved= 8 IEnMin= 8 EnMin= -583.277800184884     IErMin= 8 ErrMin= 5.23D-08
 ErrMax= 5.23D-08  0.00D+00 EMaxC= 1.00D-01 BMatC= 6.92D-13 BMatP= 3.28D-12
 IDIUse=1 WtCom= 1.00D+00 WtEn= 0.00D+00
 Coeff-Com: -0.401D-03 0.207D-03 0.838D-03 0.279D-02 0.611D-02 0.850D-01
 Coeff-Com:  0.346D+00 0.559D+00
 Coeff:     -0.401D-03 0.207D-03 0.838D-03 0.279D-02 0.611D-02 0.850D-01
 Coeff:      0.346D+00 0.559D+00
 Gap=     0.149 Goal=   None    Shift=    0.000
 RMSDP=5.06D-09 MaxDP=1.38D-07 DE=-1.68D-11 OVMax= 2.85D-07

 SCF Done:  E(RB3LYP) =  -583.277800185     A.U. after   14 cycles
            NFock= 14  Conv=0.51D-08     -V/T= 2.0084
 KE= 5.784201092654D+02 PE=-2.556706879126D+03 EE= 7.976827929832D+02
 Leave Link  502 at Fri Aug 20 15:35:21 2021, MaxMem= 24159191040 cpu:        71.2
 (Enter /public/home/users/caep010/software/Gaussian09/g09/l701.exe)
 Compute integral first derivatives.
 ... and contract with generalized density number  0.
 Leave Link  701 at Fri Aug 20 15:35:21 2021, MaxMem= 24159191040 cpu:        11.1
 (Enter /public/home/users/caep010/software/Gaussian09/g09/l702.exe)
 L702 exits ... SP integral derivatives will be done elsewhere.
 Leave Link  702 at Fri Aug 20 15:35:21 2021, MaxMem= 24159191040 cpu:         0.5
 (Enter /public/home/users/caep010/software/Gaussian09/g09/l703.exe)
 Compute integral first derivatives, UseDBF=F ICtDFT=           0.
 Integral derivatives from FoFJK, PRISM(SPDF).
 Calling FoFJK, ICntrl=      2127 FMM=F ISym2X=0 I1Cent= 0 IOpClX= 0 NMat=1 NMatS=1 NMatT=0.
 FoFJK:  IHMeth= 1 ICntrl=    2127 DoSepK=F KAlg= 0 I1Cent=   0 FoldK=F
 IRaf=         0 NMat=   1 IRICut=       1 DoRegI=T DoRafI=F ISym2E= 0.
 FoFCou: FMM=F IPFlag=           0 FMFlag=      100000 FMFlg1=         800
         NFxFlg=           0 DoJE=F BraDBF=F KetDBF=F FulRan=T
         wScrn=  0.000000 ICntrl=    2127 IOpCl=  0 I1Cent=           0 NGrid=           0
         NMat0=    1 NMatS0=      1 NMatT0=    0 NMatD0=    1 NMtDS0=    0 NMtDT0=    0
 Symmetry not used in FoFCou.
 Leave Link  703 at Fri Aug 20 15:35:22 2021, MaxMem= 24159191040 cpu:        20.5
 (Enter /public/home/users/caep010/software/Gaussian09/g09/l716.exe)
 Dipole        =-4.29367462D-01 2.39357812D+00-7.52232362D-02
 ***** Axes restored to original set *****
 -------------------------------------------------------------------
 Center     Atomic                   Forces (Hartrees/Bohr)
 Number     Number              X              Y              Z
 -------------------------------------------------------------------
      1        8           0.009543956    0.010299796    0.020757991
      2        7          -0.014083360   -0.014620225   -0.035901514
      3        6          -0.015656312    0.004679493    0.039922473
      4        6           0.000339695    0.003247019    0.003767501
      5        7          -0.016315280   -0.004359525   -0.006227751
      6        6          -0.005364895   -0.004343749   -0.015284979
      7        7           0.016964112   -0.003072842   -0.011027330
      8        8          -0.002156274   -0.000122711    0.001782001
      9        8          -0.001330414    0.001809475    0.001883962
     10        6           0.009698533   -0.005269608   -0.016805940
     11        6           0.015810256    0.006368335    0.010705554
     12        1           0.004733656    0.005363359    0.009507318
     13        1           0.020483377   -0.002859575   -0.040171802
     14        1           0.007541375    0.006236054    0.019801572
     15        1          -0.010880397    0.004464088    0.021205710
     16        1          -0.019328028   -0.007819384   -0.003914767
 -------------------------------------------------------------------
 Cartesian Forces:  Max     0.040171802 RMS     0.014269466
 Leave Link  716 at Fri Aug 20 15:35:22 2021, MaxMem= 24159191040 cpu:         0.6
 (Enter /public/home/users/caep010/software/Gaussian09/g09/l103.exe)

 GradGradGradGradGradGradGradGradGradGradGradGradGradGradGradGradGradGrad
 Berny optimization.
 Using GEDIIS/GDIIS optimizer.
 FormGI is forming the generalized inverse of G from B-inverse, IUseBI=4.
 Internal  Forces:  Max     0.045168781 RMS     0.008324747
 Search for a local minimum.
 Step number   2 out of a maximum of   82
 All quantities printed in internal units (Hartrees-Bohrs-Radians)
 RMS Force = .83247D-02 SwitMx=.10000D-02 MixMth= 1
 Mixed Optimization -- RFO/linear search
 Update second derivatives using D2CorX and points    1    2
 DE= -4.48D-02 DEPred=-4.80D-02 R= 9.34D-01
 TightC=F SS=  1.41D+00  RLast= 3.04D-01 DXNew= 5.0454D-01 9.1277D-01
 Trust test= 9.34D-01 RLast= 3.04D-01 DXMaxT set to 5.05D-01
 ITU=  1  0
 Use linear search instead of GDIIS.
     Eigenvalues ---    0.01664   0.02049   0.02079   0.02082   0.02131
     Eigenvalues ---    0.02287   0.02324   0.02370   0.02400   0.02427
     Eigenvalues ---    0.02511   0.02532   0.02576   0.15621   0.15868
     Eigenvalues ---    0.15948   0.15997   0.16003   0.22009   0.22049
     Eigenvalues ---    0.23459   0.23488   0.24968   0.24989   0.24999
     Eigenvalues ---    0.25094   0.44697   0.45274   0.45888   0.47822
     Eigenvalues ---    0.48314   0.48985   0.49289   0.52025   0.52702
     Eigenvalues ---    0.53377   0.56027   0.56770   0.58527   0.71184
     Eigenvalues ---    0.91135   0.92085
 RFO step:  Lambda=-5.94044155D-03 EMin= 1.66372874D-02
 Quartic linear search produced a step of  0.57000.
 Iteration  1 RMS(Cart)=  0.05836196 RMS(Int)=  0.00380131
 Iteration  2 RMS(Cart)=  0.00342334 RMS(Int)=  0.00134164
 Iteration  3 RMS(Cart)=  0.00001889 RMS(Int)=  0.00134145
 Iteration  4 RMS(Cart)=  0.00000009 RMS(Int)=  0.00134145
 ITry= 1 IFail=0 DXMaxC= 2.53D-01 DCOld= 1.00D+10 DXMaxT= 5.05D-01 DXLimC= 3.00D+00 Rises=F
 Variable       Old X    -DE/DX   Delta X   Delta X   Delta X     New X
                                 (Linear)    (Quad)   (Total)
    R1        2.46401  -0.02504  -0.02762  -0.03478  -0.06240   2.40161
    R2        2.57713   0.00756   0.01114   0.01041   0.02113   2.59827
    R3        2.55792   0.01135   0.01801   0.01164   0.02991   2.58783
    R4        2.62007   0.00437   0.01265  -0.00029   0.01167   2.63173
    R5        1.93256   0.04517   0.11341  -0.01937   0.09404   2.02661
    R6        2.65874   0.00144   0.00519  -0.00061   0.00458   2.66332
    R7        2.65250   0.00331   0.01355  -0.00491   0.00838   2.66087
    R8        2.56713   0.01503   0.01915   0.01988   0.03903   2.60616
    R9        1.88560   0.01186   0.02986   0.00195   0.03181   1.91741
   R10        2.61910   0.00327   0.01010  -0.00173   0.00882   2.62792
   R11        1.99464   0.02186   0.06024   0.00618   0.06642   2.06106
   R12        2.32848  -0.00148   0.00224  -0.00509  -0.00285   2.32563
   R13        2.32138  -0.00228   0.00069  -0.00465  -0.00396   2.31742
   R14        2.60791   0.00560   0.02043  -0.00560   0.01552   2.62343
   R15        1.99155   0.02311   0.06413   0.00445   0.06858   2.06013
   R16        1.98969   0.02101   0.05960   0.00356   0.06316   2.05285
    A1        2.07297   0.00267   0.00066   0.01425   0.01427   2.08724
    A2        2.09199   0.00206   0.00399   0.00733   0.01068   2.10266
    A3        2.11819  -0.00473  -0.00462  -0.02124  -0.02545   2.09274
    A4        2.08484   0.00189  -0.00019   0.01412   0.01369   2.09853
[...]
 ! D7    D(3,2,11,10)           -0.3794         -DE/DX =    0.0                 !
 ! D8    D(3,2,11,16)          179.5217         -DE/DX =    0.0                 !
 ! D9    D(2,3,4,5)           -177.0754         -DE/DX =    0.0                 !
 ! D10   D(2,3,4,6)             -1.4718         -DE/DX =    0.0                 !
 ! D11   D(13,3,4,5)             3.9887         -DE/DX =    0.0                 !
 ! D12   D(13,3,4,6)           179.5923         -DE/DX =    0.0                 !
 ! D13   D(3,4,5,7)            -41.5767         -DE/DX =    0.0                 !
 ! D14   D(3,4,5,12)           174.3258         -DE/DX =    0.0                 !
 ! D15   D(6,4,5,7)            142.6907         -DE/DX =    0.0                 !
 ! D16   D(6,4,5,12)            -1.4069         -DE/DX =    0.0                 !
 ! D17   D(3,4,6,10)             0.381          -DE/DX =    0.0                 !
 ! D18   D(3,4,6,14)          -179.8784         -DE/DX =    0.0                 !
 ! D19   D(5,4,6,10)           176.1941         -DE/DX =    0.0                 !
 ! D20   D(5,4,6,14)            -4.0654         -DE/DX =    0.0                 !
 ! D21   D(4,5,7,8)           -160.2845         -DE/DX =    0.0                 !
 ! D22   D(4,5,7,9)             22.0248         -DE/DX =    0.0                 !
 ! D23   D(12,5,7,8)           -13.3095         -DE/DX =    0.0                 !
 ! D24   D(12,5,7,9)           168.9998         -DE/DX =    0.0                 !
 ! D25   D(4,6,10,11)            0.6952         -DE/DX =    0.0                 !
 ! D26   D(4,6,10,15)          179.9674         -DE/DX =    0.0                 !
 ! D27   D(14,6,10,11)        -179.0445         -DE/DX =    0.0                 !
 ! D28   D(14,6,10,15)           0.2277         -DE/DX =    0.0                 !
 ! D29   D(6,10,11,2)           -0.7107         -DE/DX =    0.0                 !
 ! D30   D(6,10,11,16)         179.4003         -DE/DX =    0.0                 !
 ! D31   D(15,10,11,2)        -179.9969         -DE/DX =    0.0                 !
 ! D32   D(15,10,11,16)          0.1141         -DE/DX =    0.0                 !
 --------------------------------------------------------------------------------
 GradGradGradGradGradGradGradGradGradGradGradGradGradGradGradGradGradGrad

 Leave Link  103 at Fri Aug 20 15:37:36 2021, MaxMem= 24159191040 cpu:         1.1
 (Enter /public/home/users/caep010/software/Gaussian09/g09/l9999.exe)
 1\1\GINC-B1751\Freq\RB3LYP\6-31G(d,p)\C5H5N3O3\ROOT\20-Aug-2021\0\\#P 
 Geom=AllCheck Guess=TCheck SCRF=Check GenChk RB3LYP/6-31G(d,p) Freq\\I
 JIVIG\\0,1\O,0.8230938081,-1.7540926817,1.8783898232\N,1.3557663147,-1
 .3007357648,2.9393003687\C,2.6206134129,-0.7660604473,2.9003116489\C,3
 .2193741222,-0.2798559159,4.0569483043\N,4.491514929,0.3307132225,4.04
 50188928\C,2.5272944378,-0.300355857,5.2765235937\N,5.5868830598,-0.12
 03466139,3.3082102576\O,6.6697726072,0.2940470189,3.709985067\O,5.3779
 26317,-0.8284013561,2.3337237785\C,1.2386441208,-0.826767441,5.2847024
 388\C,0.668891515,-1.3252887717,4.1300312237\H,4.8320662977,0.74097056
 22,4.9052702729\H,3.0807348525,-0.779966882,1.9268998852\H,2.985372973
 8,0.0784546972,6.1834677549\H,0.6647975735,-0.864185176,6.204008194\H,
 -0.3187463418,-1.7573285934,4.0561084957\\Version=ES64L-G09RevE.01\Sta
 te=1-A\HF=-583.2849652\RMSD=9.031e-09\RMSF=4.109e-05\ZeroPoint=0.11245
 1\Thermal=0.1212537\Dipole=-0.5101339,0.6863214,2.0871689\DipoleDeriv=
 -0.5931705,-0.169808,-0.3732354,-0.1932057,-0.4974878,-0.3146371,-0.47
 34376,-0.3341364,-1.0746023,0.4785379,0.2055396,0.4359519,0.2398808,0.
 3818663,0.4000844,0.5988971,0.4129885,1.0600307,-0.3120445,-0.1428722,
 -0.3255432,-0.1594494,-0.2058707,-0.1029332,-0.0643069,-0.0303547,-0.0
 34969,1.0254072,0.3103441,-0.0394495,0.3919392,0.3029194,-0.0325532,0.
 0649481,-0.0610615,0.2431367,-1.3299489,-0.0651745,0.3042963,0.1075982
 ,-0.4430447,-0.0916435,0.5476818,0.0960322,-0.3128243,-0.407333,-0.055
 6001,0.0385731,-0.0453091,-0.1747614,0.0177813,0.1032288,0.0602616,-0.
 1635092,2.4528175,0.2115908,-0.1814228,-0.0690466,0.7625027,0.5588611,
 -0.7276934,0.4377232,1.1878203,-1.4081216,-0.2825807,-0.0602015,-0.314
 5216,-0.4009406,-0.1078635,-0.1447868,-0.1296385,-0.4235195,-0.5478425
 ,-0.083062,0.0011614,0.0483619,-0.4537768,-0.3295255,0.1822401,-0.2965
 653,-0.7124055,0.1939305,0.0873294,-0.0214893,0.1318127,0.0134771,0.03
 85326,0.052142,0.073379,0.1981046,0.059171,0.1226724,0.1905368,0.01967
 83,-0.0927944,0.0277825,-0.2117516,-0.1236582,-0.3450385,0.1031098,-0.
 0164664,0.0366646,-0.0154212,0.3291193,0.0307957,0.0749028,-0.0298187,
 0.1887145,0.1347779,-0.0186829,-0.017423,-0.0259533,0.1365948,-0.02930
 56,0.0021866,-0.0062587,0.1074414,0.0372034,-0.058379,-0.0611126,-0.05
 67373,0.1047928,-0.0444789,-0.0432938,-0.0401958,0.0161777,0.0448161,-
 0.0121717,0.0632666,-0.0177077,0.1107204,-0.0013895,0.0656943,0.000578
 2,0.0016824,0.0686897,-0.0326788,0.0094267,-0.041919,0.1266834,-0.0195
 076,-0.0266516,-0.0292749,0.0637599\Polar=119.0149535,26.6044907,47.63
 23855,-0.3981786,18.9577948,95.2151858\PG=C01 [X(C5H5N3O3)]\NImag=0\\0
 .16659809,0.09058851,0.10094620,0.15440564,0.14767727,0.41135800,-0.15
 423886,-0.06223058,-0.11022956,0.61642178,-0.06159597,-0.11232209,-0.1
 0450687,0.18007672,0.29052047,-0.11082069,-0.10419572,-0.33075816,-0.0
 0146027,0.11695745,0.72634526,-0.03903936,-0.02974901,-0.03277050,-0.2
 3353601,-0.07032354,0.00932109,0.56446275,-0.03483988,-0.00298981,-0.0
 1746053,-0.05971751,-0.09379662,-0.01201784,0.18386702,0.21246915,-0.0
 5626726,-0.02731563,-0.00111962,0.06429977,0.00892065,-0.15318933,-0.0
 5956953,0.11821318,0.79580883,-0.00049027,-0.00208102,0.00643245,-0.02
 466389,-0.01289224,-0.03698681,-0.14316947,-0.05685595,-0.08478474,0.5
 8655655,-0.00051924,0.00596965,0.00019736,-0.02278460,-0.01638901,-0.0
 0625945,-0.04884529,-0.09122847,-0.08442831,0.17875252,0.25458689,0.01
 458945,0.00307668,-0.00547022,-0.08284065,-0.02154737,0.04992628,-0.03
 477290,-0.06510192,-0.29000730,-0.02409274,0.12444960,0.67774040,-0.00
 141362,-0.00051274,-0.00119966,0.00783279,-0.00167257,0.00189167,-0.02
 647840,-0.01535855,-0.01076474,-0.21145451,-0.09082032,0.01850546,0.60
 274256,-0.00014573,0.00001015,0.00063610,-0.00142077,0.00545238,-0.002
 20179,-0.01894936,-0.00859511,-0.00334038,-0.08194143,-0.09673816,-0.0
 3831255,0.17646043,0.24617100,-0.00198511,-0.00024165,0.00150938,0.003
 56651,-0.00238150,-0.01046692,-0.03214460,-0.01417348,0.00999736,-0.01
 564925,-0.04574633,-0.10835075,0.05052894,0.27860032,0.59559858,0.0072
 4469,0.00147368,-0.00879002,-0.05260158,-0.01292913,0.03848404,0.05104
 631,0.02108697,0.01802878,-0.14773658,-0.02244642,0.04548065,-0.040317
 66,-0.00899431,0.04147850,0.61736701,0.00102585,-0.00122191,-0.0042623
 3,-0.01151643,-0.00735217,0.01271695,0.01381184,0.01302274,-0.00359456
 ,-0.01082128,-0.07070378,-0.02868250,-0.02055132,0.00517226,0.01774293
 ,0.20858555,0.22305937,-0.00848965,-0.00389421,-0.00216307,0.03487519,
 0.01273655,-0.01555721,-0.01876766,-0.01882968,-0.05161800,0.11130919,
 -0.00529400,-0.27206844,0.01341649,0.00746695,0.00038605,0.00255901,0.
 12436849,0.68802102,0.00258324,0.00195214,0.00351473,-0.00335032,-0.00
 282922,-0.00318559,0.00442016,0.00271835,0.00052572,-0.04671685,0.0023
 7722,0.00870065,-0.13804160,-0.01061035,0.03403925,0.00506208,0.003913
 66,-0.00444725,0.75212537,-0.00060360,-0.00067656,-0.00127878,0.000887
 74,-0.00097871,-0.00092362,-0.00051671,0.00051220,0.00134002,0.0034729
 8,0.01046262,0.02742813,-0.01676247,-0.08654409,-0.05918600,-0.0088198
 9,-0.00533486,-0.00152463,0.16774288,0.48104054,-0.00091794,-0.0011359
 2,-0.00267348,0.00117939,-0.00091459,0.00187327,-0.00483859,-0.0029420
 9,0.00283486,0.02652160,0.02141880,0.00149151,-0.01297956,-0.04073883,
 -0.12101111,-0.00682879,-0.00462644,0.00303294,0.12729590,0.32090764,0
 .68421434,-0.00137916,-0.00086120,-0.00179346,0.00183230,0.00076623,0.
 00241420,-0.00220084,-0.00010446,0.00097891,0.00293680,0.00720163,0.00
 576866,-0.10105303,-0.00999528,0.00243627,-0.00325059,-0.00257478,-0.0
 0176841,-0.44947563,-0.12294922,-0.11363274,0.56423409,-0.00012521,0.0
 0003960,-0.00017164,0.00012943,-0.00018904,0.00139561,-0.00024103,0.00
 033357,-0.00029736,-0.00232165,0.00112144,-0.00381752,0.00790553,0.025
 77765,0.00210979,0.00123883,0.00043186,0.00001549,-0.12044053,-0.14583
 435,-0.06271408,0.16533611,0.12512630,-0.00001415,0.00011084,0.0002808
 0,0.00010947,0.00086877,0.00028607,0.00041662,0.00100180,-0.00074811,-
 0.00114449,-0.00545991,0.00345837,0.02304388,0.00910136,0.02002159,0.0
 0091521,-0.00031309,-0.00079429,-0.10033741,-0.06377390,-0.15618608,0.
 14550523,0.10021668,0.15013468,-0.00049456,-0.00045205,-0.00096114,-0.
 00047355,0.00170046,0.00285024,-0.00601463,-0.00145166,-0.00370826,0.0
 0370876,0.00177171,-0.00103374,0.01914259,0.01947382,0.03341492,-0.000
 90228,0.00067603,0.00077824,-0.14469287,-0.03557279,-0.04491252,-0.007
 13150,-0.05061566,-0.06614282,0.14856528,0.00005402,0.00034770,0.00056
 103,0.00053259,0.00063319,-0.00050027,-0.00027924,0.00112357,-0.000326
 50,-0.00526491,-0.00207033,-0.00207490,0.01500301,-0.01560692,-0.04444
 785,0.00254935,0.00171998,-0.00042797,-0.04604723,-0.24169435,-0.21412
 352,-0.03335160,-0.00478663,-0.04317274,0.06212008,0.25718932,0.000443
 40,0.00070077,0.00169804,-0.00012966,-0.00017483,-0.00049812,0.0005886
 2,0.00076766,-0.00291885,-0.00965585,-0.00282519,-0.00108562,0.0209169
 7,-0.04793016,-0.04909063,0.00267630,0.00180769,-0.00024046,-0.0542906
 9,-0.21587183,-0.38550489,-0.03987123,-0.03896179,-0.02107294,0.071421
 45,0.30501068,0.45372183,-0.01086635,-0.00534698,0.00735206,0.06767304
 ,0.02564510,-0.01850203,-0.03673839,-0.01909205,-0.02077555,-0.0315044
 6,-0.00142680,0.07142898,0.00379774,0.00213514,-0.00185331,-0.30440552
 ,-0.10908564,-0.02360063,-0.00080541,-0.00068577,0.00333266,-0.0000482
 4,-0.00003799,-0.00096508,0.00045349,-0.00064332,-0.00111716,0.6274991
 1,-0.00675323,0.00367513,0.00309054,0.03343179,0.00855047,-0.02140882,
 -0.01918950,-0.00986992,-0.01165518,-0.00926859,0.00604912,0.03590319,
 0.00332800,0.00550174,-0.00420258,-0.09617480,-0.09938940,-0.02484195,
 -0.00274515,0.00230280,0.00152577,0.00026878,-0.00041019,0.00003363,0.
 00015443,-0.00089098,-0.00065978,0.19284699,0.23052408,-0.00037844,-0.
 00009665,0.00544426,0.02520909,-0.00319036,-0.06606382,-0.02015223,-0.
 01213407,-0.01455220,0.02579567,0.01620280,0.03128256,0.00257239,-0.00
 256128,-0.00672096,0.03652759,0.00076399,-0.12326973,0.00040199,0.0024
 0879,0.00027854,0.00071793,-0.00064747,-0.00022412,0.00056143,-0.00018
 123,-0.00000645,-0.06976844,0.10289573,0.72047020,0.02679337,0.0019333
 6,-0.01291042,-0.19043278,-0.03039653,0.09006440,-0.02677324,-0.008074
 08,0.02576172,0.00092882,0.00149419,0.00236239,-0.00378850,-0.00186136
 ,0.00081522,-0.01946089,-0.01658978,-0.02788375,0.00160848,0.00041285,
 -0.00174397,-0.00064148,-0.00030203,0.00008208,-0.00023576,0.00033099,
 0.00033730,-0.16680865,-0.07209243,-0.10593889,0.67886653,0.00697383,0
 .01312521,-0.02645048,-0.04228942,-0.08622632,0.00769569,0.00053935,0.
 00699335,0.01616679,0.00182607,-0.00164808,-0.01260561,-0.00209941,-0.
 00165037,0.00137483,-0.02604188,-0.00429074,-0.00648927,0.00121250,-0.
 00014835,-0.00137649,-0.00043652,-0.00015992,0.00010404,-0.00034038,0.
 00034775,0.00038026,-0.06084528,-0.09983628,-0.09836888,0.24605433,0.2
 4671946,0.01179999,-0.01644670,-0.08064331,0.03476134,-0.01543688,-0.2
 0210024,0.06157014,0.03025372,0.02676857,0.00546541,-0.00887505,-0.063
 31857,-0.00162442,-0.00133818,0.00382453,-0.06998944,-0.02299160,0.030
 94054,0.00146615,-0.00054070,-0.00282784,-0.00048136,-0.00006048,0.000
 59032,-0.00056452,0.00086317,0.00111173,-0.05366728,-0.07699891,-0.291
 28149,0.03607720,0.13435340,0.64721092,-0.00051953,-0.00002992,0.00031
 350,0.00068017,-0.00046556,-0.00193907,-0.00383154,-0.00196946,0.00296
 247,-0.00647718,-0.00860565,-0.02549389,-0.10997482,-0.06903699,-0.117
 94193,0.00078178,0.00025839,-0.00232704,0.01724862,0.01755914,0.033587
 17,-0.00395936,-0.00149532,-0.00290040,-0.00661954,0.00328348,0.005571
 79,-0.00059044,0.00010165,0.00027186,0.00013059,0.00012000,0.00047360,
 0.11329495,0.00023059,-0.00014456,0.00048349,-0.00057776,0.00117293,-0
 .00085864,-0.00037282,0.00086231,0.00131341,-0.00452970,-0.00820481,-0
 .01022132,-0.05814241,-0.07431782,-0.13400880,0.00180301,-0.00025063,-
 0.00007070,0.00238240,-0.01281659,-0.01631022,-0.00342162,-0.00184942,
 0.00208525,0.00234716,0.00410973,-0.00232988,0.00034805,-0.00054827,-0
 .00011544,0.00000093,0.00008898,0.00000506,0.06037945,0.09141124,0.000
 02540,0.00008918,-0.00012196,0.00046904,-0.00053161,0.00029635,0.00175
 068,0.00084506,0.00022673,0.00059265,0.00670242,0.00591018,-0.10187598
 ,-0.16105286,-0.33758513,0.00209283,0.00117063,0.00228068,-0.01296601,
 -0.00648482,-0.02270012,-0.00069934,0.00222085,0.00342428,0.00496897,-
 0.00240720,0.00180763,-0.00025290,-0.00014202,-0.00034064,0.00029638,0
 .00013742,0.00013554,0.10569665,0.15948484,0.34741707,0.00301033,0.002
 98836,0.00003882,-0.01739152,-0.00230688,0.03107119,-0.10200330,-0.007
 53441,0.11788495,0.01285024,0.00189192,-0.01266369,-0.00185102,0.00211
 901,0.00167552,-0.00113170,-0.00318392,-0.00238694,0.00009910,-0.00404
 685,-0.00624163,0.00036652,0.00099311,0.00145158,-0.00515253,0.0017696
 7,0.00324875,-0.00063189,0.00007622,-0.00047961,-0.00302650,-0.0038533
 2,-0.00243080,-0.00006788,-0.00003661,0.00005724,0.11487164,0.00291391
 ,-0.00281374,0.00134626,-0.00981652,0.00289566,0.01399013,-0.00630352,
 -0.03642575,-0.01343724,0.00717939,0.00372737,-0.00870330,0.00183108,-
 0.00252968,0.00161164,-0.00325151,0.00403940,-0.00263906,-0.00039363,0
 .00046883,0.00076192,0.00005731,0.00026792,-0.00058800,0.00035091,-0.0
 0050752,0.00016149,-0.00005984,-0.00101230,-0.00005031,-0.00372855,0.0
 0281427,-0.00199326,0.00009747,-0.00021834,0.00011462,0.01113258,0.029
 04926,-0.00161855,0.00037611,0.00054817,-0.00145038,-0.00094972,0.0027
 0989,0.12488075,-0.00673993,-0.31409155,0.01010357,0.00084309,-0.01246
 774,0.00034859,0.00138633,0.00032844,-0.00268066,-0.00278142,-0.000812
 29,-0.00108144,-0.00182076,-0.00222631,0.00032573,0.00052292,0.0006229
 4,0.00312419,0.00072527,0.00135419,-0.00030628,0.00026531,0.00054676,-
 0.00041468,-0.00113396,0.00070195,-0.00005972,-0.00005209,-0.00009283,
 -0.13161069,0.00925977,0.32312876,0.00033247,0.00028281,-0.00039085,-0
 .00111501,0.00024944,0.00070760,-0.00113879,-0.00204488,0.00297918,0.0
 0850317,0.00584838,0.01430450,0.00147399,0.00194125,0.00043654,-0.1045
 1347,-0.05191292,-0.09784950,-0.00022538,0.00063727,0.00031577,0.00014
 418,-0.00011489,-0.00001042,-0.00012384,-0.00021035,-0.00018714,-0.007
 60469,-0.00917609,-0.02646187,-0.00376769,-0.00392488,0.00220204,-0.00
 007406,-0.00048743,-0.00015313,0.00054407,0.00011292,0.00056427,0.1070
 8055,0.00031734,-0.00041302,0.00008719,0.00034264,-0.00104283,0.000415
 61,-0.00156507,0.00453729,-0.00051644,-0.00154072,0.00124629,0.0015684
 5,0.00141392,-0.00202293,0.00199511,-0.05099246,-0.06744546,-0.0888567
 9,0.00067937,-0.00051868,0.00000530,0.00014648,0.00005849,-0.00014863,
 0.00003143,0.00011212,-0.00005103,-0.00330968,-0.00260556,-0.00991891,
 -0.00407254,0.00512655,-0.00009512,-0.00017551,0.00059042,-0.00013332,
 -0.00023889,0.00045111,-0.00000759,0.05753289,0.06460062,-0.00018716,0
 .00012278,0.00036753,0.00076012,0.00051636,-0.00017221,0.00446894,0.00
 018248,-0.00263296,-0.01360771,-0.00966730,-0.01778539,-0.00270330,0.0
 0000948,0.00127959,-0.09771758,-0.08822966,-0.25873120,0.00055916,-0.0
 0037525,-0.00038308,0.00005316,0.00009508,0.00013410,-0.00003514,0.000
 40778,0.00054458,0.00183123,0.00138467,0.00499634,0.00126702,-0.000473
 01,0.00167017,0.00168321,0.00057597,-0.00057189,-0.00084564,-0.0006042
 7,-0.00050564,0.10484025,0.09532795,0.27119398,0.00027420,0.00027271,-
 0.00045828,0.00055172,-0.00422793,-0.00301294,-0.00054878,-0.00005682,
 -0.00073312,-0.00338163,-0.00423800,-0.00081404,-0.00080595,0.00049377
 ,0.00148783,-0.00965726,0.00009763,0.02545744,0.00034374,-0.00083055,-
 0.00036896,-0.00042864,0.00010649,-0.00001672,0.00002595,0.00017578,0.
 00017896,-0.13604611,-0.01302134,0.13025371,0.01078423,0.00142827,-0.0
 1126114,-0.00002885,0.00009652,0.00003741,-0.00002051,0.00024735,-0.00
 000377,0.00058338,0.00164879,-0.00054235,0.13854379,0.00053570,-0.0004
 5074,-0.00037251,-0.00450136,0.00629168,-0.00335139,-0.00017453,-0.000
 72227,-0.00012088,-0.00417382,0.00430410,-0.00143095,-0.00019131,0.000
 40064,0.00057407,-0.00542488,0.00290179,0.01107317,-0.00007324,-0.0001
 7519,0.00004239,-0.00008928,0.00000801,0.00004560,-0.00005070,0.000031
 51,0.00000617,-0.01305489,-0.04065180,0.00399038,0.00756781,0.00241570
 ,-0.00923863,-0.00001755,0.00004563,0.00001786,0.00021852,-0.00045434,
 0.00012448,0.00176079,-0.00295523,0.00068707,0.01625090,0.03203321,0.0
 0054264,0.00008048,-0.00125228,-0.00329017,-0.00363554,-0.00138434,-0.
 00065847,-0.00005488,0.00033591,-0.00041573,-0.00125112,0.00163299,0.0
 0009242,0.00005642,0.00008941,-0.00170783,-0.00038356,0.00466303,-0.00
 023432,-0.00006106,0.00013499,0.00005880,0.00004342,-0.00002420,0.0000
 5753,-0.00001367,-0.00003702,0.12987192,0.00366337,-0.26569633,0.01651
 235,0.00281915,-0.01716226,-0.00000696,-0.00000712,-0.00002214,-0.0000
 1535,0.00012724,-0.00004376,-0.00011233,0.00088800,0.00044355,-0.14014
 755,-0.00302438,0.27775064,0.00160533,0.00177191,-0.00255331,-0.017188
 29,-0.00879837,-0.00089703,0.00154353,-0.00057261,0.00318170,0.0001104
 8,0.00034876,0.00057090,0.00018943,0.00033217,-0.00030529,0.00247566,-
 0.00213288,-0.00087474,-0.00018274,0.00007499,0.00023222,0.00005457,-0
 .00001519,0.00000742,-0.00005502,-0.00002232,-0.00013180,-0.00337323,-
 0.00178672,0.00086782,-0.30417653,-0.11832324,-0.01379690,0.00000709,-
 0.00001976,-0.00003987,-0.00046506,-0.00036934,-0.00012093,-0.00009889
 ,-0.00021800,0.00017577,-0.00018927,0.00141782,-0.00054695,0.31974293,
 0.00194310,-0.00308120,0.00042390,-0.00054596,0.00278001,-0.00145390,-
 0.00170859,0.00377376,-0.00092157,0.00046035,-0.00048483,0.00007189,0.
 00016915,-0.00048073,0.00037949,-0.00166210,0.00564157,-0.00279241,0.0
 0016084,-0.00006523,0.00022037,0.00000743,0.00006471,-0.00011171,-0.00
 014278,-0.00005813,-0.00003025,-0.00738703,-0.00138861,0.00100289,-0.1
 2067718,-0.08367119,-0.01145984,-0.00000362,0.00006922,-0.00003104,0.0
 0001150,0.00024785,-0.00001779,-0.00049431,0.00028081,0.00003988,0.001
 55643,-0.00302272,0.00075326,0.12831278,0.07939472,-0.00112756,0.00109
 236,0.00299591,0.03417076,0.01326950,-0.00124679,0.00067764,-0.0018094
 7,-0.00509435,0.00011677,-0.00000741,-0.00088826,-0.00016915,0.0002190
 7,0.00019055,-0.00052859,-0.00270553,-0.00406956,0.00003914,-0.0002432
 3,-0.00034755,-0.00001234,0.00005049,0.00009660,0.00018118,0.00010793,
 0.00021700,-0.02300821,-0.00885296,0.00513705,-0.02468435,-0.01613388,
 -0.05562058,0.00010876,0.00002619,-0.00006375,0.00124632,0.00064235,0.
 00029901,-0.00118490,-0.00055979,0.00015252,-0.00005647,0.00097756,0.0
 0057182,0.01423100,0.01392684,0.05767038\\0.00002202,0.00001830,0.0000
 1001,-0.00011820,-0.00005508,0.00002616,0.00008975,0.00005974,0.000081
 84,0.00000941,-0.00002204,-0.00008851,0.00002889,0.00001015,-0.0000001
 4,-0.00005035,-0.00000084,0.00008855,0.00000693,0.00000092,0.00002188,
 -0.00002053,-0.00000337,0.00001298,-0.00001470,-0.00000831,-0.00000850
 ,0.00004023,0.00002597,0.00006766,-0.00001163,-0.00001731,-0.00009565,
 -0.00000426,-0.00000796,-0.00000885,0.00000359,-0.00001000,-0.00004477
 ,-0.00001219,-0.00001321,-0.00003595,0.00000717,0.00000350,-0.00003763
 ,0.00002387,0.00001955,0.00001092\\\@


 ARTHROPOD AXIOM: A COMPUTER SYSTEM IS LIKE A SPIDER'S WEB.
 YOU CANNOT PULL ON ONE END WITHOUT MAKING THE OTHER END MOVE.
     -- GREG WETTSTEIN
 Job cpu time:       0 days  0 hours  9 minutes 54.9 seconds.
 File lengths (MBytes):  RWF=     73 Int=      0 D2E=      0 Chk=      4 Scr=      1
 Normal termination of Gaussian 09 at Fri Aug 20 15:37:36 2021.
