 Entering Gaussian System, Link 0=g09
 Input=B3LYP6-31G.NABMOS.gjf
 Output=B3LYP6-31G.NABMOS.log
 Initial command:
 /public/home/users/caep010/software/Gaussian09/g09/l1.exe "/public/home/users/caep010/.cache/gau_scr/Gau-167515.inp" -scrdir="/public/home/users/caep010/.cache/gau_scr/"
 Entering Link 1 = /public/home/users/caep010/software/Gaussian09/g09/l1.exe PID=    167516.
  
 Copyright (c) 1988,1990,1992,1993,1995,1998,2003,2009,2015,
            Gaussian, Inc.  All Rights Reserved.
  
 This is part of the Gaussian(R) 09 program.  It is based on
 the Gaussian(R) 03 system (copyright 2003, Gaussian, Inc.),
 the Gaussian(R) 98 system (copyright 1998, Gaussian, Inc.),
 the Gaussian(R) 94 system (copyright 1995, Gaussian, Inc.),
 the Gaussian 92(TM) system (copyright 1992, Gaussian, Inc.),
 the Gaussian 90(TM) system (copyright 1990, Gaussian, Inc.),
 the Gaussian 88(TM) system (copyright 1988, Gaussian, Inc.),
 the Gaussian 86(TM) system (copyright 1986, Carnegie Mellon
 University), and the Gaussian 82(TM) system (copyright 1983,
 Carnegie Mellon University). Gaussian is a federally registered
 trademark of Gaussian, Inc.
  
 This software contains proprietary and confidential information,
 including trade secrets, belonging to Gaussian, Inc.
  
 This software is provided under written license and may be
 used, copied, transmitted, or stored only in accord with that
 written license.
  
 The following legend is applicable only to US Government
 contracts under FAR:
  
                    RESTRICTED RIGHTS LEGEND
  
 Use, reproduction and disclosure by the US Government is
 subject to restrictions as set forth in subparagraphs (a)
 and (c) of the Commercial Computer Software - Restricted
 Rights clause in FAR 52.227-19.
  
 Gaussian, Inc.
 340 Quinnipiac St., Bldg. 40, Wallingford CT 06492
  
  
 ---------------------------------------------------------------
 Warning -- This program may not be used in any manner that
 competes with the business of Gaussian, Inc. or will provide
 assistance to any competitor of Gaussian, Inc.  The licensee
 of this program is prohibited from giving any competitor of
 Gaussian, Inc. access to this program.  By using this program,
 the user acknowledges that Gaussian, Inc. is engaged in the
 business of creating and licensing software in the field of
 computational chemistry and represents and warrants to the
 licensee that it is not a competitor of Gaussian, Inc. and that
 it will not use this program in any manner prohibited above.
 ---------------------------------------------------------------
  

 Cite this work as:
 Gaussian 09, Revision E.01,
 M. J. Frisch, G. W. Trucks, H. B. Schlegel, G. E. Scuseria, 
 M. A. Robb, J. R. Cheeseman, G. Scalmani, V. Barone, B. Mennucci, 
 G. A. Petersson, H. Nakatsuji, M. Caricato, X. Li, H. P. Hratchian, 
 A. F. Izmaylov, J. Bloino, G. Zheng, J. L. Sonnenberg, M. Hada, 
 M. Ehara, K. Toyota, R. Fukuda, J. Hasegawa, M. Ishida, T. Nakajima, 
 Y. Honda, O. Kitao, H. Nakai, T. Vreven, J. A. Montgomery, Jr., 
 J. E. Peralta, F. Ogliaro, M. Bearpark, J. J. Heyd, E. Brothers, 
 K. N. Kudin, V. N. Staroverov, T. Keith, R. Kobayashi, J. Normand, 
 K. Raghavachari, A. Rendell, J. C. Burant, S. S. Iyengar, J. Tomasi, 
 M. Cossi, N. Rega, J. M. Millam, M. Klene, J. E. Knox, J. B. Cross, 
 V. Bakken, C. Adamo, J. Jaramillo, R. Gomperts, R. E. Stratmann, 
 O. Yazyev, A. J. Austin, R. Cammi, C. Pomelli, J. W. Ochterski, 
 R. L. Martin, K. Morokuma, V. G. Zakrzewski, G. A. Voth, 
 P. Salvador, J. J. Dannenberg, S. Dapprich, A. D. Daniels, 
 O. Farkas, J. B. Foresman, J. V. Ortiz, J. Cioslowski, 
 and D. J. Fox, Gaussian, Inc., Wallingford CT, 2013.
 
 ******************************************
 Gaussian 09:  ES64L-G09RevE.01 30-Nov-2015
                20-Aug-2021 
 ******************************************
 %nproc=32
 Will use up to   32 processors via shared memory.
 %mem=180GB
 -------------------------
 #P OPT Freq B3LYP/6-31G**
 -------------------------
 1/14=-1,18=20,19=15,26=3,38=1/1,3;
 2/9=110,12=2,17=6,18=5,40=1/2;
 3/5=1,6=6,7=101,11=2,16=1,25=1,30=1,71=1,74=-5/1,2,3;
 4//1;
 5/5=2,38=5/2;
 6/7=2,8=2,9=2,10=2,28=1/1;
 7//1,2,3,16;
 1/14=-1,18=20,19=15,26=3/3(2);
 2/9=110/2;
 99//99;
 2/9=110/2;
 3/5=1,6=6,7=101,11=2,16=1,25=1,30=1,71=1,74=-5/1,2,3;
 4/5=5,16=3,69=1/1;
 5/5=2,38=5/2;
 7//1,2,3,16;
 1/14=-1,18=20,19=15,26=3/3(-5);
 2/9=110/2;
 6/7=2,8=2,9=2,10=2,19=2,28=1/1;
 99/9=1/99;
 Leave Link    1 at Fri Aug 20 15:35:14 2021, MaxMem= 24159191040 cpu:         2.0
 (Enter /public/home/users/caep010/software/Gaussian09/g09/l101.exe)
 ------
 NABMOS
 ------
 Symbolic Z-matrix:
 Charge =  0 Multiplicity = 1
 N                     0.2104    6.1383    12.4693 
 N                    -0.1232    5.1977    11.4693 
 O                     0.7926    4.6332    10.9652 
 C                     1.5493    6.2386    13.0088 
 C                     1.3563    7.2522    14.0652 
 N                    -0.0959    7.1574    14.4356 
 N                    -0.6367    7.9846    15.2698 
 O                    -1.8895    8.002     15.3632 
 O                     0.1581    8.7388    15.8995 
 C                    -0.9191    6.607     13.3228 
 O                    -1.3683    5.0735    11.3276 
 H                    -1.4904    5.8898    13.6063 
 H                    -1.4457    7.2849    12.8929 
 H                     1.5624    8.1307    13.7367 
 H                     1.9058    7.0582    14.827 
 H                     2.173     6.5438    12.3469 
 H                     1.8491    5.4015    13.3712 
 
 NAtoms=     17 NQM=       17 NQMF=       0 NMMI=      0 NMMIF=      0
                NMic=       0 NMicF=      0.
                    Isotopes and Nuclear Properties:
 (Nuclear quadrupole moments (NQMom) in fm**2, nuclear magnetic moments (NMagM)
  in nuclear magnetons)

  Atom         1           2           3           4           5           6           7           8           9          10
 IAtWgt=          14          14          16          12          12          14          14          16          16          12
 AtmWgt=  14.0030740  14.0030740  15.9949146  12.0000000  12.0000000  14.0030740  14.0030740  15.9949146  15.9949146  12.0000000
 NucSpn=           2           2           0           0           0           2           2           0           0           0
 AtZEff=   0.0000000   0.0000000   0.0000000   0.0000000   0.0000000   0.0000000   0.0000000   0.0000000   0.0000000   0.0000000
 NQMom=    2.0440000   2.0440000   0.0000000   0.0000000   0.0000000   2.0440000   2.0440000   0.0000000   0.0000000   0.0000000
 NMagM=    0.4037610   0.4037610   0.0000000   0.0000000   0.0000000   0.4037610   0.4037610   0.0000000   0.0000000   0.0000000
 AtZNuc=   7.0000000   7.0000000   8.0000000   6.0000000   6.0000000   7.0000000   7.0000000   8.0000000   8.0000000   6.0000000

  Atom        11          12          13          14          15          16          17
 IAtWgt=          16           1           1           1           1           1           1
 AtmWgt=  15.9949146   1.0078250   1.0078250   1.0078250   1.0078250   1.0078250   1.0078250
 NucSpn=           0           1           1           1           1           1           1
 AtZEff=   0.0000000   0.0000000   0.0000000   0.0000000   0.0000000   0.0000000   0.0000000
 NQMom=    0.0000000   0.0000000   0.0000000   0.0000000   0.0000000   0.0000000   0.0000000
 NMagM=    0.0000000   2.7928460   2.7928460   2.7928460   2.7928460   2.7928460   2.7928460
 AtZNuc=   8.0000000   1.0000000   1.0000000   1.0000000   1.0000000   1.0000000   1.0000000
 Leave Link  101 at Fri Aug 20 15:35:15 2021, MaxMem= 24159191040 cpu:        10.5
 (Enter /public/home/users/caep010/software/Gaussian09/g09/l103.exe)

 GradGradGradGradGradGradGradGradGradGradGradGradGradGradGradGradGradGrad
 Berny optimization.
 Initialization pass.
                           ----------------------------
                           !    Initial Parameters    !
                           ! (Angstroms and Degrees)  !
 --------------------------                            --------------------------
 ! Name  Definition              Value          Derivative Info.                !
 --------------------------------------------------------------------------------
 ! R1    R(1,2)                  1.4128         estimate D2E/DX2                !
 ! R2    R(1,4)                  1.447          estimate D2E/DX2                !
 ! R3    R(1,10)                 1.4913         estimate D2E/DX2                !
 ! R4    R(2,3)                  1.1881         estimate D2E/DX2                !
 ! R5    R(2,11)                 1.2593         estimate D2E/DX2                !
 ! R6    R(4,5)                  1.4767         estimate D2E/DX2                !
 ! R7    R(4,16)                 0.9593         estimate D2E/DX2                !
 ! R8    R(4,17)                 0.9602         estimate D2E/DX2                !
 ! R9    R(5,6)                  1.5017         estimate D2E/DX2                !
 ! R10   R(5,14)                 0.9603         estimate D2E/DX2                !
 ! R11   R(5,15)                 0.9591         estimate D2E/DX2                !
 ! R12   R(6,7)                  1.2933         estimate D2E/DX2                !
 ! R13   R(6,10)                 1.4896         estimate D2E/DX2                !
 ! R14   R(7,8)                  1.2564         estimate D2E/DX2                !
 ! R15   R(7,9)                  1.2637         estimate D2E/DX2                !
 ! R16   R(10,12)                0.9598         estimate D2E/DX2                !
 ! R17   R(10,13)                0.96           estimate D2E/DX2                !
 ! A1    A(2,1,4)              121.9068         estimate D2E/DX2                !
 ! A2    A(2,1,10)             115.8174         estimate D2E/DX2                !
 ! A3    A(4,1,10)             117.7525         estimate D2E/DX2                !
 ! A4    A(1,2,3)              115.7632         estimate D2E/DX2                !
 ! A5    A(1,2,11)             112.258          estimate D2E/DX2                !
 ! A6    A(3,2,11)             131.8787         estimate D2E/DX2                !
 ! A7    A(1,4,5)              101.1495         estimate D2E/DX2                !
 ! A8    A(1,4,16)             111.4933         estimate D2E/DX2                !
 ! A9    A(1,4,17)             111.6663         estimate D2E/DX2                !
 ! A10   A(5,4,16)             111.1124         estimate D2E/DX2                !
 ! A11   A(5,4,17)             111.6672         estimate D2E/DX2                !
 ! A12   A(16,4,17)            109.5593         estimate D2E/DX2                !
 ! A13   A(4,5,6)              105.0411         estimate D2E/DX2                !
 ! A14   A(4,5,14)             110.8037         estimate D2E/DX2                !
 ! A15   A(4,5,15)             110.7621         estimate D2E/DX2                !
 ! A16   A(6,5,14)             110.4677         estimate D2E/DX2                !
 ! A17   A(6,5,15)             110.2036         estimate D2E/DX2                !
 ! A18   A(14,5,15)            109.4987         estimate D2E/DX2                !
 ! A19   A(5,6,7)              121.5401         estimate D2E/DX2                !
 ! A20   A(5,6,10)             111.9305         estimate D2E/DX2                !
 ! A21   A(7,6,10)             119.1503         estimate D2E/DX2                !
 ! A22   A(6,7,8)              118.2791         estimate D2E/DX2                !
 ! A23   A(6,7,9)              116.112          estimate D2E/DX2                !
 ! A24   A(8,7,9)              125.5785         estimate D2E/DX2                !
 ! A25   A(1,10,6)              97.1877         estimate D2E/DX2                !
 ! A26   A(1,10,12)            112.6464         estimate D2E/DX2                !
 ! A27   A(1,10,13)            112.4015         estimate D2E/DX2                !
 ! A28   A(6,10,12)            112.6066         estimate D2E/DX2                !
 ! A29   A(6,10,13)            112.1322         estimate D2E/DX2                !
 ! A30   A(12,10,13)           109.4769         estimate D2E/DX2                !
 ! D1    D(4,1,2,3)            -10.4453         estimate D2E/DX2                !
 ! D2    D(4,1,2,11)           166.3538         estimate D2E/DX2                !
 ! D3    D(10,1,2,3)          -166.0292         estimate D2E/DX2                !
 ! D4    D(10,1,2,11)           10.7699         estimate D2E/DX2                !
 ! D5    D(2,1,4,5)           -175.4617         estimate D2E/DX2                !
 ! D6    D(2,1,4,16)            66.3627         estimate D2E/DX2                !
 ! D7    D(2,1,4,17)           -56.5656         estimate D2E/DX2                !
 ! D8    D(10,1,4,5)           -20.326          estimate D2E/DX2                !
 ! D9    D(10,1,4,16)         -138.5015         estimate D2E/DX2                !
 ! D10   D(10,1,4,17)           98.5701         estimate D2E/DX2                !
 ! D11   D(2,1,10,6)           162.2852         estimate D2E/DX2                !
 ! D12   D(2,1,10,12)           44.0931         estimate D2E/DX2                !
 ! D13   D(2,1,10,13)          -80.1529         estimate D2E/DX2                !
 ! D14   D(4,1,10,6)             5.6459         estimate D2E/DX2                !
 ! D15   D(4,1,10,12)         -112.5462         estimate D2E/DX2                !
 ! D16   D(4,1,10,13)          123.2078         estimate D2E/DX2                !
 ! D17   D(1,4,5,6)             25.1905         estimate D2E/DX2                !
 ! D18   D(1,4,5,14)           -94.1129         estimate D2E/DX2                !
 ! D19   D(1,4,5,15)           144.1583         estimate D2E/DX2                !
 ! D20   D(16,4,5,6)           143.6417         estimate D2E/DX2                !
 ! D21   D(16,4,5,14)           24.3383         estimate D2E/DX2                !
 ! D22   D(16,4,5,15)          -97.3905         estimate D2E/DX2                !
 ! D23   D(17,4,5,6)           -93.705          estimate D2E/DX2                !
 ! D24   D(17,4,5,14)          146.9916         estimate D2E/DX2                !
 ! D25   D(17,4,5,15)           25.2629         estimate D2E/DX2                !
 ! D26   D(4,5,6,7)           -174.557          estimate D2E/DX2                !
 ! D27   D(4,5,6,10)           -24.8761         estimate D2E/DX2                !
 ! D28   D(14,5,6,7)           -55.0292         estimate D2E/DX2                !
 ! D29   D(14,5,6,10)           94.6517         estimate D2E/DX2                !
 ! D30   D(15,5,6,7)            66.1013         estimate D2E/DX2                !
 ! D31   D(15,5,6,10)         -144.2179         estimate D2E/DX2                !
 ! D32   D(5,6,7,8)            167.9117         estimate D2E/DX2                !
 ! D33   D(5,6,7,9)            -10.1968         estimate D2E/DX2                !
 ! D34   D(10,6,7,8)            20.3369         estimate D2E/DX2                !
 ! D35   D(10,6,7,9)          -157.7716         estimate D2E/DX2                !
 ! D36   D(5,6,10,1)            11.9208         estimate D2E/DX2                !
 ! D37   D(5,6,10,12)          130.1439         estimate D2E/DX2                !
 ! D38   D(5,6,10,13)         -105.8515         estimate D2E/DX2                !
 ! D39   D(7,6,10,1)           162.4068         estimate D2E/DX2                !
 ! D40   D(7,6,10,12)          -79.3701         estimate D2E/DX2                !
 ! D41   D(7,6,10,13)           44.6345         estimate D2E/DX2                !
 --------------------------------------------------------------------------------
 Trust Radius=3.00D-01 FncErr=1.00D-07 GrdErr=1.00D-06
 Number of steps in this run=     98 maximum allowed number of steps=    102.
 GradGradGradGradGradGradGradGradGradGradGradGradGradGradGradGradGradGrad

 Leave Link  103 at Fri Aug 20 15:35:15 2021, MaxMem= 24159191040 cpu:         0.5
 (Enter /public/home/users/caep010/software/Gaussian09/g09/l202.exe)
                          Input orientation:                          
 ---------------------------------------------------------------------
 Center     Atomic      Atomic             Coordinates (Angstroms)
 Number     Number       Type             X           Y           Z
 ---------------------------------------------------------------------
      1          7           0        0.210400    6.138300   12.469300
      2          7           0       -0.123200    5.197700   11.469300
      3          8           0        0.792600    4.633200   10.965200
      4          6           0        1.549300    6.238600   13.008800
      5          6           0        1.356300    7.252200   14.065200
      6          7           0       -0.095900    7.157400   14.435600
      7          7           0       -0.636700    7.984600   15.269800
      8          8           0       -1.889500    8.002000   15.363200
      9          8           0        0.158100    8.738800   15.899500
     10          6           0       -0.919100    6.607000   13.322800
     11          8           0       -1.368300    5.073500   11.327600
     12          1           0       -1.490400    5.889800   13.606300
     13          1           0       -1.445700    7.284900   12.892900
     14          1           0        1.562400    8.130700   13.736700
     15          1           0        1.905800    7.058200   14.827000
     16          1           0        2.173000    6.543800   12.346900
     17          1           0        1.849100    5.401500   13.371200
 ---------------------------------------------------------------------
                    Distance matrix (angstroms):
                    1          2          3          4          5
     1  N    0.000000
     2  N    1.412805   0.000000
     3  O    2.206037   1.188052   0.000000
     4  C    1.446988   2.500158   2.706696   0.000000
     5  C    2.258486   3.626098   4.097184   1.476691   0.000000
     6  N    2.235782   3.555293   4.382316   2.363606   1.501688
     7  N    3.459654   4.740706   5.639536   3.597115   2.441213
     8  O    4.032073   5.113352   6.155069   4.525276   3.575223
     9  O    4.304835   5.678485   6.450260   4.067258   2.647701
    10  C    1.491279   2.460700   3.519102   2.515415   2.478888
    11  O    2.220264   1.259277   2.234880   3.563184   4.434482
    12  H    2.060884   2.629640   3.710329   3.117442   3.189110
    13  H    2.058348   2.851674   3.969575   3.174618   3.037525
    14  H    2.721004   4.072449   4.528389   2.027326   0.960287
    15  H    3.046202   4.341941   4.693968   2.026003   0.959127
    16  H    2.007788   2.802624   2.732214   0.959302   2.030119
    17  H    2.010382   2.747494   2.737757   0.960182   2.037051
                    6          7          8          9         10
     6  N    0.000000
     7  N    1.293296   0.000000
     8  O    2.188788   1.256397   0.000000
     9  O    2.169872   1.263743   2.241240   0.000000
    10  C    1.489605   2.401737   2.655359   3.513448   0.000000
    11  O    3.952380   4.954865   5.013365   6.055294   2.556213
    12  H    2.058927   2.807886   2.776215   4.011623   0.959756
    13  H    2.053811   2.606476   2.610282   3.704814   0.960036
    14  H    2.045906   2.684731   3.818073   2.649443   2.941227
    15  H    2.042018   2.742006   3.947477   2.651250   3.232067
    16  H    3.144373   4.302751   5.265769   4.636681   3.243063
    17  H    2.828278   4.056635   4.970694   4.515457   3.019686
                   11         12         13         14         15
    11  O    0.000000
    12  H    2.423577   0.000000
    13  H    2.710433   1.567559   0.000000
    14  H    4.872293   3.789225   3.236671   0.000000
    15  H    5.186961   3.793342   3.876169   1.567461   0.000000
    16  H    3.967564   3.928652   3.733944   2.196048   2.546939
    17  H    3.825643   3.383189   3.825137   2.768451   2.206178
                   16         17
    16  H    0.000000
    17  H    1.568104   0.000000
 Stoichiometry    C3H6N4O4
 Framework group  C1[X(C3H6N4O4)]
 Deg. of freedom    45
 Full point group                 C1      NOp   1
 Largest Abelian subgroup         C1      NOp   1
 Largest concise Abelian subgroup C1      NOp   1
                         Standard orientation:                         
 ---------------------------------------------------------------------
 Center     Atomic      Atomic             Coordinates (Angstroms)
 Number     Number       Type             X           Y           Z
 ---------------------------------------------------------------------
      1          7           0       -1.083147    0.174016    0.178472
      2          7           0       -2.405169   -0.307534    0.050472
      3          8           0       -3.243860    0.520195   -0.100948
      4          6           0       -0.742497    1.554259   -0.091084
      5          6           0        0.725288    1.522365    0.067677
      6          7           0        1.116828    0.100077   -0.213145
      7          7           0        2.334225   -0.309101   -0.061051
      8          8           0        2.554082   -1.545849   -0.086573
      9          8           0        3.201568    0.587901    0.139327
     10          6           0       -0.004255   -0.846615    0.043503
     11          8           0       -2.457200   -1.565721    0.056558
     12          1           0       -0.154191   -1.448185   -0.689139
     13          1           0        0.125506   -1.350701    0.850182
     14          1           0        0.977212    1.769946    0.960644
     15          1           0        1.147997    2.112281   -0.559413
     16          1           0       -1.146189    2.146831    0.546216
     17          1           0       -0.997424    1.815368   -0.979219
 ---------------------------------------------------------------------
 Rotational constants (GHZ):      2.7914365      0.6759425      0.5509468
 Leave Link  202 at Fri Aug 20 15:35:15 2021, MaxMem= 24159191040 cpu:         0.4
 (Enter /public/home/users/caep010/software/Gaussian09/g09/l301.exe)
 Standard basis: 6-31G(d,p) (6D, 7F)
 Ernie: Thresh=  0.10000D-02 Tol=  0.10000D-05 Strict=F.
 There are   195 symmetry adapted cartesian basis functions of A   symmetry.
 There are   195 symmetry adapted basis functions of A   symmetry.
   195 basis functions,   350 primitive gaussians,   195 cartesian basis functions
    42 alpha electrons       42 beta electrons
       nuclear repulsion energy       670.5718396303 Hartrees.
 IExCor=  402 DFT=T Ex+Corr=B3LYP ExCW=0 ScaHFX=  0.200000
 ScaDFX=  0.800000  0.720000  1.000000  0.810000 ScalE2=  1.000000  1.000000
 IRadAn=      0 IRanWt=     -1 IRanGd=            0 ICorTp=0 IEmpDi=  4
 NAtoms=   17 NActive=   17 NUniq=   17 SFac= 1.00D+00 NAtFMM=   60 NAOKFM=F Big=F
 Integral buffers will be    131072 words long.
 Raffenetti 2 integral format.
 Two-electron integral symmetry is turned on.
 Leave Link  301 at Fri Aug 20 15:35:15 2021, MaxMem= 24159191040 cpu:         2.2
 (Enter /public/home/users/caep010/software/Gaussian09/g09/l302.exe)
 NPDir=0 NMtPBC=     1 NCelOv=     1 NCel=       1 NClECP=     1 NCelD=      1
         NCelK=      1 NCelE2=     1 NClLst=     1 CellRange=     0.0.
 One-electron integrals computed using PRISM.
 NBasis=   195 RedAO= T EigKep=  1.80D-03  NBF=   195
 NBsUse=   195 1.00D-06 EigRej= -1.00D+00 NBFU=   195
 Precomputing XC quadrature grid using
 IXCGrd= 4 IRadAn=           0 IRanWt=          -1 IRanGd=           0 AccXCQ= 0.00D+00.
 Generated NRdTot=       0 NPtTot=           0 NUsed=           0 NTot=          32
 NSgBfM=   195   195   195   195   195 MxSgAt=    17 MxSgA2=    17.
 Leave Link  302 at Fri Aug 20 15:35:15 2021, MaxMem= 24159191040 cpu:        12.0
 (Enter /public/home/users/caep010/software/Gaussian09/g09/l303.exe)
 DipDrv:  MaxL=1.
 Leave Link  303 at Fri Aug 20 15:35:15 2021, MaxMem= 24159191040 cpu:         0.7
 (Enter /public/home/users/caep010/software/Gaussian09/g09/l401.exe)
 ExpMin= 1.61D-01 ExpMax= 5.48D+03 ExpMxC= 8.25D+02 IAcc=1 IRadAn=         1 AccDes= 0.00D+00
 Harris functional with IExCor=  402 and IRadAn=       1 diagonalized for initial guess.
 HarFok:  IExCor=  402 AccDes= 0.00D+00 IRadAn=         1 IDoV= 1 UseB2=F ITyADJ=14
 ICtDFT=  3500011 ScaDFX=  1.000000  1.000000  1.000000  1.000000
 FoFCou: FMM=F IPFlag=           0 FMFlag=      100000 FMFlg1=           0
         NFxFlg=           0 DoJE=T BraDBF=F KetDBF=T FulRan=T
         wScrn=  0.000000 ICntrl=     500 IOpCl=  0 I1Cent=   200000004 NGrid=           0
         NMat0=    1 NMatS0=      1 NMatT0=    0 NMatD0=    1 NMtDS0=    0 NMtDT0=    0
 Petite list used in FoFCou.
 Harris En= -637.586240884879    
 JPrj=0 DoOrth=F DoCkMO=F.
 Leave Link  401 at Fri Aug 20 15:35:16 2021, MaxMem= 24159191040 cpu:        11.5
 (Enter /public/home/users/caep010/software/Gaussian09/g09/l502.exe)
 Closed shell SCF:
 Using DIIS extrapolation, IDIIS=  1040.
 Integral symmetry usage will be decided dynamically.
 Keep R1 ints in memory in canonical form, NReq=186510601.
 IVT=      140326 IEndB=      140326 NGot= 24159191040 MDV= 23976445110
 LenX= 23976445110 LenY= 23976406644
 Requested convergence on RMS density matrix=1.00D-08 within 128 cycles.
 Requested convergence on MAX density matrix=1.00D-06.
 Requested convergence on             energy=1.00D-06.
 No special actions if energy rises.
 FoFCou: FMM=F IPFlag=           0 FMFlag=           0 FMFlg1=           0
         NFxFlg=           0 DoJE=F BraDBF=F KetDBF=F FulRan=T
         wScrn=  0.000000 ICntrl=     600 IOpCl=  0 I1Cent=           0 NGrid=           0
         NMat0=    1 NMatS0=  19110 NMatT0=    0 NMatD0=    1 NMtDS0=    0 NMtDT0=    0
 Symmetry not used in FoFCou.
 Integral accuracy reduced to 1.0D-05 until final iterations.

 Cycle   1  Pass 0  IDiag  1:
 E= -637.026078662272    
 DIIS: error= 4.68D-02 at cycle   1 NSaved=   1.
 NSaved= 1 IEnMin= 1 EnMin= -637.026078662272     IErMin= 1 ErrMin= 4.68D-02
 ErrMax= 4.68D-02  0.00D+00 EMaxC= 1.00D-01 BMatC= 6.20D-01 BMatP= 6.20D-01
 IDIUse=3 WtCom= 5.32D-01 WtEn= 4.68D-01
 Coeff-Com:  0.100D+01
 Coeff-En:   0.100D+01
 Coeff:      0.100D+01
 Gap=     0.194 Goal=   None    Shift=    0.000
 GapD=    0.194 DampG=1.000 DampE=0.500 DampFc=0.5000 IDamp=-1.
 Damping current iteration by 5.00D-01
 RMSDP=8.87D-03 MaxDP=2.92D-01              OVMax= 3.11D-01

 Cycle   2  Pass 0  IDiag  1:
 E= -637.031528385345     Delta-E=       -0.005449723074 Rises=F Damp=T
 DIIS: error= 1.62D-02 at cycle   2 NSaved=   2.
 NSaved= 2 IEnMin= 2 EnMin= -637.031528385345     IErMin= 2 ErrMin= 1.62D-02
 ErrMax= 1.62D-02  0.00D+00 EMaxC= 1.00D-01 BMatC= 1.85D-01 BMatP= 6.20D-01
 IDIUse=3 WtCom= 8.38D-01 WtEn= 1.62D-01
 Coeff-Com:  0.332D+00 0.668D+00
 Coeff-En:   0.496D+00 0.504D+00
 Coeff:      0.359D+00 0.641D+00
 Gap=     0.191 Goal=   None    Shift=    0.000
 RMSDP=2.80D-03 MaxDP=1.09D-01 DE=-5.45D-03 OVMax= 2.65D-01

 Cycle   3  Pass 0  IDiag  1:
 E= -637.454728854455     Delta-E=       -0.423200469110 Rises=F Damp=F
 DIIS: error= 1.09D-02 at cycle   3 NSaved=   3.
 NSaved= 3 IEnMin= 3 EnMin= -637.454728854455     IErMin= 3 ErrMin= 1.09D-02
 ErrMax= 1.09D-02  0.00D+00 EMaxC= 1.00D-01 BMatC= 4.04D-02 BMatP= 1.85D-01
 IDIUse=3 WtCom= 8.91D-01 WtEn= 1.09D-01
 Coeff-Com:  0.158D+00 0.337D+00 0.505D+00
 Coeff-En:   0.000D+00 0.000D+00 0.100D+01
 Coeff:      0.141D+00 0.300D+00 0.559D+00
 Gap=     0.248 Goal=   None    Shift=    0.000
 RMSDP=1.61D-03 MaxDP=5.06D-02 DE=-4.23D-01 OVMax= 1.14D-01

 Cycle   4  Pass 0  IDiag  1:
 E= -637.472379266598     Delta-E=       -0.017650412143 Rises=F Damp=F
 DIIS: error= 1.17D-02 at cycle   4 NSaved=   4.
 NSaved= 4 IEnMin= 4 EnMin= -637.472379266598     IErMin= 3 ErrMin= 1.09D-02
 ErrMax= 1.17D-02  0.00D+00 EMaxC= 1.00D-01 BMatC= 2.38D-02 BMatP= 4.04D-02
 IDIUse=3 WtCom= 8.83D-01 WtEn= 1.17D-01
 Coeff-Com:  0.507D-01 0.983D-01 0.408D+00 0.443D+00
 Coeff-En:   0.000D+00 0.000D+00 0.374D+00 0.626D+00
 Coeff:      0.448D-01 0.868D-01 0.404D+00 0.464D+00
 Gap=     0.223 Goal=   None    Shift=    0.000
 RMSDP=7.72D-04 MaxDP=3.38D-02 DE=-1.77D-02 OVMax= 6.16D-02

 Cycle   5  Pass 0  IDiag  1:
 E= -637.490316847064     Delta-E=       -0.017937580466 Rises=F Damp=F
 DIIS: error= 4.73D-03 at cycle   5 NSaved=   5.
 NSaved= 5 IEnMin= 5 EnMin= -637.490316847064     IErMin= 5 ErrMin= 4.73D-03
 ErrMax= 4.73D-03  0.00D+00 EMaxC= 1.00D-01 BMatC= 1.97D-03 BMatP= 2.38D-02
 IDIUse=3 WtCom= 9.53D-01 WtEn= 4.73D-02
 Coeff-Com:  0.166D-01 0.247D-01 0.204D+00 0.294D+00 0.461D+00
 Coeff-En:   0.000D+00 0.000D+00 0.000D+00 0.212D-01 0.979D+00
 Coeff:      0.159D-01 0.236D-01 0.194D+00 0.281D+00 0.485D+00
 Gap=     0.224 Goal=   None    Shift=    0.000
 RMSDP=2.81D-04 MaxDP=1.24D-02 DE=-1.79D-02 OVMax= 2.58D-02

 Cycle   6  Pass 0  IDiag  1:
 E= -637.491432509620     Delta-E=       -0.001115662556 Rises=F Damp=F
 DIIS: error= 2.43D-03 at cycle   6 NSaved=   6.
 NSaved= 6 IEnMin= 6 EnMin= -637.491432509620     IErMin= 6 ErrMin= 2.43D-03
 ErrMax= 2.43D-03  0.00D+00 EMaxC= 1.00D-01 BMatC= 6.11D-04 BMatP= 1.97D-03
 IDIUse=3 WtCom= 9.76D-01 WtEn= 2.43D-02
 Coeff-Com:  0.241D-02-0.130D-03 0.706D-01 0.122D+00 0.367D+00 0.439D+00
 Coeff-En:   0.000D+00 0.000D+00 0.000D+00 0.000D+00 0.278D+00 0.722D+00
 Coeff:      0.235D-02-0.127D-03 0.688D-01 0.119D+00 0.365D+00 0.445D+00
 Gap=     0.225 Goal=   None    Shift=    0.000
 RMSDP=1.12D-04 MaxDP=4.96D-03 DE=-1.12D-03 OVMax= 9.78D-03

 Cycle   7  Pass 0  IDiag  1:
 E= -637.491911909941     Delta-E=       -0.000479400321 Rises=F Damp=F
 DIIS: error= 1.41D-04 at cycle   7 NSaved=   7.
 NSaved= 7 IEnMin= 7 EnMin= -637.491911909941     IErMin= 7 ErrMin= 1.41D-04
 ErrMax= 1.41D-04  0.00D+00 EMaxC= 1.00D-01 BMatC= 1.75D-05 BMatP= 6.11D-04
 IDIUse=3 WtCom= 9.99D-01 WtEn= 1.41D-03
 Coeff-Com: -0.121D-03-0.201D-02 0.208D-01 0.380D-01 0.154D+00 0.240D+00
 Coeff-Com:  0.549D+00
 Coeff-En:   0.000D+00 0.000D+00 0.000D+00 0.000D+00 0.000D+00 0.000D+00
 Coeff-En:   0.100D+01
 Coeff:     -0.121D-03-0.201D-02 0.207D-01 0.379D-01 0.154D+00 0.240D+00
 Coeff:      0.550D+00
 Gap=     0.225 Goal=   None    Shift=    0.000
 RMSDP=1.67D-05 MaxDP=6.66D-04 DE=-4.79D-04 OVMax= 7.08D-04

 Cycle   8  Pass 0  IDiag  1:
 E= -637.491924798428     Delta-E=       -0.000012888486 Rises=F Damp=F
 DIIS: error= 4.27D-05 at cycle   8 NSaved=   8.
 NSaved= 8 IEnMin= 8 EnMin= -637.491924798428     IErMin= 8 ErrMin= 4.27D-05
 ErrMax= 4.27D-05  0.00D+00 EMaxC= 1.00D-01 BMatC= 7.27D-07 BMatP= 1.75D-05
 IDIUse=1 WtCom= 1.00D+00 WtEn= 0.00D+00
 Coeff-Com: -0.224D-03-0.950D-03 0.412D-02 0.694D-02 0.421D-01 0.782D-01
 Coeff-Com:  0.234D+00 0.636D+00
 Coeff:     -0.224D-03-0.950D-03 0.412D-02 0.694D-02 0.421D-01 0.782D-01
 Coeff:      0.234D+00 0.636D+00
 Gap=     0.225 Goal=   None    Shift=    0.000
 RMSDP=6.24D-06 MaxDP=2.65D-04 DE=-1.29D-05 OVMax= 4.62D-04

 Initial convergence to 1.0D-05 achieved.  Increase integral accuracy.
 Cycle   9  Pass 1  IDiag  1:
 E= -637.491973033161     Delta-E=       -0.000048234734 Rises=F Damp=F
 DIIS: error= 6.82D-05 at cycle   1 NSaved=   1.
 NSaved= 1 IEnMin= 1 EnMin= -637.491973033161     IErMin= 1 ErrMin= 6.82D-05
 ErrMax= 6.82D-05  0.00D+00 EMaxC= 1.00D-01 BMatC= 4.75D-07 BMatP= 4.75D-07
 IDIUse=1 WtCom= 1.00D+00 WtEn= 0.00D+00
 Coeff-Com:  0.100D+01
 Coeff:      0.100D+01
 Gap=     0.225 Goal=   None    Shift=    0.000
 RMSDP=6.24D-06 MaxDP=2.65D-04 DE=-4.82D-05 OVMax= 9.92D-04

 Cycle  10  Pass 1  IDiag  1:
 E= -637.491970940956     Delta-E=        0.000002092205 Rises=F Damp=F
 DIIS: error= 1.90D-04 at cycle   2 NSaved=   2.
 NSaved= 2 IEnMin= 1 EnMin= -637.491973033161     IErMin= 1 ErrMin= 6.82D-05
 ErrMax= 1.90D-04  0.00D+00 EMaxC= 1.00D-01 BMatC= 3.13D-06 BMatP= 4.75D-07
 IDIUse=3 WtCom= 4.20D-01 WtEn= 5.80D-01
 Coeff-Com:  0.727D+00 0.273D+00
 Coeff-En:   0.808D+00 0.192D+00
 Coeff:      0.774D+00 0.226D+00
 Gap=     0.225 Goal=   None    Shift=    0.000
 RMSDP=6.37D-06 MaxDP=2.94D-04 DE= 2.09D-06 OVMax= 6.05D-04

 Cycle  11  Pass 1  IDiag  1:
 E= -637.491973385825     Delta-E=       -0.000002444869 Rises=F Damp=F
 DIIS: error= 2.52D-05 at cycle   3 NSaved=   3.
 NSaved= 3 IEnMin= 3 EnMin= -637.491973385825     IErMin= 3 ErrMin= 2.52D-05
 ErrMax= 2.52D-05  0.00D+00 EMaxC= 1.00D-01 BMatC= 6.69D-08 BMatP= 4.75D-07
 IDIUse=1 WtCom= 1.00D+00 WtEn= 0.00D+00
 Coeff-Com:  0.150D+00-0.738D-01 0.923D+00
 Coeff:      0.150D+00-0.738D-01 0.923D+00
 Gap=     0.225 Goal=   None    Shift=    0.000
 RMSDP=1.35D-06 MaxDP=5.11D-05 DE=-2.44D-06 OVMax= 9.30D-05

 Cycle  12  Pass 1  IDiag  1:
 E= -637.491973431185     Delta-E=       -0.000000045360 Rises=F Damp=F
 DIIS: error= 4.26D-06 at cycle   4 NSaved=   4.
 NSaved= 4 IEnMin= 4 EnMin= -637.491973431185     IErMin= 4 ErrMin= 4.26D-06
 ErrMax= 4.26D-06  0.00D+00 EMaxC= 1.00D-01 BMatC= 1.07D-08 BMatP= 6.69D-08
 IDIUse=1 WtCom= 1.00D+00 WtEn= 0.00D+00
 Coeff-Com:  0.487D-02-0.871D-01 0.631D+00 0.451D+00
 Coeff:      0.487D-02-0.871D-01 0.631D+00 0.451D+00
 Gap=     0.225 Goal=   None    Shift=    0.000
 RMSDP=5.36D-07 MaxDP=2.67D-05 DE=-4.54D-08 OVMax= 4.18D-05

 Cycle  13  Pass 1  IDiag  1:
 E= -637.491973439595     Delta-E=       -0.000000008410 Rises=F Damp=F
 DIIS: error= 1.60D-06 at cycle   5 NSaved=   5.
 NSaved= 5 IEnMin= 5 EnMin= -637.491973439595     IErMin= 5 ErrMin= 1.60D-06
 ErrMax= 1.60D-06  0.00D+00 EMaxC= 1.00D-01 BMatC= 7.06D-10 BMatP= 1.07D-08
 IDIUse=1 WtCom= 1.00D+00 WtEn= 0.00D+00
 Coeff-Com: -0.109D-01-0.474D-01 0.308D+00 0.274D+00 0.476D+00
 Coeff:     -0.109D-01-0.474D-01 0.308D+00 0.274D+00 0.476D+00
 Gap=     0.225 Goal=   None    Shift=    0.000
 RMSDP=1.38D-07 MaxDP=6.62D-06 DE=-8.41D-09 OVMax= 8.86D-06

 Cycle  14  Pass 1  IDiag  1:
 E= -637.491973440098     Delta-E=       -0.000000000503 Rises=F Damp=F
 DIIS: error= 5.46D-07 at cycle   6 NSaved=   6.
 NSaved= 6 IEnMin= 6 EnMin= -637.491973440098     IErMin= 6 ErrMin= 5.46D-07
 ErrMax= 5.46D-07  0.00D+00 EMaxC= 1.00D-01 BMatC= 7.26D-11 BMatP= 7.06D-10
 IDIUse=1 WtCom= 1.00D+00 WtEn= 0.00D+00
 Coeff-Com: -0.718D-02-0.251D-01 0.159D+00 0.149D+00 0.315D+00 0.409D+00
 Coeff:     -0.718D-02-0.251D-01 0.159D+00 0.149D+00 0.315D+00 0.409D+00
 Gap=     0.225 Goal=   None    Shift=    0.000
 RMSDP=4.07D-08 MaxDP=1.76D-06 DE=-5.03D-10 OVMax= 3.20D-06

 Cycle  15  Pass 1  IDiag  1:
 E= -637.491973440144     Delta-E=       -0.000000000046 Rises=F Damp=F
 DIIS: error= 2.15D-07 at cycle   7 NSaved=   7.
 NSaved= 7 IEnMin= 7 EnMin= -637.491973440144     IErMin= 7 ErrMin= 2.15D-07
 ErrMax= 2.15D-07  0.00D+00 EMaxC= 1.00D-01 BMatC= 5.53D-12 BMatP= 7.26D-11
 IDIUse=1 WtCom= 1.00D+00 WtEn= 0.00D+00
 Coeff-Com: -0.309D-02-0.931D-02 0.579D-01 0.554D-01 0.137D+00 0.248D+00
 Coeff-Com:  0.514D+00
 Coeff:     -0.309D-02-0.931D-02 0.579D-01 0.554D-01 0.137D+00 0.248D+00
 Coeff:      0.514D+00
 Gap=     0.225 Goal=   None    Shift=    0.000
 RMSDP=1.44D-08 MaxDP=6.90D-07 DE=-4.62D-11 OVMax= 1.23D-06

 Cycle  16  Pass 1  IDiag  1:
 E= -637.491973440150     Delta-E=       -0.000000000006 Rises=F Damp=F
 DIIS: error= 1.35D-07 at cycle   8 NSaved=   8.
 NSaved= 8 IEnMin= 8 EnMin= -637.491973440150     IErMin= 8 ErrMin= 1.35D-07
 ErrMax= 1.35D-07  0.00D+00 EMaxC= 1.00D-01 BMatC= 1.76D-12 BMatP= 5.53D-12
 IDIUse=1 WtCom= 1.00D+00 WtEn= 0.00D+00
 Coeff-Com: -0.450D-03-0.679D-03 0.343D-02 0.384D-02 0.244D-01 0.799D-01
 Coeff-Com:  0.377D+00 0.512D+00
 Coeff:     -0.450D-03-0.679D-03 0.343D-02 0.384D-02 0.244D-01 0.799D-01
 Coeff:      0.377D+00 0.512D+00
 Gap=     0.225 Goal=   None    Shift=    0.000
 RMSDP=6.31D-09 MaxDP=3.33D-07 DE=-6.14D-12 OVMax= 5.67D-07

 SCF Done:  E(RB3LYP) =  -637.491973440     A.U. after   16 cycles
            NFock= 16  Conv=0.63D-08     -V/T= 2.0066
 KE= 6.333178544462D+02 PE=-2.832818110516D+03 EE= 8.914364429998D+02
 Leave Link  502 at Fri Aug 20 15:35:23 2021, MaxMem= 24159191040 cpu:       100.6
 (Enter /public/home/users/caep010/software/Gaussian09/g09/l601.exe)
 Copying SCF densities to generalized density rwf, IOpCl= 0 IROHF=0.

 **********************************************************************

            Population analysis using the SCF density.

 **********************************************************************

 Orbital symmetries:
       Occupied  (A) (A) (A) (A) (A) (A) (A) (A) (A) (A) (A) (A)
                 (A) (A) (A) (A) (A) (A) (A) (A) (A) (A) (A) (A)
                 (A) (A) (A) (A) (A) (A) (A) (A) (A) (A) (A) (A)
                 (A) (A) (A) (A) (A) (A)
       Virtual   (A) (A) (A) (A) (A) (A) (A) (A) (A) (A) (A) (A)
                 (A) (A) (A) (A) (A) (A) (A) (A) (A) (A) (A) (A)
                 (A) (A) (A) (A) (A) (A) (A) (A) (A) (A) (A) (A)
                 (A) (A) (A) (A) (A) (A) (A) (A) (A) (A) (A) (A)
                 (A) (A) (A) (A) (A) (A) (A) (A) (A) (A) (A) (A)
                 (A) (A) (A) (A) (A) (A) (A) (A) (A) (A) (A) (A)
                 (A) (A) (A) (A) (A) (A) (A) (A) (A) (A) (A) (A)
                 (A) (A) (A) (A) (A) (A) (A) (A) (A) (A) (A) (A)
                 (A) (A) (A) (A) (A) (A) (A) (A) (A) (A) (A) (A)
                 (A) (A) (A) (A) (A) (A) (A) (A) (A) (A) (A) (A)
                 (A) (A) (A) (A) (A) (A) (A) (A) (A) (A) (A) (A)
                 (A) (A) (A) (A) (A) (A) (A) (A) (A) (A) (A) (A)
                 (A) (A) (A) (A) (A) (A) (A) (A) (A)
 The electronic state is 1-A.
 Alpha  occ. eigenvalues --  -19.21369 -19.19462 -19.18219 -19.17764 -14.62327
 Alpha  occ. eigenvalues --  -14.60682 -14.44700 -14.43287 -10.28713 -10.25290
 Alpha  occ. eigenvalues --  -10.24921  -1.26926  -1.24237  -1.08953  -1.04675
 Alpha  occ. eigenvalues --   -1.04056  -0.97124  -0.85949  -0.80710  -0.73593
 Alpha  occ. eigenvalues --   -0.66508  -0.62985  -0.60293  -0.58668  -0.56780
 Alpha  occ. eigenvalues --   -0.55764  -0.54777  -0.54198  -0.53066  -0.50777
 Alpha  occ. eigenvalues --   -0.48949  -0.46478  -0.46193  -0.45899  -0.34469
 Alpha  occ. eigenvalues --   -0.33489  -0.32738  -0.31762  -0.30973  -0.30723
 Alpha  occ. eigenvalues --   -0.29741  -0.29082
 Alpha virt. eigenvalues --   -0.06621  -0.05839   0.06411   0.07483   0.07874
 Alpha virt. eigenvalues --    0.11019   0.13060   0.13697   0.15747   0.16038
 Alpha virt. eigenvalues --    0.18106   0.18682   0.21264   0.21735   0.23225
 Alpha virt. eigenvalues --    0.24441   0.31225   0.34073   0.36511   0.42184
 Alpha virt. eigenvalues --    0.46992   0.47842   0.49762   0.50924   0.51924
 Alpha virt. eigenvalues --    0.58122   0.60080   0.60875   0.62584   0.65479
 Alpha virt. eigenvalues --    0.67740   0.68417   0.69094   0.74057   0.77189
 Alpha virt. eigenvalues --    0.79092   0.80164   0.80789   0.82372   0.83884
 Alpha virt. eigenvalues --    0.84836   0.85325   0.86142   0.87783   0.88626
 Alpha virt. eigenvalues --    0.91812   0.93560   0.95299   0.96171   0.96891
 Alpha virt. eigenvalues --    0.99012   1.00284   1.01312   1.02144   1.03788
 Alpha virt. eigenvalues --    1.05377   1.06396   1.12930   1.14299   1.19823
 Alpha virt. eigenvalues --    1.21217   1.25807   1.28289   1.31771   1.36347
 Alpha virt. eigenvalues --    1.37791   1.38691   1.42166   1.49247   1.53117
 Alpha virt. eigenvalues --    1.56966   1.58962   1.60319   1.64244   1.68173
 Alpha virt. eigenvalues --    1.69080   1.70832   1.72908   1.75582   1.76555
 Alpha virt. eigenvalues --    1.77337   1.78022   1.78654   1.79542   1.81317
 Alpha virt. eigenvalues --    1.82442   1.86286   1.88401   1.91802   1.95076
 Alpha virt. eigenvalues --    1.95813   1.99394   2.00032   2.01453   2.02826
 Alpha virt. eigenvalues --    2.07122   2.08328   2.11074   2.12934   2.14799
 Alpha virt. eigenvalues --    2.16362   2.18574   2.19923   2.27807   2.31763
 Alpha virt. eigenvalues --    2.32709   2.34448   2.39493   2.42416   2.44951
 Alpha virt. eigenvalues --    2.50913   2.55009   2.58495   2.59503   2.62553
 Alpha virt. eigenvalues --    2.63434   2.66957   2.68804   2.69128   2.70477
 Alpha virt. eigenvalues --    2.72408   2.78344   2.81494   2.82231   2.83740
 Alpha virt. eigenvalues --    2.84403   2.85017   2.87032   2.96838   3.02498
 Alpha virt. eigenvalues --    3.04530   3.05141   3.10895   3.16358   3.23040
 Alpha virt. eigenvalues --    3.28435   3.58503   3.60369   3.63860   3.68245
 Alpha virt. eigenvalues --    3.68842   3.72721   3.74117   3.75552   3.80332
 Alpha virt. eigenvalues --    3.82605   3.93064   4.02381   4.04819   4.14547
 Alpha virt. eigenvalues --    4.36687   4.51741   4.65498
          Condensed to atoms (all electrons):
               1          2          3          4          5          6
     1  N    7.225184   0.194724  -0.137771   0.249148  -0.030733  -0.039715
     2  N    0.194724   5.516346   0.355175  -0.025790   0.003121   0.002791
     3  O   -0.137771   0.355175   8.234494   0.014286   0.000924  -0.000079
     4  C    0.249148  -0.025790   0.014286   4.745392   0.335389  -0.028169
     5  C   -0.030733   0.003121   0.000924   0.335389   4.765244   0.249233
     6  N   -0.039715   0.002791  -0.000079  -0.028169   0.249233   7.189431
     7  N    0.003633  -0.000007   0.000000   0.003927  -0.028778   0.163789
     8  O    0.000645  -0.000002   0.000000  -0.000085   0.005014  -0.128386
     9  O   -0.000086   0.000000  -0.000000   0.001587   0.013727  -0.134687
    10  C    0.238560  -0.028497   0.004930  -0.053770  -0.059056   0.221069
    11  O   -0.128779   0.316743  -0.080852   0.005058  -0.000168   0.000804
    12  H   -0.035804  -0.003302   0.000122  -0.000413   0.005918  -0.027550
    13  H   -0.033612  -0.002287  -0.000094   0.005419  -0.001595  -0.040180
    14  H   -0.001707  -0.000113  -0.000010  -0.032091   0.402102  -0.040433
    15  H    0.003325  -0.000080   0.000005  -0.032707   0.408227  -0.030576
    16  H   -0.035967  -0.002896   0.003786   0.407984  -0.028183   0.003238
    17  H   -0.044302  -0.003439   0.004301   0.400583  -0.027813  -0.002162
               7          8          9         10         11         12
     1  N    0.003633   0.000645  -0.000086   0.238560  -0.128779  -0.035804
     2  N   -0.000007  -0.000002   0.000000  -0.028497   0.316743  -0.003302
     3  O    0.000000   0.000000  -0.000000   0.004930  -0.080852   0.000122
     4  C    0.003927  -0.000085   0.001587  -0.053770   0.005058  -0.000413
     5  C   -0.028778   0.005014   0.013727  -0.059056  -0.000168   0.005918
     6  N    0.163789  -0.128386  -0.134687   0.221069   0.000804  -0.027550
     7  N    5.615692   0.324652   0.328705  -0.029830  -0.000002  -0.003236
     8  O    0.324652   8.295155  -0.084438   0.014682   0.000002   0.003438
     9  O    0.328705  -0.084438   8.299489   0.004834   0.000000  -0.000081
    10  C   -0.029830   0.014682   0.004834   4.601020   0.012120   0.403138
    11  O   -0.000002   0.000002   0.000000   0.012120   8.290562   0.009565
    12  H   -0.003236   0.003438  -0.000081   0.403138   0.009565   0.534786
    13  H   -0.000417   0.006305   0.000236   0.407079   0.003065  -0.054083
    14  H   -0.003209   0.000077   0.005633   0.002137   0.000005  -0.000236
    15  H   -0.002910  -0.000024   0.004838   0.004306   0.000003   0.000063
    16  H   -0.000060   0.000001  -0.000003   0.004028  -0.000033  -0.000386
    17  H   -0.000155   0.000003  -0.000014   0.002327   0.000116   0.001030
              13         14         15         16         17
     1  N   -0.033612  -0.001707   0.003325  -0.035967  -0.044302
     2  N   -0.002287  -0.000113  -0.000080  -0.002896  -0.003439
     3  O   -0.000094  -0.000010   0.000005   0.003786   0.004301
     4  C    0.005419  -0.032091  -0.032707   0.407984   0.400583
     5  C   -0.001595   0.402102   0.408227  -0.028183  -0.027813
     6  N   -0.040180  -0.040433  -0.030576   0.003238  -0.002162
     7  N   -0.000417  -0.003209  -0.002910  -0.000060  -0.000155
     8  O    0.006305   0.000077  -0.000024   0.000001   0.000003
     9  O    0.000236   0.005633   0.004838  -0.000003  -0.000014
    10  C    0.407079   0.002137   0.004306   0.004028   0.002327
    11  O    0.003065   0.000005   0.000003  -0.000033   0.000116
    12  H   -0.054083  -0.000236   0.000063  -0.000386   0.001030
    13  H    0.544920   0.001219  -0.000374   0.000209  -0.000307
    14  H    0.001219   0.554195  -0.042530  -0.009430   0.006936
    15  H   -0.000374  -0.042530   0.539149   0.002275  -0.008407
    16  H    0.000209  -0.009430   0.002275   0.556395  -0.051214
    17  H   -0.000307   0.006936  -0.008407  -0.051214   0.576135
 Mulliken charges:
               1
     1  N   -0.426744
     2  N    0.677513
     3  O   -0.399219
     4  C    0.004253
     5  C   -0.012571
     6  N   -0.358418
     7  N    0.628207
     8  O   -0.437037
     9  O   -0.439739
    10  C    0.250923
    11  O   -0.428207
    12  H    0.167030
    13  H    0.164496
    14  H    0.157457
    15  H    0.155417
    16  H    0.150255
    17  H    0.146384
 Sum of Mulliken charges =  -0.00000
 Mulliken charges with hydrogens summed into heavy atoms:
               1
     1  N   -0.426744
     2  N    0.677513
     3  O   -0.399219
     4  C    0.300892
     5  C    0.300302
     6  N   -0.358418
     7  N    0.628207
     8  O   -0.437037
     9  O   -0.439739
    10  C    0.582450
    11  O   -0.428207
 Electronic spatial extent (au):  <R**2>=           1851.6288
 Charge=             -0.0000 electrons
 Dipole moment (field-independent basis, Debye):
    X=             -1.2289    Y=              3.4790    Z=              0.0002  Tot=              3.6897
 Quadrupole moment (field-independent basis, Debye-Ang):
   XX=            -88.2113   YY=            -60.4296   ZZ=            -58.3578
   XY=             -0.2972   XZ=             -0.4992   YZ=             -0.2268
 Traceless Quadrupole moment (field-independent basis, Debye-Ang):
   XX=            -19.2117   YY=              8.5699   ZZ=             10.6418
   XY=             -0.2972   XZ=             -0.4992   YZ=             -0.2268
 Octapole moment (field-independent basis, Debye-Ang**2):
  XXX=            -16.3412  YYY=             15.5057  ZZZ=              0.0689  XYY=             -1.2456
  XXY=              7.9775  XXZ=             -0.7632  XZZ=             -0.6069  YZZ=             -1.1400
  YYZ=              0.0877  XYZ=             -1.5544
 Hexadecapole moment (field-independent basis, Debye-Ang**3):
 XXXX=          -1912.2452 YYYY=           -451.1814 ZZZZ=            -65.1692 XXXY=             -1.0465
 XXXZ=            -15.1375 YYYX=             -0.4608 YYYZ=              0.1512 ZZZX=              2.0961
 ZZZY=             -0.0483 XXYY=           -391.0881 XXZZ=           -266.5217 YYZZ=            -82.9386
 XXYZ=             -0.8675 YYXZ=              0.6026 ZZXY=             -0.0173
 N-N= 6.705718396303D+02 E-N=-2.832818120012D+03  KE= 6.333178544462D+02
 No NMR shielding tensors so no spin-rotation constants.
 Leave Link  601 at Fri Aug 20 15:35:24 2021, MaxMem= 24159191040 cpu:        11.9
 (Enter /public/home/users/caep010/software/Gaussian09/g09/l701.exe)
 Compute integral first derivatives.
 ... and contract with generalized density number  0.
 Leave Link  701 at Fri Aug 20 15:35:24 2021, MaxMem= 24159191040 cpu:        11.1
 (Enter /public/home/users/caep010/software/Gaussian09/g09/l702.exe)
 L702 exits ... SP integral derivatives will be done elsewhere.
 Leave Link  702 at Fri Aug 20 15:35:24 2021, MaxMem= 24159191040 cpu:         0.5
 (Enter /public/home/users/caep010/software/Gaussian09/g09/l703.exe)
 Compute integral first derivatives, UseDBF=F ICtDFT=           0.
 Integral derivatives from FoFJK, PRISM(SPDF).
 Calling FoFJK, ICntrl=      2127 FMM=F ISym2X=0 I1Cent= 0 IOpClX= 0 NMat=1 NMatS=1 NMatT=0.
 FoFJK:  IHMeth= 1 ICntrl=    2127 DoSepK=F KAlg= 0 I1Cent=   0 FoldK=F
 IRaf=         0 NMat=   1 IRICut=       1 DoRegI=T DoRafI=F ISym2E= 0.
 FoFCou: FMM=F IPFlag=           0 FMFlag=      100000 FMFlg1=         800
         NFxFlg=           0 DoJE=F BraDBF=F KetDBF=F FulRan=T
         wScrn=  0.000000 ICntrl=    2127 IOpCl=  0 I1Cent=           0 NGrid=           0
         NMat0=    1 NMatS0=      1 NMatT0=    0 NMatD0=    1 NMtDS0=    0 NMtDT0=    0
 Symmetry not used in FoFCou.
 Leave Link  703 at Fri Aug 20 15:35:25 2021, MaxMem= 24159191040 cpu:        20.2
 (Enter /public/home/users/caep010/software/Gaussian09/g09/l716.exe)
 Dipole        =-4.83474136D-01 1.36875572D+00 6.81623954D-05
 ***** Axes restored to original set *****
 -------------------------------------------------------------------
 Center     Atomic                   Forces (Hartrees/Bohr)
 Number     Number              X              Y              Z
 -------------------------------------------------------------------
      1        7          -0.034948177   -0.006979729   -0.027425940
      2        7          -0.051174720    0.038113308    0.060794656
      3        8           0.028445991   -0.025773064   -0.031868524
      4        6          -0.117438840    0.045320127    0.024605686
      5        6          -0.102407199   -0.061982012   -0.026209986
      6        7           0.022449767   -0.043639778   -0.045492210
      7        7          -0.018349728    0.060995236    0.043299112
      8        8           0.023646053   -0.004821131   -0.003452817
      9        8          -0.018157025   -0.017926166   -0.008071286
     10        6           0.163034258    0.002497242    0.022570687
     11        8           0.030167270   -0.004385930   -0.012107821
     12        1          -0.072180150   -0.098850892    0.040471422
     13        1          -0.067026163    0.094538400   -0.058380628
     14        1           0.022614400    0.120932928   -0.041301348
     15        1           0.070087675   -0.023411077    0.105927455
     16        1           0.082503516    0.041169595   -0.091512623
     17        1           0.038733073   -0.115797059    0.048154166
 -------------------------------------------------------------------
 Cartesian Forces:  Max     0.163034258 RMS     0.060183241
 Leave Link  716 at Fri Aug 20 15:35:25 2021, MaxMem= 24159191040 cpu:         0.7
 (Enter /public/home/users/caep010/software/Gaussian09/g09/l103.exe)

 GradGradGradGradGradGradGradGradGradGradGradGradGradGradGradGradGradGrad
 Berny optimization.
 FormGI is forming the generalized inverse of G from B-inverse, IUseBI=4.
 Internal  Forces:  Max     0.131223769 RMS     0.035748437
 Search for a local minimum.
 Step number   1 out of a maximum of   98
 All quantities printed in internal units (Hartrees-Bohrs-Radians)
 RMS Force = .35748D-01 SwitMx=.10000D-02 MixMth= 1
 Mixed Optimization -- RFO/linear search
 Second derivative matrix not updated -- first step.
 ITU=  0
     Eigenvalues ---    0.00540   0.00942   0.01125   0.01138   0.01157
     Eigenvalues ---    0.01460   0.02706   0.02714   0.03609   0.04447
     Eigenvalues ---    0.06135   0.06152   0.06507   0.07208   0.07433
     Eigenvalues ---    0.07504   0.08054   0.08239   0.09271   0.10855
     Eigenvalues ---    0.20167   0.21695   0.22178   0.22414   0.25000
     Eigenvalues ---    0.25000   0.25000   0.25000   0.30310   0.31614
     Eigenvalues ---    0.32808   0.34170   0.37385   0.43563   0.55412
     Eigenvalues ---    0.55434   0.55466   0.55526   0.55624   0.55662
     Eigenvalues ---    0.69090   0.78359   0.79901   0.80917   1.11064
 RFO step:  Lambda=-1.59403748D-01 EMin= 5.39831080D-03
 Linear search not attempted -- first point.
 Maximum step size (   0.300) exceeded in Quadratic search.
    -- Step size scaled by   0.631
 Iteration  1 RMS(Cart)=  0.03463685 RMS(Int)=  0.00035137
 Iteration  2 RMS(Cart)=  0.00036651 RMS(Int)=  0.00009439
 Iteration  3 RMS(Cart)=  0.00000015 RMS(Int)=  0.00009439
 ITry= 1 IFail=0 DXMaxC= 1.33D-01 DCOld= 1.00D+10 DXMaxT= 3.00D-01 DXLimC= 3.00D+00 Rises=F
 Variable       Old X    -DE/DX   Delta X   Delta X   Delta X     New X
                                 (Linear)    (Quad)   (Total)
    R1        2.66981  -0.01895   0.00000  -0.02009  -0.02009   2.64973
    R2        2.73441   0.01067   0.00000   0.01273   0.01266   2.74707
    R3        2.81811  -0.01438   0.00000  -0.01933  -0.01934   2.79877
    R4        2.24509   0.04769   0.00000   0.02368   0.02368   2.26877
    R5        2.37969  -0.02803   0.00000  -0.01844  -0.01844   2.36125
    R6        2.79054   0.03925   0.00000   0.05023   0.05020   2.84074
    R7        1.81282   0.12988   0.00000   0.11443   0.11443   1.92725
    R8        1.81448   0.13122   0.00000   0.11593   0.11593   1.93041
    R9        2.83778  -0.01529   0.00000  -0.01996  -0.01992   2.81786
   R10        1.81468   0.12962   0.00000   0.11454   0.11454   1.92922
   R11        1.81249   0.12902   0.00000   0.11362   0.11362   1.92611
   R12        2.44397   0.05034   0.00000   0.03733   0.03733   2.48130
   R13        2.81494  -0.00430   0.00000  -0.00668  -0.00661   2.80833
   R14        2.37425  -0.02390   0.00000  -0.01556  -0.01556   2.35869
   R15        2.38813  -0.02614   0.00000  -0.01748  -0.01748   2.37065
   R16        1.81368   0.12879   0.00000   0.11363   0.11363   1.92730
   R17        1.81421   0.12966   0.00000   0.11450   0.11450   1.92870
    A1        2.12768  -0.00353   0.00000  -0.00594  -0.00588   2.12179
    A2        2.02139   0.01237   0.00000   0.01939   0.01939   2.04078
    A3        2.05517  -0.00966   0.00000  -0.01575  -0.01581   2.03936
    A4        2.02045   0.00785   0.00000   0.01266   0.01222   2.03267
    A5        1.95927   0.01579   0.00000   0.02488   0.02445   1.98372
    A6        2.30172  -0.02279   0.00000  -0.03454  -0.03497   2.26675
    A7        1.76539   0.00200   0.00000   0.00635   0.00623   1.77162
    A8        1.94592  -0.00200   0.00000  -0.00610  -0.00607   1.93985
    A9        1.94894  -0.00183   0.00000  -0.00454  -0.00453   1.94441
   A10        1.93928   0.00009   0.00000   0.00023   0.00028   1.93956
   A11        1.94896   0.00105   0.00000   0.00255   0.00259   1.95155
   A12        1.91217   0.00069   0.00000   0.00162   0.00158   1.91375
   A13        1.83331  -0.01255   0.00000  -0.01979  -0.01977   1.81354
   A14        1.93389   0.00568   0.00000   0.01176   0.01166   1.94555
   A15        1.93316   0.00733   0.00000   0.01431   0.01421   1.94737
   A16        1.92803   0.00042   0.00000  -0.00323  -0.00315   1.92487
   A17        1.92342   0.00113   0.00000  -0.00172  -0.00162   1.92180
   A18        1.91111  -0.00219   0.00000  -0.00179  -0.00195   1.90916
   A19        2.12128  -0.00761   0.00000  -0.01138  -0.01140   2.10987
   A20        1.95356   0.00800   0.00000   0.01194   0.01202   1.96557
   A21        2.07956  -0.00052   0.00000  -0.00077  -0.00080   2.07876
   A22        2.06436  -0.00903   0.00000  -0.01376  -0.01386   2.05050
   A23        2.02654   0.00785   0.00000   0.01224   0.01214   2.03868
   A24        2.19176   0.00141   0.00000   0.00232   0.00222   2.19397
   A25        1.69624   0.01174   0.00000   0.01617   0.01627   1.71251
   A26        1.96605  -0.00506   0.00000  -0.00686  -0.00684   1.95922
   A27        1.96178  -0.00284   0.00000  -0.00505  -0.00506   1.95672
   A28        1.96536  -0.00397   0.00000  -0.00702  -0.00703   1.95833
   A29        1.95708  -0.00484   0.00000  -0.00727  -0.00728   1.94980
   A30        1.91073   0.00488   0.00000   0.00945   0.00943   1.92017
    D1       -0.18231  -0.00822   0.00000  -0.02723  -0.02726  -0.20957
    D2        2.90342   0.00442   0.00000   0.01938   0.01935   2.92277
    D3       -2.89776  -0.00401   0.00000  -0.01786  -0.01783  -2.91559
    D4        0.18797   0.00863   0.00000   0.02875   0.02878   0.21675
    D5       -3.06238  -0.00103   0.00000  -0.00105  -0.00109  -3.06348
    D6        1.15825  -0.00137   0.00000  -0.00217  -0.00219   1.15606
    D7       -0.98726   0.00051   0.00000   0.00347   0.00340  -0.98386
    D8       -0.35476  -0.00019   0.00000  -0.00242  -0.00237  -0.35712
    D9       -2.41731  -0.00054   0.00000  -0.00354  -0.00346  -2.42077
   D10        1.72037   0.00135   0.00000   0.00210   0.00212   1.72250
   D11        2.83241  -0.00076   0.00000  -0.00279  -0.00283   2.82958
   D12        0.76957  -0.00072   0.00000  -0.00100  -0.00102   0.76855
   D13       -1.39893  -0.00105   0.00000  -0.00430  -0.00433  -1.40326
   D14        0.09854   0.00200   0.00000   0.00413   0.00414   0.10268
   D15       -1.96430   0.00204   0.00000   0.00593   0.00595  -1.95835
   D16        2.15038   0.00171   0.00000   0.00263   0.00265   2.15303
   D17        0.43966  -0.00023   0.00000   0.00083   0.00083   0.44049
   D18       -1.64258   0.00368   0.00000   0.01014   0.01020  -1.63238
   D19        2.51604  -0.00240   0.00000  -0.00534  -0.00542   2.51061
   D20        2.50702  -0.00141   0.00000  -0.00267  -0.00267   2.50435
   D21        0.42478   0.00250   0.00000   0.00665   0.00670   0.43149
   D22       -1.69978  -0.00358   0.00000  -0.00883  -0.00892  -1.70871
   D23       -1.63546   0.00030   0.00000   0.00141   0.00143  -1.63403
   D24        2.56549   0.00421   0.00000   0.01072   0.01080   2.57629
   D25        0.44092  -0.00187   0.00000  -0.00476  -0.00482   0.43610
   D26       -3.04659   0.00135   0.00000   0.00225   0.00223  -3.04437
   D27       -0.43417   0.00139   0.00000   0.00228   0.00224  -0.43193
   D28       -0.96044   0.00102   0.00000   0.00303   0.00307  -0.95737
   D29        1.65198   0.00106   0.00000   0.00307   0.00308   1.65506
   D30        1.15369  -0.00071   0.00000  -0.00246  -0.00248   1.15121
   D31       -2.51708  -0.00067   0.00000  -0.00242  -0.00247  -2.51954
   D32        2.93061   0.00311   0.00000   0.00833   0.00836   2.93897
   D33       -0.17797  -0.00426   0.00000  -0.01656  -0.01654  -0.19450
   D34        0.35495   0.00083   0.00000   0.00497   0.00495   0.35989
   D35       -2.75363  -0.00653   0.00000  -0.01992  -0.01995  -2.77358
   D36        0.20806   0.00265   0.00000   0.00275   0.00271   0.21077
   D37        2.27144   0.00176   0.00000   0.00107   0.00105   2.27249
   D38       -1.84746   0.00143   0.00000   0.00258   0.00257  -1.84489
   D39        2.83453   0.00021   0.00000  -0.00092  -0.00095   2.83359
   D40       -1.38527  -0.00069   0.00000  -0.00260  -0.00261  -1.38788
   D41        0.77902  -0.00102   0.00000  -0.00110  -0.00109   0.77793
         Item               Value     Threshold  Converged?
 Maximum Force            0.131224     0.000450     NO 
 RMS     Force            0.035748     0.000300     NO 
 Maximum Displacement     0.132716     0.001800     NO 
 RMS     Displacement     0.034637     0.001200     NO 
 Predicted change in Energy=-7.628214D-02
 Lowest energy point so far.  Saving SCF results.
 GradGradGradGradGradGradGradGradGradGradGradGradGradGradGradGradGradGrad

 Leave Link  103 at Fri Aug 20 15:35:25 2021, MaxMem= 24159191040 cpu:         2.7
 (Enter /public/home/users/caep010/software/Gaussian09/g09/l202.exe)
                          Input orientation:                          
 ---------------------------------------------------------------------
 Center     Atomic      Atomic             Coordinates (Angstroms)
 Number     Number       Type             X           Y           Z
 ---------------------------------------------------------------------
      1          7           0        0.194486    6.128609   12.462174
      2          7           0       -0.132121    5.189935   11.473075
      3          8           0        0.787817    4.631835   10.940501
      4          6           0        1.540230    6.227421   13.002925
      5          6           0        1.356797    7.263930   14.076132
      6          7           0       -0.087344    7.159178   14.432517
      7          7           0       -0.636386    8.002616   15.275881
      8          8           0       -1.881570    8.002661   15.362059
      9          8           0        0.142097    8.746415   15.919686
     10          6           0       -0.910207    6.604207   13.326437
     11          8           0       -1.361549    5.059551   11.291955
     12          1           0       -1.511917    5.842184   13.638581
     13          1           0       -1.469323    7.327237   12.872242
     14          1           0        1.569127    8.200930   13.730903
     15          1           0        1.934434    7.065001   14.891999
     16          1           0        2.199508    6.545988   12.293011
     17          1           0        1.854123    5.334502   13.387222
 ---------------------------------------------------------------------
                    Distance matrix (angstroms):
                    1          2          3          4          5
     1  N    0.000000
     2  N    1.402176   0.000000
     3  O    2.215369   1.200582   0.000000
     4  C    1.453686   2.492705   2.713967   0.000000
     5  C    2.290149   3.646127   4.133261   1.503254   0.000000
     6  N    2.241373   3.555028   4.398585   2.358156   1.491149
     7  N    3.481264   4.756763   5.673274   3.613212   2.440867
     8  O    4.028823   5.108444   6.167518   4.519481   3.561790
     9  O    4.337055   5.700535   6.491457   4.099708   2.659313
    10  C    1.481044   2.457750   3.530755   2.500254   2.477213
    11  O    2.221158   1.249518   2.219512   3.565341   4.472173
    12  H    2.092316   2.649279   3.746112   3.141348   3.231459
    13  H    2.091202   2.883373   4.011421   3.206880   3.072509
    14  H    2.791743   4.130148   4.597307   2.103693   1.020900
    15  H    3.131820   4.413112   4.780101   2.103696   1.019253
    16  H    2.054977   2.819161   2.736081   1.019858   2.098839
    17  H    2.059300   2.762250   2.759927   1.021528   2.108228
                    6          7          8          9         10
     6  N    0.000000
     7  N    1.313049   0.000000
     8  O    2.189694   1.248163   0.000000
     9  O    2.187152   1.254495   2.226959   0.000000
    10  C    1.486105   2.414717   2.653861   3.524392   0.000000
    11  O    3.986874   5.005912   5.049561   6.104900   2.593991
    12  H    2.096238   2.848643   2.788311   4.046450   1.019886
    13  H    2.091069   2.631995   2.612534   3.727955   1.020626
    14  H    2.078800   2.700107   3.821949   2.669221   2.976612
    15  H    2.075470   2.763259   3.957531   2.663788   3.279526
    16  H    3.191109   4.365956   5.310005   4.714615   3.277451
    17  H    2.862058   4.109562   4.997445   4.581000   3.042592
                   11         12         13         14         15
    11  O    0.000000
    12  H    2.478261   0.000000
    13  H    2.766103   1.671667   0.000000
    14  H    4.940202   3.881371   3.276098   0.000000
    15  H    5.276897   3.865704   3.966578   1.664911   0.000000
    16  H    3.986569   4.010059   3.795547   2.281172   2.663527
    17  H    3.847894   3.413378   3.909155   2.900991   2.294652
                   16         17
    16  H    0.000000
    17  H    1.668619   0.000000
 Stoichiometry    C3H6N4O4
 Framework group  C1[X(C3H6N4O4)]
 Deg. of freedom    45
 Full point group                 C1      NOp   1
 RotChk:  IX=0 Diff= 5.24D-03
 Largest Abelian subgroup         C1      NOp   1
 Largest concise Abelian subgroup C1      NOp   1
                         Standard orientation:                         
 ---------------------------------------------------------------------
 Center     Atomic      Atomic             Coordinates (Angstroms)
 Number     Number       Type             X           Y           Z
 ---------------------------------------------------------------------
      1          7           0       -1.090012    0.162041    0.173631
      2          7           0       -2.404493   -0.307074    0.038833
      3          8           0       -3.259396    0.526067   -0.089279
      4          6           0       -0.745356    1.548408   -0.095442
      5          6           0        0.748358    1.523958    0.071867
      6          7           0        1.117510    0.107094   -0.210529
      7          7           0        2.351417   -0.312594   -0.051052
      8          8           0        2.550251   -1.544265   -0.087942
      9          8           0        3.228077    0.565316    0.134689
     10          6           0       -0.004306   -0.835873    0.036153
     11          8           0       -2.497083   -1.552946    0.061766
     12          1           0       -0.157178   -1.467124   -0.750180
     13          1           0        0.134982   -1.372549    0.893039
     14          1           0        1.022200    1.778494    1.021846
     15          1           0        1.210015    2.145244   -0.591272
     16          1           0       -1.180969    2.173963    0.582077
     17          1           0       -1.016986    1.823360   -1.041030
 ---------------------------------------------------------------------
 Rotational constants (GHZ):      2.8007113      0.6672746      0.5459842
 Leave Link  202 at Fri Aug 20 15:35:25 2021, MaxMem= 24159191040 cpu:         0.3
 (Enter /public/home/users/caep010/software/Gaussian09/g09/l301.exe)
 Standard basis: 6-31G(d,p) (6D, 7F)
 Ernie: Thresh=  0.10000D-02 Tol=  0.10000D-05 Strict=F.
 There are   195 symmetry adapted cartesian basis functions of A   symmetry.
 There are   195 symmetry adapted basis functions of A   symmetry.
   195 basis functions,   350 primitive gaussians,   195 cartesian basis functions
    42 alpha electrons       42 beta electrons
       nuclear repulsion energy       667.2790974040 Hartrees.
 IExCor=  402 DFT=T Ex+Corr=B3LYP ExCW=0 ScaHFX=  0.200000
 ScaDFX=  0.800000  0.720000  1.000000  0.810000 ScalE2=  1.000000  1.000000
 IRadAn=      0 IRanWt=     -1 IRanGd=            0 ICorTp=0 IEmpDi=  4
 NAtoms=   17 NActive=   17 NUniq=   17 SFac= 1.00D+00 NAtFMM=   60 NAOKFM=F Big=F
 Integral buffers will be    131072 words long.
 Raffenetti 2 integral format.
 Two-electron integral symmetry is turned on.
 Leave Link  301 at Fri Aug 20 15:35:25 2021, MaxMem= 24159191040 cpu:         1.7
 (Enter /public/home/users/caep010/software/Gaussian09/g09/l302.exe)
 NPDir=0 NMtPBC=     1 NCelOv=     1 NCel=       1 NClECP=     1 NCelD=      1
         NCelK=      1 NCelE2=     1 NClLst=     1 CellRange=     0.0.
 One-electron integrals computed using PRISM.
 NBasis=   195 RedAO= T EigKep=  1.89D-03  NBF=   195
 NBsUse=   195 1.00D-06 EigRej= -1.00D+00 NBFU=   195
 Precomputing XC quadrature grid using
 IXCGrd= 4 IRadAn=           0 IRanWt=          -1 IRanGd=           0 AccXCQ= 0.00D+00.
 Generated NRdTot=       0 NPtTot=           0 NUsed=           0 NTot=          32
 NSgBfM=   195   195   195   195   195 MxSgAt=    17 MxSgA2=    17.
 Leave Link  302 at Fri Aug 20 15:35:26 2021, MaxMem= 24159191040 cpu:        11.4
 (Enter /public/home/users/caep010/software/Gaussian09/g09/l303.exe)
 DipDrv:  MaxL=1.
 Leave Link  303 at Fri Aug 20 15:35:26 2021, MaxMem= 24159191040 cpu:         0.7
 (Enter /public/home/users/caep010/software/Gaussian09/g09/l401.exe)
 Initial guess from the checkpoint file:  "/public/home/users/caep010/.cache/gau_scr/Gau-167516.chk"
 B after Tr=     0.000000    0.000000   -0.000000
         Rot=    0.999998   -0.000490   -0.000103    0.001761 Ang=  -0.21 deg.
 Guess basis will be translated and rotated to current coordinates.
 JPrj=2 DoOrth=T DoCkMO=T.
 Generating alternative initial guess.
 ExpMin= 1.61D-01 ExpMax= 5.48D+03 ExpMxC= 8.25D+02 IAcc=1 IRadAn=         1 AccDes= 0.00D+00
 Harris functional with IExCor=  402 and IRadAn=       1 diagonalized for initial guess.
 HarFok:  IExCor=  402 AccDes= 0.00D+00 IRadAn=         1 IDoV= 1 UseB2=F ITyADJ=14
 ICtDFT=  3500011 ScaDFX=  1.000000  1.000000  1.000000  1.000000
 FoFCou: FMM=F IPFlag=           0 FMFlag=      100000 FMFlg1=           0
         NFxFlg=           0 DoJE=T BraDBF=F KetDBF=T FulRan=T
         wScrn=  0.000000 ICntrl=     500 IOpCl=  0 I1Cent=   200000004 NGrid=           0
         NMat0=    1 NMatS0=      1 NMatT0=    0 NMatD0=    1 NMtDS0=    0 NMtDT0=    0
 Petite list used in FoFCou.
 Harris En= -637.626014536099    
 Leave Link  401 at Fri Aug 20 15:35:26 2021, MaxMem= 24159191040 cpu:        12.8
 (Enter /public/home/users/caep010/software/Gaussian09/g09/l502.exe)
 Closed shell SCF:
 Using DIIS extrapolation, IDIIS=  1040.
 Integral symmetry usage will be decided dynamically.
 Keep R1 ints in memory in canonical form, NReq=186510601.
 IVT=      140326 IEndB=      140326 NGot= 24159191040 MDV= 23976445110
 LenX= 23976445110 LenY= 23976406644
 Requested convergence on RMS density matrix=1.00D-08 within 128 cycles.
 Requested convergence on MAX density matrix=1.00D-06.
 Requested convergence on             energy=1.00D-06.
 No special actions if energy rises.
 FoFCou: FMM=F IPFlag=           0 FMFlag=           0 FMFlg1=           0
         NFxFlg=           0 DoJE=F BraDBF=F KetDBF=F FulRan=T
         wScrn=  0.000000 ICntrl=     600 IOpCl=  0 I1Cent=           0 NGrid=           0
         NMat0=    1 NMatS0=  19110 NMatT0=    0 NMatD0=    1 NMtDS0=    0 NMtDT0=    0
 Symmetry not used in FoFCou.
 Integral accuracy reduced to 1.0D-05 until final iterations.

 Cycle   1  Pass 0  IDiag  1:
 E= -637.558136157064    
 DIIS: error= 3.75D-03 at cycle   1 NSaved=   1.
 NSaved= 1 IEnMin= 1 EnMin= -637.558136157064     IErMin= 1 ErrMin= 3.75D-03
 ErrMax= 3.75D-03  0.00D+00 EMaxC= 1.00D-01 BMatC= 4.72D-03 BMatP= 4.72D-03
 IDIUse=3 WtCom= 9.63D-01 WtEn= 3.75D-02
 Coeff-Com:  0.100D+01
 Coeff-En:   0.100D+01
 Coeff:      0.100D+01
 Gap=     1.743 Goal=   None    Shift=    0.000
 GapD=    1.743 DampG=2.000 DampE=1.000 DampFc=2.0000 IDamp=-1.
 RMSDP=6.42D-04 MaxDP=1.66D-02              OVMax= 1.55D-02

 Cycle   2  Pass 0  IDiag  1:
 E= -637.563324013697     Delta-E=       -0.005187856633 Rises=F Damp=F
 DIIS: error= 2.12D-03 at cycle   2 NSaved=   2.
 NSaved= 2 IEnMin= 2 EnMin= -637.563324013697     IErMin= 2 ErrMin= 2.12D-03
 ErrMax= 2.12D-03  0.00D+00 EMaxC= 1.00D-01 BMatC= 1.17D-03 BMatP= 4.72D-03
 IDIUse=3 WtCom= 9.79D-01 WtEn= 2.12D-02
 Coeff-Com:  0.270D+00 0.730D+00
 Coeff-En:   0.000D+00 0.100D+01
 Coeff:      0.265D+00 0.735D+00
 Gap=     0.229 Goal=   None    Shift=    0.000
 RMSDP=2.62D-04 MaxDP=7.65D-03 DE=-5.19D-03 OVMax= 9.12D-03

 Cycle   3  Pass 0  IDiag  1:
 E= -637.563956634483     Delta-E=       -0.000632620786 Rises=F Damp=F
 DIIS: error= 1.37D-03 at cycle   3 NSaved=   3.
 NSaved= 3 IEnMin= 3 EnMin= -637.563956634483     IErMin= 3 ErrMin= 1.37D-03
 ErrMax= 1.37D-03  0.00D+00 EMaxC= 1.00D-01 BMatC= 5.76D-04 BMatP= 1.17D-03
 IDIUse=3 WtCom= 9.86D-01 WtEn= 1.37D-02
 Coeff-Com:  0.216D-01 0.408D+00 0.571D+00
 Coeff-En:   0.000D+00 0.308D+00 0.692D+00
 Coeff:      0.213D-01 0.406D+00 0.572D+00
 Gap=     0.230 Goal=   None    Shift=    0.000
 RMSDP=1.40D-04 MaxDP=4.41D-03 DE=-6.33D-04 OVMax= 5.53D-03

 Cycle   4  Pass 0  IDiag  1:
 E= -637.564375403818     Delta-E=       -0.000418769335 Rises=F Damp=F
 DIIS: error= 7.77D-04 at cycle   4 NSaved=   4.
 NSaved= 4 IEnMin= 4 EnMin= -637.564375403818     IErMin= 4 ErrMin= 7.77D-04
 ErrMax= 7.77D-04  0.00D+00 EMaxC= 1.00D-01 BMatC= 1.16D-04 BMatP= 5.76D-04
 IDIUse=3 WtCom= 9.92D-01 WtEn= 7.77D-03
 Coeff-Com: -0.250D-03 0.225D+00 0.378D+00 0.397D+00
 Coeff-En:   0.000D+00 0.000D+00 0.813D-01 0.919D+00
 Coeff:     -0.248D-03 0.223D+00 0.375D+00 0.402D+00
 Gap=     0.230 Goal=   None    Shift=    0.000
 RMSDP=5.55D-05 MaxDP=2.24D-03 DE=-4.19D-04 OVMax= 3.95D-03

 Cycle   5  Pass 0  IDiag  1:
 E= -637.564455668452     Delta-E=       -0.000080264634 Rises=F Damp=F
 DIIS: error= 2.81D-04 at cycle   5 NSaved=   5.
 NSaved= 5 IEnMin= 5 EnMin= -637.564455668452     IErMin= 5 ErrMin= 2.81D-04
 ErrMax= 2.81D-04  0.00D+00 EMaxC= 1.00D-01 BMatC= 1.29D-05 BMatP= 1.16D-04
 IDIUse=3 WtCom= 9.97D-01 WtEn= 2.81D-03
 Coeff-Com: -0.467D-02 0.729D-01 0.140D+00 0.266D+00 0.526D+00
 Coeff-En:   0.000D+00 0.000D+00 0.000D+00 0.115D+00 0.885D+00
 Coeff:     -0.466D-02 0.727D-01 0.139D+00 0.266D+00 0.527D+00
 Gap=     0.230 Goal=   None    Shift=    0.000
 RMSDP=1.79D-05 MaxDP=6.71D-04 DE=-8.03D-05 OVMax= 1.37D-03

 Cycle   6  Pass 0  IDiag  1:
 E= -637.564464312289     Delta-E=       -0.000008643837 Rises=F Damp=F
 DIIS: error= 8.88D-05 at cycle   6 NSaved=   6.
 NSaved= 6 IEnMin= 6 EnMin= -637.564464312289     IErMin= 6 ErrMin= 8.88D-05
 ErrMax= 8.88D-05  0.00D+00 EMaxC= 1.00D-01 BMatC= 1.84D-06 BMatP= 1.29D-05
 IDIUse=1 WtCom= 1.00D+00 WtEn= 0.00D+00
 Coeff-Com: -0.320D-02 0.300D-01 0.624D-01 0.147D+00 0.357D+00 0.407D+00
 Coeff:     -0.320D-02 0.300D-01 0.624D-01 0.147D+00 0.357D+00 0.407D+00
 Gap=     0.230 Goal=   None    Shift=    0.000
 RMSDP=6.55D-06 MaxDP=2.62D-04 DE=-8.64D-06 OVMax= 4.20D-04

 Initial convergence to 1.0D-05 achieved.  Increase integral accuracy.
 Cycle   7  Pass 1  IDiag  1:
 E= -637.564487000682     Delta-E=       -0.000022688393 Rises=F Damp=F
 DIIS: error= 1.96D-05 at cycle   1 NSaved=   1.
 NSaved= 1 IEnMin= 1 EnMin= -637.564487000682     IErMin= 1 ErrMin= 1.96D-05
 ErrMax= 1.96D-05  0.00D+00 EMaxC= 1.00D-01 BMatC= 1.83D-07 BMatP= 1.83D-07
 IDIUse=1 WtCom= 1.00D+00 WtEn= 0.00D+00
 Coeff-Com:  0.100D+01
 Coeff:      0.100D+01
 Gap=     0.230 Goal=   None    Shift=    0.000
 RMSDP=6.55D-06 MaxDP=2.62D-04 DE=-2.27D-05 OVMax= 2.77D-04

 Cycle   8  Pass 1  IDiag  1:
 E= -637.564486681441     Delta-E=        0.000000319242 Rises=F Damp=F
 DIIS: error= 5.43D-05 at cycle   2 NSaved=   2.
 NSaved= 2 IEnMin= 1 EnMin= -637.564487000682     IErMin= 1 ErrMin= 1.96D-05
 ErrMax= 5.43D-05  0.00D+00 EMaxC= 1.00D-01 BMatC= 6.30D-07 BMatP= 1.83D-07
 IDIUse=1 WtCom= 1.00D+00 WtEn= 0.00D+00
 Coeff-Com:  0.668D+00 0.332D+00
 Coeff:      0.668D+00 0.332D+00
 Gap=     0.230 Goal=   None    Shift=    0.000
 RMSDP=3.75D-06 MaxDP=1.43D-04 DE= 3.19D-07 OVMax= 2.49D-04

 Cycle   9  Pass 1  IDiag  1:
 E= -637.564487151913     Delta-E=       -0.000000470472 Rises=F Damp=F
 DIIS: error= 1.38D-05 at cycle   3 NSaved=   3.
 NSaved= 3 IEnMin= 3 EnMin= -637.564487151913     IErMin= 3 ErrMin= 1.38D-05
 ErrMax= 1.38D-05  0.00D+00 EMaxC= 1.00D-01 BMatC= 2.37D-08 BMatP= 1.83D-07
 IDIUse=1 WtCom= 1.00D+00 WtEn= 0.00D+00
 Coeff-Com:  0.131D+00 0.169D+00 0.700D+00
 Coeff:      0.131D+00 0.169D+00 0.700D+00
 Gap=     0.230 Goal=   None    Shift=    0.000
 RMSDP=1.00D-06 MaxDP=4.59D-05 DE=-4.70D-07 OVMax= 8.11D-05

 Cycle  10  Pass 1  IDiag  1:
 E= -637.564487160240     Delta-E=       -0.000000008327 Rises=F Damp=F
 DIIS: error= 8.59D-06 at cycle   4 NSaved=   4.
 NSaved= 4 IEnMin= 4 EnMin= -637.564487160240     IErMin= 4 ErrMin= 8.59D-06
 ErrMax= 8.59D-06  0.00D+00 EMaxC= 1.00D-01 BMatC= 1.33D-08 BMatP= 2.37D-08
 IDIUse=1 WtCom= 1.00D+00 WtEn= 0.00D+00
 Coeff-Com:  0.752D-02 0.798D-01 0.512D+00 0.401D+00
 Coeff:      0.752D-02 0.798D-01 0.512D+00 0.401D+00
 Gap=     0.230 Goal=   None    Shift=    0.000
 RMSDP=5.45D-07 MaxDP=2.15D-05 DE=-8.33D-09 OVMax= 3.77D-05

 Cycle  11  Pass 1  IDiag  1:
 E= -637.564487170071     Delta-E=       -0.000000009832 Rises=F Damp=F
 DIIS: error= 1.40D-06 at cycle   5 NSaved=   5.
 NSaved= 5 IEnMin= 5 EnMin= -637.564487170071     IErMin= 5 ErrMin= 1.40D-06
 ErrMax= 1.40D-06  0.00D+00 EMaxC= 1.00D-01 BMatC= 7.33D-10 BMatP= 1.33D-08
 IDIUse=1 WtCom= 1.00D+00 WtEn= 0.00D+00
 Coeff-Com: -0.990D-02 0.297D-01 0.234D+00 0.247D+00 0.499D+00
 Coeff:     -0.990D-02 0.297D-01 0.234D+00 0.247D+00 0.499D+00
 Gap=     0.230 Goal=   None    Shift=    0.000
 RMSDP=1.38D-07 MaxDP=5.57D-06 DE=-9.83D-09 OVMax= 6.81D-06

 Cycle  12  Pass 1  IDiag  1:
 E= -637.564487170628     Delta-E=       -0.000000000556 Rises=F Damp=F
 DIIS: error= 2.56D-07 at cycle   6 NSaved=   6.
 NSaved= 6 IEnMin= 6 EnMin= -637.564487170628     IErMin= 6 ErrMin= 2.56D-07
 ErrMax= 2.56D-07  0.00D+00 EMaxC= 1.00D-01 BMatC= 2.61D-11 BMatP= 7.33D-10
 IDIUse=1 WtCom= 1.00D+00 WtEn= 0.00D+00
 Coeff-Com: -0.575D-02 0.110D-01 0.951D-01 0.110D+00 0.259D+00 0.531D+00
 Coeff:     -0.575D-02 0.110D-01 0.951D-01 0.110D+00 0.259D+00 0.531D+00
 Gap=     0.230 Goal=   None    Shift=    0.000
 RMSDP=3.28D-08 MaxDP=8.76D-07 DE=-5.56D-10 OVMax= 1.81D-06

 Cycle  13  Pass 1  IDiag  1:
 E= -637.564487170652     Delta-E=       -0.000000000024 Rises=F Damp=F
 DIIS: error= 1.14D-07 at cycle   7 NSaved=   7.
 NSaved= 7 IEnMin= 7 EnMin= -637.564487170652     IErMin= 7 ErrMin= 1.14D-07
 ErrMax= 1.14D-07  0.00D+00 EMaxC= 1.00D-01 BMatC= 5.74D-12 BMatP= 2.61D-11
 IDIUse=1 WtCom= 1.00D+00 WtEn= 0.00D+00
 Coeff-Com: -0.248D-02 0.373D-02 0.352D-01 0.433D-01 0.108D+00 0.345D+00
 Coeff-Com:  0.467D+00
 Coeff:     -0.248D-02 0.373D-02 0.352D-01 0.433D-01 0.108D+00 0.345D+00
 Coeff:      0.467D+00
 Gap=     0.230 Goal=   None    Shift=    0.000
 RMSDP=1.33D-08 MaxDP=5.52D-07 DE=-2.41D-11 OVMax= 9.36D-07

 Cycle  14  Pass 1  IDiag  1:
 E= -637.564487170654     Delta-E=       -0.000000000002 Rises=F Damp=F
 DIIS: error= 2.76D-08 at cycle   8 NSaved=   8.
 NSaved= 8 IEnMin= 8 EnMin= -637.564487170654     IErMin= 8 ErrMin= 2.76D-08
 ErrMax= 2.76D-08  0.00D+00 EMaxC= 1.00D-01 BMatC= 5.24D-13 BMatP= 5.74D-12
 IDIUse=1 WtCom= 1.00D+00 WtEn= 0.00D+00
 Coeff-Com: -0.224D-04-0.642D-03-0.322D-02-0.188D-02-0.328D-02 0.671D-01
 Coeff-Com:  0.257D+00 0.685D+00
 Coeff:     -0.224D-04-0.642D-03-0.322D-02-0.188D-02-0.328D-02 0.671D-01
 Coeff:      0.257D+00 0.685D+00
 Gap=     0.230 Goal=   None    Shift=    0.000
 RMSDP=4.01D-09 MaxDP=1.23D-07 DE=-2.27D-12 OVMax= 2.72D-07

 SCF Done:  E(RB3LYP) =  -637.564487171     A.U. after   14 cycles
            NFock= 14  Conv=0.40D-08     -V/T= 2.0078
 KE= 6.326362325868D+02 PE=-2.825893678024D+03 EE= 8.884138608621D+02
 Leave Link  502 at Fri Aug 20 15:35:33 2021, MaxMem= 24159191040 cpu:        76.4
 (Enter /public/home/users/caep010/software/Gaussian09/g09/l701.exe)
 Compute integral first derivatives.
 ... and contract with generalized density number  0.
 Leave Link  701 at Fri Aug 20 15:35:33 2021, MaxMem= 24159191040 cpu:        10.8
 (Enter /public/home/users/caep010/software/Gaussian09/g09/l702.exe)
 L702 exits ... SP integral derivatives will be done elsewhere.
 Leave Link  702 at Fri Aug 20 15:35:33 2021, MaxMem= 24159191040 cpu:         0.5
 (Enter /public/home/users/caep010/software/Gaussian09/g09/l703.exe)
 Compute integral first derivatives, UseDBF=F ICtDFT=           0.
 Integral derivatives from FoFJK, PRISM(SPDF).
 Calling FoFJK, ICntrl=      2127 FMM=F ISym2X=0 I1Cent= 0 IOpClX= 0 NMat=1 NMatS=1 NMatT=0.
 FoFJK:  IHMeth= 1 ICntrl=    2127 DoSepK=F KAlg= 0 I1Cent=   0 FoldK=F
 IRaf=         0 NMat=   1 IRICut=       1 DoRegI=T DoRafI=F ISym2E= 0.
 FoFCou: FMM=F IPFlag=           0 FMFlag=      100000 FMFlg1=         800
         NFxFlg=           0 DoJE=F BraDBF=F KetDBF=F FulRan=T
         wScrn=  0.000000 ICntrl=    2127 IOpCl=  0 I1Cent=           0 NGrid=           0
         NMat0=    1 NMatS0=      1 NMatT0=    0 NMatD0=    1 NMtDS0=    0 NMtDT0=    0
 Symmetry not used in FoFCou.
 Leave Link  703 at Fri Aug 20 15:35:34 2021, MaxMem= 24159191040 cpu:        20.0
 (Enter /public/home/users/caep010/software/Gaussian09/g09/l716.exe)
 Dipole        =-3.30584995D-01 1.33343305D+00-2.25565733D-03
 ***** Axes restored to original set *****
 -------------------------------------------------------------------
 Center     Atomic                   Forces (Hartrees/Bohr)
 Number     Number              X              Y              Z
 -------------------------------------------------------------------
      1        7          -0.021822667   -0.005023301   -0.019151869
      2        7          -0.035199170    0.026618471    0.038143767
      3        8           0.019850590   -0.015660998   -0.018651985
      4        6          -0.053691772    0.019706585    0.011319220
      5        6          -0.048992102   -0.026519993   -0.008992620
      6        7           0.017470673   -0.031397809   -0.032152918
      7        7          -0.014398176    0.042700589    0.031761348
      8        8           0.015401864   -0.002899864   -0.003021362
      9        8          -0.011960603   -0.014622670   -0.008312065
     10        6           0.080646208    0.000995598    0.011977606
     11        8           0.020633640   -0.002228829   -0.005110292
     12        1          -0.032977185   -0.044179283    0.018972878
     13        1          -0.031141836    0.042421668   -0.026087854
[...]
 ! D39   D(7,6,10,1)           151.5469         -DE/DX =    0.0                 !
 ! D40   D(7,6,10,12)          -89.5996         -DE/DX =    0.0                 !
 ! D41   D(7,6,10,13)           32.5972         -DE/DX =    0.0                 !
 --------------------------------------------------------------------------------
 GradGradGradGradGradGradGradGradGradGradGradGradGradGradGradGradGradGrad

 Leave Link  103 at Fri Aug 20 15:37:45 2021, MaxMem= 24159191040 cpu:         1.5
 (Enter /public/home/users/caep010/software/Gaussian09/g09/l9999.exe)
 1\1\GINC-B1011\Freq\RB3LYP\6-31G(d,p)\C3H6N4O4\ROOT\20-Aug-2021\0\\#P 
 Geom=AllCheck Guess=TCheck SCRF=Check GenChk RB3LYP/6-31G(d,p) Freq\\N
 ABMOS\\0,1\N,0.1675809213,6.2282278833,12.3804351393\N,-0.1365494812,5
 .2125453137,11.4947953405\O,0.8166255507,4.6405678683,10.9720903891\C,
 1.5099609814,6.230355834,12.977509905\C,1.3485287419,7.2659168585,14.0
 918016434\N,-0.0617649955,7.0839927628,14.4611160428\N,-0.6382577089,8
 .0402546389,15.2742958327\O,-1.8671835761,8.0798780148,15.2817844102\O
 ,0.1324902023,8.7273749332,15.9398266996\C,-0.8779827191,6.5939634289,
 13.3437060179\O,-1.3315231428,5.0106356906,11.2871411889\H,-1.48467093
 22,5.7305124178,13.6303134831\H,-1.5381666581,7.3728991245,12.95228378
 71\H,1.5289307752,8.2873732655,13.7371015266\H,1.9978484985,7.07287075
 6,14.9459789857\H,2.2589881131,6.5169298294,12.2390338678\H,1.76334542
 93,5.2379013798,13.3680857403\\Version=ES64L-G09RevE.01\State=1-A\HF=-
 637.595743\RMSD=5.511e-09\RMSF=2.209e-05\ZeroPoint=0.1235639\Thermal=0
 .1329803\Dipole=1.1676382,0.0781135,0.0958432\DipoleDeriv=-0.4445372,-
 0.0848874,-0.1466089,-0.1483424,-0.8371172,-0.6269453,-0.0668534,-0.31
 88433,-0.6267935,1.5014863,0.0775007,0.1098601,0.0819088,1.3371932,1.0
 131369,0.0829099,0.8673489,1.235689,-0.7288138,0.2645621,0.257794,0.19
 77318,-0.5887873,-0.3691198,0.179628,-0.3189283,-0.6093671,0.4333369,0
 .051084,0.1616868,0.0265805,0.3062577,0.0158225,0.1078811,-0.0785201,0
 .2279841,0.4773363,-0.0158865,-0.1212672,-0.0066197,0.2995128,-0.00598
 25,-0.0551793,-0.0952215,0.1907673,-0.5410478,0.1786117,0.2457833,0.29
 07469,-0.7894769,-0.564173,0.1266054,-0.2837256,-0.5780766,1.5835538,-
 0.1886313,-0.1894912,-0.2164575,1.2982645,0.967886,-0.1435385,0.829764
 8,1.1922877,-1.0701045,0.1402254,0.1703325,0.0868647,-0.3962418,-0.173
 9042,0.0786029,-0.1459506,-0.4342915,-0.6083176,-0.2131528,-0.2081547,
 -0.138191,-0.6434825,-0.4285763,-0.1365847,-0.3802139,-0.67512,0.39402
 24,-0.0270665,-0.034987,-0.0355499,0.6007787,0.2570932,-0.0280469,0.15
 3833,0.6048533,-0.9790645,-0.1947428,-0.2378519,-0.1365766,-0.4341352,
 -0.2202677,-0.1500275,-0.1894639,-0.4874356,0.0117327,0.0016537,0.0211
 895,-0.0402675,-0.0447769,0.0074915,0.0119114,-0.0351933,-0.0116033,0.
 0097784,0.0113082,-0.0183456,0.0458048,-0.0384774,0.0119508,-0.0030278
 ,-0.0354463,-0.0162045,-0.024157,0.0504511,0.0471668,-0.0428509,-0.074
 5825,0.0408586,0.0363795,0.0230241,0.0046378,0.0018627,0.0176728,-0.01
 95957,-0.0000378,0.041789,0.0158857,-0.0632691,-0.0037179,-0.0103234,-
 0.0085341,-0.0233409,0.0173587,-0.0086123,0.0385148,0.0177172,0.063423
 5,0.0014162,0.0032645,-0.0085332,-0.0453616,-0.0548696,0.0438681,-0.07
 52331,0.0411264,-0.0408144,0.0098379,-0.0102682\Polar=82.4725213,-1.03
 4201,66.2423541,-0.8582793,25.5333487,72.0361862\PG=C01 [X(C3H6N4O4)]\
 NImag=0\\0.60174913,-0.02577029,0.27225677,0.00185982,0.21017128,0.429
 19738,-0.14196017,-0.00016182,-0.00916600,1.01300930,-0.00707281,-0.10
 660012,-0.07693088,-0.06985546,0.45056684,0.00034626,-0.03201424,-0.12
 170384,-0.04923379,0.21352109,0.47095651,0.00846909,0.03348693,0.01849
 218,-0.36453072,0.13842184,0.13163687,0.44608270,0.03934848,-0.0355388
 9,-0.05005673,0.14708098,-0.20001423,-0.10520985,-0.19728854,0.2084694
 1,0.03134801,-0.04679776,-0.02455362,0.13504895,-0.10967566,-0.1886423
 7,-0.18002600,0.16026999,0.18298325,-0.18030974,0.01282733,-0.02066337
 ,-0.00464506,-0.01757758,-0.02110654,-0.00433230,0.00435981,0.00681546
 ,0.53640823,0.03654688,-0.06347497,-0.00092323,-0.03240632,-0.00864037
 ,-0.01444976,-0.00551498,-0.00211868,-0.00014884,-0.01810620,0.5688921
 5,-0.04094993,-0.01973660,-0.09158978,-0.02146259,0.00196526,-0.017992
 90,-0.00251487,0.00075308,-0.00003961,-0.09886334,-0.05000616,0.525176
 16,-0.00537547,-0.02358556,-0.02559549,-0.00654018,0.00219361,0.000345
 20,0.00045034,0.00101122,0.00099697,-0.07397568,0.01562230,0.01815278,
 0.49823307,-0.00767037,-0.00362501,-0.00879292,0.00153424,-0.00065667,
 -0.00132507,-0.00040266,0.00054657,-0.00027917,0.00208624,-0.14023933,
 -0.05232371,0.01780337,0.57383011,-0.01161914,-0.01854132,-0.02587031,
 -0.00360007,0.00146050,-0.00153472,0.00067711,-0.00064135,0.00046079,-
 0.00142333,-0.05251501,-0.13144195,0.10040097,-0.03349880,0.55843347,0
 .01543870,0.00973897,0.01750320,-0.00903541,-0.00473076,-0.00158710,0.
 00014966,0.00254251,0.00168695,-0.01647858,0.00747400,0.01563956,-0.17
 984462,-0.05110619,0.02801885,0.59450527,-0.00298158,-0.00914504,-0.02
 014907,0.00090355,0.00239483,-0.00092532,0.00048453,-0.00183220,-0.001
 41304,0.02492124,0.00068056,-0.01264242,-0.02485706,-0.07184343,-0.018
 23890,0.03361405,0.28021921,-0.00510341,-0.02061261,-0.04223560,0.0019
 0674,0.00541068,-0.00101989,0.00093793,-0.00249833,-0.00113246,0.02838
 200,-0.00387094,-0.01907486,0.00570446,-0.00640797,-0.08372454,-0.0023
 7699,0.21496093,0.42881770,-0.00896643,-0.00230055,-0.00395663,0.00146
 482,0.00314209,0.00066469,0.00020010,-0.00119321,-0.00072217,-0.006340
 83,-0.00202562,0.00255347,-0.01860745,0.03324881,0.02128668,-0.1455619
 9,0.00049292,0.01553932,0.96396265,0.00225743,0.00264556,0.00558458,-0
 .00161815,-0.00530905,-0.00381745,-0.00155594,0.00268656,0.00201232,-0
 .00317023,-0.00125072,0.00142113,0.01592405,-0.00196077,0.00767577,0.0
 1454777,-0.10518960,-0.07360612,0.10316326,0.47382523,0.00040429,-0.00
 105606,-0.00133923,0.00076705,-0.00342072,-0.00415966,-0.00134301,0.00
 121344,0.00126508,-0.00100021,-0.00170988,-0.00113883,0.02293040,-0.00
 599581,-0.01071510,0.00025849,-0.03209936,-0.11982128,0.10279218,0.238
 31472,0.49668110,0.00287389,0.00030638,0.00053077,-0.00133415,-0.00163
 079,-0.00103018,0.00055271,0.00044474,0.00036480,-0.00293517,-0.001865
 81,-0.00107123,0.00442991,0.00160529,0.00235669,-0.06489772,0.04030974
 ,0.02395373,-0.52488053,0.01496192,0.00760540,0.66578600,0.00063480,-0
 .00078734,-0.00074972,0.00064619,0.00112875,0.00117354,0.00016112,-0.0
 0059441,-0.00052180,0.00192416,0.00094733,-0.00094541,-0.00318038,-0.0
 0218308,-0.00464250,0.04867346,0.00821702,-0.01338960,0.02191414,-0.11
 293980,-0.02187442,-0.02689510,0.08553655,0.00142483,-0.00172497,0.000
 05150,0.00064742,0.00140816,0.00170368,0.00038048,-0.00061403,-0.00071
 580,0.00138539,0.00061338,-0.00054429,-0.00063579,-0.00677521,0.001876
 14,0.03571773,-0.00797243,0.00706317,0.01512091,-0.02851477,-0.1108689
 8,-0.01051595,0.04763667,0.08155954,0.00080717,0.00010507,-0.00027118,
 -0.00034438,0.00080771,0.00091040,0.00083277,-0.00052955,-0.00038123,0
 .00077891,0.00046680,-0.00052450,-0.00362704,0.00528679,0.00185507,0.0
 2210840,-0.01765905,-0.00408451,-0.28189800,-0.13068965,-0.13318704,-0
 .07448869,-0.04808533,-0.04840728,0.33307837,-0.00175385,-0.00214703,-
 0.00293602,0.00057321,0.00296581,0.00151146,0.00102115,-0.00146101,-0.
 00106493,-0.00087123,0.00047688,-0.00087869,-0.00470265,-0.00200478,0.
 00029218,-0.02303866,-0.04315806,-0.05681483,-0.13998956,-0.23741124,-
 0.14702026,-0.02737789,0.02294068,-0.00530453,0.18664769,0.26012525,-0
 .00118079,-0.00164093,-0.00147548,0.00018532,0.00227405,0.00152971,0.0
 0082148,-0.00111397,-0.00091086,-0.00090811,-0.00033612,0.00020091,-0.
 00738167,-0.00020791,-0.00085794,-0.01732482,-0.05437457,-0.03058447,-
 0.13607882,-0.15042525,-0.23355570,-0.02759922,-0.00606222,0.02167585,
 0.18380919,0.21689351,0.24400420,-0.16485125,0.01619325,0.04021075,0.0
 2138996,0.01291074,0.00458520,-0.00114626,-0.00660176,-0.00320339,-0.0
 2746562,0.00032211,0.01511981,-0.02178793,-0.00472554,-0.02109009,-0.1
 4489640,-0.02071392,-0.04313261,0.02641589,-0.00517285,0.00762799,-0.0
 0759514,0.00297335,0.00317006,-0.00343799,0.00619672,0.00277340,0.5919
 1841,0.00492925,-0.06648357,-0.01327563,0.02365125,-0.01966010,-0.0237
 1289,-0.00410666,0.00067178,-0.00574787,0.00916894,-0.00098438,0.00414
 001,-0.01259461,-0.00280159,-0.00011623,-0.01372575,-0.07025756,-0.020
 47525,-0.01330146,-0.02335724,-0.02659223,-0.00327440,-0.00081460,0.00
 181874,0.00446732,0.00212001,-0.00462469,0.00303318,0.61029740,0.05534
 208,-0.03746439,-0.11573347,0.01438566,-0.00792763,-0.02816084,-0.0025
 9263,-0.00126809,0.00406410,0.00161249,0.00849135,0.01136673,-0.008375
 84,0.00736713,0.00751055,-0.05479195,-0.04795899,-0.13186807,-0.004303
 27,-0.01069451,-0.02949889,-0.00388560,0.00107271,-0.00022042,0.001547
 53,0.00007897,0.00491497,0.01655852,-0.05008508,0.43332718,-0.04110088
 ,-0.04537323,-0.03040166,-0.49934880,-0.06244696,-0.06961858,-0.092384
 81,0.01259294,0.00940793,0.00407080,0.00034827,-0.00134455,-0.00275357
 ,0.00125537,0.00083592,0.00311674,0.00050505,0.00008560,-0.00134276,0.
 00104894,0.00037089,0.00153073,-0.00037591,-0.00033457,0.00067190,-0.0
 0016907,-0.00006354,-0.00737668,0.00208109,0.00254596,0.63182298,-0.05
 287121,-0.00442976,-0.02554778,-0.07048606,-0.12444747,-0.03482009,0.0
 3338815,0.03115249,0.00324550,0.00476048,-0.00174591,-0.00422955,-0.00
 225853,0.00087670,-0.00116587,0.00001108,-0.00081974,-0.00083283,-0.00
 117766,0.00118598,0.00111787,0.00069770,-0.00027351,-0.00045073,0.0000
 9584,-0.00064047,-0.00055739,-0.00404063,-0.00092113,0.00091849,0.0927
 0865,0.10174315,-0.04286363,-0.02044549,-0.00407315,-0.07625593,-0.041
 16822,-0.12494243,0.03014804,0.00335534,0.03134914,0.00195196,-0.00670
 199,0.00179095,-0.00184420,0.00065391,-0.00065469,-0.00067383,-0.00185
 138,-0.00015960,-0.00134800,0.00149506,0.00165513,0.00073311,-0.000467
 76,-0.00048265,-0.00006390,-0.00069444,-0.00078902,-0.00461318,0.00173
 865,-0.00034032,0.09616020,0.06485196,0.09938029,-0.01872058,-0.012200
 34,0.01460338,-0.00324510,-0.00391550,-0.00302450,0.00027309,0.0005079
 1,0.00007161,0.00047074,-0.00143966,0.00165827,-0.00107876,-0.00136792
 ,-0.00017795,-0.01042325,-0.01166034,-0.00334035,-0.00170555,-0.001004
 63,0.00085286,0.00060754,-0.00010135,-0.00056392,0.00060699,0.00006997
 ,-0.00023755,-0.12217370,-0.10602478,0.03867588,0.00230527,0.00046531,
 -0.00109395,0.14332788,0.00644527,0.01203595,-0.00383975,-0.00070325,0
 .00283898,-0.00078625,0.00129482,-0.00110953,0.00035482,-0.00003406,0.
 00004169,-0.00091736,0.00158802,-0.00122534,-0.00008410,-0.00657382,-0
 .00255443,-0.00600275,-0.00351227,0.00055531,0.00107199,0.00120357,0.0
 0082292,0.00040360,0.00053638,-0.00038332,-0.00040640,-0.11037120,-0.2
 2713496,0.06335345,0.00061408,-0.00087945,-0.00090190,0.12181155,0.235
 19423,0.01590572,0.00929096,-0.01215694,0.00604703,0.00506815,0.004853
 93,0.00037210,-0.00126374,-0.00053772,-0.00036878,0.00116501,-0.002832
 41,0.00009108,-0.00291161,-0.00171896,-0.02051702,-0.02354326,0.003705
 64,-0.00442752,-0.00024626,0.00208945,0.00160324,-0.00006595,-0.000279
 52,0.00026536,-0.00033895,-0.00207327,0.04148178,0.06382200,-0.0670465
 8,-0.00409413,-0.00108683,-0.00068192,-0.04186647,-0.06013115,0.075798
 92,-0.01671526,0.01351403,0.00087981,-0.00270363,0.00057607,-0.0017784
 5,0.00058437,0.00012493,0.00073292,-0.00114837,0.00184398,0.00030238,0
 .00039740,0.00126436,-0.00097052,-0.01375161,0.00690873,-0.01415223,-0
 .00294007,0.00227397,0.00183613,0.00143567,0.00004414,0.00155130,0.000
 51074,-0.00007653,0.00005448,-0.13485981,0.10568324,-0.05687560,0.0009
 0373,0.00013165,0.00070291,0.01141233,-0.01232039,0.00583714,0.1585422
 5,0.00581385,-0.00002100,-0.00466380,0.00289236,0.00109436,0.00143213,
 -0.00032944,-0.00043854,-0.00041381,-0.00153854,-0.00122001,-0.0003099
 2,0.00024185,0.00024167,-0.00106934,-0.00934988,0.01223600,-0.00709850
 ,-0.00003547,0.00329653,-0.00040587,-0.00009908,-0.00094827,-0.0007756
 8,-0.00111973,-0.00131203,0.00015256,0.11001305,-0.19823235,0.07527317
 ,-0.00125750,0.00067271,0.00028223,0.01474928,-0.01792652,0.01056668,-
 0.11972615,0.20287518,0.02016084,-0.01870966,0.00746045,0.00366002,0.0
 0043101,0.00254726,0.00021984,-0.00033933,-0.00199742,0.00037604,-0.00
 262721,-0.00165347,0.00074865,0.00146403,-0.00295568,-0.01737781,0.008
 62253,-0.01733633,-0.00796764,0.00464418,0.00409763,0.00455289,-0.0005
 3586,0.00026197,-0.00003935,-0.00134303,-0.00057589,-0.05967132,0.0746
 4987,-0.08323138,-0.00139760,-0.00024906,-0.00042362,-0.00515416,0.007
 59209,0.00007574,0.06193218,-0.07326442,0.09287436,0.00028416,0.000270
 19,-0.00033818,-0.00034688,-0.00001165,-0.00033115,0.00027135,-0.00020
 573,0.00000437,-0.00013328,0.00637280,-0.00219682,-0.05377522,-0.03038
 728,0.00664867,-0.02238286,-0.02967515,0.01751643,0.00214789,-0.008019
 74,-0.00525894,-0.00173195,0.00126561,-0.00050161,0.00227045,0.0021882
 7,0.00105666,0.00050954,-0.00058450,0.00394487,0.00047974,0.00008808,0
 .00004825,-0.00057225,-0.00019712,-0.00084577,-0.00019343,0.00010794,0
 .00000958,0.06688107,0.00005390,0.00095952,0.00024078,0.00021349,-0.00
 035776,-0.00049156,-0.00030260,0.00012886,-0.00006783,-0.00023625,-0.0
 1813471,0.00632155,-0.03255546,-0.27593215,0.08153677,-0.00683217,0.00
 194839,0.00127603,-0.00039456,0.00036182,-0.00308857,0.00073428,-0.000
 17019,0.00094547,0.00068076,0.00063710,0.00086568,-0.00018517,-0.00069
 157,0.00048399,-0.00011645,-0.00004629,-0.00007389,-0.00014649,-0.0000
 1220,-0.00013173,-0.00021627,-0.00013419,-0.00015611,0.04001023,0.2964
 6966,0.00064495,0.00035478,0.00095469,0.00043227,-0.00019475,-0.000670
 35,-0.00046113,0.00016927,-0.00010781,-0.00281849,-0.02449164,0.009197
 37,0.00705352,0.08193169,-0.08085838,0.00941498,0.00347167,-0.00343844
 ,0.00080423,0.00554014,0.00393847,0.00074486,-0.00070623,-0.00023069,-
 0.00263807,-0.00164401,-0.00049606,-0.00011585,-0.00005680,-0.00120146
 ,-0.00022396,-0.00004673,0.00007088,0.00000551,0.00016962,0.00023015,0
 .00009183,0.00000533,-0.00000826,-0.01540919,-0.08621037,0.08113074,-0
 .00091834,0.00141598,0.00205301,0.00046339,-0.00006610,-0.00008647,0.0
 0017067,-0.00014862,-0.00008446,0.00567328,-0.00282061,0.00411316,-0.1
 3691815,0.02999162,-0.12340824,-0.02811664,0.00049495,-0.02090259,-0.0
 0183164,-0.00281462,-0.00510799,-0.00007893,0.00036702,0.00140956,0.00
 184947,0.00087644,0.00189529,-0.00330692,0.00318541,0.00180380,0.00047
 540,0.00015241,0.00003698,-0.00007815,0.00000814,-0.00023167,-0.000627
 27,-0.00042372,-0.00095469,0.00500858,-0.00041665,0.00299892,0.1580416
 3,-0.00009062,-0.00238970,-0.00394432,-0.00123351,0.00108378,-0.000021
 95,0.00021294,-0.00026501,-0.00001106,-0.01424098,0.00401376,-0.015422
 25,0.03137494,-0.06096323,0.04605280,-0.00207216,0.00066414,-0.0062243
 0,0.00098871,0.00200565,0.00183286,0.00005004,-0.00022099,-0.00032012,
 -0.00117333,-0.00068039,-0.00039636,-0.00114468,-0.00044084,-0.0007885
 8,-0.00043276,-0.00069479,-0.00041864,-0.00014318,-0.00002764,-0.00013
 178,-0.00024460,-0.00019520,-0.00009110,0.01734439,-0.00510616,0.02421
 955,-0.02922083,0.06255935,0.00177964,-0.00268716,-0.00258109,-0.00065
 509,0.00080386,0.00073494,0.00007833,-0.00016214,-0.00011848,-0.012467
 96,0.00571368,-0.01366800,-0.13132818,0.04373941,-0.22618371,0.0082096
 3,-0.00303780,0.01300990,-0.00007817,-0.00001165,0.00120339,0.00067829
 ,0.00042519,-0.00070160,0.00074536,-0.00086412,-0.00087320,0.00224883,
 -0.00035747,-0.00069727,-0.00052243,-0.00039982,-0.00036787,0.00000470
 ,0.00000056,0.00013641,0.00008749,0.00011332,0.00035293,-0.00572212,0.
 00145071,-0.00708574,0.13676154,-0.04432362,0.23597274,-0.02894612,-0.
 00377428,0.01454394,-0.00270973,0.00219557,0.00419089,0.00208813,-0.00
 036817,-0.00133813,-0.16884316,-0.04981662,0.12508072,0.00137389,0.001
 49151,0.00050362,-0.00034744,-0.00069306,-0.00114312,0.00021185,-0.000
 18391,-0.00000010,0.00030069,0.00005006,0.00013084,0.00015892,0.000231
 35,0.00013384,-0.00230005,-0.00335440,-0.00198372,0.00029118,-0.000377
 68,-0.00119365,-0.00081838,0.00032491,0.00076789,-0.00012795,-0.000019
 12,0.00020288,0.00044897,0.00018411,0.00000481,-0.00032858,0.00038580,
 0.00017274,0.19273170,-0.00104144,0.00045311,-0.00376428,-0.00191341,0
 .00214962,0.00221828,0.00159084,-0.00057865,-0.00038445,-0.05147321,-0
 .07170343,0.05599216,0.01639740,0.00636991,-0.01310569,0.00100064,-0.0
 0245978,-0.00407143,0.00110943,0.00123230,0.00017982,0.00063633,-0.000
 62884,-0.00032357,-0.00015137,-0.00026362,-0.00002672,0.00098447,-0.00
 074015,-0.00087094,0.00006570,-0.00027145,-0.00049479,0.00016989,-0.00
 011660,0.00005950,0.00014898,-0.00000975,-0.00007821,0.00022606,0.0009
 5285,0.00048455,-0.00032360,-0.00022656,-0.00047389,0.05200474,0.07327
 126,-0.01470071,-0.00491620,0.01405344,-0.00059162,0.00037295,0.001935
 00,-0.00011377,-0.00102517,-0.00121184,0.13321837,0.05500156,-0.183511
 01,0.01426860,0.00788332,-0.01172662,-0.00102233,-0.00305259,-0.003082
 60,0.00046722,0.00086938,0.00083747,0.00068936,-0.00032587,-0.00025907
 ,-0.00001129,-0.00013655,-0.00010792,-0.00243589,-0.00121783,-0.001404
 45,-0.00056377,0.00027777,-0.00102215,-0.00029442,0.00015087,0.0004654
 7,-0.00004684,-0.00000486,0.00016827,-0.00018209,0.00009514,0.00146482
 ,-0.00006712,-0.00043122,-0.00059401,-0.13617992,-0.05604621,0.1905633
 3,-0.02175790,0.02530793,-0.02028435,0.00041672,0.00705998,0.00511726,
 0.00226910,-0.00167795,-0.00072258,-0.06079418,0.04499868,-0.01369233,
 -0.00060055,0.00009235,-0.00029424,0.00041775,-0.00039459,0.00020962,-
 0.00032796,0.00005238,0.00045162,0.00042514,-0.00001597,0.00002060,0.0
 0012201,0.00017465,0.00004488,0.00096395,0.00076687,-0.00360817,-0.001
 36098,-0.00128757,0.00016881,-0.00018812,-0.00011463,-0.00001997,-0.00
 071909,0.00008032,0.00069966,0.00083411,-0.00047469,-0.00052918,0.0005
 2219,-0.00036018,0.00000742,0.00681608,-0.01943146,0.00756621,0.072961
 73,0.00322233,0.00629150,-0.00042251,0.00088271,0.00146279,-0.00228209
 ,-0.00056149,0.00029549,0.00064357,0.04720007,-0.26553984,0.08681888,0
 .00157748,-0.01842957,0.00660108,-0.00017308,0.00089970,0.00025784,-0.
 00012900,-0.00037650,-0.00046750,0.00019306,-0.00003221,-0.00004997,0.
 00031364,0.00019623,-0.00001328,0.00032887,-0.00056915,0.00001895,-0.0
 0104821,-0.00046106,0.00084138,0.00023027,-0.00011910,-0.00012105,0.00
 006986,0.00002142,-0.00000973,0.00120761,-0.00087299,-0.00299608,-0.00
 025721,0.00088383,0.00007094,0.00171918,-0.00743020,0.00250550,-0.0547
 7610,0.28377964,-0.01279882,0.00653039,-0.00840497,-0.00211534,0.00660
 216,0.00456596,0.00328706,-0.00156840,-0.00015436,-0.01412156,0.086795
 78,-0.08424501,0.00446854,-0.02452131,0.00996164,-0.00077753,0.0002039
 9,0.00088174,-0.00034647,-0.00024127,-0.00067007,0.00028903,-0.0000207
 7,0.00011115,0.00047543,0.00026423,-0.00002581,0.00048597,0.00009269,-
 0.00178038,-0.00084173,-0.00102492,-0.00030895,-0.00011894,-0.00002735
 ,-0.00002841,-0.00018493,0.00018079,0.00034343,0.00155706,-0.00299603,
 -0.00288992,-0.00022900,0.00042010,0.00146065,-0.00389353,0.02070587,-
 0.00656812,0.02486476,-0.09139594,0.08775141\\0.00000709,0.00003608,0.
 00003253,0.00004942,-0.00007189,-0.00006703,-0.00005105,0.00002297,0.0
 0004482,-0.00000677,-0.00001958,0.00001264,-0.00001334,0.00000814,-0.0
 0001365,0.00000436,0.00001454,0.00002334,0.00000539,0.00000345,-0.0000
 2730,-0.00001553,0.00000643,0.00000427,0.00000639,0.00000589,-0.000007
 36,0.00000509,-0.00000995,-0.00001730,-0.00000606,-0.00000684,0.000014
 36,-0.00000633,-0.00000067,0.00000683,-0.00000768,0.00000627,-0.000005
 02,0.00000503,0.00000761,-0.00001076,0.00000886,-0.00000342,0.00001789
 ,0.00001211,0.00000746,-0.00001827,0.00000302,-0.00000651,0.00001002\\
 \@


 HE WHO LAUGHS LAST PROBABLY DIDN'T GET THE JOKE.
 Job cpu time:       0 days  0 hours 11 minutes 40.0 seconds.
 File lengths (MBytes):  RWF=     82 Int=      0 D2E=      0 Chk=      4 Scr=      1
 Normal termination of Gaussian 09 at Fri Aug 20 15:37:45 2021.
