 Entering Gaussian System, Link 0=g09
 Input=B3LYP6-31G.EWEVIM02.gjf
 Output=B3LYP6-31G.EWEVIM02.log
 Initial command:
 /public/home/users/caep010/software/Gaussian09/g09/l1.exe "/public/home/users/caep010/.cache/gau_scr/Gau-53444.inp" -scrdir="/public/home/users/caep010/.cache/gau_scr/"
 Entering Link 1 = /public/home/users/caep010/software/Gaussian09/g09/l1.exe PID=     53445.
  
 Copyright (c) 1988,1990,1992,1993,1995,1998,2003,2009,2015,
            Gaussian, Inc.  All Rights Reserved.
  
 This is part of the Gaussian(R) 09 program.  It is based on
 the Gaussian(R) 03 system (copyright 2003, Gaussian, Inc.),
 the Gaussian(R) 98 system (copyright 1998, Gaussian, Inc.),
 the Gaussian(R) 94 system (copyright 1995, Gaussian, Inc.),
 the Gaussian 92(TM) system (copyright 1992, Gaussian, Inc.),
 the Gaussian 90(TM) system (copyright 1990, Gaussian, Inc.),
 the Gaussian 88(TM) system (copyright 1988, Gaussian, Inc.),
 the Gaussian 86(TM) system (copyright 1986, Carnegie Mellon
 University), and the Gaussian 82(TM) system (copyright 1983,
 Carnegie Mellon University). Gaussian is a federally registered
 trademark of Gaussian, Inc.
  
 This software contains proprietary and confidential information,
 including trade secrets, belonging to Gaussian, Inc.
  
 This software is provided under written license and may be
 used, copied, transmitted, or stored only in accord with that
 written license.
  
 The following legend is applicable only to US Government
 contracts under FAR:
  
                    RESTRICTED RIGHTS LEGEND
  
 Use, reproduction and disclosure by the US Government is
 subject to restrictions as set forth in subparagraphs (a)
 and (c) of the Commercial Computer Software - Restricted
 Rights clause in FAR 52.227-19.
  
 Gaussian, Inc.
 340 Quinnipiac St., Bldg. 40, Wallingford CT 06492
  
  
 ---------------------------------------------------------------
 Warning -- This program may not be used in any manner that
 competes with the business of Gaussian, Inc. or will provide
 assistance to any competitor of Gaussian, Inc.  The licensee
 of this program is prohibited from giving any competitor of
 Gaussian, Inc. access to this program.  By using this program,
 the user acknowledges that Gaussian, Inc. is engaged in the
 business of creating and licensing software in the field of
 computational chemistry and represents and warrants to the
 licensee that it is not a competitor of Gaussian, Inc. and that
 it will not use this program in any manner prohibited above.
 ---------------------------------------------------------------
  

 Cite this work as:
 Gaussian 09, Revision E.01,
 M. J. Frisch, G. W. Trucks, H. B. Schlegel, G. E. Scuseria, 
 M. A. Robb, J. R. Cheeseman, G. Scalmani, V. Barone, B. Mennucci, 
 G. A. Petersson, H. Nakatsuji, M. Caricato, X. Li, H. P. Hratchian, 
 A. F. Izmaylov, J. Bloino, G. Zheng, J. L. Sonnenberg, M. Hada, 
 M. Ehara, K. Toyota, R. Fukuda, J. Hasegawa, M. Ishida, T. Nakajima, 
 Y. Honda, O. Kitao, H. Nakai, T. Vreven, J. A. Montgomery, Jr., 
 J. E. Peralta, F. Ogliaro, M. Bearpark, J. J. Heyd, E. Brothers, 
 K. N. Kudin, V. N. Staroverov, T. Keith, R. Kobayashi, J. Normand, 
 K. Raghavachari, A. Rendell, J. C. Burant, S. S. Iyengar, J. Tomasi, 
 M. Cossi, N. Rega, J. M. Millam, M. Klene, J. E. Knox, J. B. Cross, 
 V. Bakken, C. Adamo, J. Jaramillo, R. Gomperts, R. E. Stratmann, 
 O. Yazyev, A. J. Austin, R. Cammi, C. Pomelli, J. W. Ochterski, 
 R. L. Martin, K. Morokuma, V. G. Zakrzewski, G. A. Voth, 
 P. Salvador, J. J. Dannenberg, S. Dapprich, A. D. Daniels, 
 O. Farkas, J. B. Foresman, J. V. Ortiz, J. Cioslowski, 
 and D. J. Fox, Gaussian, Inc., Wallingford CT, 2013.
 
 ******************************************
 Gaussian 09:  ES64L-G09RevE.01 30-Nov-2015
                20-Aug-2021 
 ******************************************
 %nproc=32
 Will use up to   32 processors via shared memory.
 %mem=180GB
 -------------------------
 #P OPT Freq B3LYP/6-31G**
 -------------------------
 1/14=-1,18=20,19=15,26=3,38=1/1,3;
 2/9=110,12=2,17=6,18=5,40=1/2;
 3/5=1,6=6,7=101,11=2,16=1,25=1,30=1,71=1,74=-5/1,2,3;
 4//1;
 5/5=2,38=5/2;
 6/7=2,8=2,9=2,10=2,28=1/1;
 7//1,2,3,16;
 1/14=-1,18=20,19=15,26=3/3(2);
 2/9=110/2;
 99//99;
 2/9=110/2;
 3/5=1,6=6,7=101,11=2,16=1,25=1,30=1,71=1,74=-5/1,2,3;
 4/5=5,16=3,69=1/1;
 5/5=2,38=5/2;
 7//1,2,3,16;
 1/14=-1,18=20,19=15,26=3/3(-5);
 2/9=110/2;
 6/7=2,8=2,9=2,10=2,19=2,28=1/1;
 99/9=1/99;
 Leave Link    1 at Fri Aug 20 15:36:59 2021, MaxMem= 24159191040 cpu:         3.1
 (Enter /public/home/users/caep010/software/Gaussian09/g09/l101.exe)
 --------
 EWEVIM02
 --------
 Symbolic Z-matrix:
 Charge =  0 Multiplicity = 1
 O                     1.6263    6.6581    0.1832 
 H                     1.3037    7.3295   -0.2444 
 C                     2.2297    7.1162    1.2627 
 O                     2.3393    8.3204    1.4856 
 C                     2.7489    6.0699    2.1588 
 C                     2.6367    4.7265    1.7871 
 H                     2.2252    4.5152    0.9688 
 C                     3.3711    6.4141    3.3911 
 C                     3.8515    5.3595    4.1958 
 H                     4.2678    5.5452    5.0174 
 N                     3.523     7.672     3.8254 
 H                     3.2074    8.3369    3.3036 
 H                     3.9963    7.8079    4.5662 
 C                     3.7093    4.0707    3.7735 
 N                     4.2423    3.008     4.6471 
 O                     4.92      3.319     5.6027 
 C                     3.1071    3.7063    2.5753 
 H                     3.0256    2.8068    2.3184 
 O                     3.9645    1.8592    4.3862 
 
 NAtoms=     19 NQM=       19 NQMF=       0 NMMI=      0 NMMIF=      0
                NMic=       0 NMicF=      0.
                    Isotopes and Nuclear Properties:
 (Nuclear quadrupole moments (NQMom) in fm**2, nuclear magnetic moments (NMagM)
  in nuclear magnetons)

  Atom         1           2           3           4           5           6           7           8           9          10
 IAtWgt=          16           1          12          16          12          12           1          12          12           1
 AtmWgt=  15.9949146   1.0078250  12.0000000  15.9949146  12.0000000  12.0000000   1.0078250  12.0000000  12.0000000   1.0078250
 NucSpn=           0           1           0           0           0           0           1           0           0           1
 AtZEff=   0.0000000   0.0000000   0.0000000   0.0000000   0.0000000   0.0000000   0.0000000   0.0000000   0.0000000   0.0000000
 NQMom=    0.0000000   0.0000000   0.0000000   0.0000000   0.0000000   0.0000000   0.0000000   0.0000000   0.0000000   0.0000000
 NMagM=    0.0000000   2.7928460   0.0000000   0.0000000   0.0000000   0.0000000   2.7928460   0.0000000   0.0000000   2.7928460
 AtZNuc=   8.0000000   1.0000000   6.0000000   8.0000000   6.0000000   6.0000000   1.0000000   6.0000000   6.0000000   1.0000000

  Atom        11          12          13          14          15          16          17          18          19
 IAtWgt=          14           1           1          12          14          16          12           1          16
 AtmWgt=  14.0030740   1.0078250   1.0078250  12.0000000  14.0030740  15.9949146  12.0000000   1.0078250  15.9949146
 NucSpn=           2           1           1           0           2           0           0           1           0
 AtZEff=   0.0000000   0.0000000   0.0000000   0.0000000   0.0000000   0.0000000   0.0000000   0.0000000   0.0000000
 NQMom=    2.0440000   0.0000000   0.0000000   0.0000000   2.0440000   0.0000000   0.0000000   0.0000000   0.0000000
 NMagM=    0.4037610   2.7928460   2.7928460   0.0000000   0.4037610   0.0000000   0.0000000   2.7928460   0.0000000
 AtZNuc=   7.0000000   1.0000000   1.0000000   6.0000000   7.0000000   8.0000000   6.0000000   1.0000000   8.0000000
 Leave Link  101 at Fri Aug 20 15:37:00 2021, MaxMem= 24159191040 cpu:        10.5
 (Enter /public/home/users/caep010/software/Gaussian09/g09/l103.exe)

 GradGradGradGradGradGradGradGradGradGradGradGradGradGradGradGradGradGrad
 Berny optimization.
 Initialization pass.
                           ----------------------------
                           !    Initial Parameters    !
                           ! (Angstroms and Degrees)  !
 --------------------------                            --------------------------
 ! Name  Definition              Value          Derivative Info.                !
 --------------------------------------------------------------------------------
 ! R1    R(1,2)                  0.8589         estimate D2E/DX2                !
 ! R2    R(1,3)                  1.3188         estimate D2E/DX2                !
 ! R3    R(3,4)                  1.2296         estimate D2E/DX2                !
 ! R4    R(3,5)                  1.4722         estimate D2E/DX2                !
 ! R5    R(5,6)                  1.3984         estimate D2E/DX2                !
 ! R6    R(5,8)                  1.4227         estimate D2E/DX2                !
 ! R7    R(6,7)                  0.94           estimate D2E/DX2                !
 ! R8    R(6,17)                 1.3723         estimate D2E/DX2                !
 ! R9    R(8,9)                  1.4109         estimate D2E/DX2                !
 ! R10   R(8,11)                 1.3394         estimate D2E/DX2                !
 ! R11   R(9,10)                 0.9396         estimate D2E/DX2                !
 ! R12   R(9,14)                 1.3637         estimate D2E/DX2                !
 ! R13   R(11,12)                0.9022         estimate D2E/DX2                !
 ! R14   R(11,13)                0.8895         estimate D2E/DX2                !
 ! R15   R(14,15)                1.4753         estimate D2E/DX2                !
 ! R16   R(14,17)                1.3896         estimate D2E/DX2                !
 ! R17   R(15,16)                1.2121         estimate D2E/DX2                !
 ! R18   R(15,19)                1.2104         estimate D2E/DX2                !
 ! R19   R(17,18)                0.939          estimate D2E/DX2                !
 ! A1    A(2,1,3)              107.9285         estimate D2E/DX2                !
 ! A2    A(1,3,4)              121.9629         estimate D2E/DX2                !
 ! A3    A(1,3,5)              114.3761         estimate D2E/DX2                !
 ! A4    A(4,3,5)              123.6611         estimate D2E/DX2                !
 ! A5    A(3,5,6)              119.5169         estimate D2E/DX2                !
 ! A6    A(3,5,8)              120.6311         estimate D2E/DX2                !
 ! A7    A(6,5,8)              119.8502         estimate D2E/DX2                !
 ! A8    A(5,6,7)              118.8467         estimate D2E/DX2                !
 ! A9    A(5,6,17)             122.2761         estimate D2E/DX2                !
 ! A10   A(7,6,17)             118.8771         estimate D2E/DX2                !
 ! A11   A(5,8,9)              117.5222         estimate D2E/DX2                !
 ! A12   A(5,8,11)             123.8936         estimate D2E/DX2                !
 ! A13   A(9,8,11)             118.5842         estimate D2E/DX2                !
 ! A14   A(8,9,10)             120.1241         estimate D2E/DX2                !
 ! A15   A(8,9,14)             119.6248         estimate D2E/DX2                !
 ! A16   A(10,9,14)            120.251          estimate D2E/DX2                !
 ! A17   A(8,11,12)            117.7053         estimate D2E/DX2                !
 ! A18   A(8,11,13)            118.2849         estimate D2E/DX2                !
 ! A19   A(12,11,13)           123.724          estimate D2E/DX2                !
 ! A20   A(9,14,15)            117.3693         estimate D2E/DX2                !
 ! A21   A(9,14,17)            124.0584         estimate D2E/DX2                !
 ! A22   A(15,14,17)           118.5702         estimate D2E/DX2                !
 ! A23   A(14,15,16)           118.9477         estimate D2E/DX2                !
 ! A24   A(14,15,19)           118.2369         estimate D2E/DX2                !
 ! A25   A(16,15,19)           122.8061         estimate D2E/DX2                !
 ! A26   A(6,17,14)            116.668          estimate D2E/DX2                !
 ! A27   A(6,17,18)            121.684          estimate D2E/DX2                !
 ! A28   A(14,17,18)           121.648          estimate D2E/DX2                !
 ! D1    D(2,1,3,4)             -4.4037         estimate D2E/DX2                !
 ! D2    D(2,1,3,5)            175.5605         estimate D2E/DX2                !
 ! D3    D(1,3,5,6)              3.2961         estimate D2E/DX2                !
 ! D4    D(1,3,5,8)           -177.1906         estimate D2E/DX2                !
 ! D5    D(4,3,5,6)           -176.7404         estimate D2E/DX2                !
 ! D6    D(4,3,5,8)              2.7729         estimate D2E/DX2                !
 ! D7    D(3,5,6,7)             -0.3154         estimate D2E/DX2                !
 ! D8    D(3,5,6,17)           179.6523         estimate D2E/DX2                !
 ! D9    D(8,5,6,7)           -179.8325         estimate D2E/DX2                !
 ! D10   D(8,5,6,17)             0.1352         estimate D2E/DX2                !
 ! D11   D(3,5,8,9)           -179.6656         estimate D2E/DX2                !
 ! D12   D(3,5,8,11)             0.4052         estimate D2E/DX2                !
 ! D13   D(6,5,8,9)             -0.154          estimate D2E/DX2                !
 ! D14   D(6,5,8,11)           179.9169         estimate D2E/DX2                !
 ! D15   D(5,6,17,14)           -0.0898         estimate D2E/DX2                !
 ! D16   D(5,6,17,18)          179.8595         estimate D2E/DX2                !
 ! D17   D(7,6,17,14)          179.8778         estimate D2E/DX2                !
 ! D18   D(7,6,17,18)           -0.1728         estimate D2E/DX2                !
 ! D19   D(5,8,9,10)          -179.9332         estimate D2E/DX2                !
 ! D20   D(5,8,9,14)             0.1374         estimate D2E/DX2                !
 ! D21   D(11,8,9,10)           -0.0002         estimate D2E/DX2                !
 ! D22   D(11,8,9,14)         -179.9296         estimate D2E/DX2                !
 ! D23   D(5,8,11,12)            0.2591         estimate D2E/DX2                !
 ! D24   D(5,8,11,13)         -173.8318         estimate D2E/DX2                !
 ! D25   D(9,8,11,12)         -179.6693         estimate D2E/DX2                !
 ! D26   D(9,8,11,13)            6.2397         estimate D2E/DX2                !
 ! D27   D(8,9,14,15)          179.3654         estimate D2E/DX2                !
 ! D28   D(8,9,14,17)           -0.1019         estimate D2E/DX2                !
 ! D29   D(10,9,14,15)          -0.5639         estimate D2E/DX2                !
 ! D30   D(10,9,14,17)         179.9688         estimate D2E/DX2                !
 ! D31   D(9,14,15,16)          -9.038          estimate D2E/DX2                !
 ! D32   D(9,14,15,19)         169.8827         estimate D2E/DX2                !
 ! D33   D(17,14,15,16)        170.4594         estimate D2E/DX2                !
 ! D34   D(17,14,15,19)        -10.6198         estimate D2E/DX2                !
 ! D35   D(9,14,17,6)            0.0741         estimate D2E/DX2                !
 ! D36   D(9,14,17,18)        -179.8753         estimate D2E/DX2                !
 ! D37   D(15,14,17,6)        -179.3872         estimate D2E/DX2                !
 ! D38   D(15,14,17,18)          0.6634         estimate D2E/DX2                !
 --------------------------------------------------------------------------------
 Trust Radius=3.00D-01 FncErr=1.00D-07 GrdErr=1.00D-06
 Number of steps in this run=     95 maximum allowed number of steps=    114.
 GradGradGradGradGradGradGradGradGradGradGradGradGradGradGradGradGradGrad

 Leave Link  103 at Fri Aug 20 15:37:00 2021, MaxMem= 24159191040 cpu:         0.6
 (Enter /public/home/users/caep010/software/Gaussian09/g09/l202.exe)
                          Input orientation:                          
 ---------------------------------------------------------------------
 Center     Atomic      Atomic             Coordinates (Angstroms)
 Number     Number       Type             X           Y           Z
 ---------------------------------------------------------------------
      1          8           0        1.626300    6.658100    0.183200
      2          1           0        1.303700    7.329500   -0.244400
      3          6           0        2.229700    7.116200    1.262700
      4          8           0        2.339300    8.320400    1.485600
      5          6           0        2.748900    6.069900    2.158800
      6          6           0        2.636700    4.726500    1.787100
      7          1           0        2.225200    4.515200    0.968800
      8          6           0        3.371100    6.414100    3.391100
      9          6           0        3.851500    5.359500    4.195800
     10          1           0        4.267800    5.545200    5.017400
     11          7           0        3.523000    7.672000    3.825400
     12          1           0        3.207400    8.336900    3.303600
     13          1           0        3.996300    7.807900    4.566200
     14          6           0        3.709300    4.070700    3.773500
     15          7           0        4.242300    3.008000    4.647100
     16          8           0        4.920000    3.319000    5.602700
     17          6           0        3.107100    3.706300    2.575300
     18          1           0        3.025600    2.806800    2.318400
     19          8           0        3.964500    1.859200    4.386200
 ---------------------------------------------------------------------
                    Distance matrix (angstroms):
                    1          2          3          4          5
     1  O    0.000000
     2  H    0.858889   0.000000
     3  C    1.318813   1.781663   0.000000
     4  O    2.228869   2.246609   1.229550   0.000000
     5  C    2.347170   3.074177   1.472178   2.384475   0.000000
     6  C    2.706378   3.560827   2.480184   3.618766   1.398382
     7  H    2.359633   3.200203   2.617556   3.841829   2.026685
     8  C    3.659848   4.281233   2.515119   2.886091   1.422733
     9  C    4.768526   5.485213   3.784086   4.289389   2.422760
    10  H    5.620103   6.297313   4.551886   4.888196   3.279323
    11  N    4.229785   4.648212   2.923862   2.701154   2.437932
    12  H    3.880096   4.150570   2.571241   2.014694   2.580713
    13  H    5.113671   5.533609   3.809519   3.535308   3.220594
    14  C    4.891194   5.705279   4.215258   5.017104   2.743433
    15  N    6.331910   7.158038   5.690521   6.468237   4.218662
    16  O    7.167219   7.959291   6.363336   6.973129   4.913407
    17  C    4.077749   4.932600   3.757681   4.802799   2.426599
    18  H    4.620566   5.476103   4.507648   5.618216   3.278697
    19  O    6.794250   7.645031   6.356244   7.266489   4.916197
                    6          7          8          9         10
     6  C    0.000000
     7  H    0.939997   0.000000
     8  C    2.441342   3.284272   0.000000
     9  C    2.770968   3.710960   1.410853   0.000000
    10  H    3.710201   4.650191   2.050344   0.939583   0.000000
    11  N    3.690009   4.450824   1.339404   2.364903   2.549288
    12  H    3.957330   4.584910   1.931739   3.174240   3.443130
    13  H    4.366570   5.188444   1.927281   2.480489   2.323167
    14  C    2.350815   3.204134   2.398360   1.363658   2.008323
    15  N    3.702809   4.457604   3.733369   2.426097   2.564207
    16  O    4.664045   5.492347   4.107300   2.699018   2.392469
    17  C    1.372350   2.003225   2.840318   2.431712   3.269959
    18  H    2.029476   2.319632   3.779242   3.274602   4.040606
    19  O    4.091428   4.664560   4.699943   3.507295   3.751933
                   11         12         13         14         15
    11  N    0.000000
    12  H    0.902203   0.000000
    13  H    0.889532   1.579988   0.000000
    14  C    3.606489   4.321247   3.831110   0.000000
    15  N    4.790144   5.592243   4.806881   1.475330   0.000000
    16  O    4.904999   5.779116   4.698700   2.318797   1.212093
    17  C    4.178816   4.688597   4.645157   1.389646   2.463464
    18  H    5.117482   5.620114   5.568291   2.045044   2.635087
    19  O    5.856455   6.611038   5.951508   2.308952   1.210365
                   16         17         18         19
    16  O    0.000000
    17  C    3.549896   0.000000
    18  H    3.825928   0.939010   0.000000
    19  O    2.126939   2.725119   2.460747   0.000000
 Stoichiometry    C7H6N2O4
 Framework group  C1[X(C7H6N2O4)]
 Deg. of freedom    51
 Full point group                 C1      NOp   1
 Largest Abelian subgroup         C1      NOp   1
 Largest concise Abelian subgroup C1      NOp   1
                         Standard orientation:                         
 ---------------------------------------------------------------------
 Center     Atomic      Atomic             Coordinates (Angstroms)
 Number     Number       Type             X           Y           Z
 ---------------------------------------------------------------------
      1          8           0        3.186730   -1.536029   -0.006061
      2          1           0        4.042523   -1.487247   -0.060182
      3          6           0        2.710575   -0.306366    0.015703
      4          8           0        3.448307    0.676893    0.043051
      5          6           0        1.240774   -0.223639    0.003544
      6          6           0        0.484232   -1.399095    0.041244
      7          1           0        0.931327   -2.225480    0.069322
      8          6           0        0.586094    1.038908   -0.035699
      9          6           0       -0.824755    1.041918   -0.037957
     10          1           0       -1.294533    1.855204   -0.064258
     11          7           0        1.229496    2.213107   -0.071649
     12          1           0        2.131555    2.197211   -0.074378
     13          1           0        0.748887    2.959138   -0.010673
     14          6           0       -1.501424   -0.141410   -0.000314
     15          7           0       -2.975431   -0.079798    0.009935
     16          8           0       -3.516695    0.995416    0.151769
     17          6           0       -0.888069   -1.387741    0.039315
     18          1           0       -1.387894   -2.182323    0.062852
     19          8           0       -3.592701   -1.109419   -0.144471
 ---------------------------------------------------------------------
 Rotational constants (GHZ):      1.9904917      0.4648613      0.3773585
 Leave Link  202 at Fri Aug 20 15:37:00 2021, MaxMem= 24159191040 cpu:         0.8
 (Enter /public/home/users/caep010/software/Gaussian09/g09/l301.exe)
 Standard basis: 6-31G(d,p) (6D, 7F)
 Ernie: Thresh=  0.10000D-02 Tol=  0.10000D-05 Strict=F.
 There are   225 symmetry adapted cartesian basis functions of A   symmetry.
 There are   225 symmetry adapted basis functions of A   symmetry.
   225 basis functions,   406 primitive gaussians,   225 cartesian basis functions
    47 alpha electrons       47 beta electrons
       nuclear repulsion energy       774.2906112219 Hartrees.
 IExCor=  402 DFT=T Ex+Corr=B3LYP ExCW=0 ScaHFX=  0.200000
 ScaDFX=  0.800000  0.720000  1.000000  0.810000 ScalE2=  1.000000  1.000000
 IRadAn=      0 IRanWt=     -1 IRanGd=            0 ICorTp=0 IEmpDi=  4
 NAtoms=   19 NActive=   19 NUniq=   19 SFac= 1.00D+00 NAtFMM=   60 NAOKFM=F Big=F
 Integral buffers will be    131072 words long.
 Raffenetti 2 integral format.
 Two-electron integral symmetry is turned on.
 Leave Link  301 at Fri Aug 20 15:37:00 2021, MaxMem= 24159191040 cpu:         2.6
 (Enter /public/home/users/caep010/software/Gaussian09/g09/l302.exe)
 NPDir=0 NMtPBC=     1 NCelOv=     1 NCel=       1 NClECP=     1 NCelD=      1
         NCelK=      1 NCelE2=     1 NClLst=     1 CellRange=     0.0.
 One-electron integrals computed using PRISM.
 NBasis=   225 RedAO= T EigKep=  3.21D-04  NBF=   225
 NBsUse=   225 1.00D-06 EigRej= -1.00D+00 NBFU=   225
 Precomputing XC quadrature grid using
 IXCGrd= 4 IRadAn=           0 IRanWt=          -1 IRanGd=           0 AccXCQ= 0.00D+00.
 Generated NRdTot=       0 NPtTot=           0 NUsed=           0 NTot=          32
 NSgBfM=   223   223   223   223   223 MxSgAt=    19 MxSgA2=    19.
 Leave Link  302 at Fri Aug 20 15:37:01 2021, MaxMem= 24159191040 cpu:        12.6
 (Enter /public/home/users/caep010/software/Gaussian09/g09/l303.exe)
 DipDrv:  MaxL=1.
 Leave Link  303 at Fri Aug 20 15:37:01 2021, MaxMem= 24159191040 cpu:         1.8
 (Enter /public/home/users/caep010/software/Gaussian09/g09/l401.exe)
 ExpMin= 1.61D-01 ExpMax= 5.48D+03 ExpMxC= 8.25D+02 IAcc=1 IRadAn=         1 AccDes= 0.00D+00
 Harris functional with IExCor=  402 and IRadAn=       1 diagonalized for initial guess.
 HarFok:  IExCor=  402 AccDes= 0.00D+00 IRadAn=         1 IDoV= 1 UseB2=F ITyADJ=14
 ICtDFT=  3500011 ScaDFX=  1.000000  1.000000  1.000000  1.000000
 FoFCou: FMM=F IPFlag=           0 FMFlag=      100000 FMFlg1=           0
         NFxFlg=           0 DoJE=T BraDBF=F KetDBF=T FulRan=T
         wScrn=  0.000000 ICntrl=     500 IOpCl=  0 I1Cent=   200000004 NGrid=           0
         NMat0=    1 NMatS0=      1 NMatT0=    0 NMatD0=    1 NMtDS0=    0 NMtDT0=    0
 Petite list used in FoFCou.
 Harris En= -680.679100517934    
 JPrj=0 DoOrth=F DoCkMO=F.
 Leave Link  401 at Fri Aug 20 15:37:01 2021, MaxMem= 24159191040 cpu:        15.6
 (Enter /public/home/users/caep010/software/Gaussian09/g09/l502.exe)
 Closed shell SCF:
 Using DIIS extrapolation, IDIIS=  1040.
 Integral symmetry usage will be decided dynamically.
 Keep R1 ints in memory in canonical form, NReq=329178808.
 IVT=      179308 IEndB=      179308 NGot= 24159191040 MDV= 23835783708
 LenX= 23835783708 LenY= 23835732642
 Requested convergence on RMS density matrix=1.00D-08 within 128 cycles.
 Requested convergence on MAX density matrix=1.00D-06.
 Requested convergence on             energy=1.00D-06.
 No special actions if energy rises.
 FoFCou: FMM=F IPFlag=           0 FMFlag=           0 FMFlg1=           0
         NFxFlg=           0 DoJE=F BraDBF=F KetDBF=F FulRan=T
         wScrn=  0.000000 ICntrl=     600 IOpCl=  0 I1Cent=           0 NGrid=           0
         NMat0=    1 NMatS0=  25425 NMatT0=    0 NMatD0=    1 NMtDS0=    0 NMtDT0=    0
 Symmetry not used in FoFCou.
 Integral accuracy reduced to 1.0D-05 until final iterations.

 Cycle   1  Pass 0  IDiag  1:
 E= -680.178936381866    
 DIIS: error= 4.50D-02 at cycle   1 NSaved=   1.
 NSaved= 1 IEnMin= 1 EnMin= -680.178936381866     IErMin= 1 ErrMin= 4.50D-02
 ErrMax= 4.50D-02  0.00D+00 EMaxC= 1.00D-01 BMatC= 5.35D-01 BMatP= 5.35D-01
 IDIUse=3 WtCom= 5.50D-01 WtEn= 4.50D-01
 Coeff-Com:  0.100D+01
 Coeff-En:   0.100D+01
 Coeff:      0.100D+01
 Gap=     0.088 Goal=   None    Shift=    0.000
 GapD=    0.088 DampG=0.500 DampE=0.500 DampFc=0.2500 IDamp=-1.
 Damping current iteration by 2.50D-01
 RMSDP=6.82D-03 MaxDP=2.46D-01              OVMax= 3.31D-01

 Cycle   2  Pass 0  IDiag  1:
 E= -680.332370484705     Delta-E=       -0.153434102839 Rises=F Damp=T
 DIIS: error= 1.87D-02 at cycle   2 NSaved=   2.
 NSaved= 2 IEnMin= 2 EnMin= -680.332370484705     IErMin= 2 ErrMin= 1.87D-02
 ErrMax= 1.87D-02  0.00D+00 EMaxC= 1.00D-01 BMatC= 9.72D-02 BMatP= 5.35D-01
 IDIUse=3 WtCom= 8.13D-01 WtEn= 1.87D-01
 Coeff-Com: -0.552D+00 0.155D+01
 Coeff-En:   0.000D+00 0.100D+01
 Coeff:     -0.448D+00 0.145D+01
 Gap=     0.129 Goal=   None    Shift=    0.000
 RMSDP=2.26D-03 MaxDP=6.07D-02 DE=-1.53D-01 OVMax= 2.31D-01

 Cycle   3  Pass 0  IDiag  1:
 E= -680.574595558571     Delta-E=       -0.242225073867 Rises=F Damp=F
 DIIS: error= 8.63D-03 at cycle   3 NSaved=   3.
 NSaved= 3 IEnMin= 3 EnMin= -680.574595558571     IErMin= 3 ErrMin= 8.63D-03
 ErrMax= 8.63D-03  0.00D+00 EMaxC= 1.00D-01 BMatC= 2.65D-02 BMatP= 9.72D-02
 IDIUse=3 WtCom= 9.14D-01 WtEn= 8.63D-02
 Coeff-Com: -0.254D+00 0.718D+00 0.536D+00
 Coeff-En:   0.000D+00 0.000D+00 0.100D+01
 Coeff:     -0.232D+00 0.656D+00 0.576D+00
 Gap=     0.143 Goal=   None    Shift=    0.000
 RMSDP=1.04D-03 MaxDP=3.13D-02 DE=-2.42D-01 OVMax= 5.55D-02

 Cycle   4  Pass 0  IDiag  1:
 E= -680.592514012313     Delta-E=       -0.017918453741 Rises=F Damp=F
 DIIS: error= 6.04D-03 at cycle   4 NSaved=   4.
 NSaved= 4 IEnMin= 4 EnMin= -680.592514012313     IErMin= 4 ErrMin= 6.04D-03
 ErrMax= 6.04D-03  0.00D+00 EMaxC= 1.00D-01 BMatC= 7.43D-03 BMatP= 2.65D-02
 IDIUse=3 WtCom= 9.40D-01 WtEn= 6.04D-02
 Coeff-Com: -0.611D-01 0.198D+00 0.349D+00 0.514D+00
 Coeff-En:   0.000D+00 0.000D+00 0.201D+00 0.799D+00
 Coeff:     -0.574D-01 0.186D+00 0.340D+00 0.531D+00
 Gap=     0.138 Goal=   None    Shift=    0.000
 RMSDP=4.61D-04 MaxDP=2.05D-02 DE=-1.79D-02 OVMax= 3.32D-02

 Cycle   5  Pass 0  IDiag  1:
 E= -680.597731318676     Delta-E=       -0.005217306363 Rises=F Damp=F
 DIIS: error= 1.94D-03 at cycle   5 NSaved=   5.
 NSaved= 5 IEnMin= 5 EnMin= -680.597731318676     IErMin= 5 ErrMin= 1.94D-03
 ErrMax= 1.94D-03  0.00D+00 EMaxC= 1.00D-01 BMatC= 1.02D-03 BMatP= 7.43D-03
 IDIUse=3 WtCom= 9.81D-01 WtEn= 1.94D-02
 Coeff-Com:  0.398D-03 0.180D-01 0.136D+00 0.333D+00 0.513D+00
 Coeff-En:   0.000D+00 0.000D+00 0.000D+00 0.100D+00 0.900D+00
 Coeff:      0.390D-03 0.177D-01 0.133D+00 0.328D+00 0.520D+00
 Gap=     0.137 Goal=   None    Shift=    0.000
 RMSDP=1.60D-04 MaxDP=7.03D-03 DE=-5.22D-03 OVMax= 1.06D-02

 Cycle   6  Pass 0  IDiag  1:
 E= -680.598461015028     Delta-E=       -0.000729696352 Rises=F Damp=F
 DIIS: error= 5.88D-04 at cycle   6 NSaved=   6.
 NSaved= 6 IEnMin= 6 EnMin= -680.598461015028     IErMin= 6 ErrMin= 5.88D-04
 ErrMax= 5.88D-04  0.00D+00 EMaxC= 1.00D-01 BMatC= 1.07D-04 BMatP= 1.02D-03
 IDIUse=3 WtCom= 9.94D-01 WtEn= 5.88D-03
 Coeff-Com:  0.434D-02-0.331D-02 0.524D-01 0.153D+00 0.321D+00 0.473D+00
 Coeff-En:   0.000D+00 0.000D+00 0.000D+00 0.000D+00 0.505D-01 0.949D+00
 Coeff:      0.432D-02-0.329D-02 0.521D-01 0.152D+00 0.320D+00 0.475D+00
 Gap=     0.138 Goal=   None    Shift=    0.000
 RMSDP=5.11D-05 MaxDP=2.68D-03 DE=-7.30D-04 OVMax= 3.07D-03

 Cycle   7  Pass 0  IDiag  1:
 E= -680.598534336565     Delta-E=       -0.000073321537 Rises=F Damp=F
 DIIS: error= 3.73D-04 at cycle   7 NSaved=   7.
 NSaved= 7 IEnMin= 7 EnMin= -680.598534336565     IErMin= 7 ErrMin= 3.73D-04
 ErrMax= 3.73D-04  0.00D+00 EMaxC= 1.00D-01 BMatC= 1.38D-05 BMatP= 1.07D-04
 IDIUse=3 WtCom= 9.96D-01 WtEn= 3.73D-03
 Coeff-Com:  0.263D-02-0.345D-02 0.224D-01 0.707D-01 0.167D+00 0.317D+00
 Coeff-Com:  0.424D+00
 Coeff-En:   0.000D+00 0.000D+00 0.000D+00 0.000D+00 0.000D+00 0.848D-01
 Coeff-En:   0.915D+00
 Coeff:      0.262D-02-0.344D-02 0.223D-01 0.704D-01 0.166D+00 0.317D+00
 Coeff:      0.426D+00
 Gap=     0.138 Goal=   None    Shift=    0.000
 RMSDP=1.97D-05 MaxDP=1.03D-03 DE=-7.33D-05 OVMax= 1.80D-03

 Cycle   8  Pass 0  IDiag  1:
 E= -680.598543679326     Delta-E=       -0.000009342761 Rises=F Damp=F
 DIIS: error= 1.80D-04 at cycle   8 NSaved=   8.
 NSaved= 8 IEnMin= 8 EnMin= -680.598543679326     IErMin= 8 ErrMin= 1.80D-04
 ErrMax= 1.80D-04  0.00D+00 EMaxC= 1.00D-01 BMatC= 2.94D-06 BMatP= 1.38D-05
 IDIUse=3 WtCom= 9.98D-01 WtEn= 1.80D-03
 Coeff-Com:  0.118D-02-0.210D-02 0.712D-02 0.251D-01 0.670D-01 0.151D+00
 Coeff-Com:  0.324D+00 0.426D+00
 Coeff-En:   0.000D+00 0.000D+00 0.000D+00 0.000D+00 0.000D+00 0.000D+00
 Coeff-En:   0.200D+00 0.800D+00
 Coeff:      0.118D-02-0.210D-02 0.711D-02 0.251D-01 0.669D-01 0.151D+00
 Coeff:      0.324D+00 0.427D+00
 Gap=     0.138 Goal=   None    Shift=    0.000
 RMSDP=7.49D-06 MaxDP=4.53D-04 DE=-9.34D-06 OVMax= 7.24D-04

 Initial convergence to 1.0D-05 achieved.  Increase integral accuracy.
 Cycle   9  Pass 1  IDiag  1:
 E= -680.598558468552     Delta-E=       -0.000014789226 Rises=F Damp=F
 DIIS: error= 2.84D-05 at cycle   1 NSaved=   1.
 NSaved= 1 IEnMin= 1 EnMin= -680.598558468552     IErMin= 1 ErrMin= 2.84D-05
 ErrMax= 2.84D-05  0.00D+00 EMaxC= 1.00D-01 BMatC= 3.23D-07 BMatP= 3.23D-07
 IDIUse=1 WtCom= 1.00D+00 WtEn= 0.00D+00
 Coeff-Com:  0.100D+01
 Coeff:      0.100D+01
 Gap=     0.138 Goal=   None    Shift=    0.000
 RMSDP=7.49D-06 MaxDP=4.53D-04 DE=-1.48D-05 OVMax= 4.63D-04

 Cycle  10  Pass 1  IDiag  1:
 E= -680.598557663871     Delta-E=        0.000000804681 Rises=F Damp=F
 DIIS: error= 8.71D-05 at cycle   2 NSaved=   2.
 NSaved= 2 IEnMin= 1 EnMin= -680.598558468552     IErMin= 1 ErrMin= 2.84D-05
 ErrMax= 8.71D-05  0.00D+00 EMaxC= 1.00D-01 BMatC= 1.26D-06 BMatP= 3.23D-07
 IDIUse=1 WtCom= 1.00D+00 WtEn= 0.00D+00
 Coeff-Com:  0.679D+00 0.321D+00
 Coeff:      0.679D+00 0.321D+00
 Gap=     0.138 Goal=   None    Shift=    0.000
 RMSDP=5.21D-06 MaxDP=2.32D-04 DE= 8.05D-07 OVMax= 4.02D-04

 Cycle  11  Pass 1  IDiag  1:
 E= -680.598558757519     Delta-E=       -0.000001093647 Rises=F Damp=F
 DIIS: error= 2.82D-05 at cycle   3 NSaved=   3.
 NSaved= 3 IEnMin= 3 EnMin= -680.598558757519     IErMin= 3 ErrMin= 2.82D-05
 ErrMax= 2.82D-05  0.00D+00 EMaxC= 1.00D-01 BMatC= 6.27D-08 BMatP= 3.23D-07
 IDIUse=1 WtCom= 1.00D+00 WtEn= 0.00D+00
 Coeff-Com:  0.248D+00 0.194D+00 0.558D+00
 Coeff:      0.248D+00 0.194D+00 0.558D+00
 Gap=     0.138 Goal=   None    Shift=    0.000
 RMSDP=1.56D-06 MaxDP=8.48D-05 DE=-1.09D-06 OVMax= 1.48D-04

 Cycle  12  Pass 1  IDiag  1:
 E= -680.598558776697     Delta-E=       -0.000000019179 Rises=F Damp=F
 DIIS: error= 1.67D-05 at cycle   4 NSaved=   4.
 NSaved= 4 IEnMin= 4 EnMin= -680.598558776697     IErMin= 4 ErrMin= 1.67D-05
 ErrMax= 1.67D-05  0.00D+00 EMaxC= 1.00D-01 BMatC= 3.48D-08 BMatP= 6.27D-08
 IDIUse=1 WtCom= 1.00D+00 WtEn= 0.00D+00
 Coeff-Com: -0.156D-02 0.655D-01 0.466D+00 0.470D+00
 Coeff:     -0.156D-02 0.655D-01 0.466D+00 0.470D+00
 Gap=     0.138 Goal=   None    Shift=    0.000
 RMSDP=8.35D-07 MaxDP=3.56D-05 DE=-1.92D-08 OVMax= 5.89D-05

 Cycle  13  Pass 1  IDiag  1:
 E= -680.598558806726     Delta-E=       -0.000000030029 Rises=F Damp=F
 DIIS: error= 2.00D-06 at cycle   5 NSaved=   5.
 NSaved= 5 IEnMin= 5 EnMin= -680.598558806726     IErMin= 5 ErrMin= 2.00D-06
 ErrMax= 2.00D-06  0.00D+00 EMaxC= 1.00D-01 BMatC= 1.36D-09 BMatP= 3.48D-08
 IDIUse=1 WtCom= 1.00D+00 WtEn= 0.00D+00
 Coeff-Com: -0.126D-01 0.323D-01 0.265D+00 0.291D+00 0.424D+00
 Coeff:     -0.126D-01 0.323D-01 0.265D+00 0.291D+00 0.424D+00
 Gap=     0.138 Goal=   None    Shift=    0.000
 RMSDP=1.66D-07 MaxDP=5.45D-06 DE=-3.00D-08 OVMax= 1.06D-05

 Cycle  14  Pass 1  IDiag  1:
 E= -680.598558807774     Delta-E=       -0.000000001048 Rises=F Damp=F
 DIIS: error= 5.17D-07 at cycle   6 NSaved=   6.
 NSaved= 6 IEnMin= 6 EnMin= -680.598558807774     IErMin= 6 ErrMin= 5.17D-07
 ErrMax= 5.17D-07  0.00D+00 EMaxC= 1.00D-01 BMatC= 6.06D-11 BMatP= 1.36D-09
 IDIUse=1 WtCom= 1.00D+00 WtEn= 0.00D+00
 Coeff-Com: -0.634D-02 0.134D-01 0.112D+00 0.124D+00 0.234D+00 0.523D+00
 Coeff:     -0.634D-02 0.134D-01 0.112D+00 0.124D+00 0.234D+00 0.523D+00
 Gap=     0.138 Goal=   None    Shift=    0.000
 RMSDP=4.32D-08 MaxDP=1.88D-06 DE=-1.05D-09 OVMax= 2.92D-06

 Cycle  15  Pass 1  IDiag  1:
 E= -680.598558807813     Delta-E=       -0.000000000039 Rises=F Damp=F
 DIIS: error= 1.49D-07 at cycle   7 NSaved=   7.
 NSaved= 7 IEnMin= 7 EnMin= -680.598558807813     IErMin= 7 ErrMin= 1.49D-07
 ErrMax= 1.49D-07  0.00D+00 EMaxC= 1.00D-01 BMatC= 9.30D-12 BMatP= 6.06D-11
 IDIUse=1 WtCom= 1.00D+00 WtEn= 0.00D+00
 Coeff-Com: -0.221D-02 0.391D-02 0.322D-01 0.352D-01 0.848D-01 0.317D+00
 Coeff-Com:  0.529D+00
 Coeff:     -0.221D-02 0.391D-02 0.322D-01 0.352D-01 0.848D-01 0.317D+00
 Coeff:      0.529D+00
 Gap=     0.138 Goal=   None    Shift=    0.000
 RMSDP=1.56D-08 MaxDP=6.50D-07 DE=-3.91D-11 OVMax= 8.94D-07

 Cycle  16  Pass 1  IDiag  1:
 E= -680.598558807835     Delta-E=       -0.000000000023 Rises=F Damp=F
 DIIS: error= 5.00D-08 at cycle   8 NSaved=   8.
 NSaved= 8 IEnMin= 8 EnMin= -680.598558807835     IErMin= 8 ErrMin= 5.00D-08
 ErrMax= 5.00D-08  0.00D+00 EMaxC= 1.00D-01 BMatC= 8.10D-13 BMatP= 9.30D-12
 IDIUse=1 WtCom= 1.00D+00 WtEn= 0.00D+00
 Coeff-Com: -0.301D-03 0.319D-03 0.172D-02 0.106D-02 0.127D-01 0.987D-01
 Coeff-Com:  0.268D+00 0.617D+00
 Coeff:     -0.301D-03 0.319D-03 0.172D-02 0.106D-02 0.127D-01 0.987D-01
 Coeff:      0.268D+00 0.617D+00
 Gap=     0.138 Goal=   None    Shift=    0.000
 RMSDP=5.29D-09 MaxDP=1.86D-07 DE=-2.27D-11 OVMax= 3.45D-07

 SCF Done:  E(RB3LYP) =  -680.598558808     A.U. after   16 cycles
            NFock= 16  Conv=0.53D-08     -V/T= 2.0061
 KE= 6.764849764701D+02 PE=-3.140186786590D+03 EE= 1.008812640090D+03
 Leave Link  502 at Fri Aug 20 15:37:13 2021, MaxMem= 24159191040 cpu:       108.5
 (Enter /public/home/users/caep010/software/Gaussian09/g09/l601.exe)
 Copying SCF densities to generalized density rwf, IOpCl= 0 IROHF=0.

 **********************************************************************

            Population analysis using the SCF density.

 **********************************************************************

 Orbital symmetries:
       Occupied  (A) (A) (A) (A) (A) (A) (A) (A) (A) (A) (A) (A)
                 (A) (A) (A) (A) (A) (A) (A) (A) (A) (A) (A) (A)
                 (A) (A) (A) (A) (A) (A) (A) (A) (A) (A) (A) (A)
                 (A) (A) (A) (A) (A) (A) (A) (A) (A) (A) (A)
       Virtual   (A) (A) (A) (A) (A) (A) (A) (A) (A) (A) (A) (A)
                 (A) (A) (A) (A) (A) (A) (A) (A) (A) (A) (A) (A)
                 (A) (A) (A) (A) (A) (A) (A) (A) (A) (A) (A) (A)
                 (A) (A) (A) (A) (A) (A) (A) (A) (A) (A) (A) (A)
                 (A) (A) (A) (A) (A) (A) (A) (A) (A) (A) (A) (A)
                 (A) (A) (A) (A) (A) (A) (A) (A) (A) (A) (A) (A)
                 (A) (A) (A) (A) (A) (A) (A) (A) (A) (A) (A) (A)
                 (A) (A) (A) (A) (A) (A) (A) (A) (A) (A) (A) (A)
                 (A) (A) (A) (A) (A) (A) (A) (A) (A) (A) (A) (A)
                 (A) (A) (A) (A) (A) (A) (A) (A) (A) (A) (A) (A)
                 (A) (A) (A) (A) (A) (A) (A) (A) (A) (A) (A) (A)
                 (A) (A) (A) (A) (A) (A) (A) (A) (A) (A) (A) (A)
                 (A) (A) (A) (A) (A) (A) (A) (A) (A) (A) (A) (A)
                 (A) (A) (A) (A) (A) (A) (A) (A) (A) (A) (A) (A)
                 (A) (A) (A) (A) (A) (A) (A) (A) (A) (A)
 The electronic state is 1-A.
 Alpha  occ. eigenvalues --  -19.20967 -19.17949 -19.17904 -19.15133 -14.57289
 Alpha  occ. eigenvalues --  -14.34871 -10.33814 -10.26735 -10.25583 -10.21958
 Alpha  occ. eigenvalues --  -10.20306 -10.20165 -10.19273  -1.24237  -1.15195
 Alpha  occ. eigenvalues --   -1.06100  -1.03521  -0.97738  -0.89197  -0.82305
 Alpha  occ. eigenvalues --   -0.77795  -0.73913  -0.68022  -0.65283  -0.62464
 Alpha  occ. eigenvalues --   -0.58849  -0.57122  -0.54839  -0.54140  -0.51581
 Alpha  occ. eigenvalues --   -0.51405  -0.50343  -0.48153  -0.47446  -0.45970
 Alpha  occ. eigenvalues --   -0.44291  -0.41454  -0.40578  -0.39921  -0.34836
 Alpha  occ. eigenvalues --   -0.33628  -0.31138  -0.31053  -0.29413  -0.29186
 Alpha  occ. eigenvalues --   -0.28458  -0.23083
 Alpha virt. eigenvalues --   -0.09276  -0.03079  -0.01012   0.05369   0.09541
 Alpha virt. eigenvalues --    0.10267   0.12851   0.16445   0.16712   0.18822
 Alpha virt. eigenvalues --    0.20705   0.21294   0.24165   0.24377   0.26081
 Alpha virt. eigenvalues --    0.29819   0.30593   0.30921   0.35113   0.37444
 Alpha virt. eigenvalues --    0.38283   0.42252   0.48152   0.48541   0.49335
 Alpha virt. eigenvalues --    0.51848   0.52012   0.53366   0.54496   0.56947
 Alpha virt. eigenvalues --    0.57857   0.58721   0.60016   0.60471   0.60843
 Alpha virt. eigenvalues --    0.63585   0.66367   0.66715   0.67637   0.70950
 Alpha virt. eigenvalues --    0.71965   0.72809   0.76983   0.78070   0.79682
 Alpha virt. eigenvalues --    0.79907   0.81748   0.84001   0.85299   0.88643
 Alpha virt. eigenvalues --    0.89020   0.90973   0.91566   0.92657   0.93096
 Alpha virt. eigenvalues --    0.94851   0.95952   0.98656   0.99123   1.00118
 Alpha virt. eigenvalues --    1.01596   1.02743   1.04694   1.06019   1.08900
 Alpha virt. eigenvalues --    1.12300   1.13753   1.17275   1.20362   1.23253
 Alpha virt. eigenvalues --    1.24572   1.26056   1.27520   1.30291   1.31333
 Alpha virt. eigenvalues --    1.33105   1.33858   1.35788   1.36525   1.37756
 Alpha virt. eigenvalues --    1.38445   1.41890   1.43996   1.46520   1.50212
 Alpha virt. eigenvalues --    1.54593   1.56810   1.58434   1.61872   1.67346
 Alpha virt. eigenvalues --    1.68455   1.70941   1.72683   1.73262   1.75908
 Alpha virt. eigenvalues --    1.77042   1.79809   1.80978   1.81766   1.84057
 Alpha virt. eigenvalues --    1.84789   1.88452   1.89255   1.92033   1.92470
 Alpha virt. eigenvalues --    1.93601   1.97492   1.99584   2.02286   2.04292
 Alpha virt. eigenvalues --    2.06796   2.07263   2.11472   2.12694   2.15858
 Alpha virt. eigenvalues --    2.17543   2.19828   2.20630   2.22647   2.25608
 Alpha virt. eigenvalues --    2.29539   2.31596   2.37222   2.41000   2.42440
 Alpha virt. eigenvalues --    2.45769   2.46362   2.48719   2.50165   2.52846
 Alpha virt. eigenvalues --    2.54615   2.55089   2.56438   2.60268   2.61212
 Alpha virt. eigenvalues --    2.63949   2.64441   2.67137   2.69467   2.73228
 Alpha virt. eigenvalues --    2.74132   2.78995   2.80036   2.81983   2.84598
 Alpha virt. eigenvalues --    2.86273   2.86701   2.89700   2.91195   2.92932
 Alpha virt. eigenvalues --    2.97078   3.03023   3.07484   3.16389   3.21634
 Alpha virt. eigenvalues --    3.23943   3.26374   3.38048   3.51857   3.61708
 Alpha virt. eigenvalues --    3.69155   3.73445   3.74710   3.83836   3.87027
 Alpha virt. eigenvalues --    3.92061   4.01335   4.01968   4.09557   4.11085
 Alpha virt. eigenvalues --    4.14317   4.17270   4.24759   4.31452   4.46565
 Alpha virt. eigenvalues --    4.50706   4.63959   4.90314
          Condensed to atoms (all electrons):
               1          2          3          4          5          6
     1  O    7.979824   0.315186   0.309175  -0.087628  -0.098984   0.000409
     2  H    0.315186   0.383475  -0.015275   0.008999   0.013694  -0.001086
     3  C    0.309175  -0.015275   4.437334   0.525094   0.305199  -0.046895
     4  O   -0.087628   0.008999   0.525094   8.127663  -0.080474   0.004481
     5  C   -0.098984   0.013694   0.305199  -0.080474   5.119098   0.477350
     6  C    0.000409  -0.001086  -0.046895   0.004481   0.477350   4.912187
     7  H    0.012204  -0.000392  -0.015729   0.000234  -0.041129   0.379836
     8  C    0.002313  -0.000082  -0.053488  -0.006823   0.465622  -0.021138
     9  C   -0.000061   0.000003   0.008968   0.000459  -0.051418  -0.058357
    10  H    0.000000  -0.000000  -0.000139   0.000008   0.007420  -0.000130
    11  N   -0.000024   0.000006  -0.015913  -0.023186  -0.069949   0.006465
    12  H    0.000440  -0.000038   0.003196   0.046127  -0.023084  -0.000429
    13  H    0.000004  -0.000001  -0.000022   0.000766   0.007885  -0.000069
    14  C   -0.000002   0.000001  -0.000405  -0.000024  -0.042869   0.002903
    15  N   -0.000000   0.000000   0.000002  -0.000000   0.000494   0.004170
    16  O   -0.000000   0.000000   0.000000   0.000000   0.000002  -0.000057
    17  C    0.000387   0.000006   0.006346  -0.000057  -0.026526   0.460990
    18  H   -0.000006  -0.000001  -0.000153   0.000000   0.005454  -0.042390
    19  O    0.000000   0.000000  -0.000000   0.000000  -0.000007   0.001017
               7          8          9         10         11         12
     1  O    0.012204   0.002313  -0.000061   0.000000  -0.000024   0.000440
     2  H   -0.000392  -0.000082   0.000003  -0.000000   0.000006  -0.000038
     3  C   -0.015729  -0.053488   0.008968  -0.000139  -0.015913   0.003196
     4  O    0.000234  -0.006823   0.000459   0.000008  -0.023186   0.046127
     5  C   -0.041129   0.465622  -0.051418   0.007420  -0.069949  -0.023084
     6  C    0.379836  -0.021138  -0.058357  -0.000130   0.006465  -0.000429
     7  H    0.620415   0.007431   0.001121   0.000031  -0.000134  -0.000023
     8  C    0.007431   4.708660   0.410557  -0.044884   0.367580  -0.008570
     9  C    0.001121   0.410557   5.133871   0.357411  -0.080358   0.008591
    10  H    0.000031  -0.044884   0.357411   0.618822  -0.011240   0.000012
    11  N   -0.000134   0.367580  -0.080358  -0.011240   6.676334   0.344724
    12  H   -0.000023  -0.008570   0.008591   0.000012   0.344724   0.383848
    13  H    0.000004  -0.021830  -0.015455   0.004736   0.375803  -0.028046
    14  C    0.005555   0.010965   0.472617  -0.034680   0.005665  -0.000184
    15  N   -0.000160   0.003928  -0.036004  -0.017621  -0.000081   0.000000
    16  O    0.000001   0.001045  -0.003880   0.025069  -0.000004  -0.000000
    17  C   -0.047018  -0.048750  -0.094293   0.008870   0.000521   0.000046
    18  H   -0.008454   0.000316   0.008906  -0.000251   0.000011   0.000000
    19  O   -0.000000  -0.000036   0.008127   0.000401   0.000000  -0.000000
              13         14         15         16         17         18
     1  O    0.000004  -0.000002  -0.000000  -0.000000   0.000387  -0.000006
     2  H   -0.000001   0.000001   0.000000   0.000000   0.000006  -0.000001
     3  C   -0.000022  -0.000405   0.000002   0.000000   0.006346  -0.000153
     4  O    0.000766  -0.000024  -0.000000   0.000000  -0.000057   0.000000
     5  C    0.007885  -0.042869   0.000494   0.000002  -0.026526   0.005454
     6  C   -0.000069   0.002903   0.004170  -0.000057   0.460990  -0.042390
     7  H    0.000004   0.005555  -0.000160   0.000001  -0.047018  -0.008454
     8  C   -0.021830   0.010965   0.003928   0.001045  -0.048750   0.000316
     9  C   -0.015455   0.472617  -0.036004  -0.003880  -0.094293   0.008906
    10  H    0.004736  -0.034680  -0.017621   0.025069   0.008870  -0.000251
    11  N    0.375803   0.005665  -0.000081  -0.000004   0.000521   0.000011
    12  H   -0.028046  -0.000184   0.000000  -0.000000   0.000046   0.000000
    13  H    0.426408   0.000060  -0.000002  -0.000007  -0.000036  -0.000000
    14  C    0.000060   4.939941   0.159748  -0.093526   0.473498  -0.039624
    15  N   -0.000002   0.159748   5.940589   0.302804  -0.041038  -0.014997
    16  O   -0.000007  -0.093526   0.302804   8.282183   0.007501   0.000238
    17  C   -0.000036   0.473498  -0.041038   0.007501   4.975728   0.375049
    18  H   -0.000000  -0.039624  -0.014997   0.000238   0.375049   0.610294
    19  O    0.000000  -0.095383   0.305769  -0.119667  -0.000763   0.019314
              19
     1  O    0.000000
     2  H    0.000000
     3  C   -0.000000
     4  O    0.000000
     5  C   -0.000007
     6  C    0.001017
     7  H   -0.000000
     8  C   -0.000036
     9  C    0.008127
    10  H    0.000401
    11  N    0.000000
    12  H   -0.000000
    13  H    0.000000
    14  C   -0.095383
    15  N    0.305769
    16  O   -0.119667
    17  C   -0.000763
    18  H    0.019314
    19  O    8.271515
 Mulliken charges:
               1
     1  O   -0.433236
     2  H    0.295504
     3  C    0.552708
     4  O   -0.515641
     5  C    0.032221
     6  C   -0.079258
     7  H    0.086207
     8  C    0.227182
     9  C   -0.070803
    10  H    0.086165
    11  N   -0.576221
    12  H    0.273391
    13  H    0.249801
    14  C    0.235742
    15  N    0.392398
    16  O   -0.401704
    17  C   -0.050462
    18  H    0.086293
    19  O   -0.390286
 Sum of Mulliken charges =  -0.00000
 Mulliken charges with hydrogens summed into heavy atoms:
               1
     1  O   -0.137732
     3  C    0.552708
     4  O   -0.515641
     5  C    0.032221
     6  C    0.006948
     8  C    0.227182
     9  C    0.015361
    11  N   -0.053029
    14  C    0.235742
    15  N    0.392398
    16  O   -0.401704
    17  C    0.035831
    19  O   -0.390286
 Electronic spatial extent (au):  <R**2>=           2655.6558
 Charge=              0.0000 electrons
 Dipole moment (field-independent basis, Debye):
    X=              4.0267    Y=              0.3382    Z=             -0.0697  Tot=              4.0414
 Quadrupole moment (field-independent basis, Debye-Ang):
   XX=            -86.2037   YY=            -63.4691   ZZ=            -72.0678
   XY=             -5.1167   XZ=             -0.6716   YZ=             -0.5817
 Traceless Quadrupole moment (field-independent basis, Debye-Ang):
   XX=            -12.2902   YY=             10.4444   ZZ=              1.8457
   XY=             -5.1167   XZ=             -0.6716   YZ=             -0.5817
 Octapole moment (field-independent basis, Debye-Ang**2):
  XXX=             96.4695  YYY=             23.0272  ZZZ=              0.1811  XYY=             15.9313
  XXY=            -28.5109  XXZ=             -2.8482  XZZ=             -2.3865  YZZ=             -0.6819
  YYZ=              0.5541  XYZ=              2.6687
 Hexadecapole moment (field-independent basis, Debye-Ang**3):
 XXXX=          -2556.6070 YYYY=           -560.9695 ZZZZ=            -65.4273 XXXY=           -157.0846
 XXXZ=            -12.9002 YYYX=             13.6174 YYYZ=              0.8621 ZZZX=              0.0601
 ZZZY=              1.5778 XXYY=           -513.2691 XXZZ=           -396.0649 YYZZ=           -128.3776
 XXYZ=             -5.7796 YYXZ=             -1.1485 ZZXY=             -3.8218
 N-N= 7.742906112219D+02 E-N=-3.140186786807D+03  KE= 6.764849764701D+02
 No NMR shielding tensors so no spin-rotation constants.
 Leave Link  601 at Fri Aug 20 15:37:14 2021, MaxMem= 24159191040 cpu:        10.8
 (Enter /public/home/users/caep010/software/Gaussian09/g09/l701.exe)
 Compute integral first derivatives.
 ... and contract with generalized density number  0.
 Leave Link  701 at Fri Aug 20 15:37:14 2021, MaxMem= 24159191040 cpu:        11.7
 (Enter /public/home/users/caep010/software/Gaussian09/g09/l702.exe)
 L702 exits ... SP integral derivatives will be done elsewhere.
 Leave Link  702 at Fri Aug 20 15:37:14 2021, MaxMem= 24159191040 cpu:         0.6
 (Enter /public/home/users/caep010/software/Gaussian09/g09/l703.exe)
 Compute integral first derivatives, UseDBF=F ICtDFT=           0.
 Integral derivatives from FoFJK, PRISM(SPDF).
 Calling FoFJK, ICntrl=      2127 FMM=F ISym2X=0 I1Cent= 0 IOpClX= 0 NMat=1 NMatS=1 NMatT=0.
 FoFJK:  IHMeth= 1 ICntrl=    2127 DoSepK=F KAlg= 0 I1Cent=   0 FoldK=F
 IRaf=         0 NMat=   1 IRICut=       1 DoRegI=T DoRafI=F ISym2E= 0.
 FoFCou: FMM=F IPFlag=           0 FMFlag=      100000 FMFlg1=         800
         NFxFlg=           0 DoJE=F BraDBF=F KetDBF=F FulRan=T
         wScrn=  0.000000 ICntrl=    2127 IOpCl=  0 I1Cent=           0 NGrid=           0
         NMat0=    1 NMatS0=      1 NMatT0=    0 NMatD0=    1 NMtDS0=    0 NMtDT0=    0
 Symmetry not used in FoFCou.
 Leave Link  703 at Fri Aug 20 15:37:15 2021, MaxMem= 24159191040 cpu:        25.2
 (Enter /public/home/users/caep010/software/Gaussian09/g09/l716.exe)
 Dipole        = 1.58421507D+00 1.33041789D-01-2.74323400D-02
 ***** Axes restored to original set *****
 -------------------------------------------------------------------
 Center     Atomic                   Forces (Hartrees/Bohr)
 Number     Number              X              Y              Z
 -------------------------------------------------------------------
      1        8           0.046775823   -0.133596883    0.059581941
      2        1          -0.060258893    0.126715466   -0.083741031
      3        6           0.016904056    0.013785969    0.029466553
      4        8          -0.003642452   -0.002567600   -0.003194607
      5        6          -0.000413280    0.004525163   -0.000863509
      6        6           0.060623362    0.034510882    0.122660258
      7        1          -0.067415477   -0.032659681   -0.133823185
      8        6          -0.002071382   -0.017900537   -0.006598005
      9        6          -0.063819654   -0.019422661   -0.126327958
     10        1           0.068561766    0.029501370    0.134419154
     11        7          -0.035247619   -0.110739530   -0.049542269
     12        1          -0.044995961    0.104953345   -0.076700198
     13        1           0.081297257    0.029191554    0.130129628
     14        6           0.003121540   -0.011007798    0.000789962
     15        7          -0.005994171    0.007075713   -0.004079536
     16        8           0.016602311    0.018379621    0.021484629
     17        6           0.013899501    0.134789917    0.043032181
     18        1          -0.012473130   -0.147514982   -0.040507774
     19        8          -0.011453596   -0.028019327   -0.016186234
 -------------------------------------------------------------------
 Cartesian Forces:  Max     0.147514982 RMS     0.065569920
 Leave Link  716 at Fri Aug 20 15:37:15 2021, MaxMem= 24159191040 cpu:         0.7
 (Enter /public/home/users/caep010/software/Gaussian09/g09/l103.exe)

 GradGradGradGradGradGradGradGradGradGradGradGradGradGradGradGradGradGrad
 Berny optimization.
 FormGI is forming the generalized inverse of G from B-inverse, IUseBI=4.
 Internal  Forces:  Max     0.163377167 RMS     0.041356547
 Search for a local minimum.
 Step number   1 out of a maximum of   95
 All quantities printed in internal units (Hartrees-Bohrs-Radians)
 RMS Force = .41357D-01 SwitMx=.10000D-02 MixMth= 1
 Mixed Optimization -- RFO/linear search
 Second derivative matrix not updated -- first step.
 ITU=  0
     Eigenvalues ---    0.00695   0.00698   0.01134   0.01664   0.01708
     Eigenvalues ---    0.01890   0.01898   0.02088   0.02227   0.02251
     Eigenvalues ---    0.02273   0.02349   0.02415   0.02493   0.02535
     Eigenvalues ---    0.02766   0.16000   0.16000   0.16000   0.16000
     Eigenvalues ---    0.16000   0.16000   0.22367   0.23509   0.24594
     Eigenvalues ---    0.24999   0.24999   0.25000   0.25000   0.25000
     Eigenvalues ---    0.25000   0.25000   0.35110   0.35481   0.40299
     Eigenvalues ---    0.41838   0.44507   0.46454   0.49244   0.51249
     Eigenvalues ---    0.57339   0.60008   0.60107   0.60245   0.62228
     Eigenvalues ---    0.70022   0.73876   0.84439   0.91274   0.98974
     Eigenvalues ---    0.99783
 RFO step:  Lambda=-1.72231515D-01 EMin= 6.95314911D-03
 Linear search not attempted -- first point.
 Maximum step size (   0.300) exceeded in Quadratic search.
    -- Step size scaled by   0.659
 Iteration  1 RMS(Cart)=  0.03709834 RMS(Int)=  0.00017022
 Iteration  2 RMS(Cart)=  0.00024117 RMS(Int)=  0.00000201
 Iteration  3 RMS(Cart)=  0.00000011 RMS(Int)=  0.00000201
 ITry= 1 IFail=0 DXMaxC= 1.54D-01 DCOld= 1.00D+10 DXMaxT= 3.00D-01 DXLimC= 3.00D+00 Rises=F
 Variable       Old X    -DE/DX   Delta X   Delta X   Delta X     New X
                                 (Linear)    (Quad)   (Total)
    R1        1.62307   0.16338   0.00000   0.10590   0.10590   1.72896
    R2        2.49220   0.02834   0.00000   0.02350   0.02350   2.51570
    R3        2.32351  -0.00342   0.00000  -0.00208  -0.00208   2.32144
    R4        2.78201   0.00187   0.00000   0.00234   0.00234   2.78435
    R5        2.64256   0.00934   0.00000   0.00958   0.00958   2.65214
    R6        2.68858   0.00184   0.00000   0.00164   0.00164   2.69022
    R7        1.77634   0.15335   0.00000   0.13084   0.13084   1.90718
    R8        2.59336   0.01498   0.00000   0.01475   0.01475   2.60811
    R9        2.66613   0.00722   0.00000   0.00759   0.00759   2.67372
   R10        2.53111   0.02336   0.00000   0.02065   0.02065   2.55175
   R11        1.77556   0.15375   0.00000   0.13101   0.13101   1.90657
   R12        2.57694   0.01614   0.00000   0.01548   0.01548   2.59242
   R13        1.70492   0.13745   0.00000   0.10381   0.10381   1.80873
   R14        1.68097   0.15609   0.00000   0.11290   0.11290   1.79387
   R15        2.78797   0.00226   0.00000   0.00285   0.00285   2.79082
   R16        2.62605   0.00768   0.00000   0.00820   0.00820   2.63425
   R17        2.29052   0.03094   0.00000   0.01755   0.01755   2.30807
   R18        2.28726   0.03271   0.00000   0.01842   0.01842   2.30568
   R19        1.77447   0.15347   0.00000   0.13054   0.13054   1.90502
    A1        1.88371   0.00309   0.00000   0.00612   0.00612   1.88983
    A2        2.12865  -0.00469   0.00000  -0.00732  -0.00732   2.12133
    A3        1.99624   0.00017   0.00000   0.00026   0.00026   1.99650
    A4        2.15829   0.00452   0.00000   0.00706   0.00706   2.16535
    A5        2.08596   0.00267   0.00000   0.00455   0.00455   2.09051
    A6        2.10541  -0.00498   0.00000  -0.00739  -0.00739   2.09802
    A7        2.09178   0.00232   0.00000   0.00285   0.00285   2.09463
    A8        2.07427  -0.00086   0.00000  -0.00201  -0.00201   2.07226
    A9        2.13412  -0.00158   0.00000  -0.00253  -0.00253   2.13159
   A10        2.07480   0.00244   0.00000   0.00455   0.00454   2.07934
   A11        2.05115   0.00196   0.00000   0.00223   0.00223   2.05337
   A12        2.16235  -0.00644   0.00000  -0.00964  -0.00964   2.15271
   A13        2.06968   0.00448   0.00000   0.00741   0.00741   2.07710
   A14        2.09656   0.00135   0.00000   0.00250   0.00250   2.09906
   A15        2.08785  -0.00106   0.00000  -0.00175  -0.00175   2.08609
   A16        2.09878  -0.00029   0.00000  -0.00075  -0.00075   2.09803
   A17        2.05434   0.00295   0.00000   0.00586   0.00586   2.06021
   A18        2.06446   0.00321   0.00000   0.00638   0.00638   2.07084
   A19        2.15939  -0.00611   0.00000  -0.01212  -0.01212   2.14727
   A20        2.04848   0.00158   0.00000   0.00204   0.00204   2.05052
   A21        2.16523  -0.00082   0.00000  -0.00042  -0.00042   2.16481
   A22        2.06944  -0.00076   0.00000  -0.00161  -0.00161   2.06783
   A23        2.07603  -0.00876   0.00000  -0.01364  -0.01365   2.06238
   A24        2.06362  -0.00731   0.00000  -0.01138  -0.01139   2.05224
   A25        2.14337   0.01610   0.00000   0.02515   0.02514   2.16851
   A26        2.03624  -0.00082   0.00000  -0.00037  -0.00037   2.03587
   A27        2.12379   0.00199   0.00000   0.00332   0.00331   2.12710
   A28        2.12316  -0.00117   0.00000  -0.00294  -0.00295   2.12021
    D1       -0.07686   0.00162   0.00000   0.00534   0.00534  -0.07152
    D2        3.06411   0.00161   0.00000   0.00531   0.00531   3.06942
    D3        0.05753  -0.00089   0.00000  -0.00317  -0.00317   0.05436
    D4       -3.09256  -0.00066   0.00000  -0.00239  -0.00239  -3.09495
    D5       -3.08470  -0.00090   0.00000  -0.00321  -0.00321  -3.08791
    D6        0.04840  -0.00067   0.00000  -0.00243  -0.00243   0.04596
    D7       -0.00550   0.00015   0.00000   0.00057   0.00058  -0.00493
    D8        3.13552   0.00024   0.00000   0.00086   0.00086   3.13639
    D9       -3.13867  -0.00004   0.00000  -0.00015  -0.00015  -3.13882
   D10        0.00236   0.00004   0.00000   0.00014   0.00014   0.00250
   D11       -3.13576  -0.00034   0.00000  -0.00115  -0.00115  -3.13691
   D12        0.00707  -0.00035   0.00000  -0.00118  -0.00118   0.00589
   D13       -0.00269  -0.00011   0.00000  -0.00037  -0.00037  -0.00305
   D14        3.14014  -0.00012   0.00000  -0.00039  -0.00039   3.13975
   D15       -0.00157   0.00005   0.00000   0.00016   0.00016  -0.00140
   D16        3.13914  -0.00009   0.00000  -0.00030  -0.00030   3.13884
   D17        3.13946   0.00013   0.00000   0.00045   0.00045   3.13991
   D18       -0.00302  -0.00001   0.00000  -0.00001  -0.00001  -0.00303
   D19       -3.14043  -0.00002   0.00000  -0.00007  -0.00007  -3.14050
   D20        0.00240   0.00008   0.00000   0.00028   0.00028   0.00268
   D21       -0.00000  -0.00002   0.00000  -0.00006  -0.00006  -0.00006
   D22       -3.14036   0.00008   0.00000   0.00030   0.00030  -3.14007
   D23        0.00452  -0.00092   0.00000  -0.00308  -0.00308   0.00144
   D24       -3.03394  -0.00108   0.00000  -0.00361  -0.00361  -3.03754
   D25       -3.13582  -0.00093   0.00000  -0.00311  -0.00311  -3.13893
   D26        0.10890  -0.00109   0.00000  -0.00363  -0.00363   0.10527
   D27        3.13052   0.00028   0.00000   0.00096   0.00096   3.13147
   D28       -0.00178   0.00001   0.00000   0.00002   0.00002  -0.00176
   D29       -0.00984   0.00038   0.00000   0.00131   0.00131  -0.00853
   D30        3.14105   0.00011   0.00000   0.00037   0.00037   3.14142
   D31       -0.15774  -0.00051   0.00000  -0.00186  -0.00186  -0.15960
   D32        2.96501   0.00161   0.00000   0.00594   0.00594   2.97095
   D33        2.97508  -0.00026   0.00000  -0.00097  -0.00097   2.97411
   D34       -0.18535   0.00186   0.00000   0.00683   0.00683  -0.17853
   D35        0.00129  -0.00007   0.00000  -0.00024  -0.00024   0.00105
   D36       -3.13942   0.00006   0.00000   0.00021   0.00021  -3.13921
   D37       -3.13090  -0.00036   0.00000  -0.00121  -0.00121  -3.13210
   D38        0.01158  -0.00022   0.00000  -0.00075  -0.00075   0.01083
         Item               Value     Threshold  Converged?
 Maximum Force            0.163377     0.000450     NO 
 RMS     Force            0.041357     0.000300     NO 
 Maximum Displacement     0.153656     0.001800     NO 
 RMS     Displacement     0.037127     0.001200     NO 
 Predicted change in Energy=-8.386871D-02
 Lowest energy point so far.  Saving SCF results.
 GradGradGradGradGradGradGradGradGradGradGradGradGradGradGradGradGradGrad

 Leave Link  103 at Fri Aug 20 15:37:15 2021, MaxMem= 24159191040 cpu:         3.4
 (Enter /public/home/users/caep010/software/Gaussian09/g09/l202.exe)
                          Input orientation:                          
 ---------------------------------------------------------------------
 Center     Atomic      Atomic             Coordinates (Angstroms)
 Number     Number       Type             X           Y           Z
 ---------------------------------------------------------------------
      1          8           0        1.623852    6.664371    0.177025
      2          1           0        1.283227    7.379939   -0.280171
      3          6           0        2.232097    7.118723    1.270564
      4          8           0        2.337940    8.322021    1.494092
      5          6           0        2.750030    6.065193    2.160945
      6          6           0        2.636374    4.717561    1.785907
      7          1           0        2.193797    4.494298    0.906798
      8          6           0        3.372479    6.411239    3.393605
      9          6           0        3.855512    5.356819    4.203998
     10          1           0        4.302544    5.557123    5.086009
     11          7           0        3.519407    7.684306    3.819164
     12          1           0        3.185628    8.386641    3.261104
     13          1           0        4.019870    7.845083    4.609615
     14          6           0        3.713427    4.059543    3.781076
     15          7           0        4.245430    2.995278    4.655927
     16          8           0        4.927362    3.324030    5.614391
     17          6           0        3.109827    3.692357    2.579397
     18          1           0        3.024043    2.725489    2.307267
     19          8           0        3.962854    1.841387    4.377787
 ---------------------------------------------------------------------
                    Distance matrix (angstroms):
                    1          2          3          4          5
     1  O    0.000000
     2  H    0.914926   0.000000
     3  C    1.331250   1.836673   0.000000
     4  O    2.234366   2.268908   1.228451   0.000000
     5  C    2.358650   3.136736   1.473417   2.389096   0.000000
     6  C    2.720987   3.631520   2.488895   3.628546   1.403454
     7  H    2.359369   3.250378   2.649793   3.875197   2.085664
     8  C    3.669899   4.335894   2.511634   2.886089   1.423601
     9  C    4.786075   5.551346   3.787455   4.294070   2.428570
    10  H    5.700835   6.421434   4.613346   4.940263   3.350289
    11  N    4.230671   4.679497   2.910741   2.684866   2.441958
    12  H    3.862241   4.144057   2.545405   1.960888   2.605612
    13  H    5.175214   5.622774   3.856552   3.572513   3.282756
    14  C    4.913313   5.781404   4.225588   5.029014   2.752379
    15  N    6.355744   7.236363   5.702367   6.481505   4.229129
    16  O    7.185820   8.029693   6.366551   6.975807   4.917422
    17  C    4.100290   5.011173   3.771397   4.817415   2.436167
    18  H    4.691829   5.602605   4.582842   5.696768   3.354120
    19  O    6.810177   7.717029   6.364011   7.276995   4.921979
                    6          7          8          9         10
     6  C    0.000000
     7  H    1.009235   0.000000
     8  C    2.448486   3.353828   0.000000
     9  C    2.782465   3.791671   1.414871   0.000000
    10  H    3.790997   4.800231   2.111579   1.008911   0.000000
    11  N    3.703438   4.518327   1.350329   2.382910   2.596749
    12  H    3.992497   4.655837   1.988638   3.243087   3.547386
    13  H    4.434950   5.317252   1.988393   2.526460   2.354064
    14  C    2.360875   3.280208   2.407666   1.371851   2.071872
    15  N    3.713803   4.529043   3.744902   2.435806   2.598323
    16  O    4.674167   5.568064   4.108578   2.696349   2.378295
    17  C    1.380155   2.068770   2.850305   2.442500   3.344104
    18  H    2.095342   2.404019   3.858276   3.348556   4.168228
    19  O    4.092648   4.713308   4.711763   3.521362   3.797850
                   11         12         13         14         15
    11  N    0.000000
    12  H    0.957138   0.000000
    13  H    0.949276   1.675628   0.000000
    14  C    3.630152   4.390070   3.887248   0.000000
    15  N    4.818119   5.668819   4.855269   1.476838   0.000000
    16  O    4.921095   5.848215   4.719431   2.318547   1.221378
    17  C    4.200052   4.744130   4.711167   1.393984   2.467284
    18  H    5.207791   5.743218   5.701116   2.104059   2.660972
    19  O    5.886290   6.685164   6.008441   2.310518   1.220113
                   16         17         18         19
    16  O    0.000000
    17  C    3.556724   0.000000
    18  H    3.862375   1.008091   0.000000
    19  O    2.158170   2.718079   2.439273   0.000000
 Stoichiometry    C7H6N2O4
 Framework group  C1[X(C7H6N2O4)]
 Deg. of freedom    51
 Full point group                 C1      NOp   1
 RotChk:  IX=0 Diff= 2.41D-03
 Largest Abelian subgroup         C1      NOp   1
 Largest concise Abelian subgroup C1      NOp   1
                         Standard orientation:                         
 ---------------------------------------------------------------------
 Center     Atomic      Atomic             Coordinates (Angstroms)
 Number     Number       Type             X           Y           Z
 ---------------------------------------------------------------------
      1          8           0        3.196770   -1.542213   -0.003926
      2          1           0        4.108706   -1.491601   -0.057790
      3          6           0        2.710223   -0.303209    0.015270
      4          8           0        3.449822    0.677353    0.039444
      5          6           0        1.238817   -0.227074    0.004058
      6          6           0        0.479533   -1.406808    0.041466
      7          1           0        0.961345   -2.293105    0.071294
      8          6           0        0.587337    1.038108   -0.035040
      9          6           0       -0.827494    1.048278   -0.038201
     10          1           0       -1.329687    1.922872   -0.066287
     11          7           0        1.250719    2.213726   -0.070169
     12          1           0        2.207579    2.190624   -0.069776
     13          1           0        0.752574    3.019446   -0.008585
     14          6           0       -1.512177   -0.139911   -0.000901
     15          7           0       -2.987626   -0.076403    0.007345
     16          8           0       -3.516909    1.014772    0.152122
     17          6           0       -0.900539   -1.391908    0.039039
     18          1           0       -1.442115   -2.241813    0.063642
     19          8           0       -3.598965   -1.121480   -0.143499
 ---------------------------------------------------------------------
 Rotational constants (GHZ):      1.9665361      0.4625406      0.3749586
 Leave Link  202 at Fri Aug 20 15:37:15 2021, MaxMem= 24159191040 cpu:         0.8
 (Enter /public/home/users/caep010/software/Gaussian09/g09/l301.exe)
 Standard basis: 6-31G(d,p) (6D, 7F)
 Ernie: Thresh=  0.10000D-02 Tol=  0.10000D-05 Strict=F.
 There are   225 symmetry adapted cartesian basis functions of A   symmetry.
 There are   225 symmetry adapted basis functions of A   symmetry.
   225 basis functions,   406 primitive gaussians,   225 cartesian basis functions
    47 alpha electrons       47 beta electrons
       nuclear repulsion energy       769.4501646006 Hartrees.
 IExCor=  402 DFT=T Ex+Corr=B3LYP ExCW=0 ScaHFX=  0.200000
 ScaDFX=  0.800000  0.720000  1.000000  0.810000 ScalE2=  1.000000  1.000000
 IRadAn=      0 IRanWt=     -1 IRanGd=            0 ICorTp=0 IEmpDi=  4
 NAtoms=   19 NActive=   19 NUniq=   19 SFac= 1.00D+00 NAtFMM=   60 NAOKFM=F Big=F
 Integral buffers will be    131072 words long.
 Raffenetti 2 integral format.
 Two-electron integral symmetry is turned on.
 Leave Link  301 at Fri Aug 20 15:37:15 2021, MaxMem= 24159191040 cpu:         1.6
 (Enter /public/home/users/caep010/software/Gaussian09/g09/l302.exe)
 NPDir=0 NMtPBC=     1 NCelOv=     1 NCel=       1 NClECP=     1 NCelD=      1
         NCelK=      1 NCelE2=     1 NClLst=     1 CellRange=     0.0.
 One-electron integrals computed using PRISM.
 NBasis=   225 RedAO= T EigKep=  3.43D-04  NBF=   225
 NBsUse=   225 1.00D-06 EigRej= -1.00D+00 NBFU=   225
 Precomputing XC quadrature grid using
 IXCGrd= 4 IRadAn=           0 IRanWt=          -1 IRanGd=           0 AccXCQ= 0.00D+00.
 Generated NRdTot=       0 NPtTot=           0 NUsed=           0 NTot=          32
 NSgBfM=   223   223   223   223   223 MxSgAt=    19 MxSgA2=    19.
 Leave Link  302 at Fri Aug 20 15:37:16 2021, MaxMem= 24159191040 cpu:        12.1
 (Enter /public/home/users/caep010/software/Gaussian09/g09/l303.exe)
 DipDrv:  MaxL=1.
 Leave Link  303 at Fri Aug 20 15:37:16 2021, MaxMem= 24159191040 cpu:         0.8
 (Enter /public/home/users/caep010/software/Gaussian09/g09/l401.exe)
 Initial guess from the checkpoint file:  "/public/home/users/caep010/.cache/gau_scr/Gau-53445.chk"
 B after Tr=     0.000000    0.000000    0.000000
         Rot=    1.000000    0.000147    0.000029    0.000694 Ang=   0.08 deg.
 Guess basis will be translated and rotated to current coordinates.
 JPrj=2 DoOrth=T DoCkMO=T.
 Generating alternative initial guess.
 ExpMin= 1.61D-01 ExpMax= 5.48D+03 ExpMxC= 8.25D+02 IAcc=1 IRadAn=         1 AccDes= 0.00D+00
 Harris functional with IExCor=  402 and IRadAn=       1 diagonalized for initial guess.
 HarFok:  IExCor=  402 AccDes= 0.00D+00 IRadAn=         1 IDoV= 1 UseB2=F ITyADJ=14
 ICtDFT=  3500011 ScaDFX=  1.000000  1.000000  1.000000  1.000000
 FoFCou: FMM=F IPFlag=           0 FMFlag=      100000 FMFlg1=           0
         NFxFlg=           0 DoJE=T BraDBF=F KetDBF=T FulRan=T
         wScrn=  0.000000 ICntrl=     500 IOpCl=  0 I1Cent=   200000004 NGrid=           0
         NMat0=    1 NMatS0=      1 NMatT0=    0 NMatD0=    1 NMtDS0=    0 NMtDT0=    0
 Petite list used in FoFCou.
 Harris En= -680.724165116543    
 Leave Link  401 at Fri Aug 20 15:37:17 2021, MaxMem= 24159191040 cpu:        17.9
 (Enter /public/home/users/caep010/software/Gaussian09/g09/l502.exe)
 Closed shell SCF:
 Using DIIS extrapolation, IDIIS=  1040.
 Integral symmetry usage will be decided dynamically.
 Keep R1 ints in memory in canonical form, NReq=329178808.
 IVT=      179308 IEndB=      179308 NGot= 24159191040 MDV= 23835783708
 LenX= 23835783708 LenY= 23835732642
 Requested convergence on RMS density matrix=1.00D-08 within 128 cycles.
 Requested convergence on MAX density matrix=1.00D-06.
 Requested convergence on             energy=1.00D-06.
 No special actions if energy rises.
 FoFCou: FMM=F IPFlag=           0 FMFlag=           0 FMFlg1=           0
         NFxFlg=           0 DoJE=F BraDBF=F KetDBF=F FulRan=T
         wScrn=  0.000000 ICntrl=     600 IOpCl=  0 I1Cent=           0 NGrid=           0
         NMat0=    1 NMatS0=  25425 NMatT0=    0 NMatD0=    1 NMtDS0=    0 NMtDT0=    0
 Symmetry not used in FoFCou.
 Integral accuracy reduced to 1.0D-05 until final iterations.

 Cycle   1  Pass 0  IDiag  1:
 E= -680.670816769733    
 DIIS: error= 3.22D-03 at cycle   1 NSaved=   1.
 NSaved= 1 IEnMin= 1 EnMin= -680.670816769733     IErMin= 1 ErrMin= 3.22D-03
 ErrMax= 3.22D-03  0.00D+00 EMaxC= 1.00D-01 BMatC= 5.31D-03 BMatP= 5.31D-03
 IDIUse=3 WtCom= 9.68D-01 WtEn= 3.22D-02
 Coeff-Com:  0.100D+01
 Coeff-En:   0.100D+01
 Coeff:      0.100D+01
 Gap=     1.884 Goal=   None    Shift=    0.000
 GapD=    1.884 DampG=2.000 DampE=1.000 DampFc=2.0000 IDamp=-1.
 RMSDP=6.67D-04 MaxDP=1.63D-02              OVMax= 1.50D-02

 Cycle   2  Pass 0  IDiag  1:
 E= -680.675058659718     Delta-E=       -0.004241889985 Rises=F Damp=F
 DIIS: error= 2.43D-03 at cycle   2 NSaved=   2.
 NSaved= 2 IEnMin= 2 EnMin= -680.675058659718     IErMin= 2 ErrMin= 2.43D-03
 ErrMax= 2.43D-03  0.00D+00 EMaxC= 1.00D-01 BMatC= 1.88D-03 BMatP= 5.31D-03
 IDIUse=3 WtCom= 9.76D-01 WtEn= 2.43D-02
 Coeff-Com:  0.327D+00 0.673D+00
 Coeff-En:   0.000D+00 0.100D+01
 Coeff:      0.319D+00 0.681D+00
 Gap=     0.138 Goal=   None    Shift=    0.000
 RMSDP=2.88D-04 MaxDP=1.61D-02 DE=-4.24D-03 OVMax= 1.81D-02

 Cycle   3  Pass 0  IDiag  1:
 E= -680.675607769163     Delta-E=       -0.000549109445 Rises=F Damp=F
 DIIS: error= 2.15D-03 at cycle   3 NSaved=   3.
 NSaved= 3 IEnMin= 3 EnMin= -680.675607769163     IErMin= 3 ErrMin= 2.15D-03
 ErrMax= 2.15D-03  0.00D+00 EMaxC= 1.00D-01 BMatC= 1.29D-03 BMatP= 1.88D-03
 IDIUse=3 WtCom= 9.79D-01 WtEn= 2.15D-02
 Coeff-Com:  0.436D-01 0.447D+00 0.509D+00
 Coeff-En:   0.000D+00 0.411D+00 0.589D+00
 Coeff:      0.427D-01 0.447D+00 0.511D+00
 Gap=     0.135 Goal=   None    Shift=    0.000
 RMSDP=1.59D-04 MaxDP=7.13D-03 DE=-5.49D-04 OVMax= 9.92D-03

 Cycle   4  Pass 0  IDiag  1:
 E= -680.676580727215     Delta-E=       -0.000972958052 Rises=F Damp=F
 DIIS: error= 5.63D-04 at cycle   4 NSaved=   4.
 NSaved= 4 IEnMin= 4 EnMin= -680.676580727215     IErMin= 4 ErrMin= 5.63D-04
 ErrMax= 5.63D-04  0.00D+00 EMaxC= 1.00D-01 BMatC= 8.14D-05 BMatP= 1.29D-03
 IDIUse=3 WtCom= 9.94D-01 WtEn= 5.63D-03
 Coeff-Com:  0.810D-02 0.226D+00 0.302D+00 0.464D+00
 Coeff-En:   0.000D+00 0.000D+00 0.000D+00 0.100D+01
 Coeff:      0.805D-02 0.225D+00 0.300D+00 0.467D+00
 Gap=     0.134 Goal=   None    Shift=    0.000
 RMSDP=4.48D-05 MaxDP=2.53D-03 DE=-9.73D-04 OVMax= 3.68D-03

 Cycle   5  Pass 0  IDiag  1:
 E= -680.676636949583     Delta-E=       -0.000056222368 Rises=F Damp=F
 DIIS: error= 1.78D-04 at cycle   5 NSaved=   5.
 NSaved= 5 IEnMin= 5 EnMin= -680.676636949583     IErMin= 5 ErrMin= 1.78D-04
 ErrMax= 1.78D-04  0.00D+00 EMaxC= 1.00D-01 BMatC= 9.05D-06 BMatP= 8.14D-05
 IDIUse=3 WtCom= 9.98D-01 WtEn= 1.78D-03
 Coeff-Com: -0.187D-02 0.604D-01 0.927D-01 0.278D+00 0.571D+00
 Coeff-En:   0.000D+00 0.000D+00 0.000D+00 0.888D-01 0.911D+00
 Coeff:     -0.187D-02 0.603D-01 0.925D-01 0.277D+00 0.572D+00
 Gap=     0.134 Goal=   None    Shift=    0.000
 RMSDP=1.51D-05 MaxDP=5.92D-04 DE=-5.62D-05 OVMax= 9.70D-04

 Cycle   6  Pass 0  IDiag  1:
 E= -680.676643346443     Delta-E=       -0.000006396860 Rises=F Damp=F
 DIIS: error= 4.73D-05 at cycle   6 NSaved=   6.
 NSaved= 6 IEnMin= 6 EnMin= -680.676643346443     IErMin= 6 ErrMin= 4.73D-05
 ErrMax= 4.73D-05  0.00D+00 EMaxC= 1.00D-01 BMatC= 1.01D-06 BMatP= 9.05D-06
 IDIUse=1 WtCom= 1.00D+00 WtEn= 0.00D+00
 Coeff-Com: -0.182D-02 0.203D-01 0.337D-01 0.129D+00 0.344D+00 0.474D+00
 Coeff:     -0.182D-02 0.203D-01 0.337D-01 0.129D+00 0.344D+00 0.474D+00
 Gap=     0.134 Goal=   None    Shift=    0.000
 RMSDP=5.81D-06 MaxDP=2.10D-04 DE=-6.40D-06 OVMax= 5.06D-04

 Initial convergence to 1.0D-05 achieved.  Increase integral accuracy.
 Cycle   7  Pass 1  IDiag  1:
 E= -680.676655057546     Delta-E=       -0.000011711102 Rises=F Damp=F
 DIIS: error= 3.12D-05 at cycle   1 NSaved=   1.
 NSaved= 1 IEnMin= 1 EnMin= -680.676655057546     IErMin= 1 ErrMin= 3.12D-05
 ErrMax= 3.12D-05  0.00D+00 EMaxC= 1.00D-01 BMatC= 2.34D-07 BMatP= 2.34D-07
 IDIUse=1 WtCom= 1.00D+00 WtEn= 0.00D+00
 Coeff-Com:  0.100D+01
 Coeff:      0.100D+01
 Gap=     0.134 Goal=   None    Shift=    0.000
 RMSDP=5.81D-06 MaxDP=2.10D-04 DE=-1.17D-05 OVMax= 6.33D-04

 Cycle   8  Pass 1  IDiag  1:
 E= -680.676654370607     Delta-E=        0.000000686938 Rises=F Damp=F
 DIIS: error= 9.71D-05 at cycle   2 NSaved=   2.
 NSaved= 2 IEnMin= 1 EnMin= -680.676655057546     IErMin= 1 ErrMin= 3.12D-05
 ErrMax= 9.71D-05  0.00D+00 EMaxC= 1.00D-01 BMatC= 1.13D-06 BMatP= 2.34D-07
 IDIUse=1 WtCom= 1.00D+00 WtEn= 0.00D+00
 Coeff-Com:  0.708D+00 0.292D+00
 Coeff:      0.708D+00 0.292D+00
 Gap=     0.134 Goal=   None    Shift=    0.000
 RMSDP=4.51D-06 MaxDP=2.71D-04 DE= 6.87D-07 OVMax= 5.75D-04

 Cycle   9  Pass 1  IDiag  1:
 E= -680.676655257632     Delta-E=       -0.000000887025 Rises=F Damp=F
 DIIS: error= 1.89D-05 at cycle   3 NSaved=   3.
 NSaved= 3 IEnMin= 3 EnMin= -680.676655257632     IErMin= 3 ErrMin= 1.89D-05
 ErrMax= 1.89D-05  0.00D+00 EMaxC= 1.00D-01 BMatC= 4.22D-08 BMatP= 2.34D-07
 IDIUse=1 WtCom= 1.00D+00 WtEn= 0.00D+00
 Coeff-Com:  0.161D+00 0.167D+00 0.671D+00
 Coeff:      0.161D+00 0.167D+00 0.671D+00
 Gap=     0.134 Goal=   None    Shift=    0.000
 RMSDP=1.29D-06 MaxDP=6.03D-05 DE=-8.87D-07 OVMax= 1.14D-04

 Cycle  10  Pass 1  IDiag  1:
 E= -680.676655272652     Delta-E=       -0.000000015020 Rises=F Damp=F
 DIIS: error= 9.91D-06 at cycle   4 NSaved=   4.
 NSaved= 4 IEnMin= 4 EnMin= -680.676655272652     IErMin= 4 ErrMin= 9.91D-06
 ErrMax= 9.91D-06  0.00D+00 EMaxC= 1.00D-01 BMatC= 1.80D-08 BMatP= 4.22D-08
 IDIUse=1 WtCom= 1.00D+00 WtEn= 0.00D+00
 Coeff-Com: -0.482D-02 0.700D-01 0.486D+00 0.448D+00
 Coeff:     -0.482D-02 0.700D-01 0.486D+00 0.448D+00
 Gap=     0.134 Goal=   None    Shift=    0.000
 RMSDP=7.24D-07 MaxDP=2.19D-05 DE=-1.50D-08 OVMax= 8.39D-05

 Cycle  11  Pass 1  IDiag  1:
 E= -680.676655292119     Delta-E=       -0.000000019467 Rises=F Damp=F
 DIIS: error= 1.05D-06 at cycle   5 NSaved=   5.
 NSaved= 5 IEnMin= 5 EnMin= -680.676655292119     IErMin= 5 ErrMin= 1.05D-06
 ErrMax= 1.05D-06  0.00D+00 EMaxC= 1.00D-01 BMatC= 5.58D-10 BMatP= 1.80D-08
 IDIUse=1 WtCom= 1.00D+00 WtEn= 0.00D+00
 Coeff-Com: -0.105D-01 0.324D-01 0.248D+00 0.258D+00 0.473D+00
 Coeff:     -0.105D-01 0.324D-01 0.248D+00 0.258D+00 0.473D+00
 Gap=     0.134 Goal=   None    Shift=    0.000
 RMSDP=1.28D-07 MaxDP=4.92D-06 DE=-1.95D-08 OVMax= 1.11D-05

 Cycle  12  Pass 1  IDiag  1:
 E= -680.676655292671     Delta-E=       -0.000000000552 Rises=F Damp=F
 DIIS: error= 3.27D-07 at cycle   6 NSaved=   6.
 NSaved= 6 IEnMin= 6 EnMin= -680.676655292671     IErMin= 6 ErrMin= 3.27D-07
 ErrMax= 3.27D-07  0.00D+00 EMaxC= 1.00D-01 BMatC= 4.27D-11 BMatP= 5.58D-10
 IDIUse=1 WtCom= 1.00D+00 WtEn= 0.00D+00
 Coeff-Com: -0.539D-02 0.130D-01 0.104D+00 0.113D+00 0.275D+00 0.501D+00
 Coeff:     -0.539D-02 0.130D-01 0.104D+00 0.113D+00 0.275D+00 0.501D+00
 Gap=     0.134 Goal=   None    Shift=    0.000
 RMSDP=3.25D-08 MaxDP=1.68D-06 DE=-5.52D-10 OVMax= 2.36D-06

 Cycle  13  Pass 1  IDiag  1:
 E= -680.676655292683     Delta-E=       -0.000000000012 Rises=F Damp=F
 DIIS: error= 1.46D-07 at cycle   7 NSaved=   7.
 NSaved= 7 IEnMin= 7 EnMin= -680.676655292683     IErMin= 7 ErrMin= 1.46D-07
 ErrMax= 1.46D-07  0.00D+00 EMaxC= 1.00D-01 BMatC= 5.84D-12 BMatP= 4.27D-11
 IDIUse=1 WtCom= 1.00D+00 WtEn= 0.00D+00
 Coeff-Com: -0.226D-02 0.470D-02 0.388D-01 0.433D-01 0.124D+00 0.315D+00
 Coeff-Com:  0.476D+00
 Coeff:     -0.226D-02 0.470D-02 0.388D-01 0.433D-01 0.124D+00 0.315D+00
 Coeff:      0.476D+00
 Gap=     0.134 Goal=   None    Shift=    0.000
 RMSDP=1.17D-08 MaxDP=6.15D-07 DE=-1.16D-11 OVMax= 8.09D-07

 Cycle  14  Pass 1  IDiag  1:
[...]
 710,-0.00249508,0.00001333,-0.00494253,0.02739788,-0.14067511,0.045253
 23,0.01159084,-0.06263192,0.01493324,-0.00658329,0.67371340,-0.0244429
 9,0.02335484,-0.03425654,-0.00373958,-0.00314251,-0.00258032,-0.038929
 55,0.03532891,-0.14172472,0.00144463,0.01004474,0.02193222,0.21224196,
 0.03699605,0.52407571,-0.00003957,0.00117317,-0.00223409,-0.00031568,-
 0.00011576,0.00043323,0.00054922,0.01256066,0.00823045,0.00158676,0.00
 253568,-0.00433564,-0.07201601,-0.03005086,-0.03486083,0.27829725,-0.0
 0200609,-0.00533612,-0.00431362,-0.00036906,-0.00057583,-0.00070558,0.
 00975722,-0.04142578,0.01460463,0.00125497,0.00917189,0.00282133,-0.00
 977221,-0.28927071,-0.04000904,-0.02805894,0.66845434,-0.00250033,0.00
 159979,-0.00326230,0.00039953,-0.00021178,0.00016916,0.00789126,0.0199
 7706,0.01325392,-0.00436415,0.00513435,-0.00377433,-0.03291718,-0.0774
 9186,-0.12276617,0.26033257,-0.00197662,0.61623431,-0.00007581,0.00187
 352,-0.00090056,-0.00018481,0.00012669,0.00021225,-0.00308280,-0.00023
 273,0.00133287,0.00050377,-0.00011615,-0.00023290,0.00187876,-0.000272
 17,-0.00212395,-0.10341814,-0.02912849,-0.12243707,0.09845561,0.001313
 55,-0.00149206,0.00224367,0.00021595,0.00044634,0.00047016,-0.00229091
 ,-0.00006266,-0.00386567,0.00054197,0.00094348,0.00099561,-0.01367817,
 -0.00262195,-0.02584563,-0.02772436,-0.07225490,-0.05428776,0.02882127
 ,0.07445706,-0.00094238,0.00327447,-0.00094599,0.00021886,0.00030686,0
 .00014570,0.00116124,-0.00007565,-0.00170088,-0.00018205,-0.00017829,0
 .00028388,-0.00341338,-0.00116184,-0.00338449,-0.12234648,-0.05673948,
 -0.26991546,0.13576252,0.05772752,0.28257893,0.00205459,0.00055254,-0.
 00026503,0.00049808,-0.00002921,-0.00063661,-0.00691396,0.00495181,-0.
 01169712,-0.00089510,-0.00440865,-0.00044510,-0.10817592,0.00134488,-0
 .08129317,0.00371300,-0.03760370,0.00159627,0.00459882,0.00051868,-0.0
 0165228,0.27745871,0.00384420,-0.00860528,0.00630267,0.00080134,0.0006
 2452,0.00149877,0.00437994,0.04124224,0.01134025,-0.00405118,-0.018562
 50,-0.00890893,-0.01552095,-0.14363896,-0.03593685,-0.02159476,0.01482
 777,-0.03837622,0.00000313,-0.00566495,-0.00102155,-0.01180068,0.75811
 394,0.00011988,0.00003389,0.00240681,-0.00057900,-0.00005976,-0.000200
 30,-0.01190897,0.01337780,-0.02130001,-0.00052572,-0.01010186,-0.00255
 549,-0.08231050,-0.00533916,-0.21698141,0.00294938,-0.06793772,0.00004
 319,-0.00172680,-0.00009728,0.00238555,0.20867323,0.03507587,0.5506371
 2,-0.00056438,0.00071301,0.00014332,-0.00039349,-0.00001411,-0.0000921
 6,0.00245725,0.00036813,-0.00560815,-0.00033722,-0.00133336,-0.0000439
 4,-0.00249145,0.00383415,-0.01524249,-0.00383478,0.00568992,-0.0014751
 7,-0.00043392,0.00002799,0.00049314,-0.10331409,0.05842189,-0.06472549
 ,0.25590352,-0.00084701,0.00137493,-0.00145259,-0.00006228,-0.00008246
 ,-0.00010014,0.00251162,-0.00885464,0.00342813,0.00099802,0.00709673,0
 .00252313,0.01336372,0.04488253,0.02830236,0.01019767,-0.05361094,0.01
 402182,0.00022632,-0.00079062,0.00045785,0.03282862,-0.20195307,0.0472
 3736,-0.00351890,0.71753573,-0.00000306,0.00150198,-0.00049058,-0.0000
 9951,-0.00001230,-0.00052355,-0.00544618,-0.00061041,-0.00453917,0.000
 19194,-0.00176962,-0.00021545,-0.01439176,0.01066930,-0.01971737,-0.00
 104637,0.00592384,-0.00411436,0.00051207,0.00004942,0.00024930,-0.0667
 4162,0.09468433,-0.17919209,0.25624129,0.05203817,0.59358357,-0.000075
 08,0.00015953,-0.00007252,0.00000315,-0.00001241,-0.00005253,-0.000356
 99,-0.00049478,-0.00010330,0.00006682,0.00011496,0.00009792,0.00354864
 ,0.00157734,-0.00232125,-0.00049185,0.00067514,0.00042095,-0.00041839,
 -0.00001940,0.00018847,-0.00007521,-0.00323665,-0.00858069,-0.09960424
 ,-0.02608766,-0.12541874,0.09656339,0.00013415,-0.00032238,0.00022596,
 0.00005548,0.00003157,0.00010231,0.00045156,0.00051756,0.00090420,-0.0
 0006731,0.00003435,-0.00012118,0.00134284,-0.00305315,0.00170815,0.000
 27533,-0.00140214,0.00043740,-0.00002620,0.00007167,0.00001348,0.01072
 842,0.00763518,0.02005482,-0.02537241,-0.06891741,-0.05017018,0.027196
 54,0.06857664,-0.00006377,0.00026184,-0.00012828,-0.00004487,-0.000021
 88,-0.00005415,-0.00002731,-0.00081292,-0.00042269,0.00008255,0.000213
 50,0.00018309,-0.00233520,0.00210864,0.00080217,0.00038471,0.00112585,
 0.00012904,0.00019251,0.00002058,-0.00017190,-0.00723241,-0.00550110,-
 0.00945742,-0.12538074,-0.05172302,-0.26915064,0.13808497,0.05441963,0
 .28303567,-0.00055931,-0.00136478,-0.00115749,0.00012321,-0.00001784,0
 .00041253,-0.00073561,0.00320556,0.00058983,-0.00200505,-0.00183815,-0
 .00845188,0.00280827,-0.02321155,-0.00917857,0.00101638,0.00511432,-0.
 00491925,0.00019869,-0.00077525,-0.00031092,-0.06523606,-0.02795618,-0
 .04927784,0.01070382,0.01915541,0.00298196,-0.00158867,0.00015674,0.00
 190929,0.22621825,-0.00108874,0.00320138,-0.00181790,-0.00001264,-0.00
 013545,-0.00006611,0.00657252,-0.02542692,0.01014974,0.00162718,0.0187
 7538,0.00415486,-0.01527844,-0.00099801,-0.02912760,0.00347563,-0.0057
 9519,0.00561195,0.00009677,0.00014268,0.00017182,-0.01957692,-0.355926
 23,-0.07151116,0.00454062,-0.06650780,-0.00015369,-0.00087558,0.002269
 72,-0.00116155,-0.02631563,0.78651152,-0.00145413,-0.00212147,-0.00272
 013,0.00044987,-0.00009368,0.00071370,0.00160681,0.00175072,0.00190097
 ,-0.00787027,-0.00094242,-0.01209596,-0.00946327,-0.04265876,-0.015648
 22,-0.00460251,0.00836878,-0.00394875,-0.00020629,-0.00135448,-0.00022
 008,-0.04703590,-0.07474186,-0.13468249,0.00205514,0.02625623,0.016808
 78,0.00197229,0.00062505,0.00074001,0.37093784,-0.01196054,0.67712266,
 0.00181941,0.00309306,0.00110054,-0.00023980,-0.00006241,-0.00063634,0
 .00008504,-0.01325386,0.00005976,-0.00359002,0.00822211,0.00239244,-0.
 00255371,0.00211338,-0.00198850,-0.00053071,-0.00136518,0.00036724,0.0
 0000330,-0.00019302,0.00001262,0.00109996,0.00367325,0.00917717,0.0031
 9273,-0.00447376,-0.00108388,-0.00060608,0.00001738,0.00031576,-0.0570
 7983,0.08562069,-0.10007068,0.06313289,0.00016297,-0.00082241,0.000221
 78,0.00001978,-0.00000460,0.00002418,-0.00293716,0.00156693,-0.0051482
 8,0.00252288,-0.00580100,0.00440846,0.00122407,0.00048527,0.00215565,0
 .00011024,-0.00021115,0.00014386,-0.00000035,0.00017853,0.00001366,0.0
 1012700,-0.02594801,0.01884658,-0.00189723,-0.00162547,-0.00375904,0.0
 0006368,0.00000272,0.00020854,0.09015236,-0.27505828,0.16144372,-0.094
 66367,0.29376004,0.00096850,0.00545327,0.00340882,-0.00063289,-0.00011
 323,-0.00107765,0.00073418,-0.02382751,-0.00101472,0.00192673,0.014778
 88,0.00009151,-0.00194716,0.00411839,-0.00429569,0.00043243,-0.0023017
 7,-0.00019526,0.00002624,-0.00032804,0.00001541,0.00981282,0.00085971,
 0.01569545,-0.00089511,-0.00856090,0.00074461,0.00031070,0.00013482,-0
 .00021390,-0.10215805,0.16116071,-0.18881094,0.09289030,-0.16958847,0.
 18234193,-0.00041759,-0.00025357,0.00018824,0.00000784,0.00002115,0.00
 003507,-0.00020397,0.00135175,-0.00015415,-0.00004524,-0.00058799,-0.0
 0123024,0.00359070,0.00025660,-0.00003178,0.00126330,0.00043552,-0.000
 93187,0.00001153,-0.00001734,0.00004249,-0.00417037,-0.00059033,0.0014
 8372,-0.00123851,0.00148223,0.00174563,0.00035235,-0.00021327,-0.00022
 082,-0.11578787,-0.03763675,-0.20340764,-0.00594037,-0.00557379,-0.000
 47957,0.12318031,0.00031517,0.00092140,0.00064230,-0.00011664,-0.00002
 649,-0.00021397,-0.00009116,-0.00316552,-0.00032883,0.00191380,0.00148
 857,0.00375080,0.00052777,-0.00563058,0.00027038,-0.00074233,0.0009082
 0,-0.00160697,-0.00000640,-0.00045531,-0.00007400,-0.01853919,-0.00334
 888,-0.03077647,-0.00105296,0.00213942,-0.00173147,0.00074073,-0.00071
 265,0.00132184,-0.03443568,-0.08839384,-0.06210619,0.00955820,0.014373
 05,0.01568161,0.04168344,0.08216484,0.00030577,-0.00043013,0.00001829,
 0.00001670,0.00006226,0.00002432,-0.00046025,0.00306731,-0.00063541,-0
 .00123891,-0.00136099,-0.00192458,0.00030877,-0.00099063,0.00447338,-0
 .00120789,0.00058297,-0.00037135,0.00003812,-0.00013402,0.00004640,-0.
 00175666,-0.00468148,-0.00807431,0.00143039,0.00368437,0.00060015,-0.0
 0027376,-0.00033529,0.00019044,-0.19875787,-0.06362525,-0.33715897,-0.
 00153868,-0.00994916,-0.00690569,0.20258569,0.07469439,0.34985407,-0.0
 0015191,0.00025814,0.00000791,-0.00000603,0.00003441,0.00000509,-0.000
 89180,0.00160050,-0.00159992,-0.00022337,-0.00199342,-0.00075788,-0.00
 746478,-0.01396580,-0.00818276,-0.00946807,0.02700062,-0.02310953,0.00
 555989,0.00165087,-0.00352130,0.00971006,0.00277952,0.02249188,-0.0739
 7058,-0.01903022,-0.03869417,0.00199784,-0.01431121,-0.00456213,0.0007
 6098,0.00392895,-0.00591631,0.00232908,0.00052669,0.00031373,-0.000767
 61,-0.00003793,0.00002859,0.25367676,0.00112491,-0.00023158,0.00210054
 ,-0.00027789,0.00003817,-0.00049950,-0.00471925,0.00813793,-0.00806500
 ,-0.00015070,-0.00617014,-0.00083411,-0.00487163,-0.02923694,-0.011387
 79,0.00282007,0.04440230,0.00898483,0.00197512,-0.00333066,0.00257700,
 0.02250766,-0.05360475,0.03647515,-0.04349490,-0.33467463,-0.10703527,
 -0.00139170,0.00027660,-0.00287538,-0.00130691,0.01154545,-0.00077793,
 0.00190072,-0.00094081,0.00281420,-0.00037046,-0.00053119,-0.00081877,
 0.03829381,0.66858685,0.00006720,0.00047633,0.00006829,-0.00002506,0.0
 0006728,-0.00004664,-0.00215799,0.00369177,-0.00364379,-0.00058462,-0.
 00425586,-0.00137376,-0.00739536,-0.02815261,-0.01986268,-0.02537503,0
 .05352444,-0.03729349,-0.00347193,0.00202125,0.00127096,0.02424199,0.0
 0038421,0.04253944,-0.04081371,-0.06159248,-0.13535870,-0.00336935,-0.
 02675526,-0.00493090,-0.00634441,0.00779527,-0.00648630,0.00046736,0.0
 0063908,0.00297711,-0.00011360,-0.00012727,-0.00107813,0.21299588,0.12
 065908,0.54287327,0.00077125,-0.00010691,0.00103783,-0.00014766,0.0000
 3631,-0.00018530,-0.00234628,0.00218779,-0.00210808,0.00039094,-0.0015
 5296,0.00039185,-0.00094264,-0.00222202,0.00092962,0.00468128,-0.00175
 667,-0.00561196,0.00020717,0.00054590,-0.00027354,0.00832519,-0.001150
 87,-0.00309600,0.00185645,0.00909715,0.00613535,-0.00476026,-0.0024138
 4,0.00109769,0.00008349,-0.00163428,-0.00036733,-0.00020206,-0.0000379
 3,0.00028187,0.00028838,-0.00008105,0.00013990,-0.08712037,0.00393547,
 -0.01443071,0.35509437,-0.00139053,0.00036941,-0.00255094,0.00022868,-
 0.00000949,0.00042139,0.00237675,-0.00369212,0.00418670,-0.00070053,0.
 00196113,-0.00114233,-0.00160609,0.00004228,-0.00278156,-0.00314312,0.
 00266544,-0.00628429,-0.00052349,0.00098183,-0.00092216,-0.00171198,-0
 .00576622,-0.00476321,0.01280493,-0.03567298,0.02022698,-0.00025845,0.
 00016027,0.00007746,0.00047015,0.00123415,0.00120535,-0.00002792,-0.00
 056847,-0.00015588,0.00000428,-0.00042289,-0.00010751,0.00496815,-0.10
 879789,0.00636270,0.05721036,0.81219295,0.00090905,-0.00018510,0.00187
 064,-0.00016835,0.00006997,-0.00034368,-0.00204159,0.00376772,-0.00458
 082,0.00045142,-0.00266997,0.00071852,0.00098862,-0.00390237,-0.000100
 68,-0.00574981,-0.00367975,-0.00326744,-0.00037253,0.00105476,-0.00020
 769,-0.00322955,-0.00364903,0.00379119,0.00643478,0.01331274,0.0121842
 5,0.00132933,-0.00385743,-0.00345491,-0.00004149,-0.00284908,-0.000479
 55,0.00026841,-0.00011571,0.00018515,0.00009149,-0.00020150,0.00051727
 ,-0.01428046,0.00441656,-0.10494620,0.24956763,0.16069293,0.69514169,-
 0.00027480,0.00016386,-0.00048088,0.00006781,-0.00000393,0.00010597,0.
 00060519,-0.00097644,0.00093391,-0.00014216,0.00075414,-0.00022532,-0.
 00002485,0.00010640,-0.00047482,-0.00142380,0.00025738,-0.00072899,-0.
 00037371,0.00026816,-0.00004155,-0.00078819,-0.00088441,0.00032330,0.0
 0068872,-0.00221567,-0.00247822,-0.00043551,0.00184745,-0.00033411,0.0
 0016641,0.00102602,0.00017695,0.00004206,-0.00005537,-0.00004511,-0.00
 018333,0.00001586,-0.00008769,-0.00135971,0.00244688,-0.03481630,-0.17
 474742,-0.04119994,-0.18954114,0.16098679,0.00044122,-0.00012349,0.000
 80393,-0.00005510,-0.00000264,-0.00010253,-0.00051650,0.00098035,-0.00
 087634,0.00022080,-0.00045396,0.00037015,0.00064106,-0.00057895,0.0011
 0009,0.00095511,0.00114864,0.00196751,0.00013276,-0.00036082,0.0002447
 8,0.00001499,0.00322132,0.00045727,0.00236609,-0.00842106,0.00332661,0
 .00223962,-0.00098962,0.00405034,0.00013912,-0.00078709,0.00009932,-0.
 00013893,0.00016831,-0.00022109,-0.00001435,0.00033338,0.00002531,0.00
 994884,0.01512323,0.01800633,-0.03806485,-0.15148304,-0.07718801,0.063
 92506,0.17612574,-0.00045019,0.00029028,-0.00081298,0.00010139,-0.0000
 0825,0.00019437,0.00095317,-0.00170197,0.00169055,-0.00026234,0.001337
 47,-0.00036721,-0.00041986,0.00011066,-0.00052917,-0.00065412,0.000675
 85,-0.00216840,-0.00005005,0.00049009,-0.00039014,0.00044509,-0.001220
 51,-0.00038468,-0.00202296,-0.00503572,-0.00232457,-0.00030422,0.00331
 148,-0.00038070,-0.00000737,0.00178932,0.00053622,-0.00002567,-0.00008
 828,-0.00005822,-0.00005360,0.00006848,-0.00032625,-0.03413009,0.00425
 026,-0.04444978,-0.18924457,-0.08295072,-0.42853875,0.25158281,0.13134
 511,0.50106645,-0.00122682,0.00009750,-0.00090121,0.00035320,-0.000007
 40,0.00018220,0.00803362,-0.00666701,0.00069991,-0.00067873,0.00360524
 ,0.00202300,0.01284669,0.02611763,0.01261612,-0.10302568,0.04891455,-0
 .07759074,-0.00019571,0.01130780,-0.00747840,-0.01608601,0.01256340,-0
 .02309205,0.00902807,-0.03480971,-0.00534094,0.00423685,0.00028742,-0.
 00098689,0.00123809,-0.00513965,0.00272911,-0.00091173,0.00026207,-0.0
 0152087,0.00014068,0.00027589,0.00056757,-0.11167447,-0.01564657,-0.09
 613200,-0.00811276,0.00793734,-0.01224669,0.00261251,0.00064540,-0.000
 42383,0.24370357,0.00084527,0.00170381,0.00180969,-0.00003590,0.000201
 01,-0.00007113,-0.00465204,0.00021150,-0.00933057,0.00081996,-0.004187
 07,0.00131285,0.00612629,-0.05221895,0.00591278,0.07981159,-0.25727234
 ,0.12838699,-0.00282659,0.00905612,-0.00488403,0.00935111,-0.00119052,
 0.01760497,-0.01596216,0.00441217,-0.03005437,-0.00019425,-0.00588234,
 -0.00132802,-0.00142678,-0.00399359,-0.00347764,-0.00001828,0.00048732
 ,0.00011884,0.00005793,0.00006898,0.00035831,-0.04400336,-0.14061326,-
 0.08852761,0.01282713,0.01160169,0.02478227,0.00414931,-0.00470736,0.0
 0689304,-0.02117347,0.77605869,-0.00081358,0.00041763,-0.00224746,0.00
 017965,-0.00002125,0.00058395,0.00080994,-0.01292735,0.00770034,0.0017
 7412,0.00635616,0.00228634,0.01083519,0.04268795,0.03118479,-0.0746593
 2,0.07131066,-0.18945543,-0.00887838,0.02128398,-0.00978325,-0.0234526
 5,0.02323103,-0.04379209,-0.00369836,-0.06470720,-0.00246825,-0.001013
 38,-0.00048392,0.00281945,0.00343312,-0.00975946,0.00407507,-0.0017001
 7,0.00055211,-0.00279882,0.00050773,0.00057101,0.00093511,-0.09883443,
 -0.03633098,-0.24522657,-0.01176151,0.01578428,-0.02120154,-0.00009160
 ,0.00046446,0.00275316,0.22931974,0.02284646,0.54226048,-0.00007198,-0
 .00004146,-0.00006661,0.00000192,0.00000348,0.00000328,0.00108748,0.00
 035686,0.00005972,-0.00044359,0.00023959,0.00004170,0.00467270,0.00143
 622,-0.00435184,0.00328864,0.01128931,0.00426132,-0.00330827,-0.000451
 86,0.00229861,-0.00093453,0.00021358,0.00001473,0.00164685,0.00046698,
 -0.00405993,0.00109442,-0.00077342,-0.00068068,-0.00018790,-0.00009448
 ,0.00029584,-0.00004144,-0.00000365,-0.00004695,-0.00003535,0.00005279
 ,-0.00000863,0.00150291,-0.01407040,-0.00242815,-0.00302016,-0.0022346
 5,0.00169051,0.00065975,0.00065239,0.00050121,-0.03947024,-0.02563411,
 -0.01800048,0.03388484,0.00007060,0.00002360,0.00013667,0.00000064,-0.
 00000706,0.00000070,-0.00036645,-0.00031101,-0.00081864,0.00011574,-0.
 00036672,0.00023439,0.00180448,-0.00001006,0.00266317,-0.00269715,-0.0
 1468370,-0.00650096,-0.00024739,0.00091317,0.00006115,0.00018663,-0.00
 023556,0.00038832,-0.00013163,0.00152084,-0.00046155,0.00009012,0.0000
 3299,0.00003587,-0.00003711,0.00052817,0.00007256,0.00007718,-0.000033
 23,0.00012272,-0.00001671,-0.00000028,-0.00004855,-0.00083113,-0.00325
 928,-0.00203819,-0.00028660,-0.00251801,-0.00038136,-0.00019480,0.0001
 8455,-0.00037994,-0.02661199,-0.33120393,-0.07731283,0.02691500,0.3502
 8018,-0.00005742,-0.00007705,-0.00015234,0.00000311,0.00000600,0.00000
 619,-0.00001720,0.00050753,0.00110723,0.00003883,0.00045571,-0.0003591
 2,-0.00432517,0.00202952,-0.00068210,0.00294534,0.01925051,0.00879982,
 0.00232364,-0.00030809,-0.00032706,0.00000853,0.00047204,-0.00087369,-
 0.00410992,0.00059577,-0.00361797,-0.00060134,-0.00155239,0.00017320,0
 .00027843,-0.00010870,0.00015382,-0.00004160,-0.00001201,-0.00009452,0
 .00001106,0.00010090,-0.00000616,-0.00116267,-0.02638413,-0.00254224,0
 .00186889,-0.00395766,-0.00098845,0.00042575,0.00117917,0.00131155,-0.
 01810717,-0.07553423,-0.07142817,0.02064439,0.08032103,0.06961217,-0.0
 0016592,0.00004553,-0.00030553,0.00003248,-0.00000792,0.00006625,0.000
 37959,-0.00060205,0.00073826,-0.00004924,0.00054380,-0.00014815,0.0000
 5827,0.00115475,-0.00007025,0.00016846,-0.00032861,0.00131709,0.000074
 01,-0.00006183,-0.00001567,-0.00086896,0.00010575,0.00058976,0.0007052
 4,0.00071747,-0.00300387,0.00054881,0.00068435,-0.00019853,-0.00013728
 ,0.00076473,0.00017047,-0.00000873,-0.00000259,0.00002820,-0.00004490,
 0.00001968,-0.00009117,0.01756117,0.01129581,-0.00031423,-0.09029891,-
 0.03320392,-0.03405961,0.01392424,-0.04353276,-0.02553479,-0.00081111,
 0.00193834,-0.00395563,-0.00032606,0.00216056,-0.00012547,0.05925883,0
 .00088805,-0.00012202,0.00162998,-0.00013290,0.00001310,-0.00024164,-0
 .00153783,0.00216389,-0.00265549,0.00041482,-0.00120646,0.00065688,0.0
 0030554,-0.00161966,0.00039386,0.00021213,0.00026024,0.00047090,0.0001
 2438,-0.00015696,0.00020842,0.00055799,-0.00122003,0.00103457,0.004010
 93,0.00214872,0.00733727,-0.00028678,0.00167041,-0.00042021,0.00029220
 ,-0.00118606,0.00041324,-0.00007894,-0.00000876,-0.00014627,-0.0000183
 5,0.00028979,0.00000688,0.00318257,-0.06671940,-0.00217845,-0.03653213
 ,-0.52227802,-0.10941762,-0.02942998,-0.02937750,-0.05917664,-0.001958
 46,-0.00253194,-0.00396276,0.00167783,-0.00085465,0.00301608,0.0583089
 1,0.62073531,-0.00022265,0.00007261,-0.00040455,0.00005449,-0.00001300
 ,0.00009467,0.00063534,-0.00089323,0.00105737,-0.00015258,0.00087734,-
 0.00015636,-0.00014570,0.00194569,0.00006130,0.00136396,-0.00052529,0.
 00190329,0.00000024,-0.00013605,0.00007081,0.00066018,0.00018865,-0.00
 000477,-0.00268988,0.00131413,-0.00245795,-0.00029355,0.00133835,0.000
 29242,0.00006213,0.00130737,0.00020017,0.00003391,0.00000335,0.0000054
 4,-0.00006785,0.00006497,-0.00017858,-0.00109143,0.01273124,0.01751012
 ,-0.03437163,-0.10334154,-0.14629902,-0.02420296,-0.08505243,-0.026821
 44,-0.00431686,0.00318141,-0.00619711,-0.00016802,0.00390544,-0.000092
 15,0.06491287,0.16303101,0.16141634\\0.00000716,-0.00009316,0.00003255
 ,-0.00002962,0.00007848,-0.00005496,0.00007434,-0.00009545,0.00004266,
 -0.00004985,0.00007757,-0.00006351,-0.00005275,0.00000112,-0.00006666,
 -0.00002403,0.00000006,-0.00003207,0.00000604,0.00000465,0.00000956,0.
 00003536,0.00004238,0.00003492,0.00001258,0.00002623,0.00000650,-0.000
 00498,0.00000141,-0.00001011,-0.00001849,-0.00002844,0.00010330,0.0000
 0606,0.00000877,-0.00003173,0.00002492,-0.00000266,0.00000127,0.000047
 98,-0.00001600,0.00004011,-0.00005706,0.00001547,0.00002646,0.00002407
 ,0.00001418,0.00001047,-0.00002193,-0.00003835,-0.00003556,0.00000248,
 0.00002113,0.00000777,0.00001770,-0.00001740,-0.00002095\\\@


 I (ERNEST RUTHERFORD) CAME INTO THE ROOM, WHICH WAS HALF DARK, AND PRESENTLY
 SPOTTED LORD KELVIN IN THE AUDIENCE AND REALIZED I WAS IN TROUBLE AT
 THE LAST PART OF MY SPEECH DEALING THE AGE OF THE EARTH, WHERE MY VIEWS
 CONFLICTED WITH HIS.  TO MY RELIEF KELVIN FELL FAST ASLEEP, BUT AS I CAME
 TO THE IMPORTANT POINT, I SAW THE OLD BIRD SIT UP AND COCK A BALEFUL GLANCE
 AT ME! THEN A SUDDEN INSPIRATION CAME AND I SAID LORD KELVIN HAD LIMITED
 THE AGE OF THE EARTH PROVIDED NO NEW SOURCE WAS DISCOVERED. THAT
 PROPHETIC UTTERANCE REFERS TO WHAT WE ARE NOW CONSIDERING TONIGHT, RADIUM!
 BEHOLD!  THE OLD BOY BEAMED UPON ME.
 Job cpu time:       0 days  0 hours 15 minutes  1.5 seconds.
 File lengths (MBytes):  RWF=    117 Int=      0 D2E=      0 Chk=      5 Scr=      1
 Normal termination of Gaussian 09 at Fri Aug 20 15:39:49 2021.
