 Entering Gaussian System, Link 0=g09
 Input=B3LYP6-31G.MADKOT.gjf
 Output=B3LYP6-31G.MADKOT.log
 Initial command:
 /public/home/users/caep010/software/Gaussian09/g09/l1.exe "/public/home/users/caep010/.cache/gau_scr/Gau-21313.inp" -scrdir="/public/home/users/caep010/.cache/gau_scr/"
 Entering Link 1 = /public/home/users/caep010/software/Gaussian09/g09/l1.exe PID=     21314.
  
 Copyright (c) 1988,1990,1992,1993,1995,1998,2003,2009,2015,
            Gaussian, Inc.  All Rights Reserved.
  
 This is part of the Gaussian(R) 09 program.  It is based on
 the Gaussian(R) 03 system (copyright 2003, Gaussian, Inc.),
 the Gaussian(R) 98 system (copyright 1998, Gaussian, Inc.),
 the Gaussian(R) 94 system (copyright 1995, Gaussian, Inc.),
 the Gaussian 92(TM) system (copyright 1992, Gaussian, Inc.),
 the Gaussian 90(TM) system (copyright 1990, Gaussian, Inc.),
 the Gaussian 88(TM) system (copyright 1988, Gaussian, Inc.),
 the Gaussian 86(TM) system (copyright 1986, Carnegie Mellon
 University), and the Gaussian 82(TM) system (copyright 1983,
 Carnegie Mellon University). Gaussian is a federally registered
 trademark of Gaussian, Inc.
  
 This software contains proprietary and confidential information,
 including trade secrets, belonging to Gaussian, Inc.
  
 This software is provided under written license and may be
 used, copied, transmitted, or stored only in accord with that
 written license.
  
 The following legend is applicable only to US Government
 contracts under FAR:
  
                    RESTRICTED RIGHTS LEGEND
  
 Use, reproduction and disclosure by the US Government is
 subject to restrictions as set forth in subparagraphs (a)
 and (c) of the Commercial Computer Software - Restricted
 Rights clause in FAR 52.227-19.
  
 Gaussian, Inc.
 340 Quinnipiac St., Bldg. 40, Wallingford CT 06492
  
  
 ---------------------------------------------------------------
 Warning -- This program may not be used in any manner that
 competes with the business of Gaussian, Inc. or will provide
 assistance to any competitor of Gaussian, Inc.  The licensee
 of this program is prohibited from giving any competitor of
 Gaussian, Inc. access to this program.  By using this program,
 the user acknowledges that Gaussian, Inc. is engaged in the
 business of creating and licensing software in the field of
 computational chemistry and represents and warrants to the
 licensee that it is not a competitor of Gaussian, Inc. and that
 it will not use this program in any manner prohibited above.
 ---------------------------------------------------------------
  

 Cite this work as:
 Gaussian 09, Revision E.01,
 M. J. Frisch, G. W. Trucks, H. B. Schlegel, G. E. Scuseria, 
 M. A. Robb, J. R. Cheeseman, G. Scalmani, V. Barone, B. Mennucci, 
 G. A. Petersson, H. Nakatsuji, M. Caricato, X. Li, H. P. Hratchian, 
 A. F. Izmaylov, J. Bloino, G. Zheng, J. L. Sonnenberg, M. Hada, 
 M. Ehara, K. Toyota, R. Fukuda, J. Hasegawa, M. Ishida, T. Nakajima, 
 Y. Honda, O. Kitao, H. Nakai, T. Vreven, J. A. Montgomery, Jr., 
 J. E. Peralta, F. Ogliaro, M. Bearpark, J. J. Heyd, E. Brothers, 
 K. N. Kudin, V. N. Staroverov, T. Keith, R. Kobayashi, J. Normand, 
 K. Raghavachari, A. Rendell, J. C. Burant, S. S. Iyengar, J. Tomasi, 
 M. Cossi, N. Rega, J. M. Millam, M. Klene, J. E. Knox, J. B. Cross, 
 V. Bakken, C. Adamo, J. Jaramillo, R. Gomperts, R. E. Stratmann, 
 O. Yazyev, A. J. Austin, R. Cammi, C. Pomelli, J. W. Ochterski, 
 R. L. Martin, K. Morokuma, V. G. Zakrzewski, G. A. Voth, 
 P. Salvador, J. J. Dannenberg, S. Dapprich, A. D. Daniels, 
 O. Farkas, J. B. Foresman, J. V. Ortiz, J. Cioslowski, 
 and D. J. Fox, Gaussian, Inc., Wallingford CT, 2013.
 
 ******************************************
 Gaussian 09:  ES64L-G09RevE.01 30-Nov-2015
                20-Aug-2021 
 ******************************************
 %nproc=32
 Will use up to   32 processors via shared memory.
 %mem=180GB
 -------------------------
 #P OPT Freq B3LYP/6-31G**
 -------------------------
 1/14=-1,18=20,19=15,26=3,38=1/1,3;
 2/9=110,12=2,17=6,18=5,40=1/2;
 3/5=1,6=6,7=101,11=2,16=1,25=1,30=1,71=1,74=-5/1,2,3;
 4//1;
 5/5=2,38=5/2;
 6/7=2,8=2,9=2,10=2,28=1/1;
 7//1,2,3,16;
 1/14=-1,18=20,19=15,26=3/3(2);
 2/9=110/2;
 99//99;
 2/9=110/2;
 3/5=1,6=6,7=101,11=2,16=1,25=1,30=1,71=1,74=-5/1,2,3;
 4/5=5,16=3,69=1/1;
 5/5=2,38=5/2;
 7//1,2,3,16;
 1/14=-1,18=20,19=15,26=3/3(-5);
 2/9=110/2;
 6/7=2,8=2,9=2,10=2,19=2,28=1/1;
 99/9=1/99;
 Leave Link    1 at Fri Aug 20 15:47:35 2021, MaxMem= 24159191040 cpu:         2.1
 (Enter /public/home/users/caep010/software/Gaussian09/g09/l101.exe)
 ------
 MADKOT
 ------
 Symbolic Z-matrix:
 Charge =  0 Multiplicity = 1
 C                     1.5588    5.1917    5.0789 
 C                     1.8827    4.158     4.2363 
 C                     1.2672    4.0688    3.0128 
 C                     0.3435    5.0406    2.6977 
 C                     0.093     6.048     3.591 
 C                     1.5598    2.95      2.045 
 C                     2.3505    3.4976    0.8709 
 C                     3.7195    3.9858    1.222 
 H                     3.649     4.7383    1.8146 
 N                     0.686     6.1436    4.7801 
 N                     2.4748    2.4159   -0.1633 
 O                     2.1078    2.6714   -1.2887 
 O                     0.3858    2.391     1.5285 
 O                     2.9621    1.3644    0.1685 
 H                     1.9776    5.2483    5.9221 
 H                     2.511     3.502     4.4886 
 H                    -0.1155    4.9734    1.8767 
 H                     4.2087    3.2827    1.6551 
 H                    -0.5206    6.7123    3.3236 
 H                     2.0501    2.2763    2.486 
 H                     1.8465    4.2157    0.5271 
 H                    -0.0137    1.995     2.1251 
 H                     4.1804    4.2503    0.423 
 
 NAtoms=     23 NQM=       23 NQMF=       0 NMMI=      0 NMMIF=      0
                NMic=       0 NMicF=      0.
                    Isotopes and Nuclear Properties:
 (Nuclear quadrupole moments (NQMom) in fm**2, nuclear magnetic moments (NMagM)
  in nuclear magnetons)

  Atom         1           2           3           4           5           6           7           8           9          10
 IAtWgt=          12          12          12          12          12          12          12          12           1          14
 AtmWgt=  12.0000000  12.0000000  12.0000000  12.0000000  12.0000000  12.0000000  12.0000000  12.0000000   1.0078250  14.0030740
 NucSpn=           0           0           0           0           0           0           0           0           1           2
 AtZEff=   0.0000000   0.0000000   0.0000000   0.0000000   0.0000000   0.0000000   0.0000000   0.0000000   0.0000000   0.0000000
 NQMom=    0.0000000   0.0000000   0.0000000   0.0000000   0.0000000   0.0000000   0.0000000   0.0000000   0.0000000   2.0440000
 NMagM=    0.0000000   0.0000000   0.0000000   0.0000000   0.0000000   0.0000000   0.0000000   0.0000000   2.7928460   0.4037610
 AtZNuc=   6.0000000   6.0000000   6.0000000   6.0000000   6.0000000   6.0000000   6.0000000   6.0000000   1.0000000   7.0000000

  Atom        11          12          13          14          15          16          17          18          19          20
 IAtWgt=          14          16          16          16           1           1           1           1           1           1
 AtmWgt=  14.0030740  15.9949146  15.9949146  15.9949146   1.0078250   1.0078250   1.0078250   1.0078250   1.0078250   1.0078250
 NucSpn=           2           0           0           0           1           1           1           1           1           1
 AtZEff=   0.0000000   0.0000000   0.0000000   0.0000000   0.0000000   0.0000000   0.0000000   0.0000000   0.0000000   0.0000000
 NQMom=    2.0440000   0.0000000   0.0000000   0.0000000   0.0000000   0.0000000   0.0000000   0.0000000   0.0000000   0.0000000
 NMagM=    0.4037610   0.0000000   0.0000000   0.0000000   2.7928460   2.7928460   2.7928460   2.7928460   2.7928460   2.7928460
 AtZNuc=   7.0000000   8.0000000   8.0000000   8.0000000   1.0000000   1.0000000   1.0000000   1.0000000   1.0000000   1.0000000

  Atom        21          22          23
 IAtWgt=           1           1           1
 AtmWgt=   1.0078250   1.0078250   1.0078250
 NucSpn=           1           1           1
 AtZEff=   0.0000000   0.0000000   0.0000000
 NQMom=    0.0000000   0.0000000   0.0000000
 NMagM=    2.7928460   2.7928460   2.7928460
 AtZNuc=   1.0000000   1.0000000   1.0000000
 Leave Link  101 at Fri Aug 20 15:47:36 2021, MaxMem= 24159191040 cpu:        10.9
 (Enter /public/home/users/caep010/software/Gaussian09/g09/l103.exe)

 GradGradGradGradGradGradGradGradGradGradGradGradGradGradGradGradGradGrad
 Berny optimization.
 Initialization pass.
                           ----------------------------
                           !    Initial Parameters    !
                           ! (Angstroms and Degrees)  !
 --------------------------                            --------------------------
 ! Name  Definition              Value          Derivative Info.                !
 --------------------------------------------------------------------------------
 ! R1    R(1,2)                  1.3724         estimate D2E/DX2                !
 ! R2    R(1,10)                 1.3256         estimate D2E/DX2                !
 ! R3    R(1,15)                 0.9432         estimate D2E/DX2                !
 ! R4    R(2,3)                  1.3725         estimate D2E/DX2                !
 ! R5    R(2,16)                 0.9427         estimate D2E/DX2                !
 ! R6    R(3,4)                  1.3773         estimate D2E/DX2                !
 ! R7    R(3,6)                  1.508          estimate D2E/DX2                !
 ! R8    R(4,5)                  1.3695         estimate D2E/DX2                !
 ! R9    R(4,17)                 0.943          estimate D2E/DX2                !
 ! R10   R(5,10)                 1.3322         estimate D2E/DX2                !
 ! R11   R(5,19)                 0.943          estimate D2E/DX2                !
 ! R12   R(6,7)                  1.5178         estimate D2E/DX2                !
 ! R13   R(6,13)                 1.3991         estimate D2E/DX2                !
 ! R14   R(6,20)                 0.9427         estimate D2E/DX2                !
 ! R15   R(7,8)                  1.4952         estimate D2E/DX2                !
 ! R16   R(7,11)                 1.5017         estimate D2E/DX2                !
 ! R17   R(7,21)                 0.9423         estimate D2E/DX2                !
 ! R18   R(8,9)                  0.9604         estimate D2E/DX2                !
 ! R19   R(8,18)                 0.9598         estimate D2E/DX2                !
 ! R20   R(8,23)                 0.9596         estimate D2E/DX2                !
 ! R21   R(11,12)                1.211          estimate D2E/DX2                !
 ! R22   R(11,14)                1.2055         estimate D2E/DX2                !
 ! R23   R(13,22)                0.82           estimate D2E/DX2                !
 ! A1    A(2,1,10)             123.9098         estimate D2E/DX2                !
 ! A2    A(2,1,15)             119.2941         estimate D2E/DX2                !
 ! A3    A(10,1,15)            116.7941         estimate D2E/DX2                !
 ! A4    A(1,2,3)              119.3688         estimate D2E/DX2                !
 ! A5    A(1,2,16)             121.1383         estimate D2E/DX2                !
 ! A6    A(3,2,16)             119.487          estimate D2E/DX2                !
 ! A7    A(2,3,4)              117.3131         estimate D2E/DX2                !
 ! A8    A(2,3,6)              122.2301         estimate D2E/DX2                !
 ! A9    A(4,3,6)              120.4509         estimate D2E/DX2                !
 ! A10   A(3,4,5)              119.5028         estimate D2E/DX2                !
 ! A11   A(3,4,17)             118.3822         estimate D2E/DX2                !
 ! A12   A(5,4,17)             122.0917         estimate D2E/DX2                !
 ! A13   A(4,5,10)             123.6127         estimate D2E/DX2                !
 ! A14   A(4,5,19)             116.8869         estimate D2E/DX2                !
 ! A15   A(10,5,19)            119.4839         estimate D2E/DX2                !
 ! A16   A(3,6,7)              109.2613         estimate D2E/DX2                !
 ! A17   A(3,6,13)             111.7487         estimate D2E/DX2                !
 ! A18   A(3,6,20)             109.3228         estimate D2E/DX2                !
 ! A19   A(7,6,13)             107.2007         estimate D2E/DX2                !
 ! A20   A(7,6,20)             110.4113         estimate D2E/DX2                !
 ! A21   A(13,6,20)            108.8791         estimate D2E/DX2                !
 ! A22   A(6,7,8)              114.402          estimate D2E/DX2                !
 ! A23   A(6,7,11)             108.4204         estimate D2E/DX2                !
 ! A24   A(6,7,21)             106.174          estimate D2E/DX2                !
 ! A25   A(8,7,11)             108.7301         estimate D2E/DX2                !
 ! A26   A(8,7,21)             109.0604         estimate D2E/DX2                !
 ! A27   A(11,7,21)            109.9955         estimate D2E/DX2                !
 ! A28   A(7,8,9)              109.481          estimate D2E/DX2                !
 ! A29   A(7,8,18)             109.477          estimate D2E/DX2                !
 ! A30   A(7,8,23)             109.5264         estimate D2E/DX2                !
 ! A31   A(9,8,18)             109.4477         estimate D2E/DX2                !
 ! A32   A(9,8,23)             109.4545         estimate D2E/DX2                !
 ! A33   A(18,8,23)            109.4408         estimate D2E/DX2                !
 ! A34   A(1,10,5)             116.2796         estimate D2E/DX2                !
 ! A35   A(7,11,12)            117.5778         estimate D2E/DX2                !
 ! A36   A(7,11,14)            118.1778         estimate D2E/DX2                !
 ! A37   A(12,11,14)           124.2169         estimate D2E/DX2                !
 ! A38   A(6,13,22)            109.4618         estimate D2E/DX2                !
 ! D1    D(10,1,2,3)            -0.9959         estimate D2E/DX2                !
 ! D2    D(10,1,2,16)          179.8947         estimate D2E/DX2                !
 ! D3    D(15,1,2,3)           179.539          estimate D2E/DX2                !
 ! D4    D(15,1,2,16)            0.4296         estimate D2E/DX2                !
 ! D5    D(2,1,10,5)             1.0214         estimate D2E/DX2                !
 ! D6    D(15,1,10,5)         -179.5012         estimate D2E/DX2                !
 ! D7    D(1,2,3,4)             -0.0032         estimate D2E/DX2                !
 ! D8    D(1,2,3,6)           -179.1293         estimate D2E/DX2                !
 ! D9    D(16,2,3,4)           179.1211         estimate D2E/DX2                !
 ! D10   D(16,2,3,6)            -0.005          estimate D2E/DX2                !
 ! D11   D(2,3,4,5)              0.8679         estimate D2E/DX2                !
 ! D12   D(2,3,4,17)          -177.4151         estimate D2E/DX2                !
 ! D13   D(6,3,4,5)           -179.9896         estimate D2E/DX2                !
 ! D14   D(6,3,4,17)             1.7274         estimate D2E/DX2                !
 ! D15   D(2,3,6,7)           -108.7425         estimate D2E/DX2                !
 ! D16   D(2,3,6,13)           132.7898         estimate D2E/DX2                !
 ! D17   D(2,3,6,20)            12.1893         estimate D2E/DX2                !
 ! D18   D(4,3,6,7)             72.1582         estimate D2E/DX2                !
 ! D19   D(4,3,6,13)           -46.3095         estimate D2E/DX2                !
 ! D20   D(4,3,6,20)          -166.91           estimate D2E/DX2                !
 ! D21   D(3,4,5,10)            -0.8675         estimate D2E/DX2                !
 ! D22   D(3,4,5,19)           177.6399         estimate D2E/DX2                !
 ! D23   D(17,4,5,10)          177.3494         estimate D2E/DX2                !
 ! D24   D(17,4,5,19)           -4.1432         estimate D2E/DX2                !
 ! D25   D(4,5,10,1)            -0.0779         estimate D2E/DX2                !
 ! D26   D(19,5,10,1)         -178.5486         estimate D2E/DX2                !
 ! D27   D(3,6,7,8)             65.8613         estimate D2E/DX2                !
 ! D28   D(3,6,7,11)          -172.6222         estimate D2E/DX2                !
 ! D29   D(3,6,7,21)           -54.467          estimate D2E/DX2                !
 ! D30   D(13,6,7,8)          -172.8697         estimate D2E/DX2                !
 ! D31   D(13,6,7,11)          -51.3532         estimate D2E/DX2                !
 ! D32   D(13,6,7,21)           66.8021         estimate D2E/DX2                !
 ! D33   D(20,6,7,8)           -54.4054         estimate D2E/DX2                !
 ! D34   D(20,6,7,11)           67.1111         estimate D2E/DX2                !
 ! D35   D(20,6,7,21)         -174.7337         estimate D2E/DX2                !
 ! D36   D(3,6,13,22)          -68.1001         estimate D2E/DX2                !
 ! D37   D(7,6,13,22)          172.2116         estimate D2E/DX2                !
 ! D38   D(20,6,13,22)          52.7588         estimate D2E/DX2                !
 ! D39   D(6,7,8,9)            -64.4233         estimate D2E/DX2                !
 ! D40   D(6,7,8,18)            55.5573         estimate D2E/DX2                !
 ! D41   D(6,7,8,23)           175.5574         estimate D2E/DX2                !
 ! D42   D(11,7,8,9)           174.2305         estimate D2E/DX2                !
 ! D43   D(11,7,8,18)          -65.7889         estimate D2E/DX2                !
 ! D44   D(11,7,8,23)           54.2112         estimate D2E/DX2                !
 ! D45   D(21,7,8,9)            54.286          estimate D2E/DX2                !
 ! D46   D(21,7,8,18)          174.2666         estimate D2E/DX2                !
 ! D47   D(21,7,8,23)          -65.7333         estimate D2E/DX2                !
 ! D48   D(6,7,11,12)          125.7097         estimate D2E/DX2                !
 ! D49   D(6,7,11,14)          -56.1172         estimate D2E/DX2                !
 ! D50   D(8,7,11,12)         -109.35           estimate D2E/DX2                !
 ! D51   D(8,7,11,14)           68.8232         estimate D2E/DX2                !
 ! D52   D(21,7,11,12)          10.012          estimate D2E/DX2                !
 ! D53   D(21,7,11,14)        -171.8149         estimate D2E/DX2                !
 --------------------------------------------------------------------------------
 Trust Radius=3.00D-01 FncErr=1.00D-07 GrdErr=1.00D-06
 Number of steps in this run=    124 maximum allowed number of steps=    138.
 GradGradGradGradGradGradGradGradGradGradGradGradGradGradGradGradGradGrad

 Leave Link  103 at Fri Aug 20 15:47:36 2021, MaxMem= 24159191040 cpu:         0.5
 (Enter /public/home/users/caep010/software/Gaussian09/g09/l202.exe)
                          Input orientation:                          
 ---------------------------------------------------------------------
 Center     Atomic      Atomic             Coordinates (Angstroms)
 Number     Number       Type             X           Y           Z
 ---------------------------------------------------------------------
      1          6           0        1.558800    5.191700    5.078900
      2          6           0        1.882700    4.158000    4.236300
      3          6           0        1.267200    4.068800    3.012800
      4          6           0        0.343500    5.040600    2.697700
      5          6           0        0.093000    6.048000    3.591000
      6          6           0        1.559800    2.950000    2.045000
      7          6           0        2.350500    3.497600    0.870900
      8          6           0        3.719500    3.985800    1.222000
      9          1           0        3.649000    4.738300    1.814600
     10          7           0        0.686000    6.143600    4.780100
     11          7           0        2.474800    2.415900   -0.163300
     12          8           0        2.107800    2.671400   -1.288700
     13          8           0        0.385800    2.391000    1.528500
     14          8           0        2.962100    1.364400    0.168500
     15          1           0        1.977600    5.248300    5.922100
     16          1           0        2.511000    3.502000    4.488600
     17          1           0       -0.115500    4.973400    1.876700
     18          1           0        4.208700    3.282700    1.655100
     19          1           0       -0.520600    6.712300    3.323600
     20          1           0        2.050100    2.276300    2.486000
     21          1           0        1.846500    4.215700    0.527100
     22          1           0       -0.013700    1.995000    2.125100
     23          1           0        4.180400    4.250300    0.423000
 ---------------------------------------------------------------------
                    Distance matrix (angstroms):
                    1          2          3          4          5
     1  C    0.000000
     2  C    1.372378   0.000000
     3  C    2.369537   1.372497   0.000000
     4  C    2.677667   2.348491   1.377282   0.000000
     5  C    2.257358   2.681704   2.372824   1.369522   0.000000
     6  C    3.772237   2.522959   1.507967   2.505197   3.760216
     7  C    4.604783   3.461341   2.467295   3.121874   4.358875
     8  C    4.582412   3.534047   3.037701   3.832450   4.797534
     9  H    3.902584   3.053063   2.748979   3.434761   4.185218
    10  N    1.325585   2.381264   2.786743   2.381240   1.332196
    11  N    6.002065   4.768855   3.778622   4.429087   5.741070
    12  O    6.870200   5.725930   4.600243   4.961577   6.266763
    13  O    4.671744   3.563030   2.407286   2.896411   4.208716
    14  O    6.381967   5.051366   4.275103   5.173815   6.471580
    15  H    0.943177   2.009896   3.218682   3.620798   3.102461
    16  H    2.027369   0.942737   2.011538   3.205100   3.624159
    17  H    3.620086   3.197717   2.005214   0.942994   2.033977
    18  H    4.731665   3.583158   3.333725   4.372299   5.322930
    19  H    3.117243   3.623992   3.206387   1.983179   0.943028
    20  H    3.932437   2.575338   2.025711   3.255558   4.390556
    21  H    4.664143   3.709825   2.556535   2.766039   3.977382
    22  H    4.627805   3.568202   2.594101   3.119478   4.311271
    23  H    5.425535   4.452999   3.902146   4.529971   5.474924
                    6          7          8          9         10
     6  C    0.000000
     7  C    1.517756   0.000000
     8  C    2.532689   1.495250   0.000000
     9  H    2.759684   2.028795   0.960417   0.000000
    10  N    4.294576   5.005369   5.149592   4.421360   0.000000
    11  N    2.449301   1.501697   2.435759   3.268696   6.444591
    12  O    3.389908   2.324948   3.260190   4.034581   7.134986
    13  O    1.399117   2.348840   3.708219   4.029906   4.974438
    14  O    2.828750   2.327652   2.924937   3.816370   7.020558
    15  H    4.526438   5.358976   5.169048   4.463769   1.942667
    16  H    2.679677   3.621261   3.516420   3.158126   3.223918
    17  H    2.632319   3.044795   4.013877   3.772345   3.231331
    18  H    2.698033   2.028314   0.959813   1.567634   5.509972
    19  H    4.485285   4.959158   5.461591   4.853795   1.975018
    20  H    0.942734   2.047037   2.703143   3.011429   4.698901
    21  H    1.997051   0.942275   2.010937   2.275912   4.811608
    22  H    1.842374   3.069245   4.326160   4.586663   4.974886
    23  H    3.345027   2.028720   0.959578   1.567508   5.897435
                   11         12         13         14         15
    11  N    0.000000
    12  O    1.210989   0.000000
    13  O    2.688257   3.313687   0.000000
    14  O    1.205489   2.135769   3.088823   0.000000
    15  H    6.730660   7.658525   5.477382   7.011265   0.000000
    16  H    4.777143   5.850612   3.809592   4.841083   2.321422
    17  H    4.172776   4.501336   2.653551   5.041275   4.563102
    18  H    2.657881   3.667891   3.927559   2.728345   5.200835
    19  H    6.292054   6.671632   4.766296   7.119262   3.890566
    20  H    2.686754   3.795760   1.923501   2.652190   4.543657
    21  H    2.027484   2.397972   2.542828   3.082705   5.494495
    22  H    3.406841   4.075820   0.819968   3.616812   5.382048
    23  H    2.572517   3.117453   4.367850   3.142840   6.007365
                   16         17         18         19         20
    16  H    0.000000
    17  H    3.985667   0.000000
    18  H    3.310438   4.648255   0.000000
    19  H    4.566602   2.298129   6.075552   0.000000
    20  H    2.392734   3.512181   2.522457   5.195014   0.000000
    21  H    4.079756   2.498994   2.779004   4.433575   2.764058
    22  H    3.772438   2.990474   4.439339   4.893493   2.113918
    23  H    4.458245   4.592480   1.566883   6.047671   3.562418
                   21         22         23
    21  H    0.000000
    22  H    3.308392   0.000000
    23  H    2.336477   5.057074   0.000000
 Stoichiometry    C8H10N2O3
 Framework group  C1[X(C8H10N2O3)]
 Deg. of freedom    63
 Full point group                 C1      NOp   1
 Largest Abelian subgroup         C1      NOp   1
 Largest concise Abelian subgroup C1      NOp   1
                         Standard orientation:                         
 ---------------------------------------------------------------------
 Center     Atomic      Atomic             Coordinates (Angstroms)
 Number     Number       Type             X           Y           Z
 ---------------------------------------------------------------------
      1          6           0       -3.194062    0.896175    0.450535
      2          6           0       -1.872073    0.890249    0.818953
      3          6           0       -1.039982   -0.083039    0.324904
      4          6           0       -1.591991   -1.013523   -0.527382
      5          6           0       -2.918217   -0.923238   -0.856871
      6          6           0        0.417986   -0.162002    0.701812
      7          6           0        1.265907    0.242320   -0.490302
      8          6           0        1.115907    1.673003   -0.898243
      9          1           0        0.217375    1.827438   -1.200224
     10          7           0       -3.733299    0.018169   -0.383433
     11          7           0        2.707215   -0.015413   -0.156686
     12          8           0        3.344476   -0.706459   -0.920131
     13          8           0        0.792721   -1.463238    1.053788
     14          8           0        3.164416    0.503035    0.830929
     15          1           0       -3.766386    1.561610    0.795826
     16          1           0       -1.529147    1.535365    1.414754
     17          1           0       -1.042824   -1.710547   -0.846460
     18          1           0        1.302833    2.241123   -0.147550
     19          1           0       -3.249626   -1.558801   -1.469676
     20          1           0        0.582883    0.410996    1.432037
     21          1           0        0.996415   -0.310986   -1.203821
     22          1           0        0.427183   -1.671909    1.757483
     23          1           0        1.730137    1.870042   -1.608656
 ---------------------------------------------------------------------
 Rotational constants (GHZ):      2.0116921      0.4467371      0.4298489
 Leave Link  202 at Fri Aug 20 15:47:36 2021, MaxMem= 24159191040 cpu:         0.6
 (Enter /public/home/users/caep010/software/Gaussian09/g09/l301.exe)
 Standard basis: 6-31G(d,p) (6D, 7F)
 Ernie: Thresh=  0.10000D-02 Tol=  0.10000D-05 Strict=F.
 There are   245 symmetry adapted cartesian basis functions of A   symmetry.
 There are   245 symmetry adapted basis functions of A   symmetry.
   245 basis functions,   434 primitive gaussians,   245 cartesian basis functions
    48 alpha electrons       48 beta electrons
       nuclear repulsion energy       815.8751710697 Hartrees.
 IExCor=  402 DFT=T Ex+Corr=B3LYP ExCW=0 ScaHFX=  0.200000
 ScaDFX=  0.800000  0.720000  1.000000  0.810000 ScalE2=  1.000000  1.000000
 IRadAn=      0 IRanWt=     -1 IRanGd=            0 ICorTp=0 IEmpDi=  4
 NAtoms=   23 NActive=   23 NUniq=   23 SFac= 1.00D+00 NAtFMM=   60 NAOKFM=F Big=F
 Integral buffers will be    131072 words long.
 Raffenetti 2 integral format.
 Two-electron integral symmetry is turned on.
 Leave Link  301 at Fri Aug 20 15:47:36 2021, MaxMem= 24159191040 cpu:         2.0
 (Enter /public/home/users/caep010/software/Gaussian09/g09/l302.exe)
 NPDir=0 NMtPBC=     1 NCelOv=     1 NCel=       1 NClECP=     1 NCelD=      1
         NCelK=      1 NCelE2=     1 NClLst=     1 CellRange=     0.0.
 One-electron integrals computed using PRISM.
 NBasis=   245 RedAO= T EigKep=  6.51D-04  NBF=   245
 NBsUse=   245 1.00D-06 EigRej= -1.00D+00 NBFU=   245
 Precomputing XC quadrature grid using
 IXCGrd= 4 IRadAn=           0 IRanWt=          -1 IRanGd=           0 AccXCQ= 0.00D+00.
 Generated NRdTot=       0 NPtTot=           0 NUsed=           0 NTot=          32
 NSgBfM=   244   244   244   244   244 MxSgAt=    23 MxSgA2=    23.
 Leave Link  302 at Fri Aug 20 15:47:36 2021, MaxMem= 24159191040 cpu:        13.3
 (Enter /public/home/users/caep010/software/Gaussian09/g09/l303.exe)
 DipDrv:  MaxL=1.
 Leave Link  303 at Fri Aug 20 15:47:37 2021, MaxMem= 24159191040 cpu:         1.6
 (Enter /public/home/users/caep010/software/Gaussian09/g09/l401.exe)
 ExpMin= 1.61D-01 ExpMax= 5.48D+03 ExpMxC= 8.25D+02 IAcc=1 IRadAn=         1 AccDes= 0.00D+00
 Harris functional with IExCor=  402 and IRadAn=       1 diagonalized for initial guess.
 HarFok:  IExCor=  402 AccDes= 0.00D+00 IRadAn=         1 IDoV= 1 UseB2=F ITyADJ=14
 ICtDFT=  3500011 ScaDFX=  1.000000  1.000000  1.000000  1.000000
 FoFCou: FMM=F IPFlag=           0 FMFlag=      100000 FMFlg1=           0
         NFxFlg=           0 DoJE=T BraDBF=F KetDBF=T FulRan=T
         wScrn=  0.000000 ICntrl=     500 IOpCl=  0 I1Cent=   200000004 NGrid=           0
         NMat0=    1 NMatS0=      1 NMatT0=    0 NMatD0=    1 NMtDS0=    0 NMtDT0=    0
 Petite list used in FoFCou.
 Harris En= -645.906611618040    
 JPrj=0 DoOrth=F DoCkMO=F.
 Leave Link  401 at Fri Aug 20 15:47:37 2021, MaxMem= 24159191040 cpu:        12.5
 (Enter /public/home/users/caep010/software/Gaussian09/g09/l502.exe)
 Closed shell SCF:
 Using DIIS extrapolation, IDIIS=  1040.
 Integral symmetry usage will be decided dynamically.
 Keep R1 ints in memory in canonical form, NReq=461725833.
 IVT=      208308 IEndB=      208308 NGot= 24159191040 MDV= 23704908553
 LenX= 23704908553 LenY= 23704848087
 Requested convergence on RMS density matrix=1.00D-08 within 128 cycles.
 Requested convergence on MAX density matrix=1.00D-06.
 Requested convergence on             energy=1.00D-06.
 No special actions if energy rises.
 FoFCou: FMM=F IPFlag=           0 FMFlag=           0 FMFlg1=           0
         NFxFlg=           0 DoJE=F BraDBF=F KetDBF=F FulRan=T
         wScrn=  0.000000 ICntrl=     600 IOpCl=  0 I1Cent=           0 NGrid=           0
         NMat0=    1 NMatS0=  30135 NMatT0=    0 NMatD0=    1 NMtDS0=    0 NMtDT0=    0
 Symmetry not used in FoFCou.
 Integral accuracy reduced to 1.0D-05 until final iterations.

 Cycle   1  Pass 0  IDiag  1:
 E= -645.345808981878    
 DIIS: error= 3.02D-02 at cycle   1 NSaved=   1.
 NSaved= 1 IEnMin= 1 EnMin= -645.345808981878     IErMin= 1 ErrMin= 3.02D-02
 ErrMax= 3.02D-02  0.00D+00 EMaxC= 1.00D-01 BMatC= 4.93D-01 BMatP= 4.93D-01
 IDIUse=3 WtCom= 6.98D-01 WtEn= 3.02D-01
 Coeff-Com:  0.100D+01
 Coeff-En:   0.100D+01
 Coeff:      0.100D+01
 Gap=     0.262 Goal=   None    Shift=    0.000
 GapD=    0.262 DampG=1.000 DampE=0.500 DampFc=0.5000 IDamp=-1.
 Damping current iteration by 5.00D-01
 RMSDP=5.51D-03 MaxDP=2.17D-01              OVMax= 2.44D-01

 Cycle   2  Pass 0  IDiag  1:
 E= -645.503230740879     Delta-E=       -0.157421759001 Rises=F Damp=T
 DIIS: error= 9.42D-03 at cycle   2 NSaved=   2.
 NSaved= 2 IEnMin= 2 EnMin= -645.503230740879     IErMin= 2 ErrMin= 9.42D-03
 ErrMax= 9.42D-03  0.00D+00 EMaxC= 1.00D-01 BMatC= 5.57D-02 BMatP= 4.93D-01
 IDIUse=3 WtCom= 9.06D-01 WtEn= 9.42D-02
 Coeff-Com:  0.166D+00 0.834D+00
 Coeff-En:   0.230D+00 0.770D+00
 Coeff:      0.172D+00 0.828D+00
 Gap=     0.187 Goal=   None    Shift=    0.000
 RMSDP=1.55D-03 MaxDP=8.03D-02 DE=-1.57D-01 OVMax= 1.80D-01

 Cycle   3  Pass 0  IDiag  1:
 E= -645.738276025095     Delta-E=       -0.235045284215 Rises=F Damp=F
 DIIS: error= 7.78D-03 at cycle   3 NSaved=   3.
 NSaved= 3 IEnMin= 3 EnMin= -645.738276025095     IErMin= 3 ErrMin= 7.78D-03
 ErrMax= 7.78D-03  0.00D+00 EMaxC= 1.00D-01 BMatC= 3.47D-02 BMatP= 5.57D-02
 IDIUse=3 WtCom= 9.22D-01 WtEn= 7.78D-02
 Coeff-Com:  0.273D-01 0.436D+00 0.537D+00
 Coeff-En:   0.000D+00 0.000D+00 0.100D+01
 Coeff:      0.251D-01 0.402D+00 0.573D+00
 Gap=     0.205 Goal=   None    Shift=    0.000
 RMSDP=8.37D-04 MaxDP=4.11D-02 DE=-2.35D-01 OVMax= 4.29D-02

 Cycle   4  Pass 0  IDiag  1:
 E= -645.760711967693     Delta-E=       -0.022435942599 Rises=F Damp=F
 DIIS: error= 3.74D-03 at cycle   4 NSaved=   4.
 NSaved= 4 IEnMin= 4 EnMin= -645.760711967693     IErMin= 4 ErrMin= 3.74D-03
 ErrMax= 3.74D-03  0.00D+00 EMaxC= 1.00D-01 BMatC= 6.35D-03 BMatP= 3.47D-02
 IDIUse=3 WtCom= 9.63D-01 WtEn= 3.74D-02
 Coeff-Com:  0.648D-02 0.114D+00 0.324D+00 0.555D+00
 Coeff-En:   0.000D+00 0.000D+00 0.150D+00 0.850D+00
 Coeff:      0.623D-02 0.110D+00 0.318D+00 0.566D+00
 Gap=     0.206 Goal=   None    Shift=    0.000
 RMSDP=3.55D-04 MaxDP=2.06D-02 DE=-2.24D-02 OVMax= 3.89D-02

 Cycle   5  Pass 0  IDiag  1:
 E= -645.764042497530     Delta-E=       -0.003330529837 Rises=F Damp=F
 DIIS: error= 3.07D-03 at cycle   5 NSaved=   5.
 NSaved= 5 IEnMin= 5 EnMin= -645.764042497530     IErMin= 5 ErrMin= 3.07D-03
 ErrMax= 3.07D-03  0.00D+00 EMaxC= 1.00D-01 BMatC= 1.94D-03 BMatP= 6.35D-03
 IDIUse=3 WtCom= 9.69D-01 WtEn= 3.07D-02
 Coeff-Com:  0.297D-02 0.366D-01 0.182D+00 0.421D+00 0.358D+00
 Coeff-En:   0.000D+00 0.000D+00 0.000D+00 0.237D+00 0.763D+00
 Coeff:      0.287D-02 0.355D-01 0.177D+00 0.415D+00 0.370D+00
 Gap=     0.206 Goal=   None    Shift=    0.000
 RMSDP=1.76D-04 MaxDP=9.57D-03 DE=-3.33D-03 OVMax= 2.51D-02

 Cycle   6  Pass 0  IDiag  1:
 E= -645.765420156282     Delta-E=       -0.001377658751 Rises=F Damp=F
 DIIS: error= 8.63D-04 at cycle   6 NSaved=   6.
 NSaved= 6 IEnMin= 6 EnMin= -645.765420156282     IErMin= 6 ErrMin= 8.63D-04
 ErrMax= 8.63D-04  0.00D+00 EMaxC= 1.00D-01 BMatC= 1.96D-04 BMatP= 1.94D-03
 IDIUse=3 WtCom= 9.91D-01 WtEn= 8.63D-03
 Coeff-Com:  0.102D-02 0.300D-02 0.596D-01 0.176D+00 0.262D+00 0.499D+00
 Coeff-En:   0.000D+00 0.000D+00 0.000D+00 0.000D+00 0.116D+00 0.884D+00
 Coeff:      0.101D-02 0.297D-02 0.591D-01 0.174D+00 0.260D+00 0.502D+00
 Gap=     0.207 Goal=   None    Shift=    0.000
 RMSDP=5.19D-05 MaxDP=2.97D-03 DE=-1.38D-03 OVMax= 5.88D-03

 Cycle   7  Pass 0  IDiag  1:
 E= -645.765567819925     Delta-E=       -0.000147663644 Rises=F Damp=F
 DIIS: error= 1.01D-04 at cycle   7 NSaved=   7.
 NSaved= 7 IEnMin= 7 EnMin= -645.765567819925     IErMin= 7 ErrMin= 1.01D-04
 ErrMax= 1.01D-04  0.00D+00 EMaxC= 1.00D-01 BMatC= 6.39D-06 BMatP= 1.96D-04
 IDIUse=3 WtCom= 9.99D-01 WtEn= 1.01D-03
 Coeff-Com:  0.329D-03-0.151D-02 0.164D-01 0.568D-01 0.104D+00 0.254D+00
 Coeff-Com:  0.569D+00
 Coeff-En:   0.000D+00 0.000D+00 0.000D+00 0.000D+00 0.000D+00 0.000D+00
 Coeff-En:   0.100D+01
 Coeff:      0.329D-03-0.151D-02 0.164D-01 0.568D-01 0.104D+00 0.254D+00
 Coeff:      0.570D+00
 Gap=     0.207 Goal=   None    Shift=    0.000
 RMSDP=1.11D-05 MaxDP=3.89D-04 DE=-1.48D-04 OVMax= 7.73D-04

 Cycle   8  Pass 0  IDiag  1:
 E= -645.765572664557     Delta-E=       -0.000004844632 Rises=F Damp=F
 DIIS: error= 4.66D-05 at cycle   8 NSaved=   8.
 NSaved= 8 IEnMin= 8 EnMin= -645.765572664557     IErMin= 8 ErrMin= 4.66D-05
 ErrMax= 4.66D-05  0.00D+00 EMaxC= 1.00D-01 BMatC= 3.84D-07 BMatP= 6.39D-06
 IDIUse=1 WtCom= 1.00D+00 WtEn= 0.00D+00
 Coeff-Com:  0.145D-03-0.968D-03 0.531D-02 0.198D-01 0.397D-01 0.102D+00
 Coeff-Com:  0.289D+00 0.545D+00
 Coeff:      0.145D-03-0.968D-03 0.531D-02 0.198D-01 0.397D-01 0.102D+00
 Coeff:      0.289D+00 0.545D+00
 Gap=     0.207 Goal=   None    Shift=    0.000
 RMSDP=3.65D-06 MaxDP=1.04D-04 DE=-4.84D-06 OVMax= 2.71D-04

 Initial convergence to 1.0D-05 achieved.  Increase integral accuracy.
 Cycle   9  Pass 1  IDiag  1:
 E= -645.765648979912     Delta-E=       -0.000076315354 Rises=F Damp=F
 DIIS: error= 2.06D-05 at cycle   1 NSaved=   1.
 NSaved= 1 IEnMin= 1 EnMin= -645.765648979912     IErMin= 1 ErrMin= 2.06D-05
 ErrMax= 2.06D-05  0.00D+00 EMaxC= 1.00D-01 BMatC= 1.43D-07 BMatP= 1.43D-07
 IDIUse=1 WtCom= 1.00D+00 WtEn= 0.00D+00
 Coeff-Com:  0.100D+01
 Coeff:      0.100D+01
 Gap=     0.207 Goal=   None    Shift=    0.000
 RMSDP=3.65D-06 MaxDP=1.04D-04 DE=-7.63D-05 OVMax= 2.53D-04

 Cycle  10  Pass 1  IDiag  1:
 E= -645.765648886686     Delta-E=        0.000000093225 Rises=F Damp=F
 DIIS: error= 4.11D-05 at cycle   2 NSaved=   2.
 NSaved= 2 IEnMin= 1 EnMin= -645.765648979912     IErMin= 1 ErrMin= 2.06D-05
 ErrMax= 4.11D-05  0.00D+00 EMaxC= 1.00D-01 BMatC= 2.59D-07 BMatP= 1.43D-07
 IDIUse=1 WtCom= 1.00D+00 WtEn= 0.00D+00
 Coeff-Com:  0.589D+00 0.411D+00
 Coeff:      0.589D+00 0.411D+00
 Gap=     0.207 Goal=   None    Shift=    0.000
 RMSDP=2.78D-06 MaxDP=1.04D-04 DE= 9.32D-08 OVMax= 1.98D-04

 Cycle  11  Pass 1  IDiag  1:
 E= -645.765649127637     Delta-E=       -0.000000240950 Rises=F Damp=F
 DIIS: error= 1.13D-05 at cycle   3 NSaved=   3.
 NSaved= 3 IEnMin= 3 EnMin= -645.765649127637     IErMin= 3 ErrMin= 1.13D-05
 ErrMax= 1.13D-05  0.00D+00 EMaxC= 1.00D-01 BMatC= 1.99D-08 BMatP= 1.43D-07
 IDIUse=1 WtCom= 1.00D+00 WtEn= 0.00D+00
 Coeff-Com:  0.150D-01 0.214D+00 0.771D+00
 Coeff:      0.150D-01 0.214D+00 0.771D+00
 Gap=     0.207 Goal=   None    Shift=    0.000
 RMSDP=7.48D-07 MaxDP=2.40D-05 DE=-2.41D-07 OVMax= 5.10D-05

 Cycle  12  Pass 1  IDiag  1:
 E= -645.765649145629     Delta-E=       -0.000000017992 Rises=F Damp=F
 DIIS: error= 2.22D-06 at cycle   4 NSaved=   4.
 NSaved= 4 IEnMin= 4 EnMin= -645.765649145629     IErMin= 4 ErrMin= 2.22D-06
 ErrMax= 2.22D-06  0.00D+00 EMaxC= 1.00D-01 BMatC= 2.57D-09 BMatP= 1.99D-08
 IDIUse=1 WtCom= 1.00D+00 WtEn= 0.00D+00
 Coeff-Com: -0.155D-01 0.111D+00 0.465D+00 0.439D+00
 Coeff:     -0.155D-01 0.111D+00 0.465D+00 0.439D+00
 Gap=     0.207 Goal=   None    Shift=    0.000
 RMSDP=2.39D-07 MaxDP=1.07D-05 DE=-1.80D-08 OVMax= 2.47D-05

 Cycle  13  Pass 1  IDiag  1:
 E= -645.765649147437     Delta-E=       -0.000000001808 Rises=F Damp=F
 DIIS: error= 1.59D-06 at cycle   5 NSaved=   5.
 NSaved= 5 IEnMin= 5 EnMin= -645.765649147437     IErMin= 5 ErrMin= 1.59D-06
 ErrMax= 1.59D-06  0.00D+00 EMaxC= 1.00D-01 BMatC= 5.12D-10 BMatP= 2.57D-09
 IDIUse=1 WtCom= 1.00D+00 WtEn= 0.00D+00
 Coeff-Com: -0.124D-01 0.647D-01 0.280D+00 0.326D+00 0.342D+00
 Coeff:     -0.124D-01 0.647D-01 0.280D+00 0.326D+00 0.342D+00
 Gap=     0.207 Goal=   None    Shift=    0.000
 RMSDP=8.54D-08 MaxDP=4.56D-06 DE=-1.81D-09 OVMax= 1.15D-05

 Cycle  14  Pass 1  IDiag  1:
 E= -645.765649147873     Delta-E=       -0.000000000436 Rises=F Damp=F
 DIIS: error= 2.49D-07 at cycle   6 NSaved=   6.
 NSaved= 6 IEnMin= 6 EnMin= -645.765649147873     IErMin= 6 ErrMin= 2.49D-07
 ErrMax= 2.49D-07  0.00D+00 EMaxC= 1.00D-01 BMatC= 2.01D-11 BMatP= 5.12D-10
 IDIUse=1 WtCom= 1.00D+00 WtEn= 0.00D+00
 Coeff-Com: -0.500D-02 0.215D-01 0.966D-01 0.125D+00 0.198D+00 0.564D+00
 Coeff:     -0.500D-02 0.215D-01 0.966D-01 0.125D+00 0.198D+00 0.564D+00
 Gap=     0.207 Goal=   None    Shift=    0.000
 RMSDP=2.18D-08 MaxDP=7.15D-07 DE=-4.36D-10 OVMax= 1.76D-06

 Cycle  15  Pass 1  IDiag  1:
 E= -645.765649147861     Delta-E=        0.000000000012 Rises=F Damp=F
 DIIS: error= 8.71D-08 at cycle   7 NSaved=   7.
 NSaved= 7 IEnMin= 6 EnMin= -645.765649147873     IErMin= 7 ErrMin= 8.71D-08
 ErrMax= 8.71D-08  0.00D+00 EMaxC= 1.00D-01 BMatC= 2.86D-12 BMatP= 2.01D-11
 IDIUse=1 WtCom= 1.00D+00 WtEn= 0.00D+00
 Coeff-Com: -0.109D-02 0.324D-02 0.162D-01 0.254D-01 0.665D-01 0.330D+00
 Coeff-Com:  0.560D+00
 Coeff:     -0.109D-02 0.324D-02 0.162D-01 0.254D-01 0.665D-01 0.330D+00
 Coeff:      0.560D+00
 Gap=     0.207 Goal=   None    Shift=    0.000
 RMSDP=9.55D-09 MaxDP=2.40D-07 DE= 1.16D-11 OVMax= 9.42D-07

 SCF Done:  E(RB3LYP) =  -645.765649148     A.U. after   15 cycles
            NFock= 15  Conv=0.95D-08     -V/T= 2.0039
 KE= 6.432455208325D+02 PE=-3.139693643978D+03 EE= 1.034807302927D+03
 Leave Link  502 at Fri Aug 20 15:47:51 2021, MaxMem= 24159191040 cpu:       128.0
 (Enter /public/home/users/caep010/software/Gaussian09/g09/l601.exe)
 Copying SCF densities to generalized density rwf, IOpCl= 0 IROHF=0.

 **********************************************************************

            Population analysis using the SCF density.

 **********************************************************************

 Orbital symmetries:
       Occupied  (A) (A) (A) (A) (A) (A) (A) (A) (A) (A) (A) (A)
                 (A) (A) (A) (A) (A) (A) (A) (A) (A) (A) (A) (A)
                 (A) (A) (A) (A) (A) (A) (A) (A) (A) (A) (A) (A)
                 (A) (A) (A) (A) (A) (A) (A) (A) (A) (A) (A) (A)
       Virtual   (A) (A) (A) (A) (A) (A) (A) (A) (A) (A) (A) (A)
                 (A) (A) (A) (A) (A) (A) (A) (A) (A) (A) (A) (A)
                 (A) (A) (A) (A) (A) (A) (A) (A) (A) (A) (A) (A)
                 (A) (A) (A) (A) (A) (A) (A) (A) (A) (A) (A) (A)
                 (A) (A) (A) (A) (A) (A) (A) (A) (A) (A) (A) (A)
                 (A) (A) (A) (A) (A) (A) (A) (A) (A) (A) (A) (A)
                 (A) (A) (A) (A) (A) (A) (A) (A) (A) (A) (A) (A)
                 (A) (A) (A) (A) (A) (A) (A) (A) (A) (A) (A) (A)
                 (A) (A) (A) (A) (A) (A) (A) (A) (A) (A) (A) (A)
                 (A) (A) (A) (A) (A) (A) (A) (A) (A) (A) (A) (A)
                 (A) (A) (A) (A) (A) (A) (A) (A) (A) (A) (A) (A)
                 (A) (A) (A) (A) (A) (A) (A) (A) (A) (A) (A) (A)
                 (A) (A) (A) (A) (A) (A) (A) (A) (A) (A) (A) (A)
                 (A) (A) (A) (A) (A) (A) (A) (A) (A) (A) (A) (A)
                 (A) (A) (A) (A) (A) (A) (A) (A) (A) (A) (A) (A)
                 (A) (A) (A) (A) (A) (A) (A) (A) (A) (A) (A) (A)
                 (A) (A) (A) (A) (A)
 The electronic state is 1-A.
 Alpha  occ. eigenvalues --  -19.18015 -19.17820 -19.15836 -14.56646 -14.33720
 Alpha  occ. eigenvalues --  -10.25399 -10.23955 -10.21796 -10.21695 -10.21604
 Alpha  occ. eigenvalues --  -10.19344 -10.18956 -10.16856  -1.24028  -1.08977
 Alpha  occ. eigenvalues --   -1.06162  -0.95974  -0.88122  -0.83341  -0.79373
 Alpha  occ. eigenvalues --   -0.75188  -0.72335  -0.66998  -0.64581  -0.61559
 Alpha  occ. eigenvalues --   -0.57946  -0.56396  -0.54504  -0.53303  -0.51774
 Alpha  occ. eigenvalues --   -0.51471  -0.49661  -0.48548  -0.46202  -0.45077
 Alpha  occ. eigenvalues --   -0.43931  -0.42376  -0.41128  -0.40702  -0.39170
 Alpha  occ. eigenvalues --   -0.36176  -0.31877  -0.31015  -0.30177  -0.29249
 Alpha  occ. eigenvalues --   -0.28656  -0.27923  -0.26456
 Alpha virt. eigenvalues --   -0.05740  -0.03696  -0.02282   0.09294   0.10550
 Alpha virt. eigenvalues --    0.12045   0.13682   0.13983   0.14706   0.17039
 Alpha virt. eigenvalues --    0.17395   0.18108   0.18707   0.20234   0.21338
 Alpha virt. eigenvalues --    0.21824   0.22229   0.24958   0.25490   0.29599
 Alpha virt. eigenvalues --    0.30792   0.31523   0.33497   0.35367   0.38822
 Alpha virt. eigenvalues --    0.45572   0.45932   0.47939   0.50258   0.50557
 Alpha virt. eigenvalues --    0.51078   0.52297   0.52633   0.56347   0.56747
 Alpha virt. eigenvalues --    0.58244   0.58499   0.60236   0.61939   0.63579
 Alpha virt. eigenvalues --    0.64283   0.66224   0.68518   0.69327   0.69910
 Alpha virt. eigenvalues --    0.72021   0.73504   0.76567   0.80067   0.80735
 Alpha virt. eigenvalues --    0.82798   0.83505   0.84670   0.85147   0.86487
 Alpha virt. eigenvalues --    0.87627   0.88368   0.89500   0.92039   0.93152
 Alpha virt. eigenvalues --    0.93626   0.94391   0.95991   0.96994   0.98228
 Alpha virt. eigenvalues --    0.99739   0.99857   1.01102   1.01619   1.02986
 Alpha virt. eigenvalues --    1.04200   1.06595   1.07646   1.10104   1.11901
 Alpha virt. eigenvalues --    1.13978   1.17919   1.20921   1.22128   1.22950
 Alpha virt. eigenvalues --    1.26400   1.27540   1.31000   1.32626   1.35533
 Alpha virt. eigenvalues --    1.37152   1.38934   1.41239   1.43127   1.45591
 Alpha virt. eigenvalues --    1.46909   1.48124   1.52163   1.52744   1.55946
 Alpha virt. eigenvalues --    1.60445   1.65664   1.66838   1.69898   1.71340
 Alpha virt. eigenvalues --    1.74020   1.76483   1.78843   1.80398   1.81688
 Alpha virt. eigenvalues --    1.82755   1.84492   1.86887   1.87721   1.88537
 Alpha virt. eigenvalues --    1.91549   1.92968   1.96391   1.97212   2.00182
 Alpha virt. eigenvalues --    2.01587   2.04248   2.06297   2.07914   2.08360
 Alpha virt. eigenvalues --    2.09641   2.11944   2.13239   2.14723   2.15313
 Alpha virt. eigenvalues --    2.17157   2.21950   2.24807   2.26422   2.28226
 Alpha virt. eigenvalues --    2.30854   2.31790   2.33473   2.36526   2.36987
 Alpha virt. eigenvalues --    2.42602   2.43340   2.45577   2.49331   2.52192
 Alpha virt. eigenvalues --    2.53033   2.53411   2.56099   2.57862   2.59778
 Alpha virt. eigenvalues --    2.61839   2.62785   2.63864   2.68645   2.69364
 Alpha virt. eigenvalues --    2.70721   2.72463   2.74742   2.76115   2.77815
 Alpha virt. eigenvalues --    2.79849   2.84956   2.85237   2.85741   2.88678
 Alpha virt. eigenvalues --    2.88981   2.93358   2.96681   3.00122   3.06420
 Alpha virt. eigenvalues --    3.06947   3.09207   3.10995   3.17938   3.18675
 Alpha virt. eigenvalues --    3.19554   3.24566   3.40905   3.50232   3.65411
 Alpha virt. eigenvalues --    3.66804   3.68225   3.70613   3.74367   3.76112
 Alpha virt. eigenvalues --    3.79485   3.82462   3.89976   3.92689   3.93178
 Alpha virt. eigenvalues --    3.97217   4.03809   4.12748   4.16728   4.23367
 Alpha virt. eigenvalues --    4.31060   4.34282   4.42448   4.47157   4.56933
 Alpha virt. eigenvalues --    4.75608   4.82643
          Condensed to atoms (all electrons):
               1          2          3          4          5          6
     1  C    4.673376   0.474753  -0.006923  -0.049889  -0.068119   0.006949
     2  C    0.474753   4.985074   0.515050  -0.052602  -0.050964  -0.050513
     3  C   -0.006923   0.515050   4.898577   0.511202  -0.012958   0.333650
     4  C   -0.049889  -0.052602   0.511202   4.964816   0.488544  -0.058457
     5  C   -0.068119  -0.050964  -0.012958   0.488544   4.678561   0.006143
     6  C    0.006949  -0.050513   0.333650  -0.058457   0.006143   4.867178
     7  C   -0.000237   0.000096  -0.043688  -0.015226   0.000186   0.325971
     8  C   -0.000032  -0.000253  -0.004408  -0.001125  -0.000006  -0.035157
     9  H    0.000085   0.002089   0.007668   0.001163  -0.000030  -0.007533
    10  N    0.481423  -0.025197  -0.059629  -0.024439   0.464831  -0.000180
    11  N    0.000001  -0.000053   0.002235   0.000149   0.000002  -0.035489
    12  O   -0.000000   0.000001  -0.000041  -0.000039  -0.000000   0.000651
    13  O   -0.000124   0.003065  -0.048030  -0.004564   0.000295   0.228263
    14  O   -0.000000  -0.000019   0.000702  -0.000007  -0.000000   0.006754
    15  H    0.398241  -0.069097   0.003460   0.001709   0.005551  -0.000229
    16  H   -0.049883   0.367891  -0.058806   0.012202  -0.000074  -0.014910
    17  H   -0.000156   0.012428  -0.059137   0.366303  -0.044585  -0.016341
    18  H   -0.000004   0.000402  -0.001225   0.000127   0.000001  -0.010478
    19  H    0.004809   0.002037   0.004148  -0.069241   0.397549  -0.000281
    20  H    0.000028  -0.011131  -0.046929   0.011176  -0.000278   0.367871
    21  H   -0.000006   0.000034  -0.013530   0.008661  -0.000201  -0.041449
    22  H   -0.000026   0.001000   0.003303  -0.000566  -0.000040  -0.028826
    23  H    0.000002   0.000086   0.000151  -0.000022  -0.000004   0.006662
               7          8          9         10         11         12
     1  C   -0.000237  -0.000032   0.000085   0.481423   0.000001  -0.000000
     2  C    0.000096  -0.000253   0.002089  -0.025197  -0.000053   0.000001
     3  C   -0.043688  -0.004408   0.007668  -0.059629   0.002235  -0.000041
     4  C   -0.015226  -0.001125   0.001163  -0.024439   0.000149  -0.000039
     5  C    0.000186  -0.000006  -0.000030   0.464831   0.000002  -0.000000
     6  C    0.325971  -0.035157  -0.007533  -0.000180  -0.035489   0.000651
     7  C    5.080328   0.360874  -0.025946  -0.000010   0.236252  -0.076652
     8  C    0.360874   4.881082   0.395840   0.000010  -0.044837  -0.001202
     9  H   -0.025946   0.395840   0.553425  -0.000039   0.004289  -0.000235
    10  N   -0.000010   0.000010  -0.000039   6.702701  -0.000000   0.000000
    11  N    0.236252  -0.044837   0.004289  -0.000000   5.831810   0.304895
    12  O   -0.076652  -0.001202  -0.000235   0.000000   0.304895   8.242025
    13  O   -0.054373   0.003375   0.000077   0.000001   0.003440   0.000006
    14  O   -0.103544   0.000770   0.000168  -0.000000   0.273140  -0.096941
    15  H    0.000001  -0.000000   0.000001  -0.055614  -0.000000   0.000000
    16  H    0.000049   0.000094   0.000097   0.007780  -0.000021   0.000000
    17  H   -0.001967   0.000281   0.000004   0.007435  -0.000151  -0.000002
    18  H   -0.034280   0.399541  -0.029088   0.000000  -0.005477   0.000142
    19  H   -0.000005   0.000000  -0.000000  -0.053476  -0.000000   0.000000
    20  H   -0.048271  -0.008181  -0.000073   0.000011  -0.007711   0.000083
    21  H    0.367140  -0.041403  -0.005258   0.000001  -0.029560   0.008070
    22  H    0.008076  -0.000270  -0.000008  -0.000004  -0.000097   0.000013
    23  H   -0.026975   0.397592  -0.029122  -0.000000  -0.003896   0.003009
              13         14         15         16         17         18
     1  C   -0.000124  -0.000000   0.398241  -0.049883  -0.000156  -0.000004
     2  C    0.003065  -0.000019  -0.069097   0.367891   0.012428   0.000402
     3  C   -0.048030   0.000702   0.003460  -0.058806  -0.059137  -0.001225
     4  C   -0.004564  -0.000007   0.001709   0.012202   0.366303   0.000127
     5  C    0.000295  -0.000000   0.005551  -0.000074  -0.044585   0.000001
     6  C    0.228263   0.006754  -0.000229  -0.014910  -0.016341  -0.010478
     7  C   -0.054373  -0.103544   0.000001   0.000049  -0.001967  -0.034280
     8  C    0.003375   0.000770  -0.000000   0.000094   0.000281   0.399541
     9  H    0.000077   0.000168   0.000001   0.000097   0.000004  -0.029088
    10  N    0.000001  -0.000000  -0.055614   0.007780   0.007435   0.000000
    11  N    0.003440   0.273140  -0.000000  -0.000021  -0.000151  -0.005477
    12  O    0.000006  -0.096941   0.000000   0.000000  -0.000002   0.000142
    13  O    8.052934  -0.001593   0.000001   0.000058   0.013248  -0.000029
    14  O   -0.001593   8.283037   0.000000  -0.000000   0.000001   0.008450
    15  H    0.000001   0.000000   0.637691  -0.005092   0.000062  -0.000000
    16  H    0.000058  -0.000000  -0.005092   0.674832  -0.000210   0.000292
    17  H    0.013248   0.000001   0.000062  -0.000210   0.651043   0.000004
    18  H   -0.000029   0.008450  -0.000000   0.000292   0.000004   0.552153
    19  H   -0.000004   0.000000  -0.000506   0.000065  -0.005251   0.000000
    20  H   -0.040706   0.012493  -0.000005   0.007841   0.000702   0.007032
    21  H   -0.000414   0.006519   0.000000   0.000052   0.003201   0.008522
    22  H    0.342987  -0.000072   0.000000   0.000010  -0.000351  -0.000009
    23  H   -0.000093  -0.000805   0.000000  -0.000004   0.000006  -0.032896
              19         20         21         22         23
     1  C    0.004809   0.000028  -0.000006  -0.000026   0.000002
     2  C    0.002037  -0.011131   0.000034   0.001000   0.000086
     3  C    0.004148  -0.046929  -0.013530   0.003303   0.000151
     4  C   -0.069241   0.011176   0.008661  -0.000566  -0.000022
     5  C    0.397549  -0.000278  -0.000201  -0.000040  -0.000004
     6  C   -0.000281   0.367871  -0.041449  -0.028826   0.006662
     7  C   -0.000005  -0.048271   0.367140   0.008076  -0.026975
     8  C    0.000000  -0.008181  -0.041403  -0.000270   0.397592
     9  H   -0.000000  -0.000073  -0.005258  -0.000008  -0.029122
    10  N   -0.053476   0.000011   0.000001  -0.000004  -0.000000
    11  N   -0.000000  -0.007711  -0.029560  -0.000097  -0.003896
    12  O    0.000000   0.000083   0.008070   0.000013   0.003009
    13  O   -0.000004  -0.040706  -0.000414   0.342987  -0.000093
    14  O    0.000000   0.012493   0.006519  -0.000072  -0.000805
    15  H   -0.000506  -0.000005   0.000000   0.000000   0.000000
    16  H    0.000065   0.007841   0.000052   0.000010  -0.000004
    17  H   -0.005251   0.000702   0.003201  -0.000351   0.000006
    18  H    0.000000   0.007032   0.008522  -0.000009  -0.032896
    19  H    0.634338   0.000005   0.000016   0.000003  -0.000000
    20  H    0.000005   0.661067   0.011389  -0.007395  -0.000131
    21  H    0.000016   0.011389   0.604178  -0.000247  -0.004879
    22  H    0.000003  -0.007395  -0.000247   0.405348   0.000007
    23  H   -0.000000  -0.000131  -0.004879   0.000007   0.555407
 Mulliken charges:
               1
     1  C    0.135732
     2  C   -0.104177
     3  C    0.075157
     4  C   -0.089877
     5  C    0.135597
     6  C    0.149751
     7  C    0.052201
     8  C   -0.302585
     9  H    0.132428
    10  N   -0.445607
    11  N    0.471077
    12  O   -0.383783
    13  O   -0.497820
    14  O   -0.389052
    15  H    0.083827
    16  H    0.057739
    17  H    0.073434
    18  H    0.136819
    19  H    0.085793
    20  H    0.091112
    21  H    0.119166
    22  H    0.277164
    23  H    0.135904
 Sum of Mulliken charges =  -0.00000
 Mulliken charges with hydrogens summed into heavy atoms:
               1
     1  C    0.219559
     2  C   -0.046438
     3  C    0.075157
     4  C   -0.016443
     5  C    0.221390
     6  C    0.240863
     7  C    0.171367
     8  C    0.102566
    10  N   -0.445607
    11  N    0.471077
    12  O   -0.383783
    13  O   -0.220656
    14  O   -0.389052
 Electronic spatial extent (au):  <R**2>=           2596.1886
 Charge=             -0.0000 electrons
 Dipole moment (field-independent basis, Debye):
    X=             -2.4495    Y=              1.3717    Z=              0.7057  Tot=              2.8948
 Quadrupole moment (field-independent basis, Debye-Ang):
   XX=           -100.2233   YY=            -69.7355   ZZ=            -69.2042
   XY=              3.4184   XZ=             -3.6101   YZ=             -1.0618
 Traceless Quadrupole moment (field-independent basis, Debye-Ang):
   XX=            -20.5023   YY=              9.9855   ZZ=             10.5168
   XY=              3.4184   XZ=             -3.6101   YZ=             -1.0618
 Octapole moment (field-independent basis, Debye-Ang**2):
  XXX=             24.9354  YYY=             -3.0853  ZZZ=             10.7664  XYY=             -1.0746
  XXY=              9.3014  XXZ=              7.4639  XZZ=              3.4856  YZZ=             -6.7901
  YYZ=              3.1689  XYZ=            -14.6544
 Hexadecapole moment (field-independent basis, Debye-Ang**3):
 XXXX=          -2954.8658 YYYY=           -432.8175 ZZZZ=           -301.3190 XXXY=              3.4439
 XXXZ=            -49.4805 YYYX=              0.4410 YYYZ=             -5.4960 ZZZX=              5.4619
 ZZZY=            -17.1500 XXYY=           -462.0162 XXZZ=           -478.1894 YYZZ=           -108.7117
 XXYZ=              3.6520 YYXZ=              0.4315 ZZXY=              4.3756
 N-N= 8.158751710697D+02 E-N=-3.139693653818D+03  KE= 6.432455208325D+02
 No NMR shielding tensors so no spin-rotation constants.
 Leave Link  601 at Fri Aug 20 15:47:52 2021, MaxMem= 24159191040 cpu:        11.7
 (Enter /public/home/users/caep010/software/Gaussian09/g09/l701.exe)
 Compute integral first derivatives.
 ... and contract with generalized density number  0.
 Leave Link  701 at Fri Aug 20 15:47:52 2021, MaxMem= 24159191040 cpu:        11.7
 (Enter /public/home/users/caep010/software/Gaussian09/g09/l702.exe)
 L702 exits ... SP integral derivatives will be done elsewhere.
 Leave Link  702 at Fri Aug 20 15:47:52 2021, MaxMem= 24159191040 cpu:         0.6
 (Enter /public/home/users/caep010/software/Gaussian09/g09/l703.exe)
 Compute integral first derivatives, UseDBF=F ICtDFT=           0.
 Integral derivatives from FoFJK, PRISM(SPDF).
 Calling FoFJK, ICntrl=      2127 FMM=F ISym2X=0 I1Cent= 0 IOpClX= 0 NMat=1 NMatS=1 NMatT=0.
 FoFJK:  IHMeth= 1 ICntrl=    2127 DoSepK=F KAlg= 0 I1Cent=   0 FoldK=F
 IRaf=         0 NMat=   1 IRICut=       1 DoRegI=T DoRafI=F ISym2E= 0.
 FoFCou: FMM=F IPFlag=           0 FMFlag=      100000 FMFlg1=         800
         NFxFlg=           0 DoJE=F BraDBF=F KetDBF=F FulRan=T
         wScrn=  0.000000 ICntrl=    2127 IOpCl=  0 I1Cent=           0 NGrid=           0
         NMat0=    1 NMatS0=      1 NMatT0=    0 NMatD0=    1 NMtDS0=    0 NMtDT0=    0
 Symmetry not used in FoFCou.
 Leave Link  703 at Fri Aug 20 15:47:53 2021, MaxMem= 24159191040 cpu:        33.1
 (Enter /public/home/users/caep010/software/Gaussian09/g09/l716.exe)
 Dipole        =-9.63724348D-01 5.39681056D-01 2.77662824D-01
 ***** Axes restored to original set *****
 -------------------------------------------------------------------
 Center     Atomic                   Forces (Hartrees/Bohr)
 Number     Number              X              Y              Z
 -------------------------------------------------------------------
      1        6          -0.058927555   -0.002313498   -0.113598140
      2        6          -0.081830170    0.081013394   -0.038619118
      3        6          -0.001236999   -0.005989930   -0.005418545
      4        6           0.064255099   -0.000060818    0.105388488
      5        6           0.087419252   -0.091033002    0.037415331
      6        6          -0.067386018    0.100059558   -0.055003458
      7        6           0.063240162   -0.106506256    0.056620361
      8        6          -0.096094867   -0.040835168   -0.021823887
      9        1          -0.009408577    0.100745060    0.078338524
     10        7          -0.007025050    0.013490572    0.005607895
     11        7          -0.008155499    0.016647457   -0.002678821
     12        8          -0.009793982    0.011740807   -0.023089091
     13        8           0.104527200    0.117634395   -0.190066855
     14        8           0.016032573   -0.028586945    0.018605164
     15        1           0.065939169    0.010859000    0.136348793
     16        1           0.101461033   -0.103210117    0.043848077
     17        1          -0.075434439   -0.005695734   -0.129932649
     18        1           0.068514238   -0.093968536    0.058207929
     19        1          -0.099109343    0.110715796   -0.033622312
     20        1           0.085633131   -0.109933012    0.071591577
     21        1          -0.082796193    0.109192302   -0.070429462
     22        1          -0.122442401   -0.120936568    0.179928070
     23        1           0.062619236    0.036971242   -0.107617871
 -------------------------------------------------------------------
 Cartesian Forces:  Max     0.190066855 RMS     0.078678690
 Leave Link  716 at Fri Aug 20 15:47:54 2021, MaxMem= 24159191040 cpu:         0.8
 (Enter /public/home/users/caep010/software/Gaussian09/g09/l103.exe)

 GradGradGradGradGradGradGradGradGradGradGradGradGradGradGradGradGradGrad
 Berny optimization.
 FormGI is forming the generalized inverse of G from B-inverse, IUseBI=4.
 Internal  Forces:  Max     0.248971084 RMS     0.047697321
 Search for a local minimum.
 Step number   1 out of a maximum of  124
 All quantities printed in internal units (Hartrees-Bohrs-Radians)
 RMS Force = .47697D-01 SwitMx=.10000D-02 MixMth= 1
 Mixed Optimization -- RFO/linear search
 Second derivative matrix not updated -- first step.
 ITU=  0
     Eigenvalues ---    0.00347   0.00351   0.00531   0.00661   0.00829
     Eigenvalues ---    0.01691   0.01703   0.02424   0.02449   0.02454
     Eigenvalues ---    0.02483   0.02520   0.02530   0.02594   0.04114
     Eigenvalues ---    0.04890   0.05308   0.05773   0.05971   0.06099
     Eigenvalues ---    0.06104   0.07753   0.15992   0.15997   0.15998
     Eigenvalues ---    0.16000   0.16000   0.16000   0.16000   0.16000
     Eigenvalues ---    0.16967   0.17208   0.17444   0.19950   0.22000
     Eigenvalues ---    0.22820   0.23880   0.24997   0.25000   0.25000
     Eigenvalues ---    0.30584   0.31556   0.32200   0.32881   0.45492
     Eigenvalues ---    0.45767   0.47428   0.50230   0.50840   0.55384
     Eigenvalues ---    0.55514   0.55564   0.57307   0.59228   0.59255
     Eigenvalues ---    0.59290   0.59298   0.59359   0.59359   0.59467
     Eigenvalues ---    0.99490   1.00973   1.02112
 RFO step:  Lambda=-2.78401645D-01 EMin= 3.46518934D-03
 Linear search not attempted -- first point.
 Maximum step size (   0.300) exceeded in Quadratic search.
    -- Step size scaled by   0.542
 Iteration  1 RMS(Cart)=  0.03296211 RMS(Int)=  0.00018095
 Iteration  2 RMS(Cart)=  0.00022100 RMS(Int)=  0.00000373
 Iteration  3 RMS(Cart)=  0.00000006 RMS(Int)=  0.00000373
 ITry= 1 IFail=0 DXMaxC= 1.13D-01 DCOld= 1.00D+10 DXMaxT= 3.00D-01 DXLimC= 3.00D+00 Rises=F
 Variable       Old X    -DE/DX   Delta X   Delta X   Delta X     New X
                                 (Linear)    (Quad)   (Total)
    R1        2.59342   0.02662   0.00000   0.01845   0.01845   2.61187
    R2        2.50499   0.01747   0.00000   0.01062   0.01062   2.51561
    R3        1.78235   0.15183   0.00000   0.09442   0.09442   1.87677
    R4        2.59364   0.02612   0.00000   0.01822   0.01822   2.61186
    R5        1.78151   0.15117   0.00000   0.09390   0.09390   1.87542
    R6        2.60269   0.02536   0.00000   0.01784   0.01784   2.62053
    R7        2.84965   0.01139   0.00000   0.01039   0.01039   2.86003
    R8        2.58802   0.02715   0.00000   0.01858   0.01858   2.60660
    R9        1.78200   0.15025   0.00000   0.09339   0.09339   1.87539
   R10        2.51749   0.01261   0.00000   0.00773   0.00772   2.52521
   R11        1.78207   0.15201   0.00000   0.09450   0.09450   1.87656
   R12        2.86814   0.01485   0.00000   0.01377   0.01377   2.88191
   R13        2.64395   0.02010   0.00000   0.01479   0.01479   2.65874
   R14        1.78151   0.15659   0.00000   0.09726   0.09726   1.87877
   R15        2.82561   0.02610   0.00000   0.02328   0.02328   2.84889
   R16        2.83780   0.00491   0.00000   0.00443   0.00443   2.84223
   R17        1.78064   0.15320   0.00000   0.09504   0.09504   1.87568
   R18        1.81493   0.12797   0.00000   0.08328   0.08328   1.89821
   R19        1.81378   0.13002   0.00000   0.08449   0.08449   1.89828
   R20        1.81334   0.12988   0.00000   0.08434   0.08434   1.89768
   R21        2.28844   0.02690   0.00000   0.01144   0.01144   2.29988
   R22        2.27804   0.03653   0.00000   0.01523   0.01523   2.29327
   R23        1.54952   0.24897   0.00000   0.10469   0.10469   1.65420
    A1        2.16263  -0.00134   0.00000  -0.00144  -0.00144   2.16120
    A2        2.08207   0.00276   0.00000   0.00330   0.00330   2.08537
    A3        2.03844  -0.00141   0.00000  -0.00186  -0.00186   2.03659
    A4        2.08338  -0.00303   0.00000  -0.00286  -0.00286   2.08052
    A5        2.11426  -0.00203   0.00000  -0.00295  -0.00295   2.11131
    A6        2.08544   0.00506   0.00000   0.00582   0.00581   2.09125
    A7        2.04750   0.00185   0.00000   0.00238   0.00239   2.04989
    A8        2.13332  -0.00294   0.00000  -0.00325  -0.00326   2.13006
    A9        2.10227   0.00109   0.00000   0.00087   0.00087   2.10314
   A10        2.08572  -0.00327   0.00000  -0.00338  -0.00338   2.08234
   A11        2.06616   0.00656   0.00000   0.00777   0.00777   2.07392
   A12        2.13090  -0.00328   0.00000  -0.00439  -0.00439   2.12651
   A13        2.15745   0.00008   0.00000  -0.00013  -0.00014   2.15731
   A14        2.04006   0.00884   0.00000   0.01105   0.01105   2.05111
   A15        2.08539  -0.00890   0.00000  -0.01087  -0.01087   2.07452
   A16        1.90697   0.00598   0.00000   0.00638   0.00639   1.91336
   A17        1.95038  -0.00167   0.00000  -0.00194  -0.00193   1.94845
   A18        1.90804  -0.00105   0.00000  -0.00071  -0.00070   1.90734
   A19        1.87101  -0.00475   0.00000  -0.00570  -0.00570   1.86531
   A20        1.92704  -0.00320   0.00000  -0.00433  -0.00433   1.92271
   A21        1.90030   0.00456   0.00000   0.00612   0.00611   1.90641
   A22        1.99669  -0.00351   0.00000  -0.00380  -0.00380   1.99289
   A23        1.89229   0.00111   0.00000   0.00085   0.00085   1.89314
   A24        1.85309   0.00401   0.00000   0.00615   0.00615   1.85924
   A25        1.89770   0.00065   0.00000   0.00020   0.00019   1.89789
   A26        1.90346   0.00333   0.00000   0.00505   0.00505   1.90851
   A27        1.91978  -0.00585   0.00000  -0.00886  -0.00886   1.91093
   A28        1.91080  -0.00077   0.00000  -0.00101  -0.00101   1.90979
   A29        1.91073   0.00345   0.00000   0.00440   0.00440   1.91513
   A30        1.91160   0.00029   0.00000   0.00028   0.00028   1.91188
   A31        1.91022  -0.00077   0.00000  -0.00078  -0.00078   1.90944
   A32        1.91034  -0.00077   0.00000  -0.00124  -0.00124   1.90910
   A33        1.91010  -0.00144   0.00000  -0.00166  -0.00166   1.90844
   A34        2.02946   0.00573   0.00000   0.00544   0.00543   2.03489
   A35        2.05212  -0.00301   0.00000  -0.00309  -0.00309   2.04903
   A36        2.06259  -0.00903   0.00000  -0.00926  -0.00926   2.05333
   A37        2.16799   0.01203   0.00000   0.01233   0.01233   2.18032
   A38        1.91047   0.00277   0.00000   0.00343   0.00343   1.91390
    D1       -0.01738   0.00048   0.00000   0.00084   0.00084  -0.01654
    D2        3.13975   0.00012   0.00000   0.00022   0.00022   3.13997
    D3        3.13355  -0.00004   0.00000  -0.00009  -0.00009   3.13346
    D4        0.00750  -0.00040   0.00000  -0.00071  -0.00071   0.00679
    D5        0.01783  -0.00040   0.00000  -0.00070  -0.00070   0.01713
    D6       -3.13289   0.00014   0.00000   0.00023   0.00023  -3.13266
    D7       -0.00006  -0.00023   0.00000  -0.00042  -0.00042  -0.00047
    D8       -3.12640  -0.00028   0.00000  -0.00051  -0.00051  -3.12690
    D9        3.12625   0.00006   0.00000   0.00012   0.00012   3.12637
   D10       -0.00009   0.00001   0.00000   0.00003   0.00003  -0.00006
   D11        0.01515  -0.00003   0.00000  -0.00003  -0.00003   0.01512
   D12       -3.09648   0.00007   0.00000   0.00010   0.00010  -3.09638
   D13       -3.14141  -0.00002   0.00000   0.00002   0.00002  -3.14139
   D14        0.03015   0.00008   0.00000   0.00015   0.00015   0.03030
   D15       -1.89791  -0.00009   0.00000   0.00041   0.00041  -1.89750
   D16        2.31762   0.00297   0.00000   0.00456   0.00456   2.32218
   D17        0.21274  -0.00097   0.00000  -0.00139  -0.00138   0.21136
   D18        1.25940  -0.00016   0.00000   0.00031   0.00031   1.25971
   D19       -0.80825   0.00290   0.00000   0.00446   0.00446  -0.80379
   D20       -2.91313  -0.00104   0.00000  -0.00149  -0.00149  -2.91461
   D21       -0.01514   0.00004   0.00000   0.00009   0.00009  -0.01505
   D22        3.10040   0.00103   0.00000   0.00190   0.00190   3.10231
   D23        3.09533   0.00011   0.00000   0.00018   0.00018   3.09551
   D24       -0.07231   0.00110   0.00000   0.00198   0.00199  -0.07032
   D25       -0.00136   0.00017   0.00000   0.00027   0.00027  -0.00109
   D26       -3.11626  -0.00110   0.00000  -0.00190  -0.00188  -3.11814
   D27        1.14950   0.00185   0.00000   0.00296   0.00296   1.15245
   D28       -3.01283   0.00115   0.00000   0.00129   0.00129  -3.01153
   D29       -0.95063  -0.00300   0.00000  -0.00536  -0.00536  -0.95599
   D30       -3.01714   0.00044   0.00000   0.00088   0.00087  -3.01627
   D31       -0.89628  -0.00027   0.00000  -0.00078  -0.00079  -0.89707
   D32        1.16592  -0.00441   0.00000  -0.00743  -0.00744   1.15848
   D33       -0.94955   0.00134   0.00000   0.00247   0.00248  -0.94708
   D34        1.17131   0.00064   0.00000   0.00081   0.00081   1.17212
   D35       -3.04968  -0.00350   0.00000  -0.00585  -0.00584  -3.05552
   D36       -1.18857   0.00074   0.00000   0.00010   0.00011  -1.18846
   D37        3.00566  -0.00259   0.00000  -0.00296  -0.00297   3.00269
   D38        0.92082   0.00142   0.00000   0.00208   0.00209   0.92290
   D39       -1.12440  -0.00233   0.00000  -0.00408  -0.00408  -1.12848
   D40        0.96966  -0.00163   0.00000  -0.00296  -0.00296   0.96670
   D41        3.06406  -0.00110   0.00000  -0.00211  -0.00211   3.06194
   D42        3.04090  -0.00187   0.00000  -0.00276  -0.00276   3.03813
   D43       -1.14823  -0.00117   0.00000  -0.00164  -0.00164  -1.14987
   D44        0.94616  -0.00064   0.00000  -0.00079  -0.00080   0.94537
   D45        0.94747   0.00287   0.00000   0.00488   0.00488   0.95235
   D46        3.04153   0.00357   0.00000   0.00600   0.00600   3.04752
   D47       -1.14726   0.00410   0.00000   0.00684   0.00685  -1.14042
   D48        2.19405   0.00195   0.00000   0.00260   0.00260   2.19665
   D49       -0.97943   0.00160   0.00000   0.00192   0.00192  -0.97751
   D50       -1.90852  -0.00126   0.00000  -0.00142  -0.00142  -1.90994
   D51        1.20119  -0.00162   0.00000  -0.00210  -0.00210   1.19909
   D52        0.17474  -0.00028   0.00000  -0.00041  -0.00041   0.17434
   D53       -2.99873  -0.00064   0.00000  -0.00109  -0.00108  -2.99982
         Item               Value     Threshold  Converged?
 Maximum Force            0.248971     0.000450     NO 
 RMS     Force            0.047697     0.000300     NO 
 Maximum Displacement     0.112749     0.001800     NO 
 RMS     Displacement     0.033000     0.001200     NO 
 Predicted change in Energy=-1.225360D-01
 Lowest energy point so far.  Saving SCF results.
 GradGradGradGradGradGradGradGradGradGradGradGradGradGradGradGradGradGrad

 Leave Link  103 at Fri Aug 20 15:47:54 2021, MaxMem= 24159191040 cpu:         4.4
 (Enter /public/home/users/caep010/software/Gaussian09/g09/l202.exe)
                          Input orientation:                          
 ---------------------------------------------------------------------
 Center     Atomic      Atomic             Coordinates (Angstroms)
 Number     Number       Type             X           Y           Z
 ---------------------------------------------------------------------
      1          6           0        1.555317    5.196240    5.092912
      2          6           0        1.883584    4.156725    4.243229
      3          6           0        1.262448    4.070671    3.011526
      4          6           0        0.330764    5.048045    2.695763
      5          6           0        0.079580    6.058812    3.600124
      6          6           0        1.559214    2.949526    2.039138
      7          6           0        2.354002    3.493814    0.856844
      8          6           0        3.735539    3.980824    1.213127
      9          1           0        3.662662    4.771275    1.828655
     10          7           0        0.676482    6.149828    4.792215
     11          7           0        2.476047    2.407249   -0.175932
     12          8           0        2.108766    2.665832   -1.307055
     13          8           0        0.378864    2.391047    1.515340
     14          8           0        2.964363    1.352105    0.171798
     15          1           0        1.993999    5.258136    5.981764
     16          1           0        2.546708    3.468508    4.510693
     17          1           0       -0.155893    4.984393    1.833207
     18          1           0        4.246086    3.247021    1.671323
     19          1           0       -0.567092    6.763428    3.332824
     20          1           0        2.078631    2.240625    2.504010
     21          1           0        1.825716    4.246991    0.484244
     22          1           0       -0.052500    1.967252    2.148264
     23          1           0        4.221714    4.252754    0.377586
 ---------------------------------------------------------------------
                    Distance matrix (angstroms):
                    1          2          3          4          5
     1  C    0.000000
     2  C    1.382140   0.000000
     3  C    2.384291   1.382139   0.000000
     4  C    2.695889   2.366507   1.386724   0.000000
     5  C    2.269415   2.699250   2.387117   1.379352   0.000000
     6  C    3.791209   2.533883   1.513464   2.518735   3.780694
     7  C    4.634697   3.482578   2.483327   3.144956   4.390649
     8  C    4.613386   3.555587   3.059166   3.863893   4.835476
     9  H    3.908563   3.061529   2.766055   3.453986   4.199325
    10  N    1.331203   2.393938   2.799482   2.393441   1.336284
    11  N    6.032158   4.789641   3.794692   4.452266   5.773696
    12  O    6.904262   5.751445   4.619521   4.985858   6.301612
    13  O    4.695973   3.580946   2.416698   2.907808   4.229467
    14  O    6.401573   5.060684   4.283827   5.192900   6.498344
    15  H    0.993142   2.061020   3.281395   3.688943   3.158844
    16  H    2.075305   0.992428   2.063838   3.270981   3.691278
    17  H    3.687654   3.263849   2.057916   0.992416   2.081302
    18  H    4.769377   3.608834   3.372928   4.429776   5.383885
    19  H    3.171531   3.691822   3.271298   2.038267   0.993035
    20  H    3.963828   2.595066   2.067074   3.312615   4.447047
    21  H    4.713174   3.760515   2.595288   2.787003   4.005047
    22  H    4.656435   3.595983   2.626534   3.152448   4.343524
    23  H    5.498557   4.518769   3.965861   4.598470   5.550124
                    6          7          8          9         10
     6  C    0.000000
     7  C    1.525044   0.000000
     8  C    2.546029   1.507568   0.000000
     9  H    2.790621   2.070969   1.004489   0.000000
    10  N    4.312838   5.035437   5.183848   4.427230   0.000000
    11  N    2.457882   1.504043   2.447845   3.318891   6.475169
    12  O    3.402866   2.329840   3.275196   4.084135   7.168734
    13  O    1.406943   2.356031   3.726391   4.067798   4.995489
    14  O    2.830752   2.329967   2.930740   3.863096   7.042783
    15  H    4.589446   5.432057   5.234920   4.502198   1.986453
    16  H    2.711655   3.659015   3.542560   3.183690   3.281231
    17  H    2.669210   3.078098   4.066313   3.824501   3.287372
    18  H    2.728200   2.074672   1.004524   1.639660   5.559526
    19  H    4.554190   5.035240   5.545146   4.911417   2.013157
    20  H    0.994204   2.087934   2.727640   3.060955   4.741706
    21  H    2.042581   0.992569   2.061441   2.335955   4.847695
    22  H    1.890606   3.128803   4.390694   4.665524   5.001583
    23  H    3.398245   2.072203   1.004211   1.639208   5.971307
                   11         12         13         14         15
    11  N    0.000000
    12  O    1.217045   0.000000
    13  O    2.694224   3.321744   0.000000
    14  O    1.213548   2.155210   3.093431   0.000000
    15  H    6.802731   7.736931   5.547775   7.067842   0.000000
    16  H    4.805801   5.889166   3.851313   4.845576   2.381660
    17  H    4.195881   4.512832   2.666917   5.068510   4.680545
    18  H    2.692695   3.711691   3.963891   2.735342   5.262735
    19  H    6.367759   6.743811   4.828643   7.193447   3.980198
    20  H    2.714368   3.834831   1.972131   2.648245   4.605140
    21  H    2.059954   2.406020   2.569255   3.126420   5.592268
    22  H    3.462518   4.135010   0.875368   3.658727   5.451037
    23  H    2.599928   3.133829   4.419042   3.168129   6.113945
                   16         17         18         19         20
    16  H    0.000000
    17  H    4.095228   0.000000
    18  H    3.316469   4.735197   0.000000
    19  H    4.683976   2.362816   6.188084   0.000000
    20  H    2.398661   3.601575   2.530625   5.304954   0.000000
    21  H    4.163912   2.508035   2.875289   4.491369   2.858134
    22  H    3.819781   3.035307   4.510335   4.967021   2.177844
    23  H    4.528053   4.670929   1.638855   6.161947   3.628105
                   21         22         23
    21  H    0.000000
    22  H    3.390260   0.000000
    23  H    2.398378   5.160205   0.000000
 Stoichiometry    C8H10N2O3
 Framework group  C1[X(C8H10N2O3)]
 Deg. of freedom    63
 Full point group                 C1      NOp   1
 RotChk:  IX=0 Diff= 2.49D-02
 Largest Abelian subgroup         C1      NOp   1
 Largest concise Abelian subgroup C1      NOp   1
                         Standard orientation:                         
 ---------------------------------------------------------------------
 Center     Atomic      Atomic             Coordinates (Angstroms)
 Number     Number       Type             X           Y           Z
 ---------------------------------------------------------------------
      1          6           0       -3.209529    0.910514    0.438076
      2          6           0       -1.877657    0.911490    0.807438
      3          6           0       -1.043227   -0.079002    0.324780
      4          6           0       -1.600665   -1.031412   -0.514970
      5          6           0       -2.937424   -0.942655   -0.843316
      6          6           0        0.420633   -0.150296    0.702410
      7          6           0        1.278741    0.233301   -0.498532
      8          6           0        1.130404    1.670221   -0.929829
      9          1           0        0.192610    1.826559   -1.254019
     10          7           0       -3.750489    0.012201   -0.381982
     11          7           0        2.720604   -0.021673   -0.154781
     12          8           0        3.360187   -0.728661   -0.911287
     13          8           0        0.797656   -1.453842    1.074041
     14          8           0        3.167761    0.519677    0.835011
     15          1           0       -3.814336    1.616259    0.788025
     16          1           0       -1.518495    1.603501    1.421471
     17          1           0       -1.029364   -1.773995   -0.842192
     18          1           0        1.320934    2.278659   -0.153575
     19          1           0       -3.300970   -1.618547   -1.473493
     20          1           0        0.594817    0.469482    1.460022
     21          1           0        1.005305   -0.363439   -1.243063
     22          1           0        0.409263   -1.668934    1.828465
     23          1           0        1.776928    1.866396   -1.672771
 ---------------------------------------------------------------------
 Rotational constants (GHZ):      1.9792051      0.4423719      0.4252732
 Leave Link  202 at Fri Aug 20 15:47:54 2021, MaxMem= 24159191040 cpu:         0.3
 (Enter /public/home/users/caep010/software/Gaussian09/g09/l301.exe)
 Standard basis: 6-31G(d,p) (6D, 7F)
 Ernie: Thresh=  0.10000D-02 Tol=  0.10000D-05 Strict=F.
 There are   245 symmetry adapted cartesian basis functions of A   symmetry.
 There are   245 symmetry adapted basis functions of A   symmetry.
   245 basis functions,   434 primitive gaussians,   245 cartesian basis functions
    48 alpha electrons       48 beta electrons
       nuclear repulsion energy       809.0350779263 Hartrees.
 IExCor=  402 DFT=T Ex+Corr=B3LYP ExCW=0 ScaHFX=  0.200000
 ScaDFX=  0.800000  0.720000  1.000000  0.810000 ScalE2=  1.000000  1.000000
 IRadAn=      0 IRanWt=     -1 IRanGd=            0 ICorTp=0 IEmpDi=  4
[...]
 .00003965,-0.00012568,0.00020267,0.00037147,-0.00035932,-0.00000469,-0
 .00001124,0.00163730,-0.00077338,0.00020428,0.00007209,-0.00014215,-0.
 00024214,0.00034088,0.00023612,-0.00198136,-0.00615018,0.00320672,0.02
 442733,-0.04198228,0.01229949,0.00333408,0.00030638,0.00123273,-0.0011
 4216,0.00043511,-0.00011770,-0.00008353,-0.00005899,-0.00040319,0.1541
 6573,-0.45933258,0.11940902,0.01873625,-0.00399613,0.06113904,0.000394
 54,0.00335853,0.00047544,-0.19859252,0.51295850,0.00004859,0.00016325,
 0.00015678,0.00000125,-0.00005965,-0.00014656,0.00093922,-0.00092007,0
 .00162478,0.00002175,-0.00054642,-0.00088722,0.00015372,0.00013689,0.0
 0020506,0.00017607,0.00001106,-0.00328388,0.00196916,-0.00700310,0.014
 32362,-0.00017874,-0.00180775,-0.00103311,0.00000577,-0.00077073,0.000
 39740,0.00004295,-0.00023075,-0.00015333,-0.05963800,0.12265636,-0.177
 64577,-0.04002645,0.08435694,-0.04834051,0.00170111,-0.00084117,0.0004
 1395,0.09214957,-0.18667100,0.21337466,-0.11417929,-0.00993743,-0.1199
 9280,0.00799363,0.00219573,0.00560178,0.00323398,0.00385224,-0.0009649
 5,-0.00044195,-0.00007220,0.00006191,0.00285856,0.00628514,-0.00334499
 ,-0.00000159,-0.00010630,0.00041519,-0.00000251,0.00005626,0.00002780,
 0.00000988,0.00002170,-0.00000114,-0.00000549,-0.00002274,-0.00000880,
 -0.02053216,0.00313494,-0.02011845,0.00000613,0.00002858,0.00003613,0.
 00000211,-0.00001458,-0.00002285,0.00010821,0.00008552,0.00011600,0.00
 000751,-0.00003407,-0.00001487,0.12294328,-0.01000879,-0.05537163,-0.0
 3221526,-0.01135602,0.00324501,-0.02058026,0.00436525,-0.00114949,-0.0
 0461667,0.00039246,-0.00073550,0.00041665,0.00715406,0.00159570,-0.000
 91772,-0.00083918,0.00046132,-0.00033381,0.00000614,-0.00008807,0.0001
 0326,0.00000901,0.00003182,-0.00003016,-0.00000622,-0.00000855,-0.0000
 0279,0.01482756,-0.00153038,0.02509954,0.00004485,0.00005091,0.0000182
 1,-0.00001117,-0.00002558,-0.00004237,-0.00023328,-0.00030354,-0.00032
 889,0.00000877,-0.00003471,-0.00002677,-0.00305024,0.05459556,-0.12046
 769,-0.03181254,-0.25949548,-0.01183685,-0.00046201,-0.01201160,-0.000
 11230,-0.00511604,0.00053217,0.00062911,-0.00007126,0.00028538,-0.0021
 9955,-0.00228193,0.00432911,-0.00041114,0.00075498,-0.00021649,-0.0001
 1191,-0.00023439,0.00002309,0.00000544,-0.00002234,-0.00004972,-0.0000
 5189,-0.00000129,-0.00000043,-0.00484699,0.00758255,-0.00153059,0.0000
 4565,0.00018723,0.00006343,-0.00001238,-0.00007525,-0.00009990,-0.0002
 2492,-0.00041870,-0.00047628,0.00003161,-0.00006626,-0.00005377,0.1378
 5439,0.03097934,0.26939677,-0.00237803,0.00114376,-0.00240935,-0.18951
 176,0.14127431,-0.05055968,-0.00850593,0.01088405,-0.00227422,0.002781
 82,0.00147549,-0.00515589,0.00033304,-0.00069188,-0.00000913,-0.001818
 37,0.00036755,0.00277004,0.00023036,0.00018444,0.00017205,-0.00011421,
 0.00002452,0.00003211,0.00001403,-0.00000164,0.00001727,0.00451872,0.0
 0363287,-0.00092902,-0.00007494,-0.00003786,-0.00004988,0.00003331,0.0
 0001031,0.00008303,0.00011380,-0.00061845,-0.00020308,0.00000570,-0.00
 004118,0.00002388,-0.00112671,-0.00123988,0.00129977,0.19599905,0.0164
 9353,-0.01038751,0.01006582,0.14137710,-0.17573233,0.03346158,-0.00231
 388,0.00409563,-0.00108747,0.00166873,0.00359973,-0.00241081,-0.001137
 11,0.00008887,-0.00126110,-0.00258261,-0.00034406,0.00078361,0.0002768
 9,0.00048129,0.00013077,0.00019213,0.00012008,-0.00012611,0.00010370,-
 0.00025862,0.00010635,0.00367359,-0.00087537,-0.00567366,-0.00018642,-
 0.00012862,0.00003841,0.00004744,0.00004203,0.00009559,0.00015628,0.00
 002071,-0.00020074,-0.00001859,0.00001539,0.00001938,-0.00162135,-0.00
 054241,0.00073027,-0.15554718,0.17998196,0.01662790,-0.01229491,0.0093
 4577,-0.05077912,0.03369778,-0.06782758,-0.01848110,0.01911855,-0.0009
 9763,-0.00432373,-0.00323245,-0.00289449,-0.00052936,-0.00048600,-0.00
 161189,0.00047944,0.00261272,-0.00036197,-0.00020786,-0.00040421,-0.00
 032632,-0.00021208,0.00004246,0.00004652,0.00000444,0.00022824,-0.0000
 6695,-0.00075025,-0.00588157,-0.00055937,0.00006380,0.00016180,-0.0003
 3814,0.00000054,-0.00003262,0.00012386,0.00073346,-0.00019764,0.000591
 51,0.00002785,-0.00005622,0.00016223,0.00076971,0.00133070,-0.00020183
 ,0.05670837,-0.03533225,0.06506108,-0.00040964,0.00063593,0.00051646,0
 .00095720,0.00605338,-0.00144287,-0.00846507,-0.00237708,-0.01919308,-
 0.14101646,0.00277282,-0.13919710,0.00567073,-0.00045693,0.00649181,-0
 .00219680,-0.00218452,0.00013873,-0.00020236,0.00082548,-0.00015797,0.
 00000784,-0.00010689,0.00001686,-0.00000710,0.00003246,-0.00006746,0.0
 0425988,0.00366308,-0.00062833,-0.00008333,0.00002412,0.00029384,0.000
 06287,-0.00003598,0.00006802,0.00055313,-0.00101769,0.00030548,0.00009
 430,-0.00021551,-0.00004449,-0.00071696,-0.00078667,0.00050553,-0.0002
 1436,-0.00001149,-0.00110072,0.14269282,0.00107443,-0.00140611,0.00004
 400,0.00596370,-0.00060819,-0.00191029,0.01054996,0.00527661,0.0188792
 3,0.00227310,-0.05128816,-0.01675328,-0.01537919,0.00426798,-0.0168955
 0,0.00001642,-0.00007776,0.00196650,0.00001728,0.00021739,-0.00003759,
 0.00002173,0.00007987,0.00009073,-0.00003518,-0.00004173,-0.00001536,0
 .00332868,-0.00043024,-0.00579631,0.00009997,-0.00012027,-0.00008277,-
 0.00002437,0.00004902,0.00008413,-0.00119557,-0.00007581,-0.00073377,-
 0.00005991,-0.00002754,0.00006739,-0.00088226,-0.00046862,0.00044052,0
 .00084603,0.00031133,0.00095247,-0.00485643,0.04539339,0.00114430,-0.0
 0062259,0.00062692,-0.00236055,-0.00127550,0.00295049,-0.00251260,0.00
 065331,0.00034384,-0.13859129,-0.01576394,-0.24722823,-0.01252062,0.00
 394569,-0.01214541,0.00046728,-0.00011926,-0.00190264,-0.00000421,-0.0
 0018516,-0.00005870,-0.00002809,-0.00001601,0.00001806,0.00000376,0.00
 001782,-0.00000330,-0.00133492,-0.00568528,-0.00036218,-0.00003365,0.0
 0002684,-0.00002577,-0.00002607,-0.00000267,-0.00003840,0.00181827,-0.
 00114919,-0.00024646,0.00000508,0.00006667,0.00001306,0.00047843,0.000
 58297,-0.00048691,0.00001038,-0.00036959,0.00006091,0.15220280,0.01843
 555,0.25838759,0.00008969,0.00011222,0.00010079,-0.00017975,0.00018125
 ,-0.00018047,-0.00010543,-0.00016972,0.00005909,-0.00007763,-0.0000112
 9,-0.00005809,0.00005132,-0.00007079,-0.00006929,0.00080908,0.00173512
 ,-0.00129480,-0.01752119,0.02231306,-0.01650749,-0.11432721,0.09277543
 ,-0.06669107,-0.00183005,0.00110383,-0.00074824,0.00008174,-0.00010333
 ,0.00007309,-0.00041808,0.00368215,-0.00047065,0.00048977,-0.00083250,
 0.00043265,0.00050180,-0.00036494,0.00034504,0.00126237,-0.00111299,0.
 00139333,0.00000006,-0.00000219,-0.00000122,0.00000739,-0.00013155,0.0
 0028873,0.00007349,-0.00003075,0.00001465,0.12584382,-0.00006732,-0.00
 003272,-0.00001907,0.00017235,-0.00021935,0.00026230,0.00016515,-0.000
 12819,-0.00000299,-0.00001287,0.00012257,-0.00008419,-0.00002469,0.000
 03915,0.00000991,0.00007389,0.00070492,0.00024057,-0.00654144,0.009081
 72,-0.00711117,0.09570329,-0.18336004,0.09827147,0.01166047,-0.0162993
 5,0.01476129,-0.00003882,0.00008180,-0.00002529,0.00033188,0.00164335,
 -0.00046079,0.00001125,-0.00035273,0.00012864,0.00002340,-0.00006975,-
 0.00016466,-0.00037404,-0.00059310,-0.00015729,0.00000485,-0.00000596,
 -0.00002118,-0.00005883,0.00024832,-0.00019606,-0.00002038,-0.00000067
 ,-0.00000791,-0.10175001,0.19464842,-0.00002850,-0.00012268,-0.0000191
 9,0.00003676,-0.00001358,0.00005208,-0.00007552,-0.00006342,0.00007450
 ,0.00004608,-0.00002524,-0.00008398,0.00000186,0.00004687,0.00009082,0
 .00083180,-0.00048737,0.00040113,-0.00543830,0.00516543,-0.00598106,-0
 .06636476,0.09647594,-0.11937242,0.01081775,-0.01317512,0.01140158,-0.
 00006407,0.00010057,-0.00004845,-0.00125705,0.00389309,-0.00127108,0.0
 0009483,-0.00093027,0.00061692,0.00012922,-0.00009284,-0.00012416,0.00
 143279,-0.00147344,0.00079133,0.00000233,-0.00000331,-0.00000108,0.000
 12828,0.00007644,-0.00025220,0.00000261,-0.00000184,-0.00000196,0.0754
 0029,-0.10662915,0.12481742,0.00449139,0.00295486,-0.00484993,-0.00009
 417,-0.00033243,0.00010136,0.00421203,0.00261218,-0.00146618,0.0015908
 5,0.00329593,-0.00255668,-0.18297813,0.14152663,-0.02418629,-0.0001949
 8,-0.00019621,-0.00003081,0.00003010,0.00015228,-0.00001245,-0.0000082
 2,0.00000601,0.00001980,0.00001176,0.00002941,-0.00003255,-0.01734913,
 0.00778549,-0.00938086,-0.00005801,-0.00007872,-0.00007809,0.00001681,
 0.00003115,0.00010265,0.00000682,0.00003180,0.00001332,0.00000454,0.00
 001379,0.00004431,-0.00017127,0.00065911,-0.00020029,-0.00086279,-0.00
 057060,0.00066303,-0.00111687,-0.00116875,0.00143862,0.00000958,-0.000
 02051,-0.00000628,0.19254211,0.00200015,0.00527570,-0.00359522,-0.0007
 3174,-0.00000630,-0.00047510,0.00252378,0.00014289,-0.00578956,0.01686
 853,-0.00976187,0.00395472,0.14176914,-0.19084346,0.01595556,0.0009377
 4,-0.00022502,0.00113719,-0.00010369,-0.00010565,0.00017258,-0.0000031
 9,0.00000293,-0.00003391,-0.00002077,-0.00001301,-0.00000050,-0.004280
 42,0.00500778,0.00511978,0.00005145,0.00005278,0.00014483,-0.00002798,
 -0.00004003,-0.00013897,-0.00033524,-0.00009456,-0.00021788,0.00001513
 ,-0.00001299,-0.00011707,0.00009158,0.00028129,-0.00020409,-0.00065872
 ,-0.00066391,0.00051471,-0.00158469,-0.00059819,0.00093412,-0.00000804
 ,-0.00000356,0.00000549,-0.15668272,0.19184864,-0.00607979,-0.00229141
 ,-0.00113051,-0.00034580,0.00020247,-0.00068278,-0.00189613,-0.0048672
 5,-0.00161445,0.01484170,-0.01596916,0.00749605,-0.02364743,0.01558367
 ,-0.05579822,0.00096676,-0.00041988,0.00040048,-0.00004651,-0.00011846
 ,0.00011608,-0.00000133,-0.00000895,-0.00001913,0.00000174,0.00000358,
 0.00000429,-0.02469891,0.02250019,-0.01108202,0.00005371,-0.00002322,0
 .00003303,-0.00001580,-0.00000152,-0.00006062,-0.00008251,0.00010076,0
 .00009976,-0.00000028,0.00002196,-0.00005368,-0.00086584,0.00058953,-0
 .00001598,0.00059700,0.00065569,-0.00016167,0.00079115,0.00139580,-0.0
 0018354,-0.00000254,0.00000284,-0.00000305,0.04031121,-0.01714770,0.06
 293819,-0.00063123,-0.00021771,0.00045526,0.00010779,-0.00121644,-0.00
 069239,-0.00164169,0.00887781,-0.00124107,0.00110845,0.00060177,0.0004
 3722,-0.00022743,-0.00013011,-0.00012674,-0.09824475,0.08442726,-0.047
 27714,0.00866554,-0.01586292,0.00993443,0.00154515,-0.00009074,-0.0001
 2934,-0.00006608,-0.00005886,0.00000123,0.00041223,0.00002454,0.000015
 80,0.00045635,-0.00012958,-0.00049102,0.00006637,0.00042424,-0.0002634
 8,-0.02793413,0.01478323,-0.02199785,-0.00088403,0.00063099,0.00097380
 ,0.00002554,0.00001705,0.00000266,0.00068169,0.00023912,0.00008665,0.0
 0000464,-0.00048313,-0.00005822,-0.00037821,0.00001049,-0.00009763,-0.
 00004165,0.00005408,0.00008986,0.11787609,0.00033219,-0.00018278,-0.00
 059370,0.00114215,0.00123094,0.00149515,0.01086310,-0.01817815,0.00864
 166,-0.00056941,-0.00195238,-0.00349664,0.00140056,0.00015216,0.000884
 92,0.08627112,-0.20517447,0.08789328,0.00477358,-0.00944021,0.00791307
 ,0.00075003,0.00019436,0.00006448,-0.00001471,0.00004704,0.00003391,-0
 .00080238,0.00031988,-0.00025579,0.00046805,-0.00192108,0.00037337,-0.
 00003915,0.00053336,-0.00012341,-0.00990036,0.01400804,-0.00963665,0.0
 0038616,0.00016209,-0.00286977,-0.00003192,-0.00002011,-0.00000112,-0.
 00103442,0.00004837,-0.00060580,-0.00015102,-0.00005006,0.00019487,-0.
 00071546,0.00005271,-0.00012805,-0.00001744,-0.00027811,-0.00023052,-0
 .09248702,0.21859682,-0.00020422,0.00028964,0.00043478,0.00134949,-0.0
 0082645,0.00073447,0.01074324,-0.01979916,0.00816166,-0.00067328,-0.00
 212643,-0.00302934,0.00111805,-0.00040618,-0.00017944,-0.04776290,0.08
 452993,-0.09537087,-0.00867204,0.02178751,-0.01411418,-0.00094201,-0.0
 0068001,0.00039225,-0.00002540,-0.00006031,0.00005331,0.00021989,-0.00
 021001,0.00022494,-0.00311585,0.00485773,-0.00163885,0.00093678,-0.001
 28682,0.00154762,-0.01608067,0.00701390,-0.00827530,0.00074125,-0.0028
 3393,0.00169871,-0.00002545,0.00001751,0.00000437,-0.00028297,0.000473
 29,-0.00011235,-0.00004959,-0.00013929,0.00022207,0.00068336,0.0000204
 0,0.00044585,0.00009687,-0.00020141,-0.00026288,0.05800357,-0.09024743
 ,0.11170114,0.00016320,-0.00026715,-0.00014803,0.00015239,0.00033327,0
 .00028673,0.00052735,-0.00070192,-0.00135856,0.00024657,-0.00011525,0.
 00008112,0.00000687,0.00022700,0.00015630,0.00854901,-0.01387080,0.012
 04331,-0.11721802,0.09304653,-0.07278032,-0.01446882,0.01863003,-0.015
 63472,0.00101501,-0.00020535,0.00008518,-0.00026823,0.00007484,-0.0001
 7824,-0.00427361,0.00349020,-0.00507115,0.00084429,-0.00161552,0.00078
 897,0.00152770,0.00095566,-0.00067143,0.00146978,0.00079557,0.00106481
 ,-0.00000331,-0.00000148,0.00001430,-0.00006736,-0.00004767,0.00000768
 ,-0.00019107,0.00000485,0.00016053,-0.00432264,-0.00249445,-0.00142626
 ,0.00000144,0.00001466,0.00001154,-0.00232109,-0.00161521,0.00273032,0
 .12727881,-0.00000200,0.00001437,-0.00007295,0.00013746,0.00011877,-0.
 00002942,-0.00061320,0.00038505,-0.00035234,0.00003858,0.00009079,0.00
 019018,-0.00006467,-0.00000117,-0.00002914,0.00372077,-0.00553079,0.00
 606358,0.08855371,-0.16821023,0.09699951,-0.00749424,0.01106066,-0.007
 65734,0.00081164,0.00049382,0.00015983,-0.00000647,0.00000364,0.000007
 19,0.01526845,-0.02474791,0.01772269,-0.00171123,0.00316368,-0.0004808
 8,0.00061914,0.00053155,-0.00049029,0.00148956,-0.00567433,-0.00497005
 ,-0.00001223,-0.00001542,0.00001331,-0.00005264,-0.00004690,0.00002442
 ,-0.00008791,0.00017606,-0.00002042,-0.00330983,-0.00057677,-0.0009288
 5,0.00001267,0.00000708,-0.00000368,-0.00057649,0.00001488,0.00069052,
 -0.09731003,0.18813792,-0.00022638,0.00043714,0.00023836,-0.00023472,-
 0.00037038,-0.00055369,-0.00059376,0.00095137,0.00169756,-0.00028432,-
 0.00011422,-0.00011947,-0.00003884,-0.00049375,-0.00031553,-0.01146239
 ,0.01863677,-0.01588917,-0.07821058,0.11104429,-0.13467269,-0.00391336
 ,0.00478707,-0.00349042,0.00002888,0.00008080,0.00010276,0.00047393,-0
 .00018042,0.00031294,0.01193042,-0.01746218,0.00796125,0.00034323,-0.0
 0179919,-0.00034081,-0.00085317,-0.00196254,0.00203963,0.00088634,-0.0
 0579242,-0.00165049,0.00000649,-0.00001093,0.00000004,0.00010706,-0.00
 000990,0.00011199,0.00054044,-0.00000505,-0.00004556,-0.00111827,-0.00
 096971,0.00062757,0.00002177,-0.00000783,-0.00002635,0.00340197,0.0009
 3791,-0.00304806,0.07927795,-0.10668575,0.14627618,-0.00012968,-0.0001
 7816,0.00001267,-0.00009316,0.00041968,0.00012401,0.00189363,0.0000281
 9,-0.00025992,-0.00001455,0.00010791,0.00046934,-0.00007288,-0.0002383
 5,-0.00004577,-0.02335200,-0.01842961,0.02647411,-0.00661426,-0.001674
 56,-0.00429737,-0.00031047,-0.00046145,0.00199215,0.00005256,-0.000021
 25,-0.00000835,-0.00001901,0.00026018,0.00011162,0.00027666,-0.0010875
 9,-0.00005547,-0.00005130,0.00010734,-0.00031783,-0.17129013,-0.126253
 34,0.15205478,0.00016685,0.00061513,-0.00039111,-0.00001022,0.00003186
 ,0.00006113,-0.00006701,0.00002934,-0.00015586,0.00023669,-0.00002050,
 -0.00027721,-0.00001761,0.00006770,-0.00000137,-0.00003256,0.00008493,
 0.00000690,0.00135786,0.00112763,0.00105252,0.00034734,-0.00003100,-0.
 00025277,0.19827379,-0.00028989,0.00027494,0.00022261,-0.00041714,0.00
 025017,-0.00037982,0.00003135,0.00033455,0.00107301,0.00036959,0.00009
 120,-0.00015541,0.00021010,-0.00050659,-0.00064050,-0.00454049,-0.0071
 2823,0.01011293,-0.00198135,-0.00043929,-0.00101585,0.00001811,0.00056
 414,0.00032851,-0.00000076,-0.00008540,0.00001374,0.00044196,-0.000054
 70,0.00059487,-0.00039459,0.00100118,-0.00023952,0.00022000,-0.0003755
 6,0.00022046,-0.14030480,-0.11485636,0.14978423,-0.00010459,-0.0005358
 6,0.00000304,0.00003584,0.00004041,0.00009337,0.00017413,-0.00002253,0
 .00005539,-0.00012788,-0.00055365,0.00035541,-0.00010927,-0.00001927,0
 .00001109,-0.00004832,0.00002915,0.00002239,0.00095230,0.00160991,-0.0
 0055943,0.00017062,0.00024533,-0.00045479,0.14574608,0.12011136,-0.000
 08471,0.00018368,-0.00016900,0.00000380,0.00000664,-0.00047015,-0.0014
 3084,-0.00018740,0.00084473,0.00040024,0.00003581,0.00008574,0.0001293
 8,-0.00013692,-0.00016530,-0.01901308,-0.01324445,0.00932054,-0.001659
 44,-0.00071871,-0.00085529,-0.00063339,-0.00031456,0.00069678,0.000080
 37,0.00001514,0.00002311,0.00005720,-0.00000806,0.00012114,-0.00048695
 ,0.00085713,-0.00040252,0.00020099,-0.00022336,0.00039074,0.19994675,0
 .17390056,-0.27333885,-0.00020132,-0.00030899,0.00009515,0.00000126,-0
 .00002462,0.00000885,-0.00008757,-0.00001946,0.00005368,-0.00001361,0.
 00003808,0.00009440,0.00012452,0.00005128,0.00003125,-0.00003113,-0.00
 000340,0.00000598,-0.00098368,-0.00008744,0.00027563,-0.00006649,-0.00
 040019,0.00022840,-0.17602702,-0.15935762,0.26314594,0.00005275,-0.000
 01982,0.00001838,-0.00015427,0.00024830,-0.00010753,0.00017005,-0.0003
 9017,-0.00046587,0.00001218,0.00007890,0.00013691,0.00001411,-0.000060
 43,-0.00006174,-0.00264931,-0.00074205,-0.00446663,-0.01753773,-0.0081
 7497,0.02573777,-0.12149310,-0.03432982,0.11370202,-0.00177351,-0.0002
 9991,0.00173691,0.00001345,0.00003208,0.00007521,0.00092567,0.00055260
 ,0.00295257,0.00011523,0.00052717,-0.00129765,-0.00173462,-0.00118864,
 0.00141441,0.00001139,-0.00019281,-0.00041564,0.00000257,0.00001901,0.
 00002754,0.00002256,-0.00008939,0.00007848,0.00000643,-0.00006012,0.00
 000331,0.00995768,0.00317865,-0.01416487,-0.00000968,0.00002605,0.0000
 1130,0.00006260,-0.00013605,0.00015905,0.00100442,0.00061998,0.0001700
 8,-0.00053055,-0.00005102,-0.00022530,0.13351168,-0.00003294,0.0001958
 4,0.00004112,0.00035814,0.00001100,0.00004820,0.00024501,-0.00004052,-
 0.00022813,-0.00011156,0.00023876,0.00000147,-0.00004690,-0.00005257,-
 0.00009446,-0.00116645,-0.00001791,-0.00182017,-0.00710517,-0.00542902
 ,0.00891502,-0.03371087,-0.06515747,0.05490960,0.01481706,0.00854411,-
 0.02156353,0.00007630,-0.00003727,0.00009563,-0.00059984,0.00056484,0.
 00230993,0.00022194,0.00009678,-0.00082885,-0.00088577,-0.00021930,0.0
 0053239,0.00021105,-0.00040257,-0.00042270,-0.00000706,-0.00000204,0.0
 0000687,-0.00003476,-0.00005146,-0.00001953,0.00001379,-0.00002467,0.0
 0000429,-0.01318039,-0.00496150,0.01830024,0.00000438,-0.00000158,0.00
 000288,0.00021010,0.00022678,-0.00030359,0.00050162,0.00035991,-0.0005
 5630,-0.00023016,0.00002512,-0.00005315,0.04045248,0.06613477,0.000035
 63,0.00023698,0.00013960,0.00019872,0.00009595,-0.00019404,0.00003554,
 -0.00004178,-0.00024988,-0.00008167,0.00012777,0.00000475,-0.00004113,
 -0.00003508,-0.00008946,-0.00158966,-0.00096650,-0.00104990,-0.0071738
 0,-0.00360503,0.00982796,0.11703131,0.05596262,-0.22944605,0.00844854,
 0.00573451,-0.01390130,0.00011114,-0.00013710,0.00007150,0.00023303,-0
 .00042091,0.00111676,0.00006999,0.00042717,0.00028192,-0.00070112,-0.0
 0038133,0.00051497,-0.00013815,0.00035352,-0.00000841,-0.00001129,-0.0
 0000416,-0.00000316,0.00001152,-0.00014613,0.00015482,0.00002148,-0.00
 002334,0.00001173,0.00822660,0.00210077,-0.01219183,0.00001863,-0.0000
 0634,0.00000101,-0.00004388,-0.00015632,0.00013448,0.00062647,0.000250
 08,0.00055557,-0.00026916,-0.00008813,-0.00002093,-0.12501872,-0.05927
 722,0.24433989\\0.00000965,-0.00001460,0.00000484,0.00000062,-0.000005
 59,0.00000775,-0.00001404,0.00001366,-0.00000194,0.00000680,-0.0000190
 0,-0.00001116,-0.00000219,0.00000823,0.00000571,0.00000080,-0.00001341
 ,0.00000227,-0.00001699,-0.00000618,-0.00001607,0.00001618,0.00000589,
 0.00001059,0.00000288,-0.00000522,0.00000349,-0.00001421,0.00000303,-0
 .00000612,0.00001023,0.00000833,0.00002448,0.00000207,0.00000736,-0.00
 001229,0.00001279,0.00000715,-0.00000876,-0.00000006,0.00000242,-0.000
 00522,-0.00001272,-0.00000616,-0.00000417,-0.00001122,0.00000092,0.000
 00022,0.00000613,0.00000806,0.00000394,-0.00000296,-0.00000259,-0.0000
 0081,0.00000539,-0.00000253,0.00000260,-0.00000598,0.00000881,-0.00001
 064,0.00001440,-0.00000274,0.00000041,-0.00000829,0.00000301,-0.000000
 48,0.00000071,0.00000115,0.00001135\\\@


 "A LITTLE BIT GOES A LONG WAY"
 R.S. MULLIKEN AS QUOTED BY K. RUEDENBERG
 Job cpu time:       0 days  0 hours 21 minutes  6.6 seconds.
 File lengths (MBytes):  RWF=    160 Int=      0 D2E=      0 Chk=      6 Scr=      1
 Normal termination of Gaussian 09 at Fri Aug 20 15:51:42 2021.
