 Entering Gaussian System, Link 0=g09
 Input=B3LYP6-31G.PEMCAM06.gjf
 Output=B3LYP6-31G.PEMCAM06.log
 Initial command:
 /public/home/users/caep010/software/Gaussian09/g09/l1.exe "/public/home/users/caep010/.cache/gau_scr/Gau-208361.inp" -scrdir="/public/home/users/caep010/.cache/gau_scr/"
 Entering Link 1 = /public/home/users/caep010/software/Gaussian09/g09/l1.exe PID=    208362.
  
 Copyright (c) 1988,1990,1992,1993,1995,1998,2003,2009,2015,
            Gaussian, Inc.  All Rights Reserved.
  
 This is part of the Gaussian(R) 09 program.  It is based on
 the Gaussian(R) 03 system (copyright 2003, Gaussian, Inc.),
 the Gaussian(R) 98 system (copyright 1998, Gaussian, Inc.),
 the Gaussian(R) 94 system (copyright 1995, Gaussian, Inc.),
 the Gaussian 92(TM) system (copyright 1992, Gaussian, Inc.),
 the Gaussian 90(TM) system (copyright 1990, Gaussian, Inc.),
 the Gaussian 88(TM) system (copyright 1988, Gaussian, Inc.),
 the Gaussian 86(TM) system (copyright 1986, Carnegie Mellon
 University), and the Gaussian 82(TM) system (copyright 1983,
 Carnegie Mellon University). Gaussian is a federally registered
 trademark of Gaussian, Inc.
  
 This software contains proprietary and confidential information,
 including trade secrets, belonging to Gaussian, Inc.
  
 This software is provided under written license and may be
 used, copied, transmitted, or stored only in accord with that
 written license.
  
 The following legend is applicable only to US Government
 contracts under FAR:
  
                    RESTRICTED RIGHTS LEGEND
  
 Use, reproduction and disclosure by the US Government is
 subject to restrictions as set forth in subparagraphs (a)
 and (c) of the Commercial Computer Software - Restricted
 Rights clause in FAR 52.227-19.
  
 Gaussian, Inc.
 340 Quinnipiac St., Bldg. 40, Wallingford CT 06492
  
  
 ---------------------------------------------------------------
 Warning -- This program may not be used in any manner that
 competes with the business of Gaussian, Inc. or will provide
 assistance to any competitor of Gaussian, Inc.  The licensee
 of this program is prohibited from giving any competitor of
 Gaussian, Inc. access to this program.  By using this program,
 the user acknowledges that Gaussian, Inc. is engaged in the
 business of creating and licensing software in the field of
 computational chemistry and represents and warrants to the
 licensee that it is not a competitor of Gaussian, Inc. and that
 it will not use this program in any manner prohibited above.
 ---------------------------------------------------------------
  

 Cite this work as:
 Gaussian 09, Revision E.01,
 M. J. Frisch, G. W. Trucks, H. B. Schlegel, G. E. Scuseria, 
 M. A. Robb, J. R. Cheeseman, G. Scalmani, V. Barone, B. Mennucci, 
 G. A. Petersson, H. Nakatsuji, M. Caricato, X. Li, H. P. Hratchian, 
 A. F. Izmaylov, J. Bloino, G. Zheng, J. L. Sonnenberg, M. Hada, 
 M. Ehara, K. Toyota, R. Fukuda, J. Hasegawa, M. Ishida, T. Nakajima, 
 Y. Honda, O. Kitao, H. Nakai, T. Vreven, J. A. Montgomery, Jr., 
 J. E. Peralta, F. Ogliaro, M. Bearpark, J. J. Heyd, E. Brothers, 
 K. N. Kudin, V. N. Staroverov, T. Keith, R. Kobayashi, J. Normand, 
 K. Raghavachari, A. Rendell, J. C. Burant, S. S. Iyengar, J. Tomasi, 
 M. Cossi, N. Rega, J. M. Millam, M. Klene, J. E. Knox, J. B. Cross, 
 V. Bakken, C. Adamo, J. Jaramillo, R. Gomperts, R. E. Stratmann, 
 O. Yazyev, A. J. Austin, R. Cammi, C. Pomelli, J. W. Ochterski, 
 R. L. Martin, K. Morokuma, V. G. Zakrzewski, G. A. Voth, 
 P. Salvador, J. J. Dannenberg, S. Dapprich, A. D. Daniels, 
 O. Farkas, J. B. Foresman, J. V. Ortiz, J. Cioslowski, 
 and D. J. Fox, Gaussian, Inc., Wallingford CT, 2013.
 
 ******************************************
 Gaussian 09:  ES64L-G09RevE.01 30-Nov-2015
                20-Aug-2021 
 ******************************************
 %nproc=32
 Will use up to   32 processors via shared memory.
 %mem=180GB
 -------------------------
 #P OPT Freq B3LYP/6-31G**
 -------------------------
 1/14=-1,18=20,19=15,26=3,38=1/1,3;
 2/9=110,12=2,17=6,18=5,40=1/2;
 3/5=1,6=6,7=101,11=2,16=1,25=1,30=1,71=1,74=-5/1,2,3;
 4//1;
 5/5=2,38=5/2;
 6/7=2,8=2,9=2,10=2,28=1/1;
 7//1,2,3,16;
 1/14=-1,18=20,19=15,26=3/3(2);
 2/9=110/2;
 99//99;
 2/9=110/2;
 3/5=1,6=6,7=101,11=2,16=1,25=1,30=1,71=1,74=-5/1,2,3;
 4/5=5,16=3,69=1/1;
 5/5=2,38=5/2;
 7//1,2,3,16;
 1/14=-1,18=20,19=15,26=3/3(-5);
 2/9=110/2;
 6/7=2,8=2,9=2,10=2,19=2,28=1/1;
 99/9=1/99;
 Leave Link    1 at Fri Aug 20 15:50:18 2021, MaxMem= 24159191040 cpu:         3.0
 (Enter /public/home/users/caep010/software/Gaussian09/g09/l101.exe)
 --------
 PEMCAM06
 --------
 Symbolic Z-matrix:
 Charge =  0 Multiplicity = 1
 N                     9.2507    1.6775    17.1578 
 C                     8.2979    0.9096    17.9419 
 C                     9.2847    1.5753    15.8027 
 C                     8.3835    0.7798    15.0698 
 C                     8.4485    0.7224    13.6841 
 C                     9.3868    1.4389    12.9542 
 H                     7.7369    0.2863    15.5199 
 H                     8.4186    1.1057    18.8746 
 H                     8.4412   -0.0276    17.791 
 H                     7.8421    0.1842    13.2287 
 C                     10.2809   2.1889    13.6813 
 H                     10.9377   2.6616    13.2236 
 H                     7.4049    1.1429    17.677 
 C                     10.252    2.2724    15.0414 
 H                     10.881    2.7995    15.4794 
 C                     10.2767   2.3984    17.8869 
 H                     10.086    2.3626    18.8265 
 H                     10.2912   3.3132    17.5985 
 H                     11.1316   1.9958    17.7175 
 C                     9.5178    1.4605    11.4574 
 C                     8.8156    0.8462    10.6447 
 N                     9.0579    0.964     9.2274 
 O                     9.9612    1.6477    8.7289 
 H                     8.1247    0.3042    10.95 
 H                     10.1973   1.9899    11.107 
 O                     8.2917    0.2952    8.5534 
 
 NAtoms=     26 NQM=       26 NQMF=       0 NMMI=      0 NMMIF=      0
                NMic=       0 NMicF=      0.
                    Isotopes and Nuclear Properties:
 (Nuclear quadrupole moments (NQMom) in fm**2, nuclear magnetic moments (NMagM)
  in nuclear magnetons)

  Atom         1           2           3           4           5           6           7           8           9          10
 IAtWgt=          14          12          12          12          12          12           1           1           1           1
 AtmWgt=  14.0030740  12.0000000  12.0000000  12.0000000  12.0000000  12.0000000   1.0078250   1.0078250   1.0078250   1.0078250
 NucSpn=           2           0           0           0           0           0           1           1           1           1
 AtZEff=   0.0000000   0.0000000   0.0000000   0.0000000   0.0000000   0.0000000   0.0000000   0.0000000   0.0000000   0.0000000
 NQMom=    2.0440000   0.0000000   0.0000000   0.0000000   0.0000000   0.0000000   0.0000000   0.0000000   0.0000000   0.0000000
 NMagM=    0.4037610   0.0000000   0.0000000   0.0000000   0.0000000   0.0000000   2.7928460   2.7928460   2.7928460   2.7928460
 AtZNuc=   7.0000000   6.0000000   6.0000000   6.0000000   6.0000000   6.0000000   1.0000000   1.0000000   1.0000000   1.0000000

  Atom        11          12          13          14          15          16          17          18          19          20
 IAtWgt=          12           1           1          12           1          12           1           1           1          12
 AtmWgt=  12.0000000   1.0078250   1.0078250  12.0000000   1.0078250  12.0000000   1.0078250   1.0078250   1.0078250  12.0000000
 NucSpn=           0           1           1           0           1           0           1           1           1           0
 AtZEff=   0.0000000   0.0000000   0.0000000   0.0000000   0.0000000   0.0000000   0.0000000   0.0000000   0.0000000   0.0000000
 NQMom=    0.0000000   0.0000000   0.0000000   0.0000000   0.0000000   0.0000000   0.0000000   0.0000000   0.0000000   0.0000000
 NMagM=    0.0000000   2.7928460   2.7928460   0.0000000   2.7928460   0.0000000   2.7928460   2.7928460   2.7928460   0.0000000
 AtZNuc=   6.0000000   1.0000000   1.0000000   6.0000000   1.0000000   6.0000000   1.0000000   1.0000000   1.0000000   6.0000000

  Atom        21          22          23          24          25          26
 IAtWgt=          12          14          16           1           1          16
 AtmWgt=  12.0000000  14.0030740  15.9949146   1.0078250   1.0078250  15.9949146
 NucSpn=           0           2           0           1           1           0
 AtZEff=   0.0000000   0.0000000   0.0000000   0.0000000   0.0000000   0.0000000
 NQMom=    0.0000000   2.0440000   0.0000000   0.0000000   0.0000000   0.0000000
 NMagM=    0.0000000   0.4037610   0.0000000   2.7928460   2.7928460   0.0000000
 AtZNuc=   6.0000000   7.0000000   8.0000000   1.0000000   1.0000000   8.0000000
 Leave Link  101 at Fri Aug 20 15:50:19 2021, MaxMem= 24159191040 cpu:         9.7
 (Enter /public/home/users/caep010/software/Gaussian09/g09/l103.exe)

 GradGradGradGradGradGradGradGradGradGradGradGradGradGradGradGradGradGrad
 Berny optimization.
 Initialization pass.
                           ----------------------------
                           !    Initial Parameters    !
                           ! (Angstroms and Degrees)  !
 --------------------------                            --------------------------
 ! Name  Definition              Value          Derivative Info.                !
 --------------------------------------------------------------------------------
 ! R1    R(1,2)                  1.4534         estimate D2E/DX2                !
 ! R2    R(1,3)                  1.3594         estimate D2E/DX2                !
 ! R3    R(1,16)                 1.4505         estimate D2E/DX2                !
 ! R4    R(2,8)                  0.9607         estimate D2E/DX2                !
 ! R5    R(2,9)                  0.96           estimate D2E/DX2                !
 ! R6    R(2,13)                 0.9602         estimate D2E/DX2                !
 ! R7    R(3,4)                  1.4079         estimate D2E/DX2                !
 ! R8    R(3,14)                 1.4146         estimate D2E/DX2                !
 ! R9    R(4,5)                  1.3884         estimate D2E/DX2                !
 ! R10   R(4,7)                  0.9296         estimate D2E/DX2                !
 ! R11   R(5,6)                  1.388          estimate D2E/DX2                !
 ! R12   R(5,10)                 0.9299         estimate D2E/DX2                !
 ! R13   R(6,11)                 1.375          estimate D2E/DX2                !
 ! R14   R(6,20)                 1.5027         estimate D2E/DX2                !
 ! R15   R(11,12)                0.9297         estimate D2E/DX2                !
 ! R16   R(11,14)                1.363          estimate D2E/DX2                !
 ! R17   R(14,15)                0.9302         estimate D2E/DX2                !
 ! R18   R(16,17)                0.9594         estimate D2E/DX2                !
 ! R19   R(16,18)                0.9593         estimate D2E/DX2                !
 ! R20   R(16,19)                0.96           estimate D2E/DX2                !
 ! R21   R(20,21)                1.2373         estimate D2E/DX2                !
 ! R22   R(20,25)                0.9299         estimate D2E/DX2                !
 ! R23   R(21,22)                1.4427         estimate D2E/DX2                !
 ! R24   R(21,24)                0.9297         estimate D2E/DX2                !
 ! R25   R(22,23)                1.2377         estimate D2E/DX2                !
 ! R26   R(22,26)                1.2201         estimate D2E/DX2                !
 ! A1    A(2,1,3)              120.9627         estimate D2E/DX2                !
 ! A2    A(2,1,16)             117.073          estimate D2E/DX2                !
 ! A3    A(3,1,16)             121.3823         estimate D2E/DX2                !
 ! A4    A(1,2,8)              109.4851         estimate D2E/DX2                !
 ! A5    A(1,2,9)              109.4592         estimate D2E/DX2                !
 ! A6    A(1,2,13)             109.4188         estimate D2E/DX2                !
 ! A7    A(8,2,9)              109.458          estimate D2E/DX2                !
 ! A8    A(8,2,13)             109.5771         estimate D2E/DX2                !
 ! A9    A(9,2,13)             109.429          estimate D2E/DX2                !
 ! A10   A(1,3,4)              123.0523         estimate D2E/DX2                !
 ! A11   A(1,3,14)             121.0993         estimate D2E/DX2                !
 ! A12   A(4,3,14)             115.8478         estimate D2E/DX2                !
 ! A13   A(3,4,5)              120.8603         estimate D2E/DX2                !
 ! A14   A(3,4,7)              119.5465         estimate D2E/DX2                !
 ! A15   A(5,4,7)              119.5932         estimate D2E/DX2                !
 ! A16   A(4,5,6)              122.3538         estimate D2E/DX2                !
 ! A17   A(4,5,10)             118.8264         estimate D2E/DX2                !
 ! A18   A(6,5,10)             118.8198         estimate D2E/DX2                !
 ! A19   A(5,6,11)             116.3003         estimate D2E/DX2                !
 ! A20   A(5,6,20)             126.1686         estimate D2E/DX2                !
 ! A21   A(11,6,20)            117.5297         estimate D2E/DX2                !
 ! A22   A(6,11,12)            118.45           estimate D2E/DX2                !
 ! A23   A(6,11,14)            123.1834         estimate D2E/DX2                !
 ! A24   A(12,11,14)           118.3665         estimate D2E/DX2                !
 ! A25   A(3,14,11)            121.422          estimate D2E/DX2                !
 ! A26   A(3,14,15)            119.2217         estimate D2E/DX2                !
 ! A27   A(11,14,15)           119.3563         estimate D2E/DX2                !
 ! A28   A(1,16,17)            109.4587         estimate D2E/DX2                !
 ! A29   A(1,16,18)            109.4828         estimate D2E/DX2                !
 ! A30   A(1,16,19)            109.4369         estimate D2E/DX2                !
 ! A31   A(17,16,18)           109.4518         estimate D2E/DX2                !
 ! A32   A(17,16,19)           109.5215         estimate D2E/DX2                !
 ! A33   A(18,16,19)           109.4757         estimate D2E/DX2                !
 ! A34   A(6,20,21)            126.7017         estimate D2E/DX2                !
 ! A35   A(6,20,25)            116.5651         estimate D2E/DX2                !
 ! A36   A(21,20,25)           116.7332         estimate D2E/DX2                !
 ! A37   A(20,21,22)           120.6251         estimate D2E/DX2                !
 ! A38   A(20,21,24)           119.7031         estimate D2E/DX2                !
 ! A39   A(22,21,24)           119.6718         estimate D2E/DX2                !
 ! A40   A(21,22,23)           124.2883         estimate D2E/DX2                !
 ! A41   A(21,22,26)           113.1082         estimate D2E/DX2                !
 ! A42   A(23,22,26)           122.5899         estimate D2E/DX2                !
 ! D1    D(3,1,2,8)            179.9074         estimate D2E/DX2                !
 ! D2    D(3,1,2,9)             59.9224         estimate D2E/DX2                !
 ! D3    D(3,1,2,13)           -59.9865         estimate D2E/DX2                !
 ! D4    D(16,1,2,8)             8.5371         estimate D2E/DX2                !
 ! D5    D(16,1,2,9)          -111.4478         estimate D2E/DX2                !
 ! D6    D(16,1,2,13)          128.6432         estimate D2E/DX2                !
 ! D7    D(2,1,3,4)              2.7121         estimate D2E/DX2                !
 ! D8    D(2,1,3,14)          -176.9667         estimate D2E/DX2                !
 ! D9    D(16,1,3,4)           173.7082         estimate D2E/DX2                !
 ! D10   D(16,1,3,14)           -5.9707         estimate D2E/DX2                !
 ! D11   D(2,1,16,17)           -8.6634         estimate D2E/DX2                !
 ! D12   D(2,1,16,18)         -128.639          estimate D2E/DX2                !
 ! D13   D(2,1,16,19)          111.3695         estimate D2E/DX2                !
 ! D14   D(3,1,16,17)         -179.995          estimate D2E/DX2                !
 ! D15   D(3,1,16,18)           60.0294         estimate D2E/DX2                !
 ! D16   D(3,1,16,19)          -59.9621         estimate D2E/DX2                !
 ! D17   D(1,3,4,5)            179.1495         estimate D2E/DX2                !
 ! D18   D(1,3,4,7)             -0.8836         estimate D2E/DX2                !
 ! D19   D(14,3,4,5)            -1.156          estimate D2E/DX2                !
 ! D20   D(14,3,4,7)           178.8109         estimate D2E/DX2                !
 ! D21   D(1,3,14,11)         -179.1068         estimate D2E/DX2                !
 ! D22   D(1,3,14,15)            0.8369         estimate D2E/DX2                !
 ! D23   D(4,3,14,11)            1.1923         estimate D2E/DX2                !
 ! D24   D(4,3,14,15)         -178.864          estimate D2E/DX2                !
 ! D25   D(3,4,5,6)             -0.2782         estimate D2E/DX2                !
 ! D26   D(3,4,5,10)           179.6775         estimate D2E/DX2                !
 ! D27   D(7,4,5,6)            179.7549         estimate D2E/DX2                !
 ! D28   D(7,4,5,10)            -0.2894         estimate D2E/DX2                !
 ! D29   D(4,5,6,11)             1.6741         estimate D2E/DX2                !
 ! D30   D(4,5,6,20)          -178.7862         estimate D2E/DX2                !
 ! D31   D(10,5,6,11)         -178.2816         estimate D2E/DX2                !
 ! D32   D(10,5,6,20)            1.2581         estimate D2E/DX2                !
 ! D33   D(5,6,11,12)          178.2849         estimate D2E/DX2                !
 ! D34   D(5,6,11,14)           -1.6592         estimate D2E/DX2                !
 ! D35   D(20,6,11,12)          -1.2961         estimate D2E/DX2                !
 ! D36   D(20,6,11,14)         178.7598         estimate D2E/DX2                !
 ! D37   D(5,6,20,21)           -0.0753         estimate D2E/DX2                !
 ! D38   D(5,6,20,25)          179.973          estimate D2E/DX2                !
 ! D39   D(11,6,20,21)         179.4593         estimate D2E/DX2                !
 ! D40   D(11,6,20,25)          -0.4924         estimate D2E/DX2                !
 ! D41   D(6,11,14,3)            0.2334         estimate D2E/DX2                !
 ! D42   D(6,11,14,15)        -179.7102         estimate D2E/DX2                !
 ! D43   D(12,11,14,3)        -179.7107         estimate D2E/DX2                !
 ! D44   D(12,11,14,15)          0.3456         estimate D2E/DX2                !
 ! D45   D(6,20,21,22)         179.9421         estimate D2E/DX2                !
 ! D46   D(6,20,21,24)           0.0042         estimate D2E/DX2                !
 ! D47   D(25,20,21,22)         -0.1062         estimate D2E/DX2                !
 ! D48   D(25,20,21,24)        179.9558         estimate D2E/DX2                !
 ! D49   D(20,21,22,23)          0.9083         estimate D2E/DX2                !
 ! D50   D(20,21,22,26)        179.5913         estimate D2E/DX2                !
 ! D51   D(24,21,22,23)       -179.1537         estimate D2E/DX2                !
 ! D52   D(24,21,22,26)         -0.4707         estimate D2E/DX2                !
 --------------------------------------------------------------------------------
 Trust Radius=3.00D-01 FncErr=1.00D-07 GrdErr=1.00D-06
 Number of steps in this run=    130 maximum allowed number of steps=    156.
 GradGradGradGradGradGradGradGradGradGradGradGradGradGradGradGradGradGrad

 Leave Link  103 at Fri Aug 20 15:50:19 2021, MaxMem= 24159191040 cpu:         0.6
 (Enter /public/home/users/caep010/software/Gaussian09/g09/l202.exe)
                          Input orientation:                          
 ---------------------------------------------------------------------
 Center     Atomic      Atomic             Coordinates (Angstroms)
 Number     Number       Type             X           Y           Z
 ---------------------------------------------------------------------
      1          7           0        9.250700    1.677500   17.157800
      2          6           0        8.297900    0.909600   17.941900
      3          6           0        9.284700    1.575300   15.802700
      4          6           0        8.383500    0.779800   15.069800
      5          6           0        8.448500    0.722400   13.684100
      6          6           0        9.386800    1.438900   12.954200
      7          1           0        7.736900    0.286300   15.519900
      8          1           0        8.418600    1.105700   18.874600
      9          1           0        8.441200   -0.027600   17.791000
     10          1           0        7.842100    0.184200   13.228700
     11          6           0       10.280900    2.188900   13.681300
     12          1           0       10.937700    2.661600   13.223600
     13          1           0        7.404900    1.142900   17.677000
     14          6           0       10.252000    2.272400   15.041400
     15          1           0       10.881000    2.799500   15.479400
     16          6           0       10.276700    2.398400   17.886900
     17          1           0       10.086000    2.362600   18.826500
     18          1           0       10.291200    3.313200   17.598500
     19          1           0       11.131600    1.995800   17.717500
     20          6           0        9.517800    1.460500   11.457400
     21          6           0        8.815600    0.846200   10.644700
     22          7           0        9.057900    0.964000    9.227400
     23          8           0        9.961200    1.647700    8.728900
     24          1           0        8.124700    0.304200   10.950000
     25          1           0       10.197300    1.989900   11.107000
     26          8           0        8.291700    0.295200    8.553400
 ---------------------------------------------------------------------
                    Distance matrix (angstroms):
                    1          2          3          4          5
     1  N    0.000000
     2  C    1.453379   0.000000
     3  C    1.359374   2.448082   0.000000
     4  C    2.432621   2.876306   1.407879   0.000000
     5  C    3.690844   4.264573   2.432105   1.388411   0.000000
     6  C    4.212565   5.132544   2.853591   2.432445   1.387996
     7  H    2.628639   2.563066   2.034006   0.929636   2.016611
     8  H    1.991670   0.960704   3.226023   3.818893   5.204719
     9  H    1.990879   0.960026   2.689631   2.839041   4.174827
    10  H    4.433049   4.790429   3.262166   2.009354   0.929930
    11  C    3.661816   4.870484   2.422655   2.741099   2.346981
    12  H    4.392306   5.683344   3.250264   3.670635   3.188836
    13  H    1.990564   0.960234   2.689539   2.808379   4.148394
    14  C    2.415710   3.753483   1.414636   2.391642   2.738134
    15  H    2.594954   4.038321   2.037489   3.237973   3.668038
    16  C    1.450503   2.476934   2.450601   3.760336   4.880043
    17  H    1.987875   2.468001   3.225723   4.417755   5.640562
    18  H    1.988057   3.141411   2.694111   4.056077   5.042848
    19  H    1.988055   3.043032   2.693384   4.005125   5.008881
    20  C    5.710779   6.621207   4.353062   3.847002   2.578059
    21  C    6.580338   7.315816   5.230354   4.446642   3.063991
    22  N    7.964766   8.747747   6.607548   5.884079   4.504655
    23  O    8.458845   9.390992   7.106444   6.591616   5.262932
    24  H    6.456827   7.020198   5.148786   4.155229   2.784787
    25  H    6.132359   7.175697   4.801493   4.523052   3.362485
    26  O    8.767333   9.408584   7.428126   6.535039   5.150842
                    6          7          8          9         10
     6  C    0.000000
     7  H    3.260901   0.000000
     8  H    6.008292   3.519964   0.000000
     9  H    5.141927   2.398430   1.568142   0.000000
    10  H    2.008910   2.295885   5.749583   4.606339   0.000000
    11  C    1.374987   3.670459   5.622441   5.018665   3.189265
    12  H    1.993204   4.600018   6.379694   5.858793   3.964880
    13  H    5.130340   2.344583   1.569464   1.567477   4.571392
    14  C    2.408256   3.240260   4.406355   4.016130   3.667980
    15  H    3.234270   4.025317   4.523246   4.391880   4.597864
    16  C    5.103341   4.063772   2.469648   3.043638   5.703401
    17  H    5.985483   4.556632   2.088620   3.080695   6.412166
    18  H    5.089250   4.472935   3.163561   3.823676   5.906258
    19  H    5.103282   4.390424   3.080832   3.367165   5.852523
    20  C    1.502677   4.588492   7.506596   6.594543   2.752166
    21  C    2.451806   5.024406   8.243555   7.209251   2.839543
    22  N    3.771305   6.465282   9.669398   8.642849   4.254017
    23  O    4.269273   7.274517  10.276605   9.340165   5.184652
    24  H    2.626263   4.586360   7.970449   6.856351   2.299290
    25  H    2.091090   5.331933   8.017555   7.199309   3.648168
    26  O    4.677001   6.988562  10.353752   9.244447   4.698180
                   11         12         13         14         15
    11  C    0.000000
    12  H    0.929689   0.000000
    13  H    5.033002   5.883868   0.000000
    14  C    1.362967   1.981428   4.040809   0.000000
    15  H    1.991511   2.260722   4.433626   0.930225   0.000000
    16  C    4.210817   4.717262   3.141269   2.848395   2.514382
    17  H    5.151819   5.675146   3.161853   3.789812   3.467850
    18  H    4.075367   4.470156   3.612076   2.761080   2.258835
    19  H    4.129393   4.547090   3.823267   2.830497   2.391198
    20  C    2.461426   2.564804   6.576370   3.747437   4.452833
    21  C    3.629172   3.801278   7.178534   4.840275   5.608528
    22  N    4.778424   4.731290   8.611629   6.077860   6.766111
    23  O    4.992131   4.709976   9.319763   6.349998   6.909553
    24  H    3.957435   4.317356   6.817188   5.013858   5.859964
    25  H    2.583333   2.340805   7.188867   3.944908   4.498975
    26  O    5.817076   5.866169   9.205709   7.060187   7.806758
                   16         17         18         19         20
    16  C    0.000000
    17  H    0.959425   0.000000
    18  H    0.959293   1.566439   0.000000
    19  H    0.960019   1.567706   1.567155   0.000000
    20  C    6.541717   7.445822   6.460941   6.486891   0.000000
    21  C    7.549410   8.417555   7.524548   7.530600   1.237308
    22  N    8.861711   9.754783   8.781520   8.800377   2.330433
    23  O    9.194132  10.123645   9.030648   9.071160   2.770624
    24  H    7.558926   8.373945   7.612513   7.596184   1.880216
    25  H    6.792659   7.729293   6.625671   6.676201   0.929927
    26  O    9.771279  10.631568   9.742698   9.743603   3.360723
                   21         22         23         24         25
    21  C    0.000000
    22  N    1.442680   0.000000
    23  O    2.371727   1.237699   0.000000
    24  H    0.929685   2.067256   3.179781   0.000000
    25  H    1.852260   2.425613   2.414167   2.676173   0.000000
    26  O    2.225221   1.220095   2.155757   2.402428   3.608905
                   26
    26  O    0.000000
 Stoichiometry    C10H12N2O2
 Framework group  C1[X(C10H12N2O2)]
 Deg. of freedom    72
 Full point group                 C1      NOp   1
 Largest Abelian subgroup         C1      NOp   1
 Largest concise Abelian subgroup C1      NOp   1
                         Standard orientation:                         
 ---------------------------------------------------------------------
 Center     Atomic      Atomic             Coordinates (Angstroms)
 Number     Number       Type             X           Y           Z
 ---------------------------------------------------------------------
      1          7           0       -3.679740   -0.081132   -0.060767
      2          6           0       -4.369254   -1.359460   -0.008240
      3          6           0       -2.322343   -0.016720   -0.025845
      4          6           0       -1.499977   -1.159009    0.006002
      5          6           0       -0.116746   -1.040464    0.023413
      6          6           0        0.523519    0.190898    0.004924
      7          1           0       -1.888539   -2.003488    0.015957
      8          1           0       -5.318183   -1.213343   -0.041969
      9          1           0       -4.144043   -1.810991    0.808491
     10          1           0        0.399249   -1.813681    0.048984
     11          6           0       -0.289037    1.300105    0.004120
     12          1           0        0.108559    2.140395    0.016420
     13          1           0       -4.099925   -1.898422   -0.755923
     14          6           0       -1.649983    1.227851   -0.012730
     15          1           0       -2.148348    2.013305   -0.016480
     16          6           0       -4.495549    1.113724    0.042842
     17          1           0       -5.423056    0.872238   -0.000887
     18          1           0       -4.285749    1.708078   -0.680325
     19          1           0       -4.316962    1.551000    0.878626
     20          6           0        2.008900    0.418044   -0.004338
     21          6           0        2.889889   -0.450700    0.004307
     22          7           0        4.284849   -0.082918   -0.007822
     23          8           0        4.698377    1.083652   -0.010866
     24          1           0        2.650887   -1.349036    0.017880
     25          1           0        2.294206    1.303029   -0.017270
     26          8           0        5.034077   -1.045696    0.010852
 ---------------------------------------------------------------------
 Rotational constants (GHZ):      2.7658100      0.2402222      0.2215253
 Leave Link  202 at Fri Aug 20 15:50:19 2021, MaxMem= 24159191040 cpu:         0.6
 (Enter /public/home/users/caep010/software/Gaussian09/g09/l301.exe)
 Standard basis: 6-31G(d,p) (6D, 7F)
 Ernie: Thresh=  0.10000D-02 Tol=  0.10000D-05 Strict=F.
 There are   270 symmetry adapted cartesian basis functions of A   symmetry.
 There are   270 symmetry adapted basis functions of A   symmetry.
   270 basis functions,   476 primitive gaussians,   270 cartesian basis functions
    51 alpha electrons       51 beta electrons
       nuclear repulsion energy       830.8784189276 Hartrees.
 IExCor=  402 DFT=T Ex+Corr=B3LYP ExCW=0 ScaHFX=  0.200000
 ScaDFX=  0.800000  0.720000  1.000000  0.810000 ScalE2=  1.000000  1.000000
 IRadAn=      0 IRanWt=     -1 IRanGd=            0 ICorTp=0 IEmpDi=  4
 NAtoms=   26 NActive=   26 NUniq=   26 SFac= 1.00D+00 NAtFMM=   60 NAOKFM=F Big=F
 Integral buffers will be    131072 words long.
 Raffenetti 2 integral format.
 Two-electron integral symmetry is turned on.
 Leave Link  301 at Fri Aug 20 15:50:19 2021, MaxMem= 24159191040 cpu:         1.9
 (Enter /public/home/users/caep010/software/Gaussian09/g09/l302.exe)
 NPDir=0 NMtPBC=     1 NCelOv=     1 NCel=       1 NClECP=     1 NCelD=      1
         NCelK=      1 NCelE2=     1 NClLst=     1 CellRange=     0.0.
 One-electron integrals computed using PRISM.
 NBasis=   270 RedAO= T EigKep=  3.18D-04  NBF=   270
 NBsUse=   270 1.00D-06 EigRej= -1.00D+00 NBFU=   270
 Precomputing XC quadrature grid using
 IXCGrd= 4 IRadAn=           0 IRanWt=          -1 IRanGd=           0 AccXCQ= 0.00D+00.
 Generated NRdTot=       0 NPtTot=           0 NUsed=           0 NTot=          32
 NSgBfM=   267   267   267   267   267 MxSgAt=    26 MxSgA2=    26.
 Leave Link  302 at Fri Aug 20 15:50:20 2021, MaxMem= 24159191040 cpu:        13.1
 (Enter /public/home/users/caep010/software/Gaussian09/g09/l303.exe)
 DipDrv:  MaxL=1.
 Leave Link  303 at Fri Aug 20 15:50:20 2021, MaxMem= 24159191040 cpu:         1.6
 (Enter /public/home/users/caep010/software/Gaussian09/g09/l401.exe)
 ExpMin= 1.61D-01 ExpMax= 5.48D+03 ExpMxC= 8.25D+02 IAcc=1 IRadAn=         1 AccDes= 0.00D+00
 Harris functional with IExCor=  402 and IRadAn=       1 diagonalized for initial guess.
 HarFok:  IExCor=  402 AccDes= 0.00D+00 IRadAn=         1 IDoV= 1 UseB2=F ITyADJ=14
 ICtDFT=  3500011 ScaDFX=  1.000000  1.000000  1.000000  1.000000
 FoFCou: FMM=F IPFlag=           0 FMFlag=      100000 FMFlg1=           0
         NFxFlg=           0 DoJE=T BraDBF=F KetDBF=T FulRan=T
         wScrn=  0.000000 ICntrl=     500 IOpCl=  0 I1Cent=   200000004 NGrid=           0
         NMat0=    1 NMatS0=      1 NMatT0=    0 NMatD0=    1 NMtDS0=    0 NMtDT0=    0
 Petite list used in FoFCou.
 Harris En= -648.112116151637    
 JPrj=0 DoOrth=F DoCkMO=F.
 Leave Link  401 at Fri Aug 20 15:50:20 2021, MaxMem= 24159191040 cpu:        13.6
 (Enter /public/home/users/caep010/software/Gaussian09/g09/l502.exe)
 Closed shell SCF:
 Using DIIS extrapolation, IDIIS=  1040.
 Integral symmetry usage will be decided dynamically.
 Keep R1 ints in memory in canonical form, NReq=679448449.
 IVT=      247924 IEndB=      247924 NGot= 24159191040 MDV= 23489693712
 LenX= 23489693712 LenY= 23489620371
 Requested convergence on RMS density matrix=1.00D-08 within 128 cycles.
 Requested convergence on MAX density matrix=1.00D-06.
 Requested convergence on             energy=1.00D-06.
 No special actions if energy rises.
 FoFCou: FMM=F IPFlag=           0 FMFlag=           0 FMFlg1=           0
         NFxFlg=           0 DoJE=F BraDBF=F KetDBF=F FulRan=T
         wScrn=  0.000000 ICntrl=     600 IOpCl=  0 I1Cent=           0 NGrid=           0
         NMat0=    1 NMatS0=  36585 NMatT0=    0 NMatD0=    1 NMtDS0=    0 NMtDT0=    0
 Symmetry not used in FoFCou.
 Integral accuracy reduced to 1.0D-05 until final iterations.

 Cycle   1  Pass 0  IDiag  1:
 E= -647.386403624588    
 DIIS: error= 4.80D-02 at cycle   1 NSaved=   1.
 NSaved= 1 IEnMin= 1 EnMin= -647.386403624588     IErMin= 1 ErrMin= 4.80D-02
 ErrMax= 4.80D-02  0.00D+00 EMaxC= 1.00D-01 BMatC= 5.59D-01 BMatP= 5.59D-01
 IDIUse=3 WtCom= 5.20D-01 WtEn= 4.80D-01
 Coeff-Com:  0.100D+01
 Coeff-En:   0.100D+01
 Coeff:      0.100D+01
 Gap=     0.128 Goal=   None    Shift=    0.000
 GapD=    0.128 DampG=1.000 DampE=0.500 DampFc=0.5000 IDamp=-1.
 Damping current iteration by 5.00D-01
 RMSDP=5.51D-03 MaxDP=2.56D-01              OVMax= 3.44D-01

 Cycle   2  Pass 0  IDiag  1:
 E= -647.580082162830     Delta-E=       -0.193678538243 Rises=F Damp=T
 DIIS: error= 1.67D-02 at cycle   2 NSaved=   2.
 NSaved= 2 IEnMin= 2 EnMin= -647.580082162830     IErMin= 2 ErrMin= 1.67D-02
 ErrMax= 1.67D-02  0.00D+00 EMaxC= 1.00D-01 BMatC= 6.45D-02 BMatP= 5.59D-01
 IDIUse=3 WtCom= 8.33D-01 WtEn= 1.67D-01
 Coeff-Com:  0.158D+00 0.842D+00
 Coeff-En:   0.222D+00 0.778D+00
 Coeff:      0.169D+00 0.831D+00
 Gap=     0.154 Goal=   None    Shift=    0.000
 RMSDP=1.83D-03 MaxDP=9.53D-02 DE=-1.94D-01 OVMax= 2.58D-01

 Cycle   3  Pass 0  IDiag  1:
 E= -647.858643612814     Delta-E=       -0.278561449983 Rises=F Damp=F
 DIIS: error= 1.68D-02 at cycle   3 NSaved=   3.
 NSaved= 3 IEnMin= 3 EnMin= -647.858643612814     IErMin= 2 ErrMin= 1.67D-02
 ErrMax= 1.68D-02  0.00D+00 EMaxC= 1.00D-01 BMatC= 4.85D-02 BMatP= 6.45D-02
 IDIUse=3 WtCom= 8.32D-01 WtEn= 1.68D-01
 Coeff-Com:  0.255D-01 0.459D+00 0.516D+00
 Coeff-En:   0.000D+00 0.000D+00 0.100D+01
 Coeff:      0.212D-01 0.381D+00 0.597D+00
 Gap=     0.133 Goal=   None    Shift=    0.000
 RMSDP=1.08D-03 MaxDP=5.42D-02 DE=-2.79D-01 OVMax= 7.27D-02

 Cycle   4  Pass 0  IDiag  1:
 E= -647.885668664377     Delta-E=       -0.027025051563 Rises=F Damp=F
 DIIS: error= 1.37D-02 at cycle   4 NSaved=   4.
 NSaved= 4 IEnMin= 4 EnMin= -647.885668664377     IErMin= 4 ErrMin= 1.37D-02
 ErrMax= 1.37D-02  0.00D+00 EMaxC= 1.00D-01 BMatC= 1.74D-02 BMatP= 4.85D-02
 IDIUse=3 WtCom= 8.63D-01 WtEn= 1.37D-01
 Coeff-Com:  0.146D-01 0.149D+00 0.382D+00 0.455D+00
 Coeff-En:   0.000D+00 0.000D+00 0.287D+00 0.713D+00
 Coeff:      0.126D-01 0.128D+00 0.369D+00 0.490D+00
 Gap=     0.127 Goal=   None    Shift=    0.000
 RMSDP=5.73D-04 MaxDP=3.93D-02 DE=-2.70D-02 OVMax= 6.55D-02

 Cycle   5  Pass 0  IDiag  1:
 E= -647.896138163734     Delta-E=       -0.010469499357 Rises=F Damp=F
 DIIS: error= 1.04D-02 at cycle   5 NSaved=   5.
 NSaved= 5 IEnMin= 5 EnMin= -647.896138163734     IErMin= 5 ErrMin= 1.04D-02
 ErrMax= 1.04D-02  0.00D+00 EMaxC= 1.00D-01 BMatC= 5.08D-03 BMatP= 1.74D-02
 IDIUse=3 WtCom= 8.96D-01 WtEn= 1.04D-01
 Coeff-Com:  0.833D-02 0.253D-01 0.209D+00 0.398D+00 0.359D+00
 Coeff-En:   0.000D+00 0.000D+00 0.000D+00 0.239D+00 0.761D+00
 Coeff:      0.746D-02 0.227D-01 0.187D+00 0.382D+00 0.401D+00
 Gap=     0.127 Goal=   None    Shift=    0.000
 RMSDP=2.75D-04 MaxDP=2.06D-02 DE=-1.05D-02 OVMax= 4.33D-02

 Cycle   6  Pass 0  IDiag  1:
 E= -647.899810924875     Delta-E=       -0.003672761140 Rises=F Damp=F
 DIIS: error= 2.85D-03 at cycle   6 NSaved=   6.
 NSaved= 6 IEnMin= 6 EnMin= -647.899810924875     IErMin= 6 ErrMin= 2.85D-03
 ErrMax= 2.85D-03  0.00D+00 EMaxC= 1.00D-01 BMatC= 5.37D-04 BMatP= 5.08D-03
 IDIUse=3 WtCom= 9.72D-01 WtEn= 2.85D-02
 Coeff-Com:  0.257D-02 0.135D-02 0.776D-01 0.187D+00 0.282D+00 0.449D+00
 Coeff-En:   0.000D+00 0.000D+00 0.000D+00 0.000D+00 0.126D+00 0.874D+00
 Coeff:      0.250D-02 0.131D-02 0.754D-01 0.182D+00 0.278D+00 0.461D+00
 Gap=     0.130 Goal=   None    Shift=    0.000
 RMSDP=8.48D-05 MaxDP=6.38D-03 DE=-3.67D-03 OVMax= 1.02D-02

 Cycle   7  Pass 0  IDiag  1:
 E= -647.900232167711     Delta-E=       -0.000421242836 Rises=F Damp=F
 DIIS: error= 2.69D-04 at cycle   7 NSaved=   7.
 NSaved= 7 IEnMin= 7 EnMin= -647.900232167711     IErMin= 7 ErrMin= 2.69D-04
 ErrMax= 2.69D-04  0.00D+00 EMaxC= 1.00D-01 BMatC= 1.44D-05 BMatP= 5.37D-04
 IDIUse=3 WtCom= 9.97D-01 WtEn= 2.69D-03
 Coeff-Com:  0.714D-03-0.155D-02 0.224D-01 0.616D-01 0.114D+00 0.244D+00
 Coeff-Com:  0.559D+00
 Coeff-En:   0.000D+00 0.000D+00 0.000D+00 0.000D+00 0.000D+00 0.000D+00
 Coeff-En:   0.100D+01
 Coeff:      0.712D-03-0.155D-02 0.223D-01 0.615D-01 0.114D+00 0.244D+00
 Coeff:      0.560D+00
 Gap=     0.130 Goal=   None    Shift=    0.000
 RMSDP=2.04D-05 MaxDP=7.04D-04 DE=-4.21D-04 OVMax= 1.91D-03

 Cycle   8  Pass 0  IDiag  1:
 E= -647.900243469954     Delta-E=       -0.000011302243 Rises=F Damp=F
 DIIS: error= 1.24D-04 at cycle   8 NSaved=   8.
 NSaved= 8 IEnMin= 8 EnMin= -647.900243469954     IErMin= 8 ErrMin= 1.24D-04
 ErrMax= 1.24D-04  0.00D+00 EMaxC= 1.00D-01 BMatC= 3.10D-06 BMatP= 1.44D-05
 IDIUse=3 WtCom= 9.99D-01 WtEn= 1.24D-03
 Coeff-Com:  0.213D-03-0.144D-02 0.577D-02 0.195D-01 0.441D-01 0.111D+00
 Coeff-Com:  0.370D+00 0.450D+00
 Coeff-En:   0.000D+00 0.000D+00 0.000D+00 0.000D+00 0.000D+00 0.000D+00
 Coeff-En:   0.184D+00 0.816D+00
 Coeff:      0.213D-03-0.144D-02 0.576D-02 0.194D-01 0.441D-01 0.111D+00
 Coeff:      0.370D+00 0.451D+00
 Gap=     0.130 Goal=   None    Shift=    0.000
 RMSDP=8.20D-06 MaxDP=2.33D-04 DE=-1.13D-05 OVMax= 7.77D-04

 Initial convergence to 1.0D-05 achieved.  Increase integral accuracy.
 Cycle   9  Pass 1  IDiag  1:
 E= -647.900191786436     Delta-E=        0.000051683518 Rises=F Damp=F
 DIIS: error= 1.94D-05 at cycle   1 NSaved=   1.
 NSaved= 1 IEnMin= 1 EnMin= -647.900191786436     IErMin= 1 ErrMin= 1.94D-05
 ErrMax= 1.94D-05  0.00D+00 EMaxC= 1.00D-01 BMatC= 1.52D-07 BMatP= 1.52D-07
 IDIUse=1 WtCom= 1.00D+00 WtEn= 0.00D+00
 Coeff-Com:  0.100D+01
 Coeff:      0.100D+01
 Gap=     0.130 Goal=   None    Shift=    0.000
 RMSDP=8.20D-06 MaxDP=2.33D-04 DE= 5.17D-05 OVMax= 5.07D-04

 Cycle  10  Pass 1  IDiag  1:
 E= -647.900191565014     Delta-E=        0.000000221422 Rises=F Damp=F
 DIIS: error= 3.78D-05 at cycle   2 NSaved=   2.
 NSaved= 2 IEnMin= 1 EnMin= -647.900191786436     IErMin= 1 ErrMin= 1.94D-05
 ErrMax= 3.78D-05  0.00D+00 EMaxC= 1.00D-01 BMatC= 3.73D-07 BMatP= 1.52D-07
 IDIUse=1 WtCom= 1.00D+00 WtEn= 0.00D+00
 Coeff-Com:  0.626D+00 0.374D+00
 Coeff:      0.626D+00 0.374D+00
 Gap=     0.130 Goal=   None    Shift=    0.000
 RMSDP=3.14D-06 MaxDP=1.29D-04 DE= 2.21D-07 OVMax= 3.74D-04

 Cycle  11  Pass 1  IDiag  1:
 E= -647.900191955893     Delta-E=       -0.000000390879 Rises=F Damp=F
 DIIS: error= 8.12D-06 at cycle   3 NSaved=   3.
 NSaved= 3 IEnMin= 3 EnMin= -647.900191955893     IErMin= 3 ErrMin= 8.12D-06
 ErrMax= 8.12D-06  0.00D+00 EMaxC= 1.00D-01 BMatC= 1.76D-08 BMatP= 1.52D-07
 IDIUse=1 WtCom= 1.00D+00 WtEn= 0.00D+00
 Coeff-Com:  0.143D+00 0.186D+00 0.671D+00
 Coeff:      0.143D+00 0.186D+00 0.671D+00
 Gap=     0.130 Goal=   None    Shift=    0.000
 RMSDP=6.61D-07 MaxDP=2.71D-05 DE=-3.91D-07 OVMax= 5.67D-05

 Cycle  12  Pass 1  IDiag  1:
 E= -647.900191966626     Delta-E=       -0.000000010733 Rises=F Damp=F
 DIIS: error= 1.01D-05 at cycle   4 NSaved=   4.
 NSaved= 4 IEnMin= 4 EnMin= -647.900191966626     IErMin= 3 ErrMin= 8.12D-06
 ErrMax= 1.01D-05  0.00D+00 EMaxC= 1.00D-01 BMatC= 7.09D-09 BMatP= 1.76D-08
 IDIUse=1 WtCom= 1.00D+00 WtEn= 0.00D+00
 Coeff-Com:  0.128D-01 0.777D-01 0.450D+00 0.460D+00
 Coeff:      0.128D-01 0.777D-01 0.450D+00 0.460D+00
 Gap=     0.130 Goal=   None    Shift=    0.000
 RMSDP=3.69D-07 MaxDP=2.54D-05 DE=-1.07D-08 OVMax= 5.26D-05

 Cycle  13  Pass 1  IDiag  1:
 E= -647.900191970987     Delta-E=       -0.000000004361 Rises=F Damp=F
 DIIS: error= 6.70D-06 at cycle   5 NSaved=   5.
 NSaved= 5 IEnMin= 5 EnMin= -647.900191970987     IErMin= 5 ErrMin= 6.70D-06
 ErrMax= 6.70D-06  0.00D+00 EMaxC= 1.00D-01 BMatC= 2.11D-09 BMatP= 7.09D-09
 IDIUse=1 WtCom= 1.00D+00 WtEn= 0.00D+00
 Coeff-Com: -0.897D-02 0.365D-01 0.256D+00 0.359D+00 0.357D+00
 Coeff:     -0.897D-02 0.365D-01 0.256D+00 0.359D+00 0.357D+00
 Gap=     0.130 Goal=   None    Shift=    0.000
 RMSDP=1.52D-07 MaxDP=1.07D-05 DE=-4.36D-09 OVMax= 2.32D-05

 Cycle  14  Pass 1  IDiag  1:
 E= -647.900191972636     Delta-E=       -0.000000001650 Rises=F Damp=F
 DIIS: error= 5.43D-07 at cycle   6 NSaved=   6.
 NSaved= 6 IEnMin= 6 EnMin= -647.900191972636     IErMin= 6 ErrMin= 5.43D-07
 ErrMax= 5.43D-07  0.00D+00 EMaxC= 1.00D-01 BMatC= 5.03D-11 BMatP= 2.11D-09
 IDIUse=1 WtCom= 1.00D+00 WtEn= 0.00D+00
 Coeff-Com: -0.626D-02 0.131D-01 0.948D-01 0.153D+00 0.197D+00 0.549D+00
 Coeff:     -0.626D-02 0.131D-01 0.948D-01 0.153D+00 0.197D+00 0.549D+00
 Gap=     0.130 Goal=   None    Shift=    0.000
 RMSDP=3.26D-08 MaxDP=1.04D-06 DE=-1.65D-09 OVMax= 2.99D-06

 Cycle  15  Pass 1  IDiag  1:
 E= -647.900191972697     Delta-E=       -0.000000000060 Rises=F Damp=F
 DIIS: error= 1.32D-07 at cycle   7 NSaved=   7.
 NSaved= 7 IEnMin= 7 EnMin= -647.900191972697     IErMin= 7 ErrMin= 1.32D-07
 ErrMax= 1.32D-07  0.00D+00 EMaxC= 1.00D-01 BMatC= 4.33D-12 BMatP= 5.03D-11
 IDIUse=1 WtCom= 1.00D+00 WtEn= 0.00D+00
 Coeff-Com: -0.283D-02 0.475D-02 0.342D-01 0.591D-01 0.859D-01 0.302D+00
 Coeff-Com:  0.517D+00
 Coeff:     -0.283D-02 0.475D-02 0.342D-01 0.591D-01 0.859D-01 0.302D+00
 Coeff:      0.517D+00
 Gap=     0.130 Goal=   None    Shift=    0.000
 RMSDP=8.71D-09 MaxDP=3.16D-07 DE=-6.05D-11 OVMax= 7.80D-07

 SCF Done:  E(RB3LYP) =  -647.900191973     A.U. after   15 cycles
            NFock= 15  Conv=0.87D-08     -V/T= 2.0035
 KE= 6.456205077426D+02 PE=-3.171675402763D+03 EE= 1.047276284120D+03
 Leave Link  502 at Fri Aug 20 15:50:41 2021, MaxMem= 24159191040 cpu:       165.4
 (Enter /public/home/users/caep010/software/Gaussian09/g09/l601.exe)
 Copying SCF densities to generalized density rwf, IOpCl= 0 IROHF=0.

 **********************************************************************

            Population analysis using the SCF density.

 **********************************************************************

 Orbital symmetries:
       Occupied  (A) (A) (A) (A) (A) (A) (A) (A) (A) (A) (A) (A)
                 (A) (A) (A) (A) (A) (A) (A) (A) (A) (A) (A) (A)
                 (A) (A) (A) (A) (A) (A) (A) (A) (A) (A) (A) (A)
                 (A) (A) (A) (A) (A) (A) (A) (A) (A) (A) (A) (A)
                 (A) (A) (A)
       Virtual   (A) (A) (A) (A) (A) (A) (A) (A) (A) (A) (A) (A)
                 (A) (A) (A) (A) (A) (A) (A) (A) (A) (A) (A) (A)
                 (A) (A) (A) (A) (A) (A) (A) (A) (A) (A) (A) (A)
                 (A) (A) (A) (A) (A) (A) (A) (A) (A) (A) (A) (A)
                 (A) (A) (A) (A) (A) (A) (A) (A) (A) (A) (A) (A)
                 (A) (A) (A) (A) (A) (A) (A) (A) (A) (A) (A) (A)
                 (A) (A) (A) (A) (A) (A) (A) (A) (A) (A) (A) (A)
                 (A) (A) (A) (A) (A) (A) (A) (A) (A) (A) (A) (A)
                 (A) (A) (A) (A) (A) (A) (A) (A) (A) (A) (A) (A)
                 (A) (A) (A) (A) (A) (A) (A) (A) (A) (A) (A) (A)
                 (A) (A) (A) (A) (A) (A) (A) (A) (A) (A) (A) (A)
                 (A) (A) (A) (A) (A) (A) (A) (A) (A) (A) (A) (A)
                 (A) (A) (A) (A) (A) (A) (A) (A) (A) (A) (A) (A)
                 (A) (A) (A) (A) (A) (A) (A) (A) (A) (A) (A) (A)
                 (A) (A) (A) (A) (A) (A) (A) (A) (A) (A) (A) (A)
                 (A) (A) (A) (A) (A) (A) (A) (A) (A) (A) (A) (A)
                 (A) (A) (A) (A) (A) (A) (A) (A) (A) (A) (A) (A)
                 (A) (A) (A) (A) (A) (A) (A) (A) (A) (A) (A) (A)
                 (A) (A) (A)
 The electronic state is 1-A.
 Alpha  occ. eigenvalues --  -19.15756 -19.15633 -14.55138 -14.36585 -10.23692
 Alpha  occ. eigenvalues --  -10.20357 -10.19447 -10.19425 -10.19273 -10.18971
 Alpha  occ. eigenvalues --  -10.18266 -10.17635 -10.17519 -10.17057  -1.20738
 Alpha  occ. eigenvalues --   -1.02771  -0.97207  -0.87602  -0.84789  -0.78664
 Alpha  occ. eigenvalues --   -0.77866  -0.76459  -0.72004  -0.67630  -0.64795
 Alpha  occ. eigenvalues --   -0.60702  -0.59658  -0.56221  -0.53662  -0.51480
 Alpha  occ. eigenvalues --   -0.51394  -0.50646  -0.50257  -0.49361  -0.47999
 Alpha  occ. eigenvalues --   -0.45934  -0.45106  -0.44802  -0.43450  -0.42362
 Alpha  occ. eigenvalues --   -0.41161  -0.38889  -0.37944  -0.35326  -0.33775
 Alpha  occ. eigenvalues --   -0.28958  -0.28734  -0.28559  -0.26734  -0.26018
 Alpha  occ. eigenvalues --   -0.19895
 Alpha virt. eigenvalues --   -0.06899  -0.00844   0.00752   0.07727   0.09463
 Alpha virt. eigenvalues --    0.11641   0.12908   0.13436   0.14142   0.15769
 Alpha virt. eigenvalues --    0.17186   0.17529   0.17682   0.18358   0.19449
 Alpha virt. eigenvalues --    0.19874   0.22148   0.23076   0.25284   0.26419
 Alpha virt. eigenvalues --    0.27832   0.28678   0.30939   0.32687   0.33672
 Alpha virt. eigenvalues --    0.34362   0.37189   0.38989   0.43302   0.43633
 Alpha virt. eigenvalues --    0.49640   0.49836   0.50784   0.52039   0.53013
 Alpha virt. eigenvalues --    0.53960   0.54838   0.55748   0.57231   0.58236
 Alpha virt. eigenvalues --    0.58805   0.59902   0.60660   0.60805   0.62022
 Alpha virt. eigenvalues --    0.62185   0.65201   0.65398   0.68428   0.68609
 Alpha virt. eigenvalues --    0.71403   0.74079   0.74432   0.74490   0.79218
 Alpha virt. eigenvalues --    0.79593   0.80006   0.82365   0.84359   0.85278
 Alpha virt. eigenvalues --    0.86897   0.89417   0.89801   0.91294   0.91829
 Alpha virt. eigenvalues --    0.92165   0.93139   0.94240   0.95400   0.96468
 Alpha virt. eigenvalues --    0.96891   0.98278   0.99441   1.00400   1.00479
 Alpha virt. eigenvalues --    1.02102   1.03787   1.04521   1.05006   1.06428
 Alpha virt. eigenvalues --    1.07654   1.09393   1.11431   1.15812   1.18485
 Alpha virt. eigenvalues --    1.19160   1.21375   1.22642   1.25068   1.25865
 Alpha virt. eigenvalues --    1.26417   1.28882   1.29722   1.30457   1.37905
 Alpha virt. eigenvalues --    1.38906   1.39898   1.40258   1.41599   1.42112
 Alpha virt. eigenvalues --    1.43312   1.45941   1.47212   1.53781   1.55830
 Alpha virt. eigenvalues --    1.60227   1.62302   1.66969   1.69213   1.69461
 Alpha virt. eigenvalues --    1.73784   1.74972   1.77425   1.78209   1.82611
 Alpha virt. eigenvalues --    1.83480   1.83711   1.84122   1.87408   1.89701
 Alpha virt. eigenvalues --    1.90702   1.91701   1.94615   1.97521   1.97869
 Alpha virt. eigenvalues --    1.99012   2.00579   2.01690   2.03544   2.06873
 Alpha virt. eigenvalues --    2.07955   2.08414   2.08616   2.10574   2.14505
 Alpha virt. eigenvalues --    2.14996   2.15574   2.15919   2.16246   2.19070
 Alpha virt. eigenvalues --    2.23997   2.24138   2.24400   2.26579   2.28477
 Alpha virt. eigenvalues --    2.32911   2.33177   2.34272   2.36575   2.37593
 Alpha virt. eigenvalues --    2.41152   2.42152   2.46050   2.49903   2.50491
 Alpha virt. eigenvalues --    2.52993   2.53685   2.55206   2.56658   2.57258
 Alpha virt. eigenvalues --    2.58217   2.60157   2.61784   2.63735   2.63920
 Alpha virt. eigenvalues --    2.68039   2.69322   2.72611   2.74972   2.77727
 Alpha virt. eigenvalues --    2.78604   2.79984   2.82412   2.82759   2.84736
 Alpha virt. eigenvalues --    2.85721   2.88891   2.90279   2.92276   2.95508
 Alpha virt. eigenvalues --    2.99703   3.02512   3.05839   3.06264   3.09066
 Alpha virt. eigenvalues --    3.16622   3.20016   3.24645   3.31851   3.33698
 Alpha virt. eigenvalues --    3.35608   3.41691   3.60195   3.65027   3.67168
 Alpha virt. eigenvalues --    3.73896   3.74104   3.74936   3.75313   3.76844
 Alpha virt. eigenvalues --    3.78693   3.82829   3.84111   3.87933   3.94333
 Alpha virt. eigenvalues --    3.99105   4.02905   4.07995   4.10810   4.14595
 Alpha virt. eigenvalues --    4.15592   4.23324   4.25131   4.39581   4.44140
 Alpha virt. eigenvalues --    4.48840   4.50752   4.64955   4.95136
          Condensed to atoms (all electrons):
               1          2          3          4          5          6
     1  N    6.997733   0.332493   0.317458  -0.077939   0.005760   0.000655
     2  C    0.332493   4.678904  -0.037676  -0.008254   0.000041  -0.000012
     3  C    0.317458  -0.037676   4.574882   0.495048  -0.001982  -0.037944
     4  C   -0.077939  -0.008254   0.495048   4.935654   0.518876  -0.015355
     5  C    0.005760   0.000041  -0.001982   0.518876   4.901339   0.514127
     6  C    0.000655  -0.000012  -0.037944  -0.015355   0.514127   4.750364
     7  H   -0.016612   0.009661  -0.055048   0.369279  -0.046416   0.005990
     8  H   -0.027955   0.405099   0.004288   0.000416  -0.000014   0.000000
     9  H   -0.048630   0.404873  -0.005031   0.005161   0.000129  -0.000007
    10  H   -0.000184   0.000003   0.006405  -0.053155   0.365621  -0.049497
    11  C    0.006266  -0.000086  -0.002719  -0.059267  -0.051452   0.505870
    12  H   -0.000208   0.000004   0.006870   0.000981   0.011015  -0.056768
    13  H   -0.042822   0.408219  -0.006781   0.005474   0.000246  -0.000008
    14  C   -0.074710   0.006179   0.493653  -0.048850  -0.056620  -0.018147
    15  H   -0.017818  -0.000064  -0.056320   0.009345   0.000800   0.006752
    16  C    0.333728  -0.058237  -0.037642   0.006119  -0.000084  -0.000005
    17  H   -0.028446  -0.008691   0.004472  -0.000234   0.000004   0.000000
    18  H   -0.042318   0.004709  -0.007435  -0.000260   0.000002  -0.000009
    19  H   -0.048865   0.003197  -0.004901   0.000013  -0.000007  -0.000009
    20  C    0.000003  -0.000000   0.000430   0.006881  -0.066256   0.336401
    21  C   -0.000000   0.000000   0.000015  -0.000099  -0.015917   0.002505
    22  N    0.000000   0.000000   0.000000  -0.000000   0.000088   0.003077
    23  O    0.000000   0.000000   0.000000  -0.000000   0.000007   0.000908
    24  H   -0.000000   0.000000  -0.000020   0.000076   0.004811  -0.018208
    25  H   -0.000000   0.000000  -0.000006  -0.000134   0.008308  -0.030052
    26  O   -0.000000  -0.000000  -0.000000  -0.000000   0.000004  -0.000127
               7          8          9         10         11         12
     1  N   -0.016612  -0.027955  -0.048630  -0.000184   0.006266  -0.000208
     2  C    0.009661   0.405099   0.404873   0.000003  -0.000086   0.000004
     3  C   -0.055048   0.004288  -0.005031   0.006405  -0.002719   0.006870
     4  C    0.369279   0.000416   0.005161  -0.053155  -0.059267   0.000981
     5  C   -0.046416  -0.000014   0.000129   0.365621  -0.051452   0.011015
     6  C    0.005990   0.000000  -0.000007  -0.049497   0.505870  -0.056768
     7  H    0.691756  -0.000170   0.000627  -0.011297   0.000845   0.000045
     8  H   -0.000170   0.578905  -0.035600   0.000000   0.000004  -0.000000
     9  H    0.000627  -0.035600   0.601787  -0.000002  -0.000002   0.000000
    10  H   -0.011297   0.000000  -0.000002   0.695574   0.011255  -0.000493
    11  C    0.000845   0.000004  -0.000002   0.011255   4.901210   0.371362
    12  H    0.000045  -0.000000   0.000000  -0.000493   0.371362   0.692593
    13  H    0.000002  -0.031403  -0.055979  -0.000003  -0.000000   0.000000
    14  C    0.009089  -0.000255  -0.000011   0.000795   0.502590  -0.052781
    15  H   -0.000394  -0.000004  -0.000002   0.000041  -0.045699  -0.012703
    16  C   -0.000090  -0.008516   0.003181   0.000003   0.000088   0.000005
    17  H   -0.000003   0.005022   0.000074  -0.000000  -0.000020   0.000000
    18  H   -0.000008   0.000437  -0.000651   0.000000   0.000304  -0.000000
    19  H   -0.000000   0.000078   0.001190   0.000000   0.000159  -0.000004
    20  C   -0.000241  -0.000000  -0.000000  -0.018598  -0.033574  -0.017445
    21  C    0.000006  -0.000000   0.000000   0.006178   0.008311   0.000440
    22  N   -0.000000  -0.000000   0.000000  -0.000061  -0.000181  -0.000007
    23  O   -0.000000  -0.000000  -0.000000   0.000001  -0.000037  -0.000001
    24  H    0.000016  -0.000000   0.000000   0.000351   0.000153  -0.000007
    25  H    0.000002   0.000000  -0.000000  -0.000173  -0.016823   0.005022
    26  O    0.000000  -0.000000  -0.000000  -0.000010   0.000001   0.000000
              13         14         15         16         17         18
     1  N   -0.042822  -0.074710  -0.017818   0.333728  -0.028446  -0.042318
     2  C    0.408219   0.006179  -0.000064  -0.058237  -0.008691   0.004709
     3  C   -0.006781   0.493653  -0.056320  -0.037642   0.004472  -0.007435
     4  C    0.005474  -0.048850   0.009345   0.006119  -0.000234  -0.000260
     5  C    0.000246  -0.056620   0.000800  -0.000084   0.000004   0.000002
     6  C   -0.000008  -0.018147   0.006752  -0.000005   0.000000  -0.000009
     7  H    0.000002   0.009089  -0.000394  -0.000090  -0.000003  -0.000008
     8  H   -0.031403  -0.000255  -0.000004  -0.008516   0.005022   0.000437
     9  H   -0.055979  -0.000011  -0.000002   0.003181   0.000074  -0.000651
    10  H   -0.000003   0.000795   0.000041   0.000003  -0.000000   0.000000
    11  C   -0.000000   0.502590  -0.045699   0.000088  -0.000020   0.000304
    12  H    0.000000  -0.052781  -0.012703   0.000005   0.000000  -0.000000
    13  H    0.587429  -0.000193  -0.000011   0.004669   0.000447   0.000252
    14  C   -0.000193   4.954084   0.366879  -0.008571   0.000434   0.005508
    15  H   -0.000011   0.366879   0.697156   0.010336  -0.000126  -0.000304
    16  C    0.004669  -0.008571   0.010336   4.674973   0.404704   0.407557
    17  H    0.000447   0.000434  -0.000126   0.404704   0.580712  -0.031780
    18  H    0.000252   0.005508  -0.000304   0.407557  -0.031780   0.588686
    19  H   -0.000649   0.005414   0.000588   0.405437  -0.035750  -0.056131
    20  C   -0.000000   0.008605  -0.000249   0.000000  -0.000000  -0.000000
    21  C    0.000000  -0.000466   0.000006   0.000000   0.000000   0.000000
    22  N    0.000000   0.000001  -0.000000  -0.000000  -0.000000   0.000000
    23  O   -0.000000  -0.000000   0.000000  -0.000000   0.000000  -0.000000
    24  H    0.000000   0.000036   0.000000   0.000000   0.000000  -0.000000
    25  H   -0.000000   0.000427  -0.000012  -0.000000  -0.000000   0.000000
    26  O   -0.000000  -0.000000   0.000000   0.000000   0.000000  -0.000000
              19         20         21         22         23         24
     1  N   -0.048865   0.000003  -0.000000   0.000000   0.000000  -0.000000
     2  C    0.003197  -0.000000   0.000000   0.000000   0.000000   0.000000
     3  C   -0.004901   0.000430   0.000015   0.000000   0.000000  -0.000020
     4  C    0.000013   0.006881  -0.000099  -0.000000  -0.000000   0.000076
     5  C   -0.000007  -0.066256  -0.015917   0.000088   0.000007   0.004811
     6  C   -0.000009   0.336401   0.002505   0.003077   0.000908  -0.018208
     7  H   -0.000000  -0.000241   0.000006  -0.000000  -0.000000   0.000016
     8  H    0.000078  -0.000000  -0.000000  -0.000000  -0.000000  -0.000000
     9  H    0.001190  -0.000000   0.000000   0.000000  -0.000000   0.000000
    10  H    0.000000  -0.018598   0.006178  -0.000061   0.000001   0.000351
    11  C    0.000159  -0.033574   0.008311  -0.000181  -0.000037   0.000153
    12  H   -0.000004  -0.017445   0.000440  -0.000007  -0.000001  -0.000007
    13  H   -0.000649  -0.000000   0.000000   0.000000  -0.000000   0.000000
    14  C    0.005414   0.008605  -0.000466   0.000001  -0.000000   0.000036
    15  H    0.000588  -0.000249   0.000006  -0.000000   0.000000   0.000000
    16  C    0.405437   0.000000   0.000000  -0.000000  -0.000000   0.000000
    17  H   -0.035750  -0.000000   0.000000  -0.000000   0.000000   0.000000
    18  H   -0.056131  -0.000000   0.000000   0.000000  -0.000000  -0.000000
    19  H    0.600976  -0.000000   0.000000   0.000000  -0.000000  -0.000000
    20  C   -0.000000   5.027802   0.457107  -0.018255   0.003888  -0.063362
    21  C    0.000000   0.457107   5.055976   0.242805  -0.090268   0.396818
    22  N    0.000000  -0.018255   0.242805   5.851193   0.310450  -0.041561
    23  O   -0.000000   0.003888  -0.090268   0.310450   8.261531   0.003911
    24  H   -0.000000  -0.063362   0.396818  -0.041561   0.003911   0.622697
    25  H    0.000000   0.373288  -0.087820  -0.017414   0.027472   0.012789
    26  O   -0.000000   0.011790  -0.079346   0.264511  -0.094807   0.002387
              25         26
     1  N   -0.000000  -0.000000
     2  C    0.000000  -0.000000
     3  C   -0.000006  -0.000000
     4  C   -0.000134  -0.000000
     5  C    0.008308   0.000004
     6  C   -0.030052  -0.000127
     7  H    0.000002   0.000000
     8  H    0.000000  -0.000000
     9  H   -0.000000  -0.000000
    10  H   -0.000173  -0.000010
    11  C   -0.016823   0.000001
    12  H    0.005022   0.000000
    13  H   -0.000000  -0.000000
    14  C    0.000427  -0.000000
    15  H   -0.000012   0.000000
    16  C   -0.000000   0.000000
    17  H   -0.000000   0.000000
    18  H    0.000000  -0.000000
    19  H    0.000000  -0.000000
    20  C    0.373288   0.011790
    21  C   -0.087820  -0.079346
    22  N   -0.017414   0.264511
    23  O    0.027472  -0.094807
    24  H    0.012789   0.002387
    25  H    0.642223   0.000928
    26  O    0.000928   8.287265
 Mulliken charges:
               1
     1  N   -0.567590
     2  C   -0.140362
     3  C    0.349984
     4  C   -0.089776
     5  C   -0.092430
     6  C    0.099499
     7  H    0.042961
     8  H    0.109665
     9  H    0.128892
    10  H    0.047246
    11  C   -0.098556
    12  H    0.052083
    13  H    0.131110
    14  C   -0.093090
    15  H    0.041802
    16  C   -0.137655
    17  H    0.109180
    18  H    0.131443
    19  H    0.129266
    20  C   -0.008212
    21  C    0.103748
    22  N    0.405356
    23  O   -0.423054
    24  H    0.079112
    25  H    0.081973
    26  O   -0.392596
 Sum of Mulliken charges =  -0.00000
 Mulliken charges with hydrogens summed into heavy atoms:
               1
     1  N   -0.567590
     2  C    0.229306
     3  C    0.349984
     4  C   -0.046815
     5  C   -0.045184
     6  C    0.099499
    11  C   -0.046472
    14  C   -0.051288
    16  C    0.232234
    20  C    0.073760
    21  C    0.182860
    22  N    0.405356
    23  O   -0.423054
    26  O   -0.392596
 Electronic spatial extent (au):  <R**2>=           4599.6565
 Charge=             -0.0000 electrons
 Dipole moment (field-independent basis, Debye):
    X=             -9.6317    Y=             -0.4281    Z=              0.1185  Tot=              9.6420
 Quadrupole moment (field-independent basis, Debye-Ang):
   XX=            -92.7710   YY=            -75.8501   ZZ=            -81.7327
   XY=             -0.2812   XZ=             -0.4702   YZ=              0.0197
 Traceless Quadrupole moment (field-independent basis, Debye-Ang):
   XX=             -9.3197   YY=              7.6012   ZZ=              1.7185
   XY=             -0.2812   XZ=             -0.4702   YZ=              0.0197
 Octapole moment (field-independent basis, Debye-Ang**2):
  XXX=           -286.6851  YYY=             -0.7784  ZZZ=              0.2127  XYY=            -18.4956
  XXY=             -2.2312  XXZ=              1.2629  XZZ=             14.0214  YZZ=             -0.3642
  YYZ=             -0.1373  XYZ=              0.0006
 Hexadecapole moment (field-independent basis, Debye-Ang**3):
 XXXX=          -5587.3145 YYYY=           -534.6691 ZZZZ=            -86.8447 XXXY=             24.3820
 XXXZ=             -6.6185 YYYX=              2.4796 YYYZ=             -0.1731 ZZZX=             -1.0958
 ZZZY=              0.1148 XXYY=           -956.7335 XXZZ=           -845.2469 YYZZ=           -108.9663
 XXYZ=              1.6328 YYXZ=              1.2652 ZZXY=             -0.0801
 N-N= 8.308784189276D+02 E-N=-3.171675403321D+03  KE= 6.456205077426D+02
 No NMR shielding tensors so no spin-rotation constants.
 Leave Link  601 at Fri Aug 20 15:50:42 2021, MaxMem= 24159191040 cpu:        11.2
 (Enter /public/home/users/caep010/software/Gaussian09/g09/l701.exe)
 Compute integral first derivatives.
 ... and contract with generalized density number  0.
 Leave Link  701 at Fri Aug 20 15:50:42 2021, MaxMem= 24159191040 cpu:        11.5
 (Enter /public/home/users/caep010/software/Gaussian09/g09/l702.exe)
 L702 exits ... SP integral derivatives will be done elsewhere.
 Leave Link  702 at Fri Aug 20 15:50:42 2021, MaxMem= 24159191040 cpu:         0.5
 (Enter /public/home/users/caep010/software/Gaussian09/g09/l703.exe)
 Compute integral first derivatives, UseDBF=F ICtDFT=           0.
 Integral derivatives from FoFJK, PRISM(SPDF).
 Calling FoFJK, ICntrl=      2127 FMM=F ISym2X=0 I1Cent= 0 IOpClX= 0 NMat=1 NMatS=1 NMatT=0.
 FoFJK:  IHMeth= 1 ICntrl=    2127 DoSepK=F KAlg= 0 I1Cent=   0 FoldK=F
 IRaf=         0 NMat=   1 IRICut=       1 DoRegI=T DoRafI=F ISym2E= 0.
 FoFCou: FMM=F IPFlag=           0 FMFlag=      100000 FMFlg1=         800
         NFxFlg=           0 DoJE=F BraDBF=F KetDBF=F FulRan=T
         wScrn=  0.000000 ICntrl=    2127 IOpCl=  0 I1Cent=           0 NGrid=           0
         NMat0=    1 NMatS0=      1 NMatT0=    0 NMatD0=    1 NMtDS0=    0 NMtDT0=    0
 Symmetry not used in FoFCou.
 Leave Link  703 at Fri Aug 20 15:50:43 2021, MaxMem= 24159191040 cpu:        32.3
 (Enter /public/home/users/caep010/software/Gaussian09/g09/l716.exe)
 Dipole        =-3.78941674D+00-1.68430963D-01 4.66145890D-02
 ***** Axes restored to original set *****
 -------------------------------------------------------------------
 Center     Atomic                   Forces (Hartrees/Bohr)
 Number     Number              X              Y              Z
 -------------------------------------------------------------------
      1        7          -0.005745055   -0.000099304    0.007051130
      2        6           0.077477854    0.061407493   -0.070674909
      3        6           0.006741934    0.003939041   -0.009807181
      4        6           0.109535407    0.083732840   -0.079017148
      5        6           0.094983444    0.086384146    0.080060725
      6        6          -0.000647875   -0.003852459   -0.034330012
      7        1          -0.118964561   -0.091128357    0.079600000
      8        1           0.015960337    0.026733971    0.121707824
      9        1           0.017102649   -0.130120546   -0.017860622
     10        1          -0.113823398   -0.099833563   -0.080524406
     11        6          -0.096895662   -0.068159509    0.072395676
     12        1           0.121691843    0.088643744   -0.083262258
     13        1          -0.122878747    0.030418902   -0.033692514
     14        6          -0.107739752   -0.089029972   -0.052635263
     15        1           0.114618930    0.095682573    0.077872416
     16        6          -0.081973021   -0.059071686   -0.067289101
     17        1          -0.026480927   -0.004834674    0.124532039
     18        1           0.003888993    0.126782569   -0.037173575
     19        1           0.119683545   -0.052945383   -0.020629682
     20        6          -0.032329326   -0.017036216    0.179428055
     21        6           0.045429522    0.031114686   -0.124281014
     22        7           0.000443291   -0.004471799   -0.007445537
     23        8           0.000753156    0.003455886    0.018770404
     24        1          -0.130998726   -0.104034438    0.031684115
     25        1           0.128740033    0.100920474   -0.057685143
     26        8          -0.018573889   -0.014598419   -0.016794018
 -------------------------------------------------------------------
 Cartesian Forces:  Max     0.179428055 RMS     0.076033542
 Leave Link  716 at Fri Aug 20 15:50:43 2021, MaxMem= 24159191040 cpu:         0.7
 (Enter /public/home/users/caep010/software/Gaussian09/g09/l103.exe)

 GradGradGradGradGradGradGradGradGradGradGradGradGradGradGradGradGradGrad
 Berny optimization.
 FormGI is forming the generalized inverse of G from B-inverse, IUseBI=4.
 Internal  Forces:  Max     0.173258512 RMS     0.050937338
 Search for a local minimum.
 Step number   1 out of a maximum of  130
 All quantities printed in internal units (Hartrees-Bohrs-Radians)
 RMS Force = .50937D-01 SwitMx=.10000D-02 MixMth= 1
 Mixed Optimization -- RFO/linear search
 Second derivative matrix not updated -- first step.
 ITU=  0
     Eigenvalues ---    0.00731   0.00986   0.01024   0.01127   0.01131
     Eigenvalues ---    0.01365   0.01787   0.01983   0.02085   0.02110
     Eigenvalues ---    0.02229   0.02238   0.02245   0.02251   0.02417
     Eigenvalues ---    0.02488   0.02503   0.02685   0.04241   0.07657
     Eigenvalues ---    0.07667   0.07681   0.07683   0.16000   0.16000
     Eigenvalues ---    0.16000   0.16000   0.16000   0.16000   0.16000
     Eigenvalues ---    0.16000   0.16000   0.16000   0.16000   0.16000
     Eigenvalues ---    0.21998   0.22000   0.22000   0.22931   0.24000
     Eigenvalues ---    0.24699   0.24814   0.24999   0.25000   0.25000
     Eigenvalues ---    0.25000   0.32098   0.37806   0.38179   0.39220
     Eigenvalues ---    0.41206   0.42277   0.45579   0.46981   0.49033
     Eigenvalues ---    0.51396   0.53074   0.55322   0.55423   0.55468
     Eigenvalues ---    0.55469   0.55597   0.55626   0.62404   0.62478
     Eigenvalues ---    0.62479   0.62539   0.62540   0.62552   0.87952
     Eigenvalues ---    0.88108   0.95341
 RFO step:  Lambda=-3.31169884D-01 EMin= 7.30537473D-03
 Linear search not attempted -- first point.
 Maximum step size (   0.300) exceeded in Quadratic search.
    -- Step size scaled by   0.502
 Iteration  1 RMS(Cart)=  0.03538259 RMS(Int)=  0.00015415
 Iteration  2 RMS(Cart)=  0.00023008 RMS(Int)=  0.00000419
 Iteration  3 RMS(Cart)=  0.00000005 RMS(Int)=  0.00000419
 ITry= 1 IFail=0 DXMaxC= 1.10D-01 DCOld= 1.00D+10 DXMaxT= 3.00D-01 DXLimC= 3.00D+00 Rises=F
 Variable       Old X    -DE/DX   Delta X   Delta X   Delta X     New X
                                 (Linear)    (Quad)   (Total)
    R1        2.74649   0.01391   0.00000   0.00985   0.00985   2.75634
    R2        2.56884   0.00590   0.00000   0.00344   0.00344   2.57228
    R3        2.74105   0.01535   0.00000   0.01082   0.01082   2.75187
    R4        1.81547   0.12562   0.00000   0.07136   0.07136   1.88683
    R5        1.81419   0.13239   0.00000   0.07508   0.07508   1.88926
    R6        1.81458   0.13096   0.00000   0.07430   0.07430   1.88888
    R7        2.66051   0.01263   0.00000   0.00768   0.00768   2.66819
    R8        2.67327   0.00730   0.00000   0.00473   0.00474   2.67801
    R9        2.62372   0.00001   0.00000  -0.00038  -0.00039   2.62332
   R10        1.75676   0.16966   0.00000   0.08909   0.08909   1.84585
   R11        2.62293   0.01677   0.00000   0.01050   0.01050   2.63343
   R12        1.75731   0.17144   0.00000   0.09009   0.09009   1.84740
   R13        2.59835   0.03207   0.00000   0.01985   0.01985   2.61820
   R14        2.83965  -0.02422   0.00000  -0.01866  -0.01866   2.82099
   R15        1.75686   0.17203   0.00000   0.09035   0.09035   1.84720
   R16        2.57563   0.02188   0.00000   0.01324   0.01325   2.58889
   R17        1.75787   0.16839   0.00000   0.08856   0.08856   1.84643
   R18        1.81305   0.12740   0.00000   0.07214   0.07214   1.88519
   R19        1.81280   0.13214   0.00000   0.07480   0.07480   1.88760
   R20        1.81417   0.13242   0.00000   0.07510   0.07510   1.88927
   R21        2.33817   0.16680   0.00000   0.06912   0.06912   2.40730
   R22        1.75731   0.17326   0.00000   0.09105   0.09105   1.84836
   R23        2.72627   0.00118   0.00000   0.00082   0.00082   2.72709
   R24        1.75685   0.16841   0.00000   0.08844   0.08844   1.84529
   R25        2.33891  -0.00510   0.00000  -0.00212  -0.00212   2.33679
   R26        2.30565   0.02895   0.00000   0.01132   0.01132   2.31697
    A1        2.11120  -0.00612   0.00000  -0.00530  -0.00530   2.10589
    A2        2.04331   0.01164   0.00000   0.01009   0.01009   2.05340
    A3        2.11852  -0.00550   0.00000  -0.00477  -0.00476   2.11376
    A4        1.91088  -0.00305   0.00000  -0.00325  -0.00325   1.90763
    A5        1.91042   0.00529   0.00000   0.00552   0.00552   1.91594
    A6        1.90972   0.00328   0.00000   0.00338   0.00337   1.91309
    A7        1.91040  -0.00142   0.00000  -0.00151  -0.00150   1.90890
    A8        1.91248  -0.00147   0.00000  -0.00173  -0.00173   1.91076
    A9        1.90990  -0.00262   0.00000  -0.00240  -0.00242   1.90748
   A10        2.14767  -0.01058   0.00000  -0.00880  -0.00880   2.13886
   A11        2.11358  -0.00093   0.00000  -0.00046  -0.00046   2.11312
   A12        2.02193   0.01151   0.00000   0.00926   0.00926   2.03119
   A13        2.10941   0.00157   0.00000   0.00027   0.00026   2.10967
   A14        2.08648   0.00178   0.00000   0.00248   0.00249   2.08897
   A15        2.08729  -0.00335   0.00000  -0.00276  -0.00275   2.08454
   A16        2.13548  -0.00459   0.00000  -0.00448  -0.00449   2.13099
   A17        2.07391  -0.00121   0.00000  -0.00135  -0.00134   2.07257
   A18        2.07380   0.00580   0.00000   0.00582   0.00583   2.07963
   A19        2.02982   0.00688   0.00000   0.00692   0.00691   2.03673
   A20        2.20206  -0.01103   0.00000  -0.01002  -0.01002   2.19204
   A21        2.05128   0.00415   0.00000   0.00310   0.00311   2.05439
   A22        2.06734   0.00609   0.00000   0.00500   0.00500   2.07234
   A23        2.14996  -0.00919   0.00000  -0.00695  -0.00694   2.14301
   A24        2.06589   0.00310   0.00000   0.00195   0.00194   2.06783
   A25        2.11921  -0.00615   0.00000  -0.00499  -0.00498   2.11424
   A26        2.08081   0.00450   0.00000   0.00395   0.00394   2.08475
   A27        2.08316   0.00165   0.00000   0.00104   0.00103   2.08419
   A28        1.91041  -0.00332   0.00000  -0.00353  -0.00353   1.90689
   A29        1.91083   0.00363   0.00000   0.00374   0.00373   1.91457
   A30        1.91003   0.00540   0.00000   0.00564   0.00563   1.91567
   A31        1.91029  -0.00148   0.00000  -0.00174  -0.00173   1.90856
   A32        1.91151  -0.00139   0.00000  -0.00149  -0.00148   1.91003
   A33        1.91071  -0.00284   0.00000  -0.00262  -0.00264   1.90808
   A34        2.21136  -0.00324   0.00000  -0.00296  -0.00296   2.20841
   A35        2.03444  -0.00560   0.00000  -0.00591  -0.00591   2.02854
   A36        2.03738   0.00884   0.00000   0.00886   0.00886   2.04624
   A37        2.10531  -0.00112   0.00000  -0.00102  -0.00102   2.10429
   A38        2.08921   0.02254   0.00000   0.02299   0.02299   2.11221
   A39        2.08867  -0.02143   0.00000  -0.02198  -0.02198   2.06669
   A40        2.16924  -0.02928   0.00000  -0.02530  -0.02530   2.14394
   A41        1.97411   0.01570   0.00000   0.01358   0.01358   1.98769
   A42        2.13960   0.01363   0.00000   0.01179   0.01179   2.15139
    D1        3.13998   0.00046   0.00000   0.00068   0.00068   3.14066
    D2        1.04584   0.00083   0.00000   0.00114   0.00114   1.04699
    D3       -1.04696  -0.00119   0.00000  -0.00135  -0.00136  -1.04832
    D4        0.14900   0.00072   0.00000   0.00086   0.00086   0.14986
    D5       -1.94513   0.00109   0.00000   0.00131   0.00132  -1.94381
    D6        2.24525  -0.00093   0.00000  -0.00118  -0.00118   2.24407
    D7        0.04734  -0.00001   0.00000   0.00029   0.00029   0.04762
    D8       -3.08865  -0.00029   0.00000  -0.00010  -0.00010  -3.08875
    D9        3.03178   0.00119   0.00000   0.00138   0.00138   3.03316
   D10       -0.10421   0.00091   0.00000   0.00100   0.00100  -0.10321
   D11       -0.15120  -0.00061   0.00000  -0.00068  -0.00068  -0.15189
   D12       -2.24517   0.00102   0.00000   0.00132   0.00133  -2.24385
   D13        1.94376  -0.00104   0.00000  -0.00121  -0.00122   1.94255
   D14       -3.14151  -0.00030   0.00000  -0.00046  -0.00046   3.14122
   D15        1.04771   0.00133   0.00000   0.00154   0.00155   1.04926
   D16       -1.04654  -0.00073   0.00000  -0.00099  -0.00100  -1.04753
   D17        3.12675  -0.00012   0.00000  -0.00012  -0.00011   3.12663
   D18       -0.01542  -0.00005   0.00000  -0.00004  -0.00004  -0.01546
   D19       -0.02018   0.00011   0.00000   0.00023   0.00023  -0.01995
   D20        3.12084   0.00018   0.00000   0.00030   0.00030   3.12114
   D21       -3.12600  -0.00007   0.00000  -0.00004  -0.00004  -3.12604
   D22        0.01461  -0.00001   0.00000   0.00002   0.00003   0.01463
   D23        0.02081  -0.00027   0.00000  -0.00035  -0.00034   0.02046
   D24       -3.12177  -0.00020   0.00000  -0.00028  -0.00028  -3.12205
   D25       -0.00486   0.00025   0.00000   0.00038   0.00037  -0.00448
   D26        3.13596   0.00012   0.00000   0.00016   0.00016   3.13612
   D27        3.13732   0.00017   0.00000   0.00030   0.00030   3.13762
   D28       -0.00505   0.00004   0.00000   0.00008   0.00008  -0.00497
   D29        0.02922  -0.00066   0.00000  -0.00095  -0.00096   0.02826
   D30       -3.12041  -0.00038   0.00000  -0.00057  -0.00057  -3.12098
   D31       -3.11160  -0.00053   0.00000  -0.00074  -0.00074  -3.11234
   D32        0.02196  -0.00024   0.00000  -0.00035  -0.00035   0.02161
   D33        3.11166   0.00054   0.00000   0.00077   0.00077   3.11243
   D34       -0.02896   0.00070   0.00000   0.00096   0.00096  -0.02800
   D35       -0.02262   0.00036   0.00000   0.00048   0.00048  -0.02214
   D36        3.11995   0.00051   0.00000   0.00067   0.00067   3.12062
   D37       -0.00131   0.00001   0.00000   0.00002   0.00002  -0.00129
   D38        3.14112  -0.00011   0.00000  -0.00014  -0.00013   3.14099
   D39        3.13216   0.00030   0.00000   0.00043   0.00043   3.13258
   D40       -0.00859   0.00019   0.00000   0.00027   0.00027  -0.00832
   D41        0.00407  -0.00024   0.00000  -0.00034  -0.00034   0.00374
   D42       -3.13653  -0.00031   0.00000  -0.00040  -0.00040  -3.13693
   D43       -3.13654  -0.00009   0.00000  -0.00015  -0.00015  -3.13669
   D44        0.00603  -0.00016   0.00000  -0.00021  -0.00021   0.00582
   D45        3.14058   0.00001   0.00000   0.00001   0.00001   3.14059
   D46        0.00007   0.00002   0.00000   0.00002   0.00002   0.00009
   D47       -0.00185   0.00011   0.00000   0.00016   0.00016  -0.00170
   D48        3.14082   0.00012   0.00000   0.00017   0.00017   3.14099
   D49        0.01585  -0.00131   0.00000  -0.00192  -0.00192   0.01393
   D50        3.13446   0.00120   0.00000   0.00176   0.00176   3.13622
   D51       -3.12682  -0.00130   0.00000  -0.00191  -0.00191  -3.12873
   D52       -0.00822   0.00121   0.00000   0.00177   0.00177  -0.00644
         Item               Value     Threshold  Converged?
 Maximum Force            0.173259     0.000450     NO 
 RMS     Force            0.050937     0.000300     NO 
 Maximum Displacement     0.109660     0.001800     NO 
 RMS     Displacement     0.035421     0.001200     NO 
 Predicted change in Energy=-1.394871D-01
 Lowest energy point so far.  Saving SCF results.
 GradGradGradGradGradGradGradGradGradGradGradGradGradGradGradGradGradGrad

 Leave Link  103 at Fri Aug 20 15:50:44 2021, MaxMem= 24159191040 cpu:         4.5
 (Enter /public/home/users/caep010/software/Gaussian09/g09/l202.exe)
                          Input orientation:                          
 ---------------------------------------------------------------------
 Center     Atomic      Atomic             Coordinates (Angstroms)
 Number     Number       Type             X           Y           Z
 ---------------------------------------------------------------------
      1          7           0        9.250856    1.677807   17.158824
      2          6           0        8.286326    0.898993   17.927346
      3          6           0        9.295089    1.583697   15.801609
      4          6           0        8.391315    0.786829   15.065554
      5          6           0        8.456818    0.730044   13.680060
      6          6           0        9.402145    1.451251   12.953284
      7          1           0        7.710511    0.267558   15.535620
      8          1           0        8.402494    1.096152   18.899233
      9          1           0        8.434651   -0.076580   17.766836
     10          1           0        7.818590    0.164561   13.201933
     11          6           0       10.304125    2.207827   13.683772
     12          1           0       10.995729    2.705992   13.205213
     13          1           0        7.358490    1.142539   17.646428
     14          6           0       10.269680    2.287309   15.051010
     15          1           0       10.928051    2.839304   15.516358
     16          6           0       10.277616    2.400134   17.896799
     17          1           0       10.072939    2.357769   18.872259
     18          1           0       10.294477    3.354761   17.603276
     19          1           0       11.171258    1.985680   17.726072
     20          6           0        9.526899    1.467649   11.465794
     21          6           0        8.798420    0.831533   10.636662
     22          7           0        9.033609    0.942695    9.217189
     23          8           0        9.941955    1.632861    8.740006
     24          1           0        8.069038    0.259290   10.943368
     25          1           0       10.242168    2.024341   11.098127
     26          8           0        8.265852    0.275106    8.532967
 ---------------------------------------------------------------------
                    Distance matrix (angstroms):
                    1          2          3          4          5
     1  N    0.000000
     2  C    1.458593   0.000000
     3  C    1.361192   2.450546   0.000000
     4  C    2.431960   2.865913   1.411943   0.000000
     5  C    3.691957   4.254062   2.435651   1.388203   0.000000
     6  C    4.214354   5.127507   2.853412   2.434115   1.393552
     7  H    2.645044   2.539808   2.076984   0.976780   2.052795
     8  H    2.021649   0.998465   3.260322   3.846154   5.232280
     9  H    2.028237   0.999754   2.712746   2.836244   4.165678
    10  H    4.471943   4.804965   3.309427   2.046537   0.977604
    11  C    3.669643   4.877753   2.427535   2.754523   2.365672
    12  H    4.442160   5.736257   3.300454   3.731893   3.252065
    13  H    2.026159   0.999554   2.710792   2.802529   4.136248
    14  C    2.419168   3.759577   1.417143   2.404143   2.755186
    15  H    2.619113   4.068954   2.079539   3.294072   3.732019
    16  C    1.456228   2.493911   2.453925   3.765213   4.887269
[...]
 320,-0.00008550,-0.00002874,0.00002102,-0.00002917,0.00040396,0.000442
 32,0.00075831,0.00001494,0.00000126,-0.00004026,-0.00121005,-0.0007910
 4,0.00040578,0.00028240,-0.00019574,-0.00105775,0.00055410,0.00059514,
 -0.00007453,-0.26190611,0.07990496,0.04465229,-0.00366026,0.00239168,0
 .00133070,-0.00194808,0.00259556,0.00197386,0.29369189,-0.02475279,0.0
 0570128,0.00222350,-0.00175167,0.00019307,-0.00155446,-0.00029749,0.00
 094654,0.00202211,-0.00006127,-0.00067536,-0.00035535,-0.00003846,-0.0
 0016500,0.00034047,0.00021570,0.00012789,-0.00035453,-0.00007126,0.000
 06758,0.00001612,0.00003002,-0.00009116,-0.00000201,-0.00010281,-0.000
 04767,-0.00007524,-0.00004615,0.00003223,-0.00000673,-0.00020248,-0.00
 033438,-0.00012271,0.00001567,0.00000890,-0.00000024,-0.00083662,-0.00
 058007,0.00030210,0.00123971,0.00050399,-0.00013081,-0.00025991,-0.000
 23380,0.00008392,0.08100516,-0.07940145,-0.01616776,-0.00435328,0.0012
 5687,0.00096341,0.02932520,-0.01024235,-0.00688702,-0.07898683,0.08294
 229,-0.02021822,0.00060463,0.00040245,-0.00089394,0.00146513,-0.001650
 27,-0.00098347,0.00082194,0.00379816,-0.00022084,-0.00089477,-0.001230
 99,-0.00036644,-0.00051759,0.00119060,0.00084240,0.00069973,-0.0000424
 0,-0.00005400,0.00010360,0.00001104,0.00005409,-0.00020165,0.00048548,
 0.00009491,0.00006985,-0.00004146,-0.00003964,0.00005406,0.00000992,0.
 00011150,-0.00081936,-0.00108978,-0.00000551,-0.00001823,-0.00001106,-
 0.00047313,-0.00027022,0.00070748,0.00074342,0.00061280,0.00070577,-0.
 00097598,0.00117922,-0.00182814,0.04630629,-0.01560696,-0.05971915,0.0
 2903943,-0.01167504,-0.00353566,-0.00865086,0.00465126,0.00204991,-0.0
 4427650,0.01958848,0.05972168,0.00019173,0.00043765,0.00131660,0.00016
 643,0.00038396,-0.00026779,-0.00241361,-0.00151945,-0.00165535,-0.0007
 7265,-0.00439119,0.00398747,0.00507212,0.00456003,0.02213739,-0.090159
 48,-0.02247565,0.03211398,0.00030079,-0.00033307,0.00130002,0.00003837
 ,0.00005234,0.00007507,-0.00005511,-0.00006829,-0.00016095,-0.00100038
 ,0.00161331,-0.00081033,0.00159793,-0.00098073,-0.02774467,-0.00099024
 ,0.00212415,-0.00163554,-0.00004514,-0.00009345,0.00003880,-0.00110492
 ,-0.00550861,-0.00090779,0.00049625,-0.00051727,-0.00111128,-0.0004295
 1,-0.00010186,-0.00035609,0.00004361,0.00006059,0.00003812,0.00006628,
 0.00013197,0.00017898,0.00018927,-0.00000578,-0.00003186,0.52016001,0.
 00033416,0.00010977,0.00183955,0.00057387,0.00008388,-0.00031386,-0.00
 147333,-0.00187086,-0.00201858,-0.00428650,0.00203328,0.00363271,0.004
 25424,0.00519781,0.01496541,-0.02385522,-0.07671900,0.01319980,-0.0004
 1997,0.00055924,0.00096964,0.00004413,0.00001661,0.00008127,-0.0001208
 0,-0.00005455,0.00007183,0.00154847,-0.00194582,-0.00041612,-0.0000465
 3,-0.00083309,-0.02434440,0.00235814,-0.00205321,-0.00096711,-0.000118
 35,-0.00004219,-0.00018223,-0.00581182,0.00130751,-0.00042714,-0.00043
 646,0.00067351,-0.00094335,-0.00023983,-0.00053865,-0.00038438,0.00006
 191,0.00002049,0.00005283,0.00005524,0.00020693,-0.00008983,0.00014804
 ,0.00006365,0.00019956,0.29954689,0.37915440,-0.00037005,0.00052941,0.
 01303527,0.00285298,0.00212642,-0.00205237,-0.00089530,-0.00142508,-0.
 01249303,0.00571233,0.00497810,0.01364920,0.01711046,0.01104008,-0.037
 22917,0.00947616,-0.00448603,-0.25384689,-0.00013178,-0.00014924,0.000
 06813,-0.00005830,-0.00002307,0.00035076,-0.00045591,-0.00086034,-0.00
 006685,-0.00187460,-0.00124812,0.00043503,-0.01240617,-0.01236182,-0.0
 4305821,0.00220077,0.00203053,0.00126428,-0.00093763,-0.00024574,-0.00
 008746,-0.00588669,-0.00432150,0.01047527,0.00021928,0.00009632,-0.000
 16439,-0.00262776,-0.00216046,-0.00206544,0.00005867,0.00006869,0.0003
 4802,0.00046276,0.00085356,-0.00000153,0.00094496,0.00023959,0.0000183
 8,0.04930687,0.07235484,0.69506806,-0.00001038,-0.00020103,-0.00213474
 ,-0.00047133,-0.00034152,0.00037608,0.00062504,0.00079657,0.00195005,-
 0.00156051,-0.00119804,-0.00286733,-0.00183136,-0.00116892,0.00551532,
 0.01001301,0.00268597,-0.01473626,0.00003514,-0.00004250,0.00003240,0.
 00000459,-0.00000177,-0.00006980,0.00008362,0.00013171,0.00002190,-0.0
 0023174,-0.00025395,0.00077928,0.00253157,0.00019208,0.00518345,0.0002
 5330,0.00005706,0.00014132,0.00016020,0.00005257,0.00002412,0.00128428
 ,0.00110768,-0.00125730,-0.00012623,0.00009967,0.00018231,0.00046001,0
 .00034611,0.00038094,-0.00001835,-0.00001929,-0.00006398,-0.00008952,-
 0.00015760,-0.00003242,-0.00017417,-0.00004125,-0.00001167,-0.23282562
 ,-0.15197488,-0.12753641,0.56162352,-0.00004063,-0.00009401,-0.0022885
 2,-0.00050066,-0.00037318,0.00038672,0.00059565,0.00034950,0.00207486,
 -0.00121947,-0.00135884,-0.00256005,-0.00198484,-0.00116306,0.00481217
 ,0.00234818,0.00634466,-0.01502271,-0.00003601,0.00006459,0.00001180,0
 .00000589,0.00000175,-0.00007265,0.00009312,0.00015704,0.00001415,-0.0
 0026569,-0.00001842,0.00054405,0.00043077,0.00328817,0.00427598,0.0000
 0911,0.00020498,0.00010992,0.00015628,0.00005243,0.00002329,0.00135848
 ,0.00074229,-0.00145021,0.00008429,-0.00016654,0.00012136,0.00045156,0
 .00042391,0.00038758,-0.00001612,-0.00001533,-0.00006893,-0.00008483,-
 0.00016350,0.00000801,-0.00017785,-0.00005541,-0.00003410,-0.15233865,
 -0.17411246,-0.11088266,0.36821443,0.38891658,0.00047338,-0.00025620,-
 0.01008758,-0.00223637,-0.00165527,0.00151810,-0.00134026,-0.00049535,
 0.00878621,-0.00320769,-0.00282417,-0.00549310,-0.00786775,-0.00564580
 ,0.00833835,-0.02025505,-0.01933622,-0.05207510,0.00013785,0.00009403,
 -0.00012984,0.00005670,0.00002653,-0.00029490,0.00037671,0.00067067,0.
 00000424,0.00060340,0.00040659,-0.00090330,0.00908686,0.00732485,0.006
 38126,-0.00064593,-0.00050531,0.00018193,0.00074152,0.00020597,0.00003
 145,0.00285730,0.00176757,-0.00789025,-0.00007186,-0.00007734,-0.00058
 462,0.00211310,0.00174170,0.00152069,-0.00001117,-0.00002744,-0.000308
 87,-0.00037738,-0.00063109,0.00007394,-0.00070847,-0.00020794,0.000050
 69,-0.13352989,-0.11556792,-0.23219935,0.07191950,0.08482079,0.5651397
 8,-0.00003565,-0.00003837,-0.00225058,-0.00041468,-0.00036365,0.000314
 56,0.00019688,-0.00018427,0.00192526,-0.00072687,-0.00071683,-0.001304
 89,-0.00149212,-0.00056925,0.00245971,-0.00046357,-0.00976461,-0.00473
 520,-0.00004170,0.00009610,0.00002013,0.00001087,0.00000297,-0.0000646
 3,0.00007976,0.00014136,0.00002380,0.00007800,0.00030229,0.00005674,0.
 00246332,0.00048124,0.00028904,-0.00012582,-0.00031479,-0.00006008,0.0
 0014037,0.00005036,-0.00000153,-0.00000364,0.00069239,-0.00141586,-0.0
 0015153,0.00013399,-0.00019502,0.00053305,0.00040648,0.00036145,-0.000
 00414,-0.00001124,-0.00006155,-0.00008181,-0.00014413,-0.00001812,-0.0
 0019221,-0.00003874,0.00002798,0.01191851,0.01116173,-0.01080928,-0.09
 794737,-0.01921687,0.00856798,0.66932622,0.00007493,-0.00016984,-0.001
 04612,-0.00022269,-0.00009054,0.00013810,-0.00026859,0.00042708,0.0008
 7903,-0.00043690,-0.00029235,-0.00066349,-0.00039444,-0.00078458,0.001
 56652,-0.00947046,0.00408177,-0.00296503,0.00008298,-0.00009551,0.0000
 4485,0.00000470,0.00000420,-0.00002642,0.00003826,0.00004773,-0.000015
 56,0.00029674,-0.00007004,0.00004236,0.00014174,0.00195956,-0.00034627
 ,-0.00029595,0.00003631,-0.00007800,0.00007484,0.00001831,0.00002542,0
 .00055472,-0.00060505,-0.00064164,0.00015530,-0.00022363,-0.00010962,0
 .00023216,0.00023331,0.00017486,-0.00000689,-0.00000133,-0.00002411,-0
 .00004101,-0.00009974,0.00003666,-0.00006590,-0.00002244,-0.00003512,0
 .01053032,0.00426664,-0.01233695,-0.01728469,-0.08604506,0.00243259,0.
 34613920,0.50011619,-0.00041393,0.00039494,0.01150584,0.00262140,0.001
 94120,-0.00169201,0.00053971,-0.00020405,-0.00965737,0.00329028,0.0029
 2510,0.00592669,0.00531776,0.00380006,-0.00640485,0.00009530,0.0008083
 2,0.02368571,-0.00019368,-0.00012209,0.00031499,-0.00003524,-0.0000038
 6,0.00039594,-0.00044525,-0.00073261,-0.00005789,-0.00003190,-0.000027
 31,-0.00034182,-0.00527761,-0.00469452,-0.00748939,0.00024839,0.000163
 11,-0.00023641,-0.00081527,-0.00026115,-0.00008795,-0.00365504,-0.0023
 9371,0.00661104,0.00015348,0.00016297,0.00036454,-0.00249150,-0.002055
 26,-0.00172245,0.00001053,0.00003188,0.00039790,0.00044555,0.00072428,
 -0.00008547,0.00081338,0.00025216,-0.00005295,-0.02115827,-0.02041801,
 -0.06691917,0.04025316,0.02718893,-0.14260198,0.01341125,0.03771601,0.
 67405981,-0.00000456,0.00011986,0.00262108,0.00053796,0.00041515,-0.00
 040140,0.00004743,0.00000942,-0.00217703,0.00100353,0.00094214,0.00141
 696,0.00109974,0.00069812,-0.00235791,0.00131192,0.00200773,0.00585624
 ,-0.00001846,-0.00003846,-0.00001061,-0.00000924,-0.00000170,0.0000858
 8,-0.00010407,-0.00016580,-0.00000799,0.00018889,0.00003026,-0.0002052
 2,-0.00170640,-0.00129687,-0.00178858,0.00016951,0.00019187,0.00002872
 ,-0.00017897,-0.00006351,-0.00001035,-0.00071825,-0.00055954,0.0017015
 0,0.00004104,0.00001606,0.00009718,-0.00061087,-0.00049919,-0.00043488
 ,0.00000895,0.00001237,0.00008386,0.00010224,0.00018377,-0.00000873,0.
 00021389,0.00005366,-0.00000441,-0.00616076,-0.00694363,-0.01358059,-0
 .00796812,-0.01726996,0.03812202,-0.32264315,-0.18537921,0.10593930,0.
 38417365,-0.00003769,0.00013383,0.00185784,0.00039731,0.00026860,-0.00
 028710,0.00013606,-0.00012261,-0.00153725,0.00080779,0.00060139,0.0010
 3004,0.00079153,0.00053095,-0.00181074,0.00172429,0.00081642,0.0044140
 4,-0.00003375,0.00000245,-0.00001857,-0.00000680,-0.00000223,0.0000596
 9,-0.00007392,-0.00011186,-0.00000112,0.00002808,0.00014636,-0.0001532
 6,-0.00111526,-0.00113700,-0.00130077,0.00018794,0.00007517,0.00003467
 ,-0.00013425,-0.00004321,-0.00000981,-0.00061585,-0.00027676,0.0012268
 6,0.00000670,0.00003741,0.00006537,-0.00042961,-0.00036111,-0.00031324
 ,0.00000737,0.00000885,0.00005820,0.00007450,0.00014224,-0.00000913,0.
 00014349,0.00003827,0.00000163,-0.00582358,-0.00353471,-0.01064683,-0.
 01733345,0.00521350,0.02699860,-0.18465084,-0.21676118,0.07590520,0.26
 854231,0.23395909,0.00006511,-0.00014081,-0.00306742,-0.00069077,-0.00
 051327,0.00041120,-0.00010392,0.00008274,0.00254859,-0.00079348,-0.000
 69677,-0.00135697,-0.00082014,-0.00060928,0.00054294,0.00120980,0.0007
 8383,-0.00344919,0.00006663,0.00004176,-0.00013878,0.00000071,-0.00000
 676,-0.00012186,0.00012321,0.00017547,0.00002901,-0.00024463,-0.000183
 83,0.00025097,0.00118851,0.00102507,0.00139688,-0.00003554,-0.00001559
 ,0.00012648,0.00019870,0.00007969,0.00003488,0.00076823,0.00049828,-0.
 00155035,-0.00005534,-0.00005382,-0.00014515,0.00070208,0.00057536,0.0
 0042925,0.00000083,-0.00000658,-0.00012026,-0.00012279,-0.00018849,0.0
 0003161,-0.00021377,-0.00007145,0.00002429,0.00477793,0.00369734,0.001
 07889,0.03708269,0.02618578,-0.02861021,0.11788131,0.08523666,-0.18974
 998,-0.13470699,-0.09551981,0.18954413,0.00008171,-0.00002079,0.000204
 40,0.00004717,0.00003262,-0.00002488,-0.00014872,0.00010866,-0.0001033
 3,0.00020127,0.00044476,0.00001091,-0.00036488,-0.00011793,0.00008753,
 -0.00150961,0.00208340,0.00094915,0.00003895,-0.00006381,-0.00000887,0
 .00000150,0.00000343,0.00001032,-0.00000891,-0.00000780,-0.00001213,0.
 00102271,-0.00001414,0.00011557,-0.00012614,-0.00006541,-0.00022069,0.
 00012402,0.00000047,0.00001073,-0.00001097,-0.00000406,0.00000206,-0.0
 0005999,0.00001967,0.00008358,0.00003026,-0.00002586,-0.00000815,-0.00
 003679,-0.00006707,-0.00001578,0.00000322,0.00000276,0.00001081,0.0000
 0483,0.00001308,-0.00000182,0.00001545,0.00000553,-0.00000272,-0.00672
 247,-0.00729338,0.00477095,-0.22769781,-0.15129431,0.05240317,-0.00682
 019,-0.00362639,-0.00252664,0.00252059,-0.00102755,0.00137773,0.235082
 40,-0.00002912,0.00011053,0.00014519,0.00003239,0.00002764,-0.00001864
 ,0.00010956,-0.00021381,-0.00005769,0.00045899,-0.00000699,0.00002742,
 -0.00017596,-0.00034093,0.00004687,0.00207573,-0.00241833,0.00101106,-
 0.00006322,0.00006949,-0.00001749,0.00000316,0.00000089,0.00000834,-0.
 00000464,-0.00000702,0.00000521,-0.00000440,0.00104029,-0.00008557,-0.
 00004763,-0.00010684,-0.00016460,0.00000735,0.00013034,0.00000591,-0.0
 0000575,-0.00000706,-0.00001320,0.00002419,-0.00005569,0.00006703,-0.0
 0002498,0.00004254,-0.00001054,-0.00006587,-0.00000450,-0.00001365,0.0
 0000225,0.00000279,0.00000858,0.00000823,0.00001034,-0.00000283,0.0000
 1029,0.00000002,-0.00000047,-0.00856091,-0.00344404,0.00426877,-0.1518
 8844,-0.14628998,0.03896860,-0.00175463,-0.00389563,-0.00244479,-0.001
 02066,0.00316981,0.00040102,0.16416375,0.14663003,0.00006801,0.0000382
 5,-0.00011807,-0.00003033,-0.00002279,0.00001879,-0.00008277,-0.000041
 58,0.00008139,0.00023916,0.00020539,-0.00006461,-0.00085202,-0.0006863
 4,-0.00054647,0.00082408,0.00091385,0.00032090,0.00000048,-0.00001023,
 -0.00005330,0.00000552,0.00000460,0.00000254,0.00000081,0.00001396,-0.
 00000455,0.00026309,0.00002961,-0.00182535,0.00006974,0.00006203,0.000
 06442,0.00012280,0.00009341,0.00008260,0.00001381,-0.00000258,-0.00000
 243,0.00015586,0.00012377,-0.00004653,0.00000592,0.00000044,-0.0000058
 5,0.00000474,0.00000243,0.00002683,0.00000214,0.00000180,0.00000273,-0
 .00000236,-0.00000411,0.00000008,-0.00000445,-0.00000097,-0.00000021,-
 0.01597479,-0.01194200,0.01185071,0.04261480,0.03132000,-0.06242617,0.
 02817390,0.02154440,-0.01008265,0.00148871,0.00048793,-0.00713284,-0.0
 5429254,-0.03925333,0.07270448,-0.00000878,0.00003275,0.00003150,0.000
 02172,-0.00002471,-0.00000461,0.00018400,-0.00005862,-0.00008413,-0.00
 010697,0.00007557,-0.00017674,0.00187391,-0.00147704,-0.00048072,0.001
 94156,-0.00189878,0.00021454,-0.00016398,0.00023690,-0.00000375,0.0000
 0319,0.00000065,-0.00000124,-0.00000642,0.00000844,0.00001448,-0.00001
 752,0.00004158,-0.00004309,-0.00018191,0.00152458,-0.00178975,0.000389
 08,0.00006356,0.00022034,-0.00000746,-0.00000046,-0.00001474,0.0001450
 3,0.00001542,0.00019457,0.00000499,-0.00001754,0.00001341,-0.00000780,
 -0.00000487,0.00000568,-0.00000032,-0.00000067,0.00000239,0.00000279,-
 0.00000056,0.00000333,0.00000089,0.00000144,-0.00000739,-0.20271352,-0
 .11885590,0.08051167,-0.01130298,-0.01528005,0.00771420,-0.00600005,0.
 00218544,0.00166666,0.00211612,0.00182010,0.00160990,0.00284884,-0.004
 91735,-0.00186714,0.20983793,0.00002467,-0.00002748,0.00002493,-0.0000
 2197,0.00003532,-0.00000780,-0.00005731,0.00020347,-0.00006972,0.00015
 303,-0.00010482,-0.00011507,-0.00152112,0.00248225,-0.00090630,-0.0005
 9861,0.00387702,-0.00071853,0.00023632,-0.00028271,0.00000161,-0.00000
 020,0.00000203,-0.00000119,0.00000050,-0.00001180,-0.00001832,0.000046
 70,-0.00003890,-0.00002140,0.00174129,-0.00098351,-0.00117322,-0.00000
 883,0.00032534,0.00012360,0.00000668,-0.00000663,0.00001946,-0.0000119
 2,0.00013992,0.00014163,-0.00001835,0.00001468,0.00000943,-0.00000264,
 -0.00000286,0.00000508,-0.00000148,-0.00000030,0.00000214,0.00000161,-
 0.00000083,-0.00000816,-0.00000114,0.00000325,0.00000514,-0.11874971,-
 0.13348360,0.05952813,-0.01671803,-0.00382428,0.00631095,0.00192461,-0
 .00704697,0.00189343,0.00181424,0.00139266,0.00102681,-0.00488178,0.00
 504626,-0.00220753,0.13642682,0.13111531,-0.00009969,-0.00007723,-0.00
 003650,0.00004100,0.00002765,-0.00002079,-0.00006504,-0.00005487,0.000
 18461,0.00109807,0.00088081,0.00016756,-0.00121334,-0.00147821,-0.0049
 8014,0.02152223,0.01593200,-0.01011248,-0.00001101,-0.00000396,-0.0003
 9202,-0.00001517,-0.00001210,-0.00000172,0.00000548,-0.00002059,0.0000
 0176,0.00004258,0.00004544,0.00012564,0.00176681,0.00160500,0.00141457
 ,-0.00096856,-0.00080515,-0.00047138,-0.00001973,0.00001086,-0.0000024
 0,-0.00025565,-0.00020990,-0.00002717,-0.00000018,-0.00000122,0.000011
 18,0.00004130,0.00003279,0.00000834,-0.00001079,-0.00000815,0.00000534
 ,0.00000353,-0.00001489,0.00000349,-0.00001369,0.00000712,0.00000133,0
 .08223551,0.06087395,-0.09983459,-0.01582272,-0.01208069,0.01350250,-0
 .00260432,-0.00144351,0.00101958,0.00150793,0.00094734,-0.00387226,-0.
 00128984,-0.00175624,-0.00326725,-0.08768088,-0.06378462,0.10593236,0.
 00012701,-0.00001385,-0.00161264,-0.00042325,-0.00029672,0.00028498,-0
 .00020727,-0.00001179,0.00143922,-0.00026121,-0.00029866,-0.00092566,-
 0.00109686,-0.00100618,0.00093423,-0.00033923,0.00096711,-0.00383787,0
 .00002925,0.00001395,-0.00010232,0.00000830,0.00000340,-0.00005810,0.0
 0006988,0.00012003,-0.00000411,0.00009785,0.00014237,-0.00001094,0.000
 59008,0.00106508,0.00137355,-0.00003221,0.00004406,0.00008861,0.000139
 69,0.00003665,0.00000552,0.00067044,0.00024453,-0.00106948,0.00002474,
 -0.00006180,-0.00004567,0.00030904,0.00028352,0.00026346,0.00000051,-0
 .00000161,-0.00006178,-0.00006870,-0.00010299,0.00001740,-0.00010619,-
 0.00004529,-0.00000343,0.00515213,0.00178977,0.00394264,0.00518123,-0.
 01402182,-0.02492185,-0.24760249,-0.14301823,-0.13776182,-0.05341262,-
 0.06338492,-0.02926599,0.00148353,0.00166766,-0.00094718,0.00114766,0.
 00021662,0.00180616,0.28851869,0.00009634,-0.00000072,-0.00151673,-0.0
 0037434,-0.00029818,0.00026158,-0.00011091,-0.00008387,0.00134857,-0.0
 0030282,-0.00023941,-0.00085462,-0.00117625,-0.00060360,0.00084417,0.0
 0110008,-0.00121689,-0.00326505,0.00002504,0.00001737,-0.00009101,0.00
 000747,0.00000204,-0.00005494,0.00006396,0.00011737,0.00000288,0.00014
 563,0.00002883,0.00000699,0.00110145,0.00026859,0.00121162,0.00003539,
 -0.00004897,0.00008339,0.00012098,0.00003711,0.00000157,0.00037277,0.0
 0050556,-0.00099107,-0.00006244,0.00004805,-0.00005535,0.00032236,0.00
 023402,0.00024520,0.00000235,-0.00000386,-0.00005785,-0.00006485,-0.00
 008454,-0.00000286,-0.00011233,-0.00003672,0.00001648,0.00202697,0.004
 93844,0.00303339,-0.01505850,0.00792066,-0.02453938,-0.14376449,-0.194
 98723,-0.12055024,-0.06179842,-0.02418634,-0.02180335,0.00163215,0.000
 50987,-0.00067042,0.00010328,0.00117719,0.00138836,0.21566914,0.205985
 21,0.00017651,-0.00012092,-0.00418734,-0.00098961,-0.00073461,0.000616
 27,-0.00018307,0.00008118,0.00359079,-0.00098877,-0.00090317,-0.002102
 52,-0.00185146,-0.00133269,0.00213546,-0.00166944,-0.00157086,-0.00623
 584,0.00007911,0.00005071,-0.00017818,0.00000981,-0.00000173,-0.000156
 65,0.00016848,0.00026859,0.00002690,0.00004125,0.00004783,0.00016992,0
 .00196976,0.00167703,0.00159859,-0.00005355,-0.00002774,0.00015052,0.0
 0029995,0.00010120,0.00003707,0.00103627,0.00065511,-0.00227309,-0.000
 05640,-0.00006378,-0.00022275,0.00090254,0.00074492,0.00061200,0.00000
 377,-0.00000651,-0.00015893,-0.00016977,-0.00025198,0.00003526,-0.0002
 8693,-0.00010178,0.00002487,0.00783787,0.00607619,0.00237643,-0.041924
 68,-0.03782487,-0.06192388,-0.14999206,-0.13010561,-0.28709967,-0.0032
 5467,-0.00147977,0.04286616,-0.00152951,-0.00112495,0.00042078,-0.0000
 4852,-0.00006048,0.00064046,0.19047310,0.16600867,0.30923737\\-0.00001
 370,0.00001362,0.00000044,0.00000918,0.00000015,0.00000353,0.00001576,
 -0.00001135,0.00000205,-0.00000634,-0.00000456,-0.00000392,-0.00000347
 ,-0.00000292,0.,0.00000635,0.00000468,0.00000979,0.00000122,0.00000462
 ,-0.00000158,0.00000130,-0.00000232,0.00000080,-0.00000081,-0.00000413
 ,-0.00000327,0.00000257,0.00000265,0.00000036,-0.00000188,-0.00000157,
 -0.00001196,-0.00000151,-0.00000097,0.00000307,-0.00000841,0.00000272,
 -0.00000077,0.00000196,0.00000187,0.00000729,-0.00000495,-0.00000058,-
 0.00000172,-0.00000306,-0.00000747,0.00000375,-0.00000046,-0.00000253,
 0.00000126,-0.00000201,0.00000528,0.00000035,0.00000254,-0.00000124,-0
 .00000171,-0.00000439,-0.00000172,-0.00000828,0.00000132,-0.00000304,0
 .00002111,0.00000864,0.00000617,-0.00002576,-0.00001019,-0.00000809,0.
 00000445,-0.00000030,0.00000158,-0.00000356,0.00000362,0.00000325,-0.0
 0000010,0.00000702,0.00000590,0.00000438\\\@


 IT PROBABLY IS NOT POSSIBLE FOR A SCIENTIST TO INTERROGATE NATURE 
 FROM A WHOLLY DISINTERESTED VIEWPOINT.
 EVEN IF HE HAS NO PARTICULAR AXE TO GRIND, HE IS LIKELY TO HAVE 
 A DISTINCTIVE WAY OF VIEWING NATURE.

                                                   -- JOHN LOSEE
 Job cpu time:       0 days  0 hours 23 minutes 15.3 seconds.
 File lengths (MBytes):  RWF=    211 Int=      0 D2E=      0 Chk=      7 Scr=      1
 Normal termination of Gaussian 09 at Fri Aug 20 15:56:46 2021.
