 Entering Gaussian System, Link 0=g09
 Input=B3LYP6-31G.XEKWIW.gjf
 Output=B3LYP6-31G.XEKWIW.log
 Initial command:
 /public/home/users/caep010/software/Gaussian09/g09/l1.exe "/public/home/users/caep010/.cache/gau_scr/Gau-39756.inp" -scrdir="/public/home/users/caep010/.cache/gau_scr/"
 Entering Link 1 = /public/home/users/caep010/software/Gaussian09/g09/l1.exe PID=     39757.
  
 Copyright (c) 1988,1990,1992,1993,1995,1998,2003,2009,2015,
            Gaussian, Inc.  All Rights Reserved.
  
 This is part of the Gaussian(R) 09 program.  It is based on
 the Gaussian(R) 03 system (copyright 2003, Gaussian, Inc.),
 the Gaussian(R) 98 system (copyright 1998, Gaussian, Inc.),
 the Gaussian(R) 94 system (copyright 1995, Gaussian, Inc.),
 the Gaussian 92(TM) system (copyright 1992, Gaussian, Inc.),
 the Gaussian 90(TM) system (copyright 1990, Gaussian, Inc.),
 the Gaussian 88(TM) system (copyright 1988, Gaussian, Inc.),
 the Gaussian 86(TM) system (copyright 1986, Carnegie Mellon
 University), and the Gaussian 82(TM) system (copyright 1983,
 Carnegie Mellon University). Gaussian is a federally registered
 trademark of Gaussian, Inc.
  
 This software contains proprietary and confidential information,
 including trade secrets, belonging to Gaussian, Inc.
  
 This software is provided under written license and may be
 used, copied, transmitted, or stored only in accord with that
 written license.
  
 The following legend is applicable only to US Government
 contracts under FAR:
  
                    RESTRICTED RIGHTS LEGEND
  
 Use, reproduction and disclosure by the US Government is
 subject to restrictions as set forth in subparagraphs (a)
 and (c) of the Commercial Computer Software - Restricted
 Rights clause in FAR 52.227-19.
  
 Gaussian, Inc.
 340 Quinnipiac St., Bldg. 40, Wallingford CT 06492
  
  
 ---------------------------------------------------------------
 Warning -- This program may not be used in any manner that
 competes with the business of Gaussian, Inc. or will provide
 assistance to any competitor of Gaussian, Inc.  The licensee
 of this program is prohibited from giving any competitor of
 Gaussian, Inc. access to this program.  By using this program,
 the user acknowledges that Gaussian, Inc. is engaged in the
 business of creating and licensing software in the field of
 computational chemistry and represents and warrants to the
 licensee that it is not a competitor of Gaussian, Inc. and that
 it will not use this program in any manner prohibited above.
 ---------------------------------------------------------------
  

 Cite this work as:
 Gaussian 09, Revision E.01,
 M. J. Frisch, G. W. Trucks, H. B. Schlegel, G. E. Scuseria, 
 M. A. Robb, J. R. Cheeseman, G. Scalmani, V. Barone, B. Mennucci, 
 G. A. Petersson, H. Nakatsuji, M. Caricato, X. Li, H. P. Hratchian, 
 A. F. Izmaylov, J. Bloino, G. Zheng, J. L. Sonnenberg, M. Hada, 
 M. Ehara, K. Toyota, R. Fukuda, J. Hasegawa, M. Ishida, T. Nakajima, 
 Y. Honda, O. Kitao, H. Nakai, T. Vreven, J. A. Montgomery, Jr., 
 J. E. Peralta, F. Ogliaro, M. Bearpark, J. J. Heyd, E. Brothers, 
 K. N. Kudin, V. N. Staroverov, T. Keith, R. Kobayashi, J. Normand, 
 K. Raghavachari, A. Rendell, J. C. Burant, S. S. Iyengar, J. Tomasi, 
 M. Cossi, N. Rega, J. M. Millam, M. Klene, J. E. Knox, J. B. Cross, 
 V. Bakken, C. Adamo, J. Jaramillo, R. Gomperts, R. E. Stratmann, 
 O. Yazyev, A. J. Austin, R. Cammi, C. Pomelli, J. W. Ochterski, 
 R. L. Martin, K. Morokuma, V. G. Zakrzewski, G. A. Voth, 
 P. Salvador, J. J. Dannenberg, S. Dapprich, A. D. Daniels, 
 O. Farkas, J. B. Foresman, J. V. Ortiz, J. Cioslowski, 
 and D. J. Fox, Gaussian, Inc., Wallingford CT, 2013.
 
 ******************************************
 Gaussian 09:  ES64L-G09RevE.01 30-Nov-2015
                20-Aug-2021 
 ******************************************
 %nproc=32
 Will use up to   32 processors via shared memory.
 %mem=180GB
 -------------------------
 #P OPT Freq B3LYP/6-31G**
 -------------------------
 1/14=-1,18=20,19=15,26=3,38=1/1,3;
 2/9=110,12=2,17=6,18=5,40=1/2;
 3/5=1,6=6,7=101,11=2,16=1,25=1,30=1,71=1,74=-5/1,2,3;
 4//1;
 5/5=2,38=5/2;
 6/7=2,8=2,9=2,10=2,28=1/1;
 7//1,2,3,16;
 1/14=-1,18=20,19=15,26=3/3(2);
 2/9=110/2;
 99//99;
 2/9=110/2;
 3/5=1,6=6,7=101,11=2,16=1,25=1,30=1,71=1,74=-5/1,2,3;
 4/5=5,16=3,69=1/1;
 5/5=2,38=5/2;
 7//1,2,3,16;
 1/14=-1,18=20,19=15,26=3/3(-5);
 2/9=110/2;
 6/7=2,8=2,9=2,10=2,19=2,28=1/1;
 99/9=1/99;
 Leave Link    1 at Fri Aug 20 15:59:23 2021, MaxMem= 24159191040 cpu:         2.4
 (Enter /public/home/users/caep010/software/Gaussian09/g09/l101.exe)
 ------
 XEKWIW
 ------
 Symbolic Z-matrix:
 Charge =  0 Multiplicity = 1
 C                     0.0263    9.1458    12.0185 
 H                    -0.3708    8.8822    11.2202 
 C                     0.4483    8.2176    12.9286 
 N                     0.273     6.8008    12.6262 
 O                     0.7398    5.9766    13.3778 
 O                    -0.3357    6.5004    11.6218 
 C                     0.2004    10.4749   12.3076 
 H                    -0.0674    11.1258   11.7002 
 C                     0.7758    10.8391   13.5079 
 N                     0.9684    12.1801   13.839 
 C                     0.6698    13.2578   13.461 
 O                     0.4453    14.3715   13.2271 
 C                     1.0299    8.5624    14.1198 
 H                     1.307     7.9074    14.72 
 C                     1.1952    9.8896    14.4099 
 H                     1.5882    10.1483   15.212 
 
 NAtoms=     16 NQM=       16 NQMF=       0 NMMI=      0 NMMIF=      0
                NMic=       0 NMicF=      0.
                    Isotopes and Nuclear Properties:
 (Nuclear quadrupole moments (NQMom) in fm**2, nuclear magnetic moments (NMagM)
  in nuclear magnetons)

  Atom         1           2           3           4           5           6           7           8           9          10
 IAtWgt=          12           1          12          14          16          16          12           1          12          14
 AtmWgt=  12.0000000   1.0078250  12.0000000  14.0030740  15.9949146  15.9949146  12.0000000   1.0078250  12.0000000  14.0030740
 NucSpn=           0           1           0           2           0           0           0           1           0           2
 AtZEff=   0.0000000   0.0000000   0.0000000   0.0000000   0.0000000   0.0000000   0.0000000   0.0000000   0.0000000   0.0000000
 NQMom=    0.0000000   0.0000000   0.0000000   2.0440000   0.0000000   0.0000000   0.0000000   0.0000000   0.0000000   2.0440000
 NMagM=    0.0000000   2.7928460   0.0000000   0.4037610   0.0000000   0.0000000   0.0000000   2.7928460   0.0000000   0.4037610
 AtZNuc=   6.0000000   1.0000000   6.0000000   7.0000000   8.0000000   8.0000000   6.0000000   1.0000000   6.0000000   7.0000000

  Atom        11          12          13          14          15          16
 IAtWgt=          12          16          12           1          12           1
 AtmWgt=  12.0000000  15.9949146  12.0000000   1.0078250  12.0000000   1.0078250
 NucSpn=           0           0           0           1           0           1
 AtZEff=   0.0000000   0.0000000   0.0000000   0.0000000   0.0000000   0.0000000
 NQMom=    0.0000000   0.0000000   0.0000000   0.0000000   0.0000000   0.0000000
 NMagM=    0.0000000   0.0000000   0.0000000   2.7928460   0.0000000   2.7928460
 AtZNuc=   6.0000000   8.0000000   6.0000000   1.0000000   6.0000000   1.0000000
 Leave Link  101 at Fri Aug 20 15:59:23 2021, MaxMem= 24159191040 cpu:         9.9
 (Enter /public/home/users/caep010/software/Gaussian09/g09/l103.exe)

 GradGradGradGradGradGradGradGradGradGradGradGradGradGradGradGradGradGrad
 Berny optimization.
 Initialization pass.
                           ----------------------------
                           !    Initial Parameters    !
                           ! (Angstroms and Degrees)  !
 --------------------------                            --------------------------
 ! Name  Definition              Value          Derivative Info.                !
 --------------------------------------------------------------------------------
 ! R1    R(1,2)                  0.9298         estimate D2E/DX2                !
 ! R2    R(1,3)                  1.3667         estimate D2E/DX2                !
 ! R3    R(1,7)                  1.3713         estimate D2E/DX2                !
 ! R4    R(3,4)                  1.4593         estimate D2E/DX2                !
 ! R5    R(3,13)                 1.3697         estimate D2E/DX2                !
 ! R6    R(4,5)                  1.2092         estimate D2E/DX2                !
 ! R7    R(4,6)                  1.2123         estimate D2E/DX2                !
 ! R8    R(7,8)                  0.9297         estimate D2E/DX2                !
 ! R9    R(7,9)                  1.38           estimate D2E/DX2                !
 ! R10   R(9,10)                 1.3946         estimate D2E/DX2                !
 ! R11   R(9,15)                 1.3752         estimate D2E/DX2                !
 ! R12   R(10,11)                1.1805         estimate D2E/DX2                !
 ! R13   R(11,12)                1.1599         estimate D2E/DX2                !
 ! R14   R(13,14)                0.9306         estimate D2E/DX2                !
 ! R15   R(13,15)                1.3686         estimate D2E/DX2                !
 ! R16   R(15,16)                0.9299         estimate D2E/DX2                !
 ! A1    A(2,1,3)              120.7355         estimate D2E/DX2                !
 ! A2    A(2,1,7)              120.6662         estimate D2E/DX2                !
 ! A3    A(3,1,7)              118.5983         estimate D2E/DX2                !
 ! A4    A(1,3,4)              118.966          estimate D2E/DX2                !
 ! A5    A(1,3,13)             122.6334         estimate D2E/DX2                !
 ! A6    A(4,3,13)             118.4004         estimate D2E/DX2                !
 ! A7    A(3,4,5)              119.1171         estimate D2E/DX2                !
 ! A8    A(3,4,6)              118.2032         estimate D2E/DX2                !
 ! A9    A(5,4,6)              122.6793         estimate D2E/DX2                !
 ! A10   A(1,7,8)              120.2836         estimate D2E/DX2                !
 ! A11   A(1,7,9)              119.4787         estimate D2E/DX2                !
 ! A12   A(8,7,9)              120.2376         estimate D2E/DX2                !
 ! A13   A(7,9,10)             121.1871         estimate D2E/DX2                !
 ! A14   A(7,9,15)             121.0274         estimate D2E/DX2                !
 ! A15   A(10,9,15)            117.7796         estimate D2E/DX2                !
 ! A16   A(9,10,11)            140.075          estimate D2E/DX2                !
 ! A17   A(3,13,14)            120.6738         estimate D2E/DX2                !
 ! A18   A(3,13,15)            118.6699         estimate D2E/DX2                !
 ! A19   A(14,13,15)           120.6563         estimate D2E/DX2                !
 ! A20   A(9,15,13)            119.5858         estimate D2E/DX2                !
 ! A21   A(9,15,16)            120.1706         estimate D2E/DX2                !
 ! A22   A(13,15,16)           120.2436         estimate D2E/DX2                !
 ! A23   L(10,11,12,8,-1)      188.0716         estimate D2E/DX2                !
 ! A24   L(10,11,12,8,-2)      180.0575         estimate D2E/DX2                !
 ! D1    D(2,1,3,4)              0.3241         estimate D2E/DX2                !
 ! D2    D(2,1,3,13)          -179.5661         estimate D2E/DX2                !
 ! D3    D(7,1,3,4)           -179.6991         estimate D2E/DX2                !
 ! D4    D(7,1,3,13)             0.4107         estimate D2E/DX2                !
 ! D5    D(2,1,7,8)             -0.8609         estimate D2E/DX2                !
 ! D6    D(2,1,7,9)            179.1058         estimate D2E/DX2                !
 ! D7    D(3,1,7,8)            179.1623         estimate D2E/DX2                !
 ! D8    D(3,1,7,9)             -0.871          estimate D2E/DX2                !
 ! D9    D(1,3,4,5)            174.1594         estimate D2E/DX2                !
 ! D10   D(1,3,4,6)             -5.6086         estimate D2E/DX2                !
 ! D11   D(13,3,4,5)            -5.9458         estimate D2E/DX2                !
 ! D12   D(13,3,4,6)           174.2863         estimate D2E/DX2                !
 ! D13   D(1,3,13,14)          179.9742         estimate D2E/DX2                !
 ! D14   D(1,3,13,15)           -0.0145         estimate D2E/DX2                !
 ! D15   D(4,3,13,14)            0.0835         estimate D2E/DX2                !
 ! D16   D(4,3,13,15)         -179.9053         estimate D2E/DX2                !
 ! D17   D(1,7,9,10)          -179.9301         estimate D2E/DX2                !
 ! D18   D(1,7,9,15)             0.9671         estimate D2E/DX2                !
 ! D19   D(8,7,9,10)             0.0366         estimate D2E/DX2                !
 ! D20   D(8,7,9,15)          -179.0662         estimate D2E/DX2                !
 ! D21   D(7,9,10,11)           10.3119         estimate D2E/DX2                !
 ! D22   D(15,9,10,11)        -170.557          estimate D2E/DX2                !
 ! D23   D(7,9,15,13)           -0.5677         estimate D2E/DX2                !
 ! D24   D(7,9,15,16)          179.4642         estimate D2E/DX2                !
 ! D25   D(10,9,15,13)        -179.7002         estimate D2E/DX2                !
 ! D26   D(10,9,15,16)           0.3317         estimate D2E/DX2                !
 ! D27   D(3,13,15,9)            0.088          estimate D2E/DX2                !
 ! D28   D(3,13,15,16)        -179.944          estimate D2E/DX2                !
 ! D29   D(14,13,15,9)        -179.9008         estimate D2E/DX2                !
 ! D30   D(14,13,15,16)          0.0673         estimate D2E/DX2                !
 --------------------------------------------------------------------------------
 Trust Radius=3.00D-01 FncErr=1.00D-07 GrdErr=1.00D-06
 Number of steps in this run=     80 maximum allowed number of steps=    100.
 GradGradGradGradGradGradGradGradGradGradGradGradGradGradGradGradGradGrad

 Leave Link  103 at Fri Aug 20 15:59:23 2021, MaxMem= 24159191040 cpu:         0.6
 (Enter /public/home/users/caep010/software/Gaussian09/g09/l202.exe)
                          Input orientation:                          
 ---------------------------------------------------------------------
 Center     Atomic      Atomic             Coordinates (Angstroms)
 Number     Number       Type             X           Y           Z
 ---------------------------------------------------------------------
      1          6           0        0.026300    9.145800   12.018500
      2          1           0       -0.370800    8.882200   11.220200
      3          6           0        0.448300    8.217600   12.928600
      4          7           0        0.273000    6.800800   12.626200
      5          8           0        0.739800    5.976600   13.377800
      6          8           0       -0.335700    6.500400   11.621800
      7          6           0        0.200400   10.474900   12.307600
      8          1           0       -0.067400   11.125800   11.700200
      9          6           0        0.775800   10.839100   13.507900
     10          7           0        0.968400   12.180100   13.839000
     11          6           0        0.669800   13.257800   13.461000
     12          8           0        0.445300   14.371500   13.227100
     13          6           0        1.029900    8.562400   14.119800
     14          1           0        1.307000    7.907400   14.720000
     15          6           0        1.195200    9.889600   14.409900
     16          1           0        1.588200   10.148300   15.212000
 ---------------------------------------------------------------------
                    Distance matrix (angstroms):
                    1          2          3          4          5
     1  C    0.000000
     2  H    0.929761   0.000000
     3  C    1.366719   2.007797   0.000000
     4  N    2.434992   2.592979   1.459280   0.000000
     5  O    3.521450   3.785655   2.304091   1.209178   0.000000
     6  O    2.699362   2.415675   2.295900   1.212260   2.124759
     7  C    1.371275   2.011318   2.354251   3.688602   4.655210
     8  H    2.007609   2.314345   3.198834   4.436099   5.475415
     9  C    2.376411   3.221447   2.704645   4.163901   4.864373
    10  N    3.661796   4.419017   4.098870   5.557997   6.224819
    11  C    4.404934   5.024929   5.073079   6.522821   7.282012
    12  O    5.379983   5.901363   6.161136   7.596464   8.401416
    13  C    2.400631   3.236033   1.369709   2.430427   2.705750
    14  H    3.236036   4.001731   2.010648   2.584128   2.418926
    15  C    2.763758   3.693426   2.355354   3.684118   4.072369
    16  H    3.693640   4.623328   3.200139   4.429658   4.635424
                    6          7          8          9         10
     6  O    0.000000
     7  C    4.068707   0.000000
     8  H    4.633838   0.929689   0.000000
     9  C    4.859745   1.380017   2.015183   0.000000
    10  N    6.235034   2.417171   2.599788   1.394634   0.000000
    11  C    7.075037   3.048803   2.861696   2.421476   1.180459
    12  O    8.071008   4.011103   3.623376   3.558922   2.334585
    13  C    3.515211   2.762208   3.691822   2.371150   3.629102
    14  H    3.778486   3.692735   4.622366   3.216555   4.375703
    15  C    4.647992   2.398305   3.234938   1.375155   2.371446
    16  H    5.467916   3.235459   4.003655   2.010262   2.529326
                   11         12         13         14         15
    11  C    0.000000
    12  O    1.159930   0.000000
    13  C    4.755047   5.906294   0.000000
    14  H    5.533343   6.689983   0.930618   0.000000
    15  C    3.538535   4.695614   1.368555   2.009422   0.000000
    16  H    3.684895   4.804318   2.004914   2.311443   0.929913
                   16
    16  H    0.000000
 Stoichiometry    C7H4N2O3
 Framework group  C1[X(C7H4N2O3)]
 Deg. of freedom    42
 Full point group                 C1      NOp   1
 Largest Abelian subgroup         C1      NOp   1
 Largest concise Abelian subgroup C1      NOp   1
                         Standard orientation:                         
 ---------------------------------------------------------------------
 Center     Atomic      Atomic             Coordinates (Angstroms)
 Number     Number       Type             X           Y           Z
 ---------------------------------------------------------------------
      1          6           0        0.623859   -1.118007   -0.061027
      2          1           0        1.000555   -1.967824   -0.080217
      3          6           0        1.414454   -0.004659   -0.003277
      4          7           0        2.864369   -0.167952    0.020789
      5          8           0        3.568051    0.813753   -0.035748
      6          8           0        3.313222   -1.291742    0.092910
      7          6           0       -0.737465   -0.955600   -0.089613
      8          1           0       -1.297012   -1.696294   -0.140622
      9          6           0       -1.270813    0.316272   -0.041366
     10          7           0       -2.649875    0.522536   -0.066812
     11          6           0       -3.657938   -0.086446    0.013388
     12          8           0       -4.722645   -0.539411    0.094993
     13          6           0        0.901077    1.264614    0.035379
     14          1           0        1.465033    2.003834    0.074833
     15          6           0       -0.458005    1.424067    0.015057
     16          1           0       -0.830068    2.275948    0.039681
 ---------------------------------------------------------------------
 Rotational constants (GHZ):      3.7833424      0.4272990      0.3842771
 Leave Link  202 at Fri Aug 20 15:59:23 2021, MaxMem= 24159191040 cpu:         1.2
 (Enter /public/home/users/caep010/software/Gaussian09/g09/l301.exe)
 Standard basis: 6-31G(d,p) (6D, 7F)
 Ernie: Thresh=  0.10000D-02 Tol=  0.10000D-05 Strict=F.
 There are   200 symmetry adapted cartesian basis functions of A   symmetry.
 There are   200 symmetry adapted basis functions of A   symmetry.
   200 basis functions,   364 primitive gaussians,   200 cartesian basis functions
    42 alpha electrons       42 beta electrons
       nuclear repulsion energy       626.5331699296 Hartrees.
 IExCor=  402 DFT=T Ex+Corr=B3LYP ExCW=0 ScaHFX=  0.200000
 ScaDFX=  0.800000  0.720000  1.000000  0.810000 ScalE2=  1.000000  1.000000
 IRadAn=      0 IRanWt=     -1 IRanGd=            0 ICorTp=0 IEmpDi=  4
 NAtoms=   16 NActive=   16 NUniq=   16 SFac= 1.00D+00 NAtFMM=   60 NAOKFM=F Big=F
 Integral buffers will be    131072 words long.
 Raffenetti 2 integral format.
 Two-electron integral symmetry is turned on.
 Leave Link  301 at Fri Aug 20 15:59:23 2021, MaxMem= 24159191040 cpu:         2.1
 (Enter /public/home/users/caep010/software/Gaussian09/g09/l302.exe)
 NPDir=0 NMtPBC=     1 NCelOv=     1 NCel=       1 NClECP=     1 NCelD=      1
         NCelK=      1 NCelE2=     1 NClLst=     1 CellRange=     0.0.
 One-electron integrals computed using PRISM.
 NBasis=   200 RedAO= T EigKep=  3.25D-04  NBF=   200
 NBsUse=   200 1.00D-06 EigRej= -1.00D+00 NBFU=   200
 Precomputing XC quadrature grid using
 IXCGrd= 4 IRadAn=           0 IRanWt=          -1 IRanGd=           0 AccXCQ= 0.00D+00.
 Generated NRdTot=       0 NPtTot=           0 NUsed=           0 NTot=          32
 NSgBfM=   198   198   198   198   198 MxSgAt=    16 MxSgA2=    16.
 Leave Link  302 at Fri Aug 20 15:59:24 2021, MaxMem= 24159191040 cpu:        14.2
 (Enter /public/home/users/caep010/software/Gaussian09/g09/l303.exe)
 DipDrv:  MaxL=1.
 Leave Link  303 at Fri Aug 20 15:59:24 2021, MaxMem= 24159191040 cpu:         1.6
 (Enter /public/home/users/caep010/software/Gaussian09/g09/l401.exe)
 ExpMin= 1.61D-01 ExpMax= 5.48D+03 ExpMxC= 8.25D+02 IAcc=1 IRadAn=         1 AccDes= 0.00D+00
 Harris functional with IExCor=  402 and IRadAn=       1 diagonalized for initial guess.
 HarFok:  IExCor=  402 AccDes= 0.00D+00 IRadAn=         1 IDoV= 1 UseB2=F ITyADJ=14
 ICtDFT=  3500011 ScaDFX=  1.000000  1.000000  1.000000  1.000000
 FoFCou: FMM=F IPFlag=           0 FMFlag=      100000 FMFlg1=           0
         NFxFlg=           0 DoJE=T BraDBF=F KetDBF=T FulRan=T
         wScrn=  0.000000 ICntrl=     500 IOpCl=  0 I1Cent=   200000004 NGrid=           0
         NMat0=    1 NMatS0=      1 NMatT0=    0 NMatD0=    1 NMtDS0=    0 NMtDT0=    0
 Petite list used in FoFCou.
 Harris En= -604.219377571901    
 JPrj=0 DoOrth=F DoCkMO=F.
 Leave Link  401 at Fri Aug 20 15:59:25 2021, MaxMem= 24159191040 cpu:        10.6
 (Enter /public/home/users/caep010/software/Gaussian09/g09/l502.exe)
 Closed shell SCF:
 Using DIIS extrapolation, IDIIS=  1040.
 Integral symmetry usage will be decided dynamically.
 Keep R1 ints in memory in canonical form, NReq=206221692.
 IVT=      146442 IEndB=      146442 NGot= 24159191040 MDV= 23957029549
 LenX= 23957029549 LenY= 23956989108
 Requested convergence on RMS density matrix=1.00D-08 within 128 cycles.
 Requested convergence on MAX density matrix=1.00D-06.
 Requested convergence on             energy=1.00D-06.
 No special actions if energy rises.
 FoFCou: FMM=F IPFlag=           0 FMFlag=           0 FMFlg1=           0
         NFxFlg=           0 DoJE=F BraDBF=F KetDBF=F FulRan=T
         wScrn=  0.000000 ICntrl=     600 IOpCl=  0 I1Cent=           0 NGrid=           0
         NMat0=    1 NMatS0=  20100 NMatT0=    0 NMatD0=    1 NMtDS0=    0 NMtDT0=    0
 Symmetry not used in FoFCou.
 Integral accuracy reduced to 1.0D-05 until final iterations.

 Cycle   1  Pass 0  IDiag  1:
 E= -603.798497355758    
 DIIS: error= 4.77D-02 at cycle   1 NSaved=   1.
 NSaved= 1 IEnMin= 1 EnMin= -603.798497355758     IErMin= 1 ErrMin= 4.77D-02
 ErrMax= 4.77D-02  0.00D+00 EMaxC= 1.00D-01 BMatC= 4.28D-01 BMatP= 4.28D-01
 IDIUse=3 WtCom= 5.23D-01 WtEn= 4.77D-01
 Coeff-Com:  0.100D+01
 Coeff-En:   0.100D+01
 Coeff:      0.100D+01
 Gap=     0.201 Goal=   None    Shift=    0.000
 GapD=    0.201 DampG=1.000 DampE=0.500 DampFc=0.5000 IDamp=-1.
 Damping current iteration by 5.00D-01
 RMSDP=6.63D-03 MaxDP=2.43D-01              OVMax= 3.37D-01

 Cycle   2  Pass 0  IDiag  1:
 E= -603.896406288114     Delta-E=       -0.097908932356 Rises=F Damp=T
 DIIS: error= 1.73D-02 at cycle   2 NSaved=   2.
 NSaved= 2 IEnMin= 2 EnMin= -603.896406288114     IErMin= 2 ErrMin= 1.73D-02
 ErrMax= 1.73D-02  0.00D+00 EMaxC= 1.00D-01 BMatC= 6.81D-02 BMatP= 4.28D-01
 IDIUse=3 WtCom= 8.27D-01 WtEn= 1.73D-01
 Coeff-Com:  0.231D+00 0.769D+00
 Coeff-En:   0.343D+00 0.657D+00
 Coeff:      0.251D+00 0.749D+00
 Gap=     0.192 Goal=   None    Shift=    0.000
 RMSDP=1.86D-03 MaxDP=7.05D-02 DE=-9.79D-02 OVMax= 2.35D-01

 Cycle   3  Pass 0  IDiag  1:
 E= -604.126730669107     Delta-E=       -0.230324380993 Rises=F Damp=F
 DIIS: error= 8.12D-03 at cycle   3 NSaved=   3.
 NSaved= 3 IEnMin= 3 EnMin= -604.126730669107     IErMin= 3 ErrMin= 8.12D-03
 ErrMax= 8.12D-03  0.00D+00 EMaxC= 1.00D-01 BMatC= 2.24D-02 BMatP= 6.81D-02
 IDIUse=3 WtCom= 9.19D-01 WtEn= 8.12D-02
 Coeff-Com:  0.702D-01 0.362D+00 0.567D+00
 Coeff-En:   0.000D+00 0.000D+00 0.100D+01
 Coeff:      0.645D-01 0.333D+00 0.602D+00
 Gap=     0.183 Goal=   None    Shift=    0.000
 RMSDP=1.07D-03 MaxDP=3.29D-02 DE=-2.30D-01 OVMax= 6.32D-02

 Cycle   4  Pass 0  IDiag  1:
 E= -604.138445738266     Delta-E=       -0.011715069159 Rises=F Damp=F
 DIIS: error= 7.38D-03 at cycle   4 NSaved=   4.
 NSaved= 4 IEnMin= 4 EnMin= -604.138445738266     IErMin= 4 ErrMin= 7.38D-03
 ErrMax= 7.38D-03  0.00D+00 EMaxC= 1.00D-01 BMatC= 1.00D-02 BMatP= 2.24D-02
 IDIUse=3 WtCom= 9.26D-01 WtEn= 7.38D-02
 Coeff-Com:  0.251D-01 0.128D+00 0.402D+00 0.444D+00
 Coeff-En:   0.000D+00 0.000D+00 0.320D+00 0.680D+00
 Coeff:      0.233D-01 0.119D+00 0.396D+00 0.462D+00
 Gap=     0.179 Goal=   None    Shift=    0.000
 RMSDP=5.17D-04 MaxDP=2.04D-02 DE=-1.17D-02 OVMax= 4.04D-02

 Cycle   5  Pass 0  IDiag  1:
 E= -604.145977966576     Delta-E=       -0.007532228310 Rises=F Damp=F
 DIIS: error= 2.94D-03 at cycle   5 NSaved=   5.
 NSaved= 5 IEnMin= 5 EnMin= -604.145977966576     IErMin= 5 ErrMin= 2.94D-03
 ErrMax= 2.94D-03  0.00D+00 EMaxC= 1.00D-01 BMatC= 1.36D-03 BMatP= 1.00D-02
 IDIUse=3 WtCom= 9.71D-01 WtEn= 2.94D-02
 Coeff-Com:  0.767D-02 0.267D-01 0.182D+00 0.312D+00 0.471D+00
 Coeff-En:   0.000D+00 0.000D+00 0.000D+00 0.999D-01 0.900D+00
 Coeff:      0.745D-02 0.260D-01 0.177D+00 0.306D+00 0.484D+00
 Gap=     0.179 Goal=   None    Shift=    0.000
 RMSDP=1.95D-04 MaxDP=6.31D-03 DE=-7.53D-03 OVMax= 1.22D-02

 Cycle   6  Pass 0  IDiag  1:
 E= -604.146920210369     Delta-E=       -0.000942243793 Rises=F Damp=F
 DIIS: error= 7.46D-04 at cycle   6 NSaved=   6.
 NSaved= 6 IEnMin= 6 EnMin= -604.146920210369     IErMin= 6 ErrMin= 7.46D-04
 ErrMax= 7.46D-04  0.00D+00 EMaxC= 1.00D-01 BMatC= 1.89D-04 BMatP= 1.36D-03
 IDIUse=3 WtCom= 9.93D-01 WtEn= 7.46D-03
 Coeff-Com:  0.157D-02 0.776D-03 0.626D-01 0.137D+00 0.324D+00 0.474D+00
 Coeff-En:   0.000D+00 0.000D+00 0.000D+00 0.000D+00 0.151D+00 0.849D+00
 Coeff:      0.156D-02 0.770D-03 0.622D-01 0.136D+00 0.322D+00 0.477D+00
 Gap=     0.179 Goal=   None    Shift=    0.000
 RMSDP=7.34D-05 MaxDP=2.28D-03 DE=-9.42D-04 OVMax= 4.70D-03

 Cycle   7  Pass 0  IDiag  1:
 E= -604.147086959656     Delta-E=       -0.000166749286 Rises=F Damp=F
 DIIS: error= 2.36D-04 at cycle   7 NSaved=   7.
 NSaved= 7 IEnMin= 7 EnMin= -604.147086959656     IErMin= 7 ErrMin= 2.36D-04
 ErrMax= 2.36D-04  0.00D+00 EMaxC= 1.00D-01 BMatC= 9.39D-06 BMatP= 1.89D-04
 IDIUse=3 WtCom= 9.98D-01 WtEn= 2.36D-03
 Coeff-Com:  0.376D-03-0.107D-02 0.242D-01 0.579D-01 0.154D+00 0.279D+00
 Coeff-Com:  0.486D+00
 Coeff-En:   0.000D+00 0.000D+00 0.000D+00 0.000D+00 0.000D+00 0.000D+00
 Coeff-En:   0.100D+01
 Coeff:      0.376D-03-0.107D-02 0.242D-01 0.577D-01 0.153D+00 0.278D+00
 Coeff:      0.487D+00
 Gap=     0.179 Goal=   None    Shift=    0.000
 RMSDP=1.93D-05 MaxDP=8.33D-04 DE=-1.67D-04 OVMax= 1.64D-03

 Cycle   8  Pass 0  IDiag  1:
 E= -604.147093639796     Delta-E=       -0.000006680140 Rises=F Damp=F
 DIIS: error= 1.80D-04 at cycle   8 NSaved=   8.
 NSaved= 8 IEnMin= 8 EnMin= -604.147093639796     IErMin= 8 ErrMin= 1.80D-04
 ErrMax= 1.80D-04  0.00D+00 EMaxC= 1.00D-01 BMatC= 2.65D-06 BMatP= 9.39D-06
 IDIUse=3 WtCom= 9.98D-01 WtEn= 1.80D-03
 Coeff-Com:  0.459D-04-0.922D-03 0.946D-02 0.246D-01 0.709D-01 0.145D+00
 Coeff-Com:  0.361D+00 0.390D+00
 Coeff-En:   0.000D+00 0.000D+00 0.000D+00 0.000D+00 0.000D+00 0.000D+00
 Coeff-En:   0.198D+00 0.802D+00
 Coeff:      0.458D-04-0.920D-03 0.944D-02 0.245D-01 0.707D-01 0.145D+00
 Coeff:      0.361D+00 0.391D+00
 Gap=     0.179 Goal=   None    Shift=    0.000
 RMSDP=8.31D-06 MaxDP=4.58D-04 DE=-6.68D-06 OVMax= 8.90D-04

 Initial convergence to 1.0D-05 achieved.  Increase integral accuracy.
 Cycle   9  Pass 1  IDiag  1:
 E= -604.147094114137     Delta-E=       -0.000000474341 Rises=F Damp=F
 DIIS: error= 4.99D-05 at cycle   1 NSaved=   1.
 NSaved= 1 IEnMin= 1 EnMin= -604.147094114137     IErMin= 1 ErrMin= 4.99D-05
 ErrMax= 4.99D-05  0.00D+00 EMaxC= 1.00D-01 BMatC= 3.65D-07 BMatP= 3.65D-07
 IDIUse=1 WtCom= 1.00D+00 WtEn= 0.00D+00
 Coeff-Com:  0.100D+01
 Coeff:      0.100D+01
 Gap=     0.179 Goal=   None    Shift=    0.000
 RMSDP=8.31D-06 MaxDP=4.58D-04 DE=-4.74D-07 OVMax= 7.77D-04

 Cycle  10  Pass 1  IDiag  1:
 E= -604.147092781688     Delta-E=        0.000001332449 Rises=F Damp=F
 DIIS: error= 1.55D-04 at cycle   2 NSaved=   2.
 NSaved= 2 IEnMin= 1 EnMin= -604.147094114137     IErMin= 1 ErrMin= 4.99D-05
 ErrMax= 1.55D-04  0.00D+00 EMaxC= 1.00D-01 BMatC= 1.99D-06 BMatP= 3.65D-07
 IDIUse=3 WtCom= 4.46D-01 WtEn= 5.54D-01
 Coeff-Com:  0.713D+00 0.287D+00
 Coeff-En:   0.791D+00 0.209D+00
 Coeff:      0.756D+00 0.244D+00
 Gap=     0.179 Goal=   None    Shift=    0.000
 RMSDP=5.56D-06 MaxDP=2.82D-04 DE= 1.33D-06 OVMax= 5.88D-04

 Cycle  11  Pass 1  IDiag  1:
 E= -604.147094421868     Delta-E=       -0.000001640180 Rises=F Damp=F
 DIIS: error= 1.69D-05 at cycle   3 NSaved=   3.
 NSaved= 3 IEnMin= 3 EnMin= -604.147094421868     IErMin= 3 ErrMin= 1.69D-05
 ErrMax= 1.69D-05  0.00D+00 EMaxC= 1.00D-01 BMatC= 3.02D-08 BMatP= 3.65D-07
 IDIUse=1 WtCom= 1.00D+00 WtEn= 0.00D+00
 Coeff-Com:  0.276D+00 0.666D-01 0.658D+00
 Coeff:      0.276D+00 0.666D-01 0.658D+00
 Gap=     0.179 Goal=   None    Shift=    0.000
 RMSDP=1.47D-06 MaxDP=4.94D-05 DE=-1.64D-06 OVMax= 1.20D-04

 Cycle  12  Pass 1  IDiag  1:
 E= -604.147094438473     Delta-E=       -0.000000016605 Rises=F Damp=F
 DIIS: error= 1.15D-05 at cycle   4 NSaved=   4.
 NSaved= 4 IEnMin= 4 EnMin= -604.147094438473     IErMin= 4 ErrMin= 1.15D-05
 ErrMax= 1.15D-05  0.00D+00 EMaxC= 1.00D-01 BMatC= 1.42D-08 BMatP= 3.02D-08
 IDIUse=1 WtCom= 1.00D+00 WtEn= 0.00D+00
 Coeff-Com:  0.192D-02-0.276D-01 0.451D+00 0.575D+00
 Coeff:      0.192D-02-0.276D-01 0.451D+00 0.575D+00
 Gap=     0.179 Goal=   None    Shift=    0.000
 RMSDP=7.04D-07 MaxDP=2.11D-05 DE=-1.66D-08 OVMax= 5.64D-05

 Cycle  13  Pass 1  IDiag  1:
 E= -604.147094451564     Delta-E=       -0.000000013091 Rises=F Damp=F
 DIIS: error= 2.80D-06 at cycle   5 NSaved=   5.
 NSaved= 5 IEnMin= 5 EnMin= -604.147094451564     IErMin= 5 ErrMin= 2.80D-06
 ErrMax= 2.80D-06  0.00D+00 EMaxC= 1.00D-01 BMatC= 1.65D-09 BMatP= 1.42D-08
 IDIUse=1 WtCom= 1.00D+00 WtEn= 0.00D+00
 Coeff-Com: -0.122D-01-0.225D-01 0.281D+00 0.394D+00 0.360D+00
 Coeff:     -0.122D-01-0.225D-01 0.281D+00 0.394D+00 0.360D+00
 Gap=     0.179 Goal=   None    Shift=    0.000
 RMSDP=1.98D-07 MaxDP=6.22D-06 DE=-1.31D-08 OVMax= 1.24D-05

 Cycle  14  Pass 1  IDiag  1:
 E= -604.147094453040     Delta-E=       -0.000000001477 Rises=F Damp=F
 DIIS: error= 6.43D-07 at cycle   6 NSaved=   6.
 NSaved= 6 IEnMin= 6 EnMin= -604.147094453040     IErMin= 6 ErrMin= 6.43D-07
 ErrMax= 6.43D-07  0.00D+00 EMaxC= 1.00D-01 BMatC= 6.92D-11 BMatP= 1.65D-09
 IDIUse=1 WtCom= 1.00D+00 WtEn= 0.00D+00
 Coeff-Com: -0.774D-02-0.122D-01 0.143D+00 0.206D+00 0.225D+00 0.446D+00
 Coeff:     -0.774D-02-0.122D-01 0.143D+00 0.206D+00 0.225D+00 0.446D+00
 Gap=     0.179 Goal=   None    Shift=    0.000
 RMSDP=4.45D-08 MaxDP=1.92D-06 DE=-1.48D-09 OVMax= 3.32D-06

 Cycle  15  Pass 1  IDiag  1:
 E= -604.147094453088     Delta-E=       -0.000000000048 Rises=F Damp=F
 DIIS: error= 1.72D-07 at cycle   7 NSaved=   7.
 NSaved= 7 IEnMin= 7 EnMin= -604.147094453088     IErMin= 7 ErrMin= 1.72D-07
 ErrMax= 1.72D-07  0.00D+00 EMaxC= 1.00D-01 BMatC= 8.43D-12 BMatP= 6.92D-11
 IDIUse=1 WtCom= 1.00D+00 WtEn= 0.00D+00
 Coeff-Com: -0.226D-02-0.307D-02 0.331D-01 0.501D-01 0.699D-01 0.282D+00
 Coeff-Com:  0.571D+00
 Coeff:     -0.226D-02-0.307D-02 0.331D-01 0.501D-01 0.699D-01 0.282D+00
 Coeff:      0.571D+00
 Gap=     0.179 Goal=   None    Shift=    0.000
 RMSDP=1.49D-08 MaxDP=5.54D-07 DE=-4.75D-11 OVMax= 8.63D-07

 Cycle  16  Pass 1  IDiag  1:
 E= -604.147094453086     Delta-E=        0.000000000002 Rises=F Damp=F
 DIIS: error= 7.18D-08 at cycle   8 NSaved=   8.
 NSaved= 8 IEnMin= 7 EnMin= -604.147094453088     IErMin= 8 ErrMin= 7.18D-08
 ErrMax= 7.18D-08  0.00D+00 EMaxC= 1.00D-01 BMatC= 1.08D-12 BMatP= 8.43D-12
 IDIUse=1 WtCom= 1.00D+00 WtEn= 0.00D+00
 Coeff-Com: -0.680D-03-0.709D-03 0.696D-02 0.116D-01 0.222D-01 0.133D+00
 Coeff-Com:  0.355D+00 0.472D+00
 Coeff:     -0.680D-03-0.709D-03 0.696D-02 0.116D-01 0.222D-01 0.133D+00
 Coeff:      0.355D+00 0.472D+00
 Gap=     0.179 Goal=   None    Shift=    0.000
 RMSDP=4.29D-09 MaxDP=1.91D-07 DE= 1.82D-12 OVMax= 2.65D-07

 SCF Done:  E(RB3LYP) =  -604.147094453     A.U. after   16 cycles
            NFock= 16  Conv=0.43D-08     -V/T= 2.0059
 KE= 6.006108132467D+02 PE=-2.663688592743D+03 EE= 8.323975151136D+02
 Leave Link  502 at Fri Aug 20 15:59:32 2021, MaxMem= 24159191040 cpu:        80.4
 (Enter /public/home/users/caep010/software/Gaussian09/g09/l601.exe)
 Copying SCF densities to generalized density rwf, IOpCl= 0 IROHF=0.

 **********************************************************************

            Population analysis using the SCF density.

 **********************************************************************

 Orbital symmetries:
       Occupied  (A) (A) (A) (A) (A) (A) (A) (A) (A) (A) (A) (A)
                 (A) (A) (A) (A) (A) (A) (A) (A) (A) (A) (A) (A)
                 (A) (A) (A) (A) (A) (A) (A) (A) (A) (A) (A) (A)
                 (A) (A) (A) (A) (A) (A)
       Virtual   (A) (A) (A) (A) (A) (A) (A) (A) (A) (A) (A) (A)
                 (A) (A) (A) (A) (A) (A) (A) (A) (A) (A) (A) (A)
                 (A) (A) (A) (A) (A) (A) (A) (A) (A) (A) (A) (A)
                 (A) (A) (A) (A) (A) (A) (A) (A) (A) (A) (A) (A)
                 (A) (A) (A) (A) (A) (A) (A) (A) (A) (A) (A) (A)
                 (A) (A) (A) (A) (A) (A) (A) (A) (A) (A) (A) (A)
                 (A) (A) (A) (A) (A) (A) (A) (A) (A) (A) (A) (A)
                 (A) (A) (A) (A) (A) (A) (A) (A) (A) (A) (A) (A)
                 (A) (A) (A) (A) (A) (A) (A) (A) (A) (A) (A) (A)
                 (A) (A) (A) (A) (A) (A) (A) (A) (A) (A) (A) (A)
                 (A) (A) (A) (A) (A) (A) (A) (A) (A) (A) (A) (A)
                 (A) (A) (A) (A) (A) (A) (A) (A) (A) (A) (A) (A)
                 (A) (A) (A) (A) (A) (A) (A) (A) (A) (A) (A) (A)
                 (A) (A)
 The electronic state is 1-A.
 Alpha  occ. eigenvalues --  -19.21880 -19.18183 -19.18045 -14.57635 -14.38965
 Alpha  occ. eigenvalues --  -10.34694 -10.27946 -10.25594 -10.21557 -10.21403
 Alpha  occ. eigenvalues --  -10.21248 -10.20837  -1.24686  -1.13296  -1.06445
 Alpha  occ. eigenvalues --   -1.00344  -0.91725  -0.83491  -0.81221  -0.74120
 Alpha  occ. eigenvalues --   -0.68274  -0.64484  -0.62138  -0.56117  -0.54699
 Alpha  occ. eigenvalues --   -0.53033  -0.52225  -0.51649  -0.50359  -0.49595
 Alpha  occ. eigenvalues --   -0.49062  -0.47155  -0.45008  -0.42326  -0.41221
 Alpha  occ. eigenvalues --   -0.35646  -0.33060  -0.31512  -0.31483  -0.29670
 Alpha  occ. eigenvalues --   -0.29264  -0.27049
 Alpha virt. eigenvalues --   -0.09120  -0.04055  -0.01355   0.00235   0.07406
 Alpha virt. eigenvalues --    0.11316   0.11599   0.15392   0.15916   0.17365
 Alpha virt. eigenvalues --    0.19620   0.20793   0.24411   0.27229   0.27720
 Alpha virt. eigenvalues --    0.29690   0.30647   0.36210   0.37224   0.39352
 Alpha virt. eigenvalues --    0.45618   0.46994   0.48444   0.49321   0.49666
 Alpha virt. eigenvalues --    0.51647   0.54180   0.55743   0.55874   0.56755
 Alpha virt. eigenvalues --    0.57920   0.58765   0.59681   0.62705   0.64896
 Alpha virt. eigenvalues --    0.65486   0.70189   0.72422   0.73506   0.76067
 Alpha virt. eigenvalues --    0.76334   0.76855   0.79474   0.82502   0.82902
 Alpha virt. eigenvalues --    0.87362   0.88511   0.89746   0.90472   0.92884
 Alpha virt. eigenvalues --    0.94166   0.95313   0.96950   0.98090   0.98732
 Alpha virt. eigenvalues --    0.99005   1.00578   1.03542   1.06080   1.08096
 Alpha virt. eigenvalues --    1.10035   1.15775   1.17366   1.19142   1.20155
 Alpha virt. eigenvalues --    1.22845   1.25566   1.27393   1.31765   1.34345
 Alpha virt. eigenvalues --    1.34745   1.35511   1.35978   1.40416   1.41465
 Alpha virt. eigenvalues --    1.42845   1.45143   1.47399   1.49553   1.55173
 Alpha virt. eigenvalues --    1.56139   1.64066   1.68519   1.70495   1.73819
 Alpha virt. eigenvalues --    1.76619   1.79137   1.80701   1.81014   1.82712
 Alpha virt. eigenvalues --    1.83007   1.87529   1.89187   1.92444   1.93294
 Alpha virt. eigenvalues --    1.94426   1.96941   1.97911   1.99441   2.00551
 Alpha virt. eigenvalues --    2.02358   2.05107   2.08678   2.10324   2.11849
 Alpha virt. eigenvalues --    2.12107   2.15165   2.17311   2.26749   2.28075
 Alpha virt. eigenvalues --    2.31779   2.34471   2.39325   2.45377   2.46386
 Alpha virt. eigenvalues --    2.47645   2.49163   2.52070   2.52375   2.56831
 Alpha virt. eigenvalues --    2.60198   2.62298   2.64058   2.71967   2.72864
 Alpha virt. eigenvalues --    2.76326   2.77707   2.80773   2.87194   2.87720
 Alpha virt. eigenvalues --    2.88977   2.91127   2.97670   2.98545   3.02772
 Alpha virt. eigenvalues --    3.07318   3.12292   3.21233   3.28437   3.36957
 Alpha virt. eigenvalues --    3.40993   3.63581   3.70149   3.75217   3.78084
 Alpha virt. eigenvalues --    3.92024   3.94604   3.98401   4.04970   4.10935
 Alpha virt. eigenvalues --    4.11214   4.16191   4.23111   4.40333   4.44031
 Alpha virt. eigenvalues --    4.45154   4.72657   4.95281
          Condensed to atoms (all electrons):
               1          2          3          4          5          6
     1  C    4.934661   0.368180   0.484158  -0.043199   0.008457  -0.002576
     2  H    0.368180   0.603027  -0.038943  -0.017151   0.000325   0.023366
     3  C    0.484158  -0.038943   4.967322   0.163617  -0.097142  -0.098379
     4  N   -0.043199  -0.017151   0.163617   5.947597   0.305732   0.304620
     5  O    0.008457   0.000325  -0.097142   0.305732   8.286514  -0.122484
     6  O   -0.002576   0.023366  -0.098379   0.304620  -0.122484   8.288378
     7  C    0.461191  -0.040989  -0.012135   0.004977  -0.000050   0.001102
     8  H   -0.044831  -0.009213   0.005854  -0.000142   0.000001  -0.000003
     9  C   -0.004715   0.005914  -0.051199   0.000251  -0.000016  -0.000011
    10  N    0.008382  -0.000167   0.000338   0.000000   0.000000   0.000000
    11  C    0.000291  -0.000004  -0.000002  -0.000000   0.000000   0.000000
    12  O   -0.000005   0.000000   0.000000   0.000000  -0.000000   0.000000
    13  C   -0.092228   0.009278   0.479347  -0.043244  -0.003012   0.008418
    14  H    0.009428  -0.000291  -0.041583  -0.017068   0.022881   0.000344
    15  C   -0.044176   0.000369  -0.011520   0.004537   0.001079  -0.000053
    16  H    0.000354   0.000039   0.006566  -0.000139  -0.000001   0.000001
               7          8          9         10         11         12
     1  C    0.461191  -0.044831  -0.004715   0.008382   0.000291  -0.000005
     2  H   -0.040989  -0.009213   0.005914  -0.000167  -0.000004   0.000000
     3  C   -0.012135   0.005854  -0.051199   0.000338  -0.000002   0.000000
     4  N    0.004977  -0.000142   0.000251   0.000000  -0.000000   0.000000
     5  O   -0.000050   0.000001  -0.000016   0.000000   0.000000  -0.000000
     6  O    0.001102  -0.000003  -0.000011   0.000000   0.000000   0.000000
     7  C    4.909375   0.379439   0.525591  -0.074600  -0.011343   0.000322
     8  H    0.379439   0.646043  -0.050120  -0.013678   0.003964   0.000321
     9  C    0.525591  -0.050120   4.631892   0.295716  -0.064770  -0.000733
    10  N   -0.074600  -0.013678   0.295716   6.806376   0.568677  -0.029660
    11  C   -0.011343   0.003964  -0.064770   0.568677   4.280619   0.615879
    12  O    0.000322   0.000321  -0.000733  -0.029660   0.615879   7.793049
    13  C   -0.046409   0.000855  -0.009205   0.004844  -0.000187   0.000001
    14  H    0.000110   0.000038   0.006426  -0.000160   0.000002   0.000000
    15  C   -0.066610   0.008377   0.510418  -0.069381   0.005990  -0.000065
    16  H    0.010060  -0.000303  -0.048062  -0.006168  -0.000056  -0.000008
              13         14         15         16
     1  C   -0.092228   0.009428  -0.044176   0.000354
     2  H    0.009278  -0.000291   0.000369   0.000039
     3  C    0.479347  -0.041583  -0.011520   0.006566
     4  N   -0.043244  -0.017068   0.004537  -0.000139
     5  O   -0.003012   0.022881   0.001079  -0.000001
     6  O    0.008418   0.000344  -0.000053   0.000001
     7  C   -0.046409   0.000110  -0.066610   0.010060
     8  H    0.000855   0.000038   0.008377  -0.000303
     9  C   -0.009205   0.006426   0.510418  -0.048062
    10  N    0.004844  -0.000160  -0.069381  -0.006168
    11  C   -0.000187   0.000002   0.005990  -0.000056
    12  O    0.000001   0.000000  -0.000065  -0.000008
    13  C    4.920509   0.372721   0.481572  -0.046565
    14  H    0.372721   0.605047  -0.043606  -0.009950
    15  C    0.481572  -0.043606   4.885057   0.375238
    16  H   -0.046565  -0.009950   0.375238   0.639236
 Mulliken charges:
               1
     1  C   -0.043373
     2  H    0.096260
     3  C    0.243703
     4  N    0.389613
     5  O   -0.402284
     6  O   -0.402724
     7  C   -0.040033
     8  H    0.073396
     9  C    0.252623
    10  N   -0.490519
    11  C    0.600941
    12  O   -0.379101
    13  C   -0.036694
    14  H    0.095661
    15  C   -0.037227
    16  H    0.079759
 Sum of Mulliken charges =  -0.00000
 Mulliken charges with hydrogens summed into heavy atoms:
               1
     1  C    0.052887
     3  C    0.243703
     4  N    0.389613
     5  O   -0.402284
     6  O   -0.402724
     7  C    0.033363
     9  C    0.252623
    10  N   -0.490519
    11  C    0.600941
    12  O   -0.379101
    13  C    0.058967
    15  C    0.042532
 Electronic spatial extent (au):  <R**2>=           2549.5131
 Charge=             -0.0000 electrons
 Dipole moment (field-independent basis, Debye):
    X=             -2.5611    Y=              0.4784    Z=             -0.0902  Tot=              2.6070
 Quadrupole moment (field-independent basis, Debye-Ang):
   XX=            -91.3747   YY=            -61.7796   ZZ=            -64.4677
   XY=              0.5501   XZ=              0.2408   YZ=              0.7677
 Traceless Quadrupole moment (field-independent basis, Debye-Ang):
   XX=            -18.8340   YY=             10.7611   ZZ=              8.0730
   XY=              0.5501   XZ=              0.2408   YZ=              0.7677
 Octapole moment (field-independent basis, Debye-Ang**2):
  XXX=             -0.0026  YYY=              1.2127  ZZZ=              0.8634  XYY=             -5.7683
  XXY=             12.5367  XXZ=             -2.4810  XZZ=              4.1922  YZZ=             -1.8765
  YYZ=             -0.0825  XYZ=              0.4038
 Hexadecapole moment (field-independent basis, Debye-Ang**3):
 XXXX=          -3223.7130 YYYY=           -358.4976 ZZZZ=            -58.5109 XXXY=            -50.3329
 XXXZ=              9.4103 YYYX=             13.4786 YYYZ=              1.6068 ZZZX=             -0.8858
 ZZZY=             -0.6353 XXYY=           -533.0639 XXZZ=           -424.1198 YYZZ=            -76.5255
 XXYZ=              5.8364 YYXZ=             -0.6832 ZZXY=              1.0883
 N-N= 6.265331699296D+02 E-N=-2.663688590923D+03  KE= 6.006108132467D+02
 No NMR shielding tensors so no spin-rotation constants.
 Leave Link  601 at Fri Aug 20 15:59:32 2021, MaxMem= 24159191040 cpu:        10.9
 (Enter /public/home/users/caep010/software/Gaussian09/g09/l701.exe)
 Compute integral first derivatives.
 ... and contract with generalized density number  0.
 Leave Link  701 at Fri Aug 20 15:59:33 2021, MaxMem= 24159191040 cpu:        11.7
 (Enter /public/home/users/caep010/software/Gaussian09/g09/l702.exe)
 L702 exits ... SP integral derivatives will be done elsewhere.
 Leave Link  702 at Fri Aug 20 15:59:33 2021, MaxMem= 24159191040 cpu:         0.5
 (Enter /public/home/users/caep010/software/Gaussian09/g09/l703.exe)
 Compute integral first derivatives, UseDBF=F ICtDFT=           0.
 Integral derivatives from FoFJK, PRISM(SPDF).
 Calling FoFJK, ICntrl=      2127 FMM=F ISym2X=0 I1Cent= 0 IOpClX= 0 NMat=1 NMatS=1 NMatT=0.
 FoFJK:  IHMeth= 1 ICntrl=    2127 DoSepK=F KAlg= 0 I1Cent=   0 FoldK=F
 IRaf=         0 NMat=   1 IRICut=       1 DoRegI=T DoRafI=F ISym2E= 0.
 FoFCou: FMM=F IPFlag=           0 FMFlag=      100000 FMFlg1=         800
         NFxFlg=           0 DoJE=F BraDBF=F KetDBF=F FulRan=T
         wScrn=  0.000000 ICntrl=    2127 IOpCl=  0 I1Cent=           0 NGrid=           0
         NMat0=    1 NMatS0=      1 NMatT0=    0 NMatD0=    1 NMtDS0=    0 NMtDT0=    0
 Symmetry not used in FoFCou.
 Leave Link  703 at Fri Aug 20 15:59:34 2021, MaxMem= 24159191040 cpu:        19.7
 (Enter /public/home/users/caep010/software/Gaussian09/g09/l716.exe)
 Dipole        =-1.00762462D+00 1.88230263D-01-3.54873515D-02
 ***** Axes restored to original set *****
 -------------------------------------------------------------------
 Center     Atomic                   Forces (Hartrees/Bohr)
 Number     Number              X              Y              Z
 -------------------------------------------------------------------
      1        6           0.060828378    0.046252295    0.122454750
      2        1          -0.071907140   -0.049366072   -0.145386374
      3        6          -0.000734573   -0.019419845    0.000352312
      4        7          -0.001271381    0.008204131   -0.003042355
      5        8           0.017431467   -0.016017786    0.029639375
      6        8          -0.017996975    0.001338680   -0.030008885
      7        6           0.041453721   -0.104440441    0.095747120
      8        1          -0.049459727    0.119182897   -0.111244891
      9        6           0.004513576    0.022757401    0.004222350
     10        7           0.013194642   -0.057993795    0.016491952
     11        6          -0.007045488    0.027458260   -0.006635619
     12        8          -0.007409166    0.034135130   -0.010278348
     13        6          -0.041815481    0.101877666   -0.091764121
     14        1           0.049737696   -0.119476429    0.107260000
     15        6          -0.060845193   -0.042923969   -0.123785437
     16        1           0.071325644    0.048431877    0.145978170
 -------------------------------------------------------------------
 Cartesian Forces:  Max     0.145978170 RMS     0.065902512
 Leave Link  716 at Fri Aug 20 15:59:34 2021, MaxMem= 24159191040 cpu:         0.7
 (Enter /public/home/users/caep010/software/Gaussian09/g09/l103.exe)

 GradGradGradGradGradGradGradGradGradGradGradGradGradGradGradGradGradGrad
 Berny optimization.
 FormGI is forming the generalized inverse of G from B-inverse, IUseBI=4.
 Internal  Forces:  Max     0.170363959 RMS     0.042616534
 Search for a local minimum.
 Step number   1 out of a maximum of   80
 All quantities printed in internal units (Hartrees-Bohrs-Radians)
 RMS Force = .42617D-01 SwitMx=.10000D-02 MixMth= 1
 Mixed Optimization -- RFO/linear search
 Second derivative matrix not updated -- first step.
 ITU=  0
     Eigenvalues ---    0.00908   0.00908   0.01763   0.02036   0.02284
     Eigenvalues ---    0.02393   0.02416   0.02460   0.02474   0.02495
     Eigenvalues ---    0.02498   0.02510   0.04867   0.04867   0.16000
     Eigenvalues ---    0.16000   0.16000   0.16000   0.21999   0.23000
     Eigenvalues ---    0.23999   0.24997   0.25000   0.25000   0.25000
     Eigenvalues ---    0.25000   0.37055   0.45228   0.45749   0.46522
     Eigenvalues ---    0.49760   0.50579   0.50996   0.51360   0.62305
     Eigenvalues ---    0.62483   0.62521   0.62539   0.98896   1.00344
     Eigenvalues ---    1.15289   1.27840
 RFO step:  Lambda=-1.59735430D-01 EMin= 9.07619679D-03
 Linear search not attempted -- first point.
 Maximum step size (   0.300) exceeded in Quadratic search.
    -- Step size scaled by   0.664
 Iteration  1 RMS(Cart)=  0.04340686 RMS(Int)=  0.00009321
 Iteration  2 RMS(Cart)=  0.00011800 RMS(Int)=  0.00000082
 Iteration  3 RMS(Cart)=  0.00000001 RMS(Int)=  0.00000082
 ITry= 1 IFail=0 DXMaxC= 1.48D-01 DCOld= 1.00D+10 DXMaxT= 3.00D-01 DXLimC= 3.00D+00 Rises=F
 Variable       Old X    -DE/DX   Delta X   Delta X   Delta X     New X
                                 (Linear)    (Quad)   (Total)
    R1        1.75699   0.16954   0.00000   0.14346   0.14346   1.90045
    R2        2.58272   0.02692   0.00000   0.02646   0.02646   2.60919
    R3        2.59134   0.02267   0.00000   0.02249   0.02249   2.61382
    R4        2.75764   0.00721   0.00000   0.00904   0.00904   2.76668
    R5        2.58838   0.02429   0.00000   0.02417   0.02417   2.61254
    R6        2.28501   0.03607   0.00000   0.02060   0.02060   2.30561
    R7        2.29084   0.03357   0.00000   0.01941   0.01941   2.31025
    R8        1.75686   0.17036   0.00000   0.14413   0.14413   1.90098
    R9        2.60785   0.02459   0.00000   0.02501   0.02500   2.63286
   R10        2.63548   0.00319   0.00000   0.00339   0.00339   2.63887
   R11        2.59867   0.02684   0.00000   0.02702   0.02702   2.62568
   R12        2.23074   0.06530   0.00000   0.03304   0.03304   2.26379
   R13        2.19195   0.03628   0.00000   0.01676   0.01676   2.20871
   R14        1.75861   0.16808   0.00000   0.14262   0.14262   1.90123
   R15        2.58619   0.02545   0.00000   0.02523   0.02523   2.61142
   R16        1.75728   0.16953   0.00000   0.14352   0.14352   1.90081
    A1        2.10723  -0.00144   0.00000  -0.00282  -0.00282   2.10441
    A2        2.10602   0.00092   0.00000   0.00209   0.00209   2.10811
    A3        2.06993   0.00052   0.00000   0.00074   0.00074   2.07067
    A4        2.07635  -0.00085   0.00000  -0.00145  -0.00145   2.07490
    A5        2.14036  -0.00045   0.00000  -0.00060  -0.00060   2.13976
    A6        2.06648   0.00130   0.00000   0.00205   0.00205   2.06853
    A7        2.07899  -0.01023   0.00000  -0.01659  -0.01659   2.06240
    A8        2.06304  -0.00630   0.00000  -0.01021  -0.01021   2.05282
    A9        2.14116   0.01654   0.00000   0.02681   0.02681   2.16796
   A10        2.09935  -0.00045   0.00000  -0.00068  -0.00067   2.09867
   A11        2.08530   0.00064   0.00000   0.00080   0.00080   2.08609
   A12        2.09854  -0.00019   0.00000  -0.00012  -0.00012   2.09842
   A13        2.11511   0.00018   0.00000   0.00038   0.00038   2.11549
   A14        2.11233  -0.00068   0.00000  -0.00127  -0.00127   2.11106
   A15        2.05564   0.00050   0.00000   0.00090   0.00090   2.05655
   A16        2.44477   0.00489   0.00000   0.00793   0.00793   2.45270
   A17        2.10616  -0.00134   0.00000  -0.00296  -0.00296   2.10320
   A18        2.07118  -0.00024   0.00000  -0.00013  -0.00013   2.07105
   A19        2.10585   0.00157   0.00000   0.00309   0.00308   2.10894
   A20        2.08717   0.00020   0.00000   0.00047   0.00048   2.08764
   A21        2.09737  -0.00126   0.00000  -0.00264  -0.00264   2.09473
   A22        2.09865   0.00105   0.00000   0.00216   0.00216   2.10081
   A23        3.28247  -0.00636   0.00000  -0.02028  -0.02028   3.26219
   A24        3.14260   0.00181   0.00000   0.00578   0.00578   3.14838
    D1        0.00566  -0.00007   0.00000  -0.00025  -0.00025   0.00540
    D2       -3.13402  -0.00012   0.00000  -0.00041  -0.00041  -3.13443
    D3       -3.13634  -0.00010   0.00000  -0.00037  -0.00037  -3.13672
    D4        0.00717  -0.00015   0.00000  -0.00054  -0.00054   0.00663
    D5       -0.01503   0.00019   0.00000   0.00070   0.00070  -0.01433
    D6        3.12599   0.00022   0.00000   0.00080   0.00080   3.12679
    D7        3.12697   0.00023   0.00000   0.00082   0.00082   3.12779
    D8       -0.01520   0.00025   0.00000   0.00092   0.00092  -0.01428
    D9        3.03966   0.00068   0.00000   0.00268   0.00268   3.04234
   D10       -0.09789   0.00022   0.00000   0.00089   0.00089  -0.09700
   D11       -0.10377   0.00072   0.00000   0.00284   0.00284  -0.10094
   D12        3.04187   0.00027   0.00000   0.00104   0.00104   3.04291
   D13        3.14114   0.00009   0.00000   0.00033   0.00033   3.14147
   D14       -0.00025   0.00006   0.00000   0.00021   0.00021  -0.00004
   D15        0.00146   0.00005   0.00000   0.00017   0.00017   0.00163
   D16       -3.13994   0.00001   0.00000   0.00005   0.00005  -3.13989
   D17       -3.14037  -0.00000   0.00000  -0.00002  -0.00002  -3.14039
   D18        0.01688  -0.00029   0.00000  -0.00105  -0.00105   0.01583
   D19        0.00064   0.00002   0.00000   0.00008   0.00008   0.00072
   D20       -3.12530  -0.00026   0.00000  -0.00094  -0.00094  -3.12624
   D21        0.17998  -0.00069   0.00000  -0.00258  -0.00258   0.17739
   D22       -2.97678  -0.00043   0.00000  -0.00161  -0.00161  -2.97839
   D23       -0.00991   0.00020   0.00000   0.00072   0.00072  -0.00919
   D24        3.13224   0.00020   0.00000   0.00071   0.00071   3.13295
   D25       -3.13636  -0.00007   0.00000  -0.00027  -0.00027  -3.13663
   D26        0.00579  -0.00008   0.00000  -0.00028  -0.00028   0.00551
   D27        0.00154  -0.00008   0.00000  -0.00028  -0.00028   0.00125
   D28       -3.14062  -0.00007   0.00000  -0.00027  -0.00027  -3.14089
   D29       -3.13986  -0.00011   0.00000  -0.00040  -0.00040  -3.14026
   D30        0.00117  -0.00011   0.00000  -0.00039  -0.00039   0.00078
         Item               Value     Threshold  Converged?
 Maximum Force            0.170364     0.000450     NO 
 RMS     Force            0.042617     0.000300     NO 
 Maximum Displacement     0.147649     0.001800     NO 
 RMS     Displacement     0.043400     0.001200     NO 
 Predicted change in Energy=-7.805291D-02
 Lowest energy point so far.  Saving SCF results.
 GradGradGradGradGradGradGradGradGradGradGradGradGradGradGradGradGradGrad

 Leave Link  103 at Fri Aug 20 15:59:34 2021, MaxMem= 24159191040 cpu:         3.1
 (Enter /public/home/users/caep010/software/Gaussian09/g09/l202.exe)
                          Input orientation:                          
 ---------------------------------------------------------------------
 Center     Atomic      Atomic             Coordinates (Angstroms)
 Number     Number       Type             X           Y           Z
 ---------------------------------------------------------------------
      1          6           0        0.021079    9.140255   12.008653
      2          1           0       -0.408083    8.853480   11.145539
      3          6           0        0.447611    8.201401   12.926814
      4          7           0        0.270866    6.780846   12.619793
      5          8           0        0.746120    5.961864   13.389202
      6          8           0       -0.344116    6.492989   11.603172
      7          6           0        0.195835   10.480786   12.301243
      8          1           0       -0.095190   11.184912   11.644384
      9          6           0        0.777359   10.849004   13.512601
     10          7           0        0.969171   12.191769   13.844575
     11          6           0        0.671292   13.289196   13.467753
     12          8           0        0.444968   14.407913   13.216088
     13          6           0        1.034923    8.548724   14.129199
     14          1           0        1.334143    7.838114   14.775506
     15          6           0        1.201345    9.888752   14.422945
     16          1           0        1.626176   10.170296   15.290132
 ---------------------------------------------------------------------
                    Distance matrix (angstroms):
                    1          2          3          4          5
     1  C    0.000000
     2  H    1.005677   0.000000
     3  C    1.380723   2.080951   0.000000
     4  N    2.450041   2.632529   1.464062   0.000000
     5  O    3.540307   3.837662   2.306174   1.220077   0.000000
     6  O    2.702925   2.405293   2.301637   1.222532   2.158846
     7  C    1.383175   2.085305   2.377042   3.714386   4.680505
     8  H    2.080103   2.404646   3.292505   4.525618   5.570675
     9  C    2.398675   3.315173   2.731608   4.195659   4.888798
    10  N    3.685271   4.508415   4.127632   5.591584   6.250507
    11  C    4.445836   5.121846   5.121357   6.575560   7.328135
    12  O    5.420867   5.988873   6.213250   7.652322   8.453189
    13  C    2.423738   3.328269   1.382498   2.446933   2.706076
    14  H    3.327940   4.152467   2.082206   2.625923   2.405810
    15  C    2.789638   3.795187   2.377747   3.711634   4.086111
    16  H    3.795448   4.801028   3.294061   4.522825   4.700951
                    6          7          8          9         10
     6  O    0.000000
     7  C    4.084284   0.000000
     8  H    4.698702   1.005958   0.000000
     9  C    4.886563   1.393249   2.089117   0.000000
    10  N    6.262963   2.430511   2.643382   1.396430   0.000000
    11  C    7.120122   3.077981   2.887937   2.442907   1.197945
    12  O    8.116044   4.039967   3.626260   3.586675   2.362430
    13  C    3.536752   2.788971   3.794858   2.395375   3.654738
    14  H    3.832705   3.794924   4.800831   3.312159   4.467007
    15  C    4.676621   2.421400   3.328879   1.389451   2.385855
    16  H    5.567613   3.328023   4.157406   2.083447   2.570534
                   11         12         13         14         15
    11  C    0.000000
    12  O    1.168797   0.000000
    13  C    4.800189   5.959187   0.000000
    14  H    5.644810   6.810630   1.006088   0.000000
    15  C    3.571605   4.738293   1.381904   2.084959   0.000000
    16  H    3.736362   4.863569   2.080106   2.406075   1.005864
                   16
    16  H    0.000000
 Stoichiometry    C7H4N2O3
 Framework group  C1[X(C7H4N2O3)]
 Deg. of freedom    42
 Full point group                 C1      NOp   1
 RotChk:  IX=0 Diff= 1.76D-03
 Largest Abelian subgroup         C1      NOp   1
 Largest concise Abelian subgroup C1      NOp   1
                         Standard orientation:                         
 ---------------------------------------------------------------------
 Center     Atomic      Atomic             Coordinates (Angstroms)
 Number     Number       Type             X           Y           Z
 ---------------------------------------------------------------------
      1          6           0        0.630911   -1.128223   -0.059839
      2          1           0        1.039095   -2.047118   -0.080001
      3          6           0        1.431917   -0.005020   -0.003273
      4          7           0        2.886025   -0.173867    0.019954
      5          8           0        3.582897    0.826006   -0.036690
      6          8           0        3.323175   -1.313246    0.092757
      7          6           0       -0.742044   -0.962689   -0.087475
      8          1           0       -1.348041   -1.763869   -0.140661
      9          6           0       -1.279821    0.321731   -0.040541
     10          7           0       -2.660505    0.529419   -0.064946
     11          6           0       -3.688860   -0.079732    0.015625
     12          8           0       -4.756780   -0.548721    0.091010
     13          6           0        0.915598    1.276888    0.034504
     14          1           0        1.528818    2.073435    0.075569
     15          6           0       -0.456546    1.439645    0.014785
     16          1           0       -0.859784    2.360780    0.040712
 ---------------------------------------------------------------------
 Rotational constants (GHZ):      3.6706172      0.4219522      0.3787664
 Leave Link  202 at Fri Aug 20 15:59:34 2021, MaxMem= 24159191040 cpu:         0.3
 (Enter /public/home/users/caep010/software/Gaussian09/g09/l301.exe)
 Standard basis: 6-31G(d,p) (6D, 7F)
 Ernie: Thresh=  0.10000D-02 Tol=  0.10000D-05 Strict=F.
 There are   200 symmetry adapted cartesian basis functions of A   symmetry.
 There are   200 symmetry adapted basis functions of A   symmetry.
   200 basis functions,   364 primitive gaussians,   200 cartesian basis functions
    42 alpha electrons       42 beta electrons
       nuclear repulsion energy       620.0737442582 Hartrees.
 IExCor=  402 DFT=T Ex+Corr=B3LYP ExCW=0 ScaHFX=  0.200000
 ScaDFX=  0.800000  0.720000  1.000000  0.810000 ScalE2=  1.000000  1.000000
 IRadAn=      0 IRanWt=     -1 IRanGd=            0 ICorTp=0 IEmpDi=  4
 NAtoms=   16 NActive=   16 NUniq=   16 SFac= 1.00D+00 NAtFMM=   60 NAOKFM=F Big=F
 Integral buffers will be    131072 words long.
 Raffenetti 2 integral format.
 Two-electron integral symmetry is turned on.
 Leave Link  301 at Fri Aug 20 15:59:34 2021, MaxMem= 24159191040 cpu:         1.6
 (Enter /public/home/users/caep010/software/Gaussian09/g09/l302.exe)
 NPDir=0 NMtPBC=     1 NCelOv=     1 NCel=       1 NClECP=     1 NCelD=      1
         NCelK=      1 NCelE2=     1 NClLst=     1 CellRange=     0.0.
 One-electron integrals computed using PRISM.
 NBasis=   200 RedAO= T EigKep=  3.70D-04  NBF=   200
 NBsUse=   200 1.00D-06 EigRej= -1.00D+00 NBFU=   200
 Precomputing XC quadrature grid using
 IXCGrd= 4 IRadAn=           0 IRanWt=          -1 IRanGd=           0 AccXCQ= 0.00D+00.
 Generated NRdTot=       0 NPtTot=           0 NUsed=           0 NTot=          32
 NSgBfM=   198   198   198   198   198 MxSgAt=    16 MxSgA2=    16.
 Leave Link  302 at Fri Aug 20 15:59:35 2021, MaxMem= 24159191040 cpu:        12.6
 (Enter /public/home/users/caep010/software/Gaussian09/g09/l303.exe)
 DipDrv:  MaxL=1.
 Leave Link  303 at Fri Aug 20 15:59:35 2021, MaxMem= 24159191040 cpu:         0.7
 (Enter /public/home/users/caep010/software/Gaussian09/g09/l401.exe)
 Initial guess from the checkpoint file:  "/public/home/users/caep010/.cache/gau_scr/Gau-39757.chk"
 B after Tr=    -0.000000   -0.000000   -0.000000
         Rot=    1.000000    0.000062    0.000007    0.000370 Ang=   0.04 deg.
 Guess basis will be translated and rotated to current coordinates.
 JPrj=2 DoOrth=T DoCkMO=T.
 Generating alternative initial guess.
 ExpMin= 1.61D-01 ExpMax= 5.48D+03 ExpMxC= 8.25D+02 IAcc=1 IRadAn=         1 AccDes= 0.00D+00
 Harris functional with IExCor=  402 and IRadAn=       1 diagonalized for initial guess.
 HarFok:  IExCor=  402 AccDes= 0.00D+00 IRadAn=         1 IDoV= 1 UseB2=F ITyADJ=14
 ICtDFT=  3500011 ScaDFX=  1.000000  1.000000  1.000000  1.000000
 FoFCou: FMM=F IPFlag=           0 FMFlag=      100000 FMFlg1=           0
         NFxFlg=           0 DoJE=T BraDBF=F KetDBF=T FulRan=T
         wScrn=  0.000000 ICntrl=     500 IOpCl=  0 I1Cent=   200000004 NGrid=           0
         NMat0=    1 NMatS0=      1 NMatT0=    0 NMatD0=    1 NMtDS0=    0 NMtDT0=    0
 Petite list used in FoFCou.
 Harris En= -604.256587813134    
 Leave Link  401 at Fri Aug 20 15:59:35 2021, MaxMem= 24159191040 cpu:        14.2
 (Enter /public/home/users/caep010/software/Gaussian09/g09/l502.exe)
 Closed shell SCF:
 Using DIIS extrapolation, IDIIS=  1040.
 Integral symmetry usage will be decided dynamically.
 Keep R1 ints in memory in canonical form, NReq=206221692.
 IVT=      146442 IEndB=      146442 NGot= 24159191040 MDV= 23957029549
 LenX= 23957029549 LenY= 23956989108
 Requested convergence on RMS density matrix=1.00D-08 within 128 cycles.
 Requested convergence on MAX density matrix=1.00D-06.
 Requested convergence on             energy=1.00D-06.
 No special actions if energy rises.
 FoFCou: FMM=F IPFlag=           0 FMFlag=           0 FMFlg1=           0
         NFxFlg=           0 DoJE=F BraDBF=F KetDBF=F FulRan=T
         wScrn=  0.000000 ICntrl=     600 IOpCl=  0 I1Cent=           0 NGrid=           0
         NMat0=    1 NMatS0=  20100 NMatT0=    0 NMatD0=    1 NMtDS0=    0 NMtDT0=    0
 Symmetry not used in FoFCou.
 Integral accuracy reduced to 1.0D-05 until final iterations.

 Cycle   1  Pass 0  IDiag  1:
 E= -604.214509489058    
 DIIS: error= 4.02D-03 at cycle   1 NSaved=   1.
 NSaved= 1 IEnMin= 1 EnMin= -604.214509489058     IErMin= 1 ErrMin= 4.02D-03
 ErrMax= 4.02D-03  0.00D+00 EMaxC= 1.00D-01 BMatC= 4.01D-03 BMatP= 4.01D-03
 IDIUse=3 WtCom= 9.60D-01 WtEn= 4.02D-02
 Coeff-Com:  0.100D+01
 Coeff-En:   0.100D+01
 Coeff:      0.100D+01
 Gap=     1.827 Goal=   None    Shift=    0.000
 GapD=    1.827 DampG=2.000 DampE=1.000 DampFc=2.0000 IDamp=-1.
 RMSDP=7.73D-04 MaxDP=1.22D-02              OVMax= 1.69D-02

 Cycle   2  Pass 0  IDiag  1:
 E= -604.218709731150     Delta-E=       -0.004200242092 Rises=F Damp=F
 DIIS: error= 2.26D-03 at cycle   2 NSaved=   2.
 NSaved= 2 IEnMin= 2 EnMin= -604.218709731150     IErMin= 2 ErrMin= 2.26D-03
 ErrMax= 2.26D-03  0.00D+00 EMaxC= 1.00D-01 BMatC= 6.21D-04 BMatP= 4.01D-03
 IDIUse=3 WtCom= 9.77D-01 WtEn= 2.26D-02
 Coeff-Com:  0.220D+00 0.780D+00
 Coeff-En:   0.000D+00 0.100D+01
 Coeff:      0.215D+00 0.785D+00
 Gap=     0.175 Goal=   None    Shift=    0.000
 RMSDP=2.23D-04 MaxDP=5.28D-03 DE=-4.20D-03 OVMax= 1.19D-02

 Cycle   3  Pass 0  IDiag  1:
 E= -604.219018484768     Delta-E=       -0.000308753618 Rises=F Damp=F
 DIIS: error= 1.20D-03 at cycle   3 NSaved=   3.
 NSaved= 3 IEnMin= 3 EnMin= -604.219018484768     IErMin= 3 ErrMin= 1.20D-03
 ErrMax= 1.20D-03  0.00D+00 EMaxC= 1.00D-01 BMatC= 3.63D-04 BMatP= 6.21D-04
 IDIUse=3 WtCom= 9.88D-01 WtEn= 1.20D-02
 Coeff-Com:  0.457D-01 0.434D+00 0.521D+00
 Coeff-En:   0.000D+00 0.341D+00 0.659D+00
 Coeff:      0.451D-01 0.433D+00 0.522D+00
 Gap=     0.174 Goal=   None    Shift=    0.000
 RMSDP=1.04D-04 MaxDP=2.52D-03 DE=-3.09D-04 OVMax= 5.85D-03

 Cycle   4  Pass 0  IDiag  1:
 E= -604.219343305998     Delta-E=       -0.000324821229 Rises=F Damp=F
 DIIS: error= 2.96D-04 at cycle   4 NSaved=   4.
 NSaved= 4 IEnMin= 4 EnMin= -604.219343305998     IErMin= 4 ErrMin= 2.96D-04
 ErrMax= 2.96D-04  0.00D+00 EMaxC= 1.00D-01 BMatC= 2.53D-05 BMatP= 3.63D-04
 IDIUse=3 WtCom= 9.97D-01 WtEn= 2.96D-03
 Coeff-Com:  0.669D-02 0.165D+00 0.264D+00 0.564D+00
 Coeff-En:   0.000D+00 0.000D+00 0.000D+00 0.100D+01
 Coeff:      0.667D-02 0.165D+00 0.263D+00 0.565D+00
 Gap=     0.174 Goal=   None    Shift=    0.000
 RMSDP=3.22D-05 MaxDP=1.35D-03 DE=-3.25D-04 OVMax= 2.09D-03

 Cycle   5  Pass 0  IDiag  1:
 E= -604.219349543047     Delta-E=       -0.000006237050 Rises=F Damp=F
 DIIS: error= 3.53D-04 at cycle   5 NSaved=   5.
 NSaved= 5 IEnMin= 5 EnMin= -604.219349543047     IErMin= 4 ErrMin= 2.96D-04
 ErrMax= 3.53D-04  0.00D+00 EMaxC= 1.00D-01 BMatC= 1.62D-05 BMatP= 2.53D-05
 IDIUse=3 WtCom= 9.96D-01 WtEn= 3.53D-03
 Coeff-Com: -0.216D-02 0.578D-01 0.120D+00 0.440D+00 0.385D+00
 Coeff-En:   0.000D+00 0.000D+00 0.000D+00 0.422D+00 0.578D+00
 Coeff:     -0.215D-02 0.576D-01 0.119D+00 0.440D+00 0.386D+00
 Gap=     0.174 Goal=   None    Shift=    0.000
 RMSDP=1.77D-05 MaxDP=6.66D-04 DE=-6.24D-06 OVMax= 1.45D-03

 Cycle   6  Pass 0  IDiag  1:
 E= -604.219362118713     Delta-E=       -0.000012575665 Rises=F Damp=F
 DIIS: error= 9.96D-05 at cycle   6 NSaved=   6.
 NSaved= 6 IEnMin= 6 EnMin= -604.219362118713     IErMin= 6 ErrMin= 9.96D-05
 ErrMax= 9.96D-05  0.00D+00 EMaxC= 1.00D-01 BMatC= 7.01D-07 BMatP= 1.62D-05
 IDIUse=1 WtCom= 1.00D+00 WtEn= 0.00D+00
 Coeff-Com: -0.188D-02 0.203D-01 0.489D-01 0.212D+00 0.239D+00 0.482D+00
 Coeff:     -0.188D-02 0.203D-01 0.489D-01 0.212D+00 0.239D+00 0.482D+00
 Gap=     0.174 Goal=   None    Shift=    0.000
 RMSDP=4.81D-06 MaxDP=2.71D-04 DE=-1.26D-05 OVMax= 4.71D-04

 Initial convergence to 1.0D-05 achieved.  Increase integral accuracy.
 Cycle   7  Pass 1  IDiag  1:
 E= -604.219333394790     Delta-E=        0.000028723923 Rises=F Damp=F
 DIIS: error= 4.81D-05 at cycle   1 NSaved=   1.
 NSaved= 1 IEnMin= 1 EnMin= -604.219333394790     IErMin= 1 ErrMin= 4.81D-05
 ErrMax= 4.81D-05  0.00D+00 EMaxC= 1.00D-01 BMatC= 2.63D-07 BMatP= 2.63D-07
 IDIUse=1 WtCom= 1.00D+00 WtEn= 0.00D+00
 Coeff-Com:  0.100D+01
 Coeff:      0.100D+01
 Gap=     0.174 Goal=   None    Shift=    0.000
 RMSDP=4.81D-06 MaxDP=2.71D-04 DE= 2.87D-05 OVMax= 6.34D-04

 Cycle   8  Pass 1  IDiag  1:
 E= -604.219332526473     Delta-E=        0.000000868317 Rises=F Damp=F
 DIIS: error= 1.44D-04 at cycle   2 NSaved=   2.
 NSaved= 2 IEnMin= 1 EnMin= -604.219333394790     IErMin= 1 ErrMin= 4.81D-05
 ErrMax= 1.44D-04  0.00D+00 EMaxC= 1.00D-01 BMatC= 1.41D-06 BMatP= 2.63D-07
 IDIUse=3 WtCom= 4.54D-01 WtEn= 5.46D-01
 Coeff-Com:  0.713D+00 0.287D+00
 Coeff-En:   0.787D+00 0.213D+00
 Coeff:      0.754D+00 0.246D+00
 Gap=     0.174 Goal=   None    Shift=    0.000
 RMSDP=4.42D-06 MaxDP=2.43D-04 DE= 8.68D-07 OVMax= 4.63D-04

 Cycle   9  Pass 1  IDiag  1:
 E= -604.219333620079     Delta-E=       -0.000001093606 Rises=F Damp=F
 DIIS: error= 1.12D-05 at cycle   3 NSaved=   3.
 NSaved= 3 IEnMin= 3 EnMin= -604.219333620079     IErMin= 3 ErrMin= 1.12D-05
 ErrMax= 1.12D-05  0.00D+00 EMaxC= 1.00D-01 BMatC= 2.11D-08 BMatP= 2.63D-07
 IDIUse=1 WtCom= 1.00D+00 WtEn= 0.00D+00
 Coeff-Com:  0.241D+00 0.509D-01 0.708D+00
 Coeff:      0.241D+00 0.509D-01 0.708D+00
 Gap=     0.174 Goal=   None    Shift=    0.000
 RMSDP=1.12D-06 MaxDP=4.42D-05 DE=-1.09D-06 OVMax= 6.19D-05

 Cycle  10  Pass 1  IDiag  1:
 E= -604.219333616637     Delta-E=        0.000000003442 Rises=F Damp=F
 DIIS: error= 1.46D-05 at cycle   4 NSaved=   4.
 NSaved= 4 IEnMin= 3 EnMin= -604.219333620079     IErMin= 3 ErrMin= 1.12D-05
 ErrMax= 1.46D-05  0.00D+00 EMaxC= 1.00D-01 BMatC= 2.59D-08 BMatP= 2.11D-08
 IDIUse=1 WtCom= 1.00D+00 WtEn= 0.00D+00
 Coeff-Com: -0.863D-02-0.429D-01 0.586D+00 0.465D+00
 Coeff:     -0.863D-02-0.429D-01 0.586D+00 0.465D+00
 Gap=     0.174 Goal=   None    Shift=    0.000
 RMSDP=6.70D-07 MaxDP=3.25D-05 DE= 3.44D-09 OVMax= 5.05D-05

 Cycle  11  Pass 1  IDiag  1:
 E= -604.219333636455     Delta-E=       -0.000000019818 Rises=F Damp=F
 DIIS: error= 1.47D-06 at cycle   5 NSaved=   5.
 NSaved= 5 IEnMin= 5 EnMin= -604.219333636455     IErMin= 5 ErrMin= 1.47D-06
 ErrMax= 1.47D-06  0.00D+00 EMaxC= 1.00D-01 BMatC= 6.17D-10 BMatP= 2.11D-08
 IDIUse=1 WtCom= 1.00D+00 WtEn= 0.00D+00
 Coeff-Com: -0.122D-01-0.273D-01 0.341D+00 0.286D+00 0.412D+00
 Coeff:     -0.122D-01-0.273D-01 0.341D+00 0.286D+00 0.412D+00
 Gap=     0.174 Goal=   None    Shift=    0.000
 RMSDP=1.32D-07 MaxDP=4.51D-06 DE=-1.98D-08 OVMax= 1.00D-05

 Cycle  12  Pass 1  IDiag  1:
 E= -604.219333636925     Delta-E=       -0.000000000470 Rises=F Damp=F
 DIIS: error= 6.75D-07 at cycle   6 NSaved=   6.
 NSaved= 6 IEnMin= 6 EnMin= -604.219333636925     IErMin= 6 ErrMin= 6.75D-07
 ErrMax= 6.75D-07  0.00D+00 EMaxC= 1.00D-01 BMatC= 8.84D-11 BMatP= 6.17D-10
 IDIUse=1 WtCom= 1.00D+00 WtEn= 0.00D+00
 Coeff-Com: -0.738D-02-0.132D-01 0.162D+00 0.139D+00 0.289D+00 0.431D+00
 Coeff:     -0.738D-02-0.132D-01 0.162D+00 0.139D+00 0.289D+00 0.431D+00
 Gap=     0.174 Goal=   None    Shift=    0.000
 RMSDP=4.63D-08 MaxDP=1.63D-06 DE=-4.70D-10 OVMax= 2.87D-06

 Cycle  13  Pass 1  IDiag  1:
 E= -604.219333637000     Delta-E=       -0.000000000075 Rises=F Damp=F
 DIIS: error= 1.92D-07 at cycle   7 NSaved=   7.
 NSaved= 7 IEnMin= 7 EnMin= -604.219333637000     IErMin= 7 ErrMin= 1.92D-07
 ErrMax= 1.92D-07  0.00D+00 EMaxC= 1.00D-01 BMatC= 5.91D-12 BMatP= 8.84D-11
 IDIUse=1 WtCom= 1.00D+00 WtEn= 0.00D+00
 Coeff-Com: -0.239D-02-0.364D-02 0.445D-01 0.391D-01 0.110D+00 0.254D+00
 Coeff-Com:  0.559D+00
 Coeff:     -0.239D-02-0.364D-02 0.445D-01 0.391D-01 0.110D+00 0.254D+00
 Coeff:      0.559D+00
 Gap=     0.174 Goal=   None    Shift=    0.000
 RMSDP=1.37D-08 MaxDP=4.15D-07 DE=-7.53D-11 OVMax= 8.28D-07

 Cycle  14  Pass 1  IDiag  1:
 E= -604.219333637002     Delta-E=       -0.000000000001 Rises=F Damp=F
 DIIS: error= 5.22D-08 at cycle   8 NSaved=   8.
 NSaved= 8 IEnMin= 8 EnMin= -604.219333637002     IErMin= 8 ErrMin= 5.22D-08
 ErrMax= 5.22D-08  0.00D+00 EMaxC= 1.00D-01 BMatC= 4.02D-13 BMatP= 5.91D-12
 IDIUse=1 WtCom= 1.00D+00 WtEn= 0.00D+00
 Coeff-Com: -0.277D-03-0.260D-03 0.219D-02 0.230D-02 0.187D-01 0.710D-01
 Coeff-Com:  0.266D+00 0.640D+00
 Coeff:     -0.277D-03-0.260D-03 0.219D-02 0.230D-02 0.187D-01 0.710D-01
 Coeff:      0.266D+00 0.640D+00
 Gap=     0.174 Goal=   None    Shift=    0.000
 RMSDP=3.62D-09 MaxDP=9.83D-08 DE=-1.36D-12 OVMax= 2.42D-07

 SCF Done:  E(RB3LYP) =  -604.219333637     A.U. after   14 cycles
            NFock= 14  Conv=0.36D-08     -V/T= 2.0077
 KE= 5.995897837086D+02 PE=-2.650196720042D+03 EE= 8.263138584385D+02
 Leave Link  502 at Fri Aug 20 15:59:42 2021, MaxMem= 24159191040 cpu:        77.5
 (Enter /public/home/users/caep010/software/Gaussian09/g09/l701.exe)
 Compute integral first derivatives.
 ... and contract with generalized density number  0.
 Leave Link  701 at Fri Aug 20 15:59:42 2021, MaxMem= 24159191040 cpu:        10.9
 (Enter /public/home/users/caep010/software/Gaussian09/g09/l702.exe)
 L702 exits ... SP integral derivatives will be done elsewhere.
 Leave Link  702 at Fri Aug 20 15:59:43 2021, MaxMem= 24159191040 cpu:         0.5
 (Enter /public/home/users/caep010/software/Gaussian09/g09/l703.exe)
 Compute integral first derivatives, UseDBF=F ICtDFT=           0.
 Integral derivatives from FoFJK, PRISM(SPDF).
 Calling FoFJK, ICntrl=      2127 FMM=F ISym2X=0 I1Cent= 0 IOpClX= 0 NMat=1 NMatS=1 NMatT=0.
 FoFJK:  IHMeth= 1 ICntrl=    2127 DoSepK=F KAlg= 0 I1Cent=   0 FoldK=F
 IRaf=         0 NMat=   1 IRICut=       1 DoRegI=T DoRafI=F ISym2E= 0.
 FoFCou: FMM=F IPFlag=           0 FMFlag=      100000 FMFlg1=         800
         NFxFlg=           0 DoJE=F BraDBF=F KetDBF=F FulRan=T
         wScrn=  0.000000 ICntrl=    2127 IOpCl=  0 I1Cent=           0 NGrid=           0
         NMat0=    1 NMatS0=      1 NMatT0=    0 NMatD0=    1 NMtDS0=    0 NMtDT0=    0
 Symmetry not used in FoFCou.
 Leave Link  703 at Fri Aug 20 15:59:43 2021, MaxMem= 24159191040 cpu:        20.0
 (Enter /public/home/users/caep010/software/Gaussian09/g09/l716.exe)
 Dipole        =-1.00321197D+00 1.89990939D-01-3.07811946D-02
 ***** Axes restored to original set *****
 -------------------------------------------------------------------
 Center     Atomic                   Forces (Hartrees/Bohr)
 Number     Number              X              Y              Z
 -------------------------------------------------------------------
      1        6           0.023871321    0.022089809    0.048112711
      2        1          -0.028318574   -0.020654689   -0.057641803
      3        6          -0.000385566   -0.010475780    0.000577853
      4        7          -0.000929171    0.005648702   -0.002028071
      5        8           0.007164394   -0.008607861    0.012677550
      6        8          -0.007396091   -0.001090377   -0.012759346
      7        6           0.015962455   -0.044218215    0.037698980
      8        1          -0.019997450    0.048026378   -0.044365245
      9        6           0.002892275    0.014653566    0.002111869
     10        7           0.005072494   -0.024752444    0.007273245
     11        6          -0.003307123    0.009421931   -0.003282719
     12        8          -0.002553510    0.014447075   -0.004031312
     13        6          -0.015726899    0.043344267   -0.035265512
     14        1           0.019572770   -0.048366824    0.041922577
     15        6          -0.024275106   -0.019660576   -0.049257198
     16        1           0.028353782    0.020195040    0.058256420
 -------------------------------------------------------------------
 Cartesian Forces:  Max     0.058256420 RMS     0.026614479
 Leave Link  716 at Fri Aug 20 15:59:43 2021, MaxMem= 24159191040 cpu:         0.5
 (Enter /public/home/users/caep010/software/Gaussian09/g09/l103.exe)

 GradGradGradGradGradGradGradGradGradGradGradGradGradGradGradGradGradGrad
 Berny optimization.
 Using GEDIIS/GDIIS optimizer.
 FormGI is forming the generalized inverse of G from B-inverse, IUseBI=4.
 GSVD:  received Info=                   1 from GESDD.
 Internal  Forces:  Max     0.068367742 RMS     0.017103932
 Search for a local minimum.
 Step number   2 out of a maximum of   80
 All quantities printed in internal units (Hartrees-Bohrs-Radians)
 RMS Force = .17104D-01 SwitMx=.10000D-02 MixMth= 1
 Mixed Optimization -- RFO/linear search
 Update second derivatives using D2CorX and points    1    2
 DE= -7.22D-02 DEPred=-7.81D-02 R= 9.26D-01
 TightC=F SS=  1.41D+00  RLast= 3.00D-01 DXNew= 5.0454D-01 9.0017D-01
 Trust test= 9.26D-01 RLast= 3.00D-01 DXMaxT set to 5.05D-01
 ITU=  1  0
 Use linear search instead of GDIIS.
     Eigenvalues ---    0.00908   0.00908   0.01763   0.02036   0.02284
     Eigenvalues ---    0.02393   0.02416   0.02460   0.02474   0.02495
     Eigenvalues ---    0.02498   0.02510   0.04867   0.04879   0.15995
     Eigenvalues ---    0.16000   0.16000   0.16000   0.21999   0.22999
     Eigenvalues ---    0.23989   0.24997   0.24999   0.25000   0.25000
     Eigenvalues ---    0.25128   0.37045   0.45309   0.45825   0.46513
     Eigenvalues ---    0.49758   0.50618   0.51048   0.51378   0.62356
     Eigenvalues ---    0.62498   0.62529   0.70567   0.98794   1.00194
     Eigenvalues ---    1.15188   1.27724
 RFO step:  Lambda=-1.20207607D-03 EMin= 9.07623478D-03
 Quartic linear search produced a step of  1.03420.
 Iteration  1 RMS(Cart)=  0.05870102 RMS(Int)=  0.00154606
 Iteration  2 RMS(Cart)=  0.00171418 RMS(Int)=  0.00008994
 Iteration  3 RMS(Cart)=  0.00000333 RMS(Int)=  0.00008990
 Iteration  4 RMS(Cart)=  0.00000000 RMS(Int)=  0.00008990
 ITry= 1 IFail=0 DXMaxC= 1.51D-01 DCOld= 1.00D+10 DXMaxT= 5.05D-01 DXLimC= 3.00D+00 Rises=F
 Variable       Old X    -DE/DX   Delta X   Delta X   Delta X     New X
                                 (Linear)    (Quad)   (Total)
    R1        1.90045   0.06745   0.14837  -0.00142   0.14694   2.04740
    R2        2.60919   0.01243   0.02737   0.00835   0.03571   2.64490
    R3        2.61382   0.00864   0.02326  -0.00008   0.02317   2.63699
    R4        2.76668   0.00451   0.00935   0.01092   0.02027   2.78694
    R5        2.61254   0.01090   0.02499   0.00653   0.03154   2.64408
    R6        2.30561   0.01656   0.02130   0.00174   0.02304   2.32865
    R7        2.31025   0.01459   0.02008   0.00001   0.02008   2.33033
    R8        1.90098   0.06837   0.14906   0.00048   0.14954   2.05052
    R9        2.63286   0.01113   0.02586   0.00749   0.03334   2.66620
   R10        2.63887  -0.00096   0.00351  -0.00940  -0.00588   2.63299
   R11        2.62568   0.01189   0.02794   0.00682   0.03476   2.66044
   R12        2.26379   0.02562   0.03417  -0.00591   0.02827   2.29205
   R13        2.20871   0.01519   0.01733  -0.00177   0.01556   2.22427
   R14        1.90123   0.06691   0.14749  -0.00109   0.14640   2.04763
   R15        2.61142   0.01012   0.02609   0.00159   0.02769   2.63911
   R16        1.90081   0.06785   0.14843  -0.00006   0.14837   2.04918
    A1        2.10441  -0.00185  -0.00292  -0.01718  -0.02008   2.08433
    A2        2.10811   0.00095   0.00216   0.01093   0.01311   2.12122
    A3        2.07067   0.00090   0.00076   0.00625   0.00697   2.07764
[...]
 ! D4    D(7,1,3,13)            -0.0021         -DE/DX =    0.0                 !
 ! D5    D(2,1,7,8)              0.0072         -DE/DX =    0.0                 !
 ! D6    D(2,1,7,9)           -179.9941         -DE/DX =    0.0                 !
 ! D7    D(3,1,7,8)           -179.995          -DE/DX =    0.0                 !
 ! D8    D(3,1,7,9)              0.0037         -DE/DX =    0.0                 !
 ! D9    D(1,3,4,5)           -179.9471         -DE/DX =    0.0                 !
 ! D10   D(1,3,4,6)              0.0534         -DE/DX =    0.0                 !
 ! D11   D(13,3,4,5)             0.0532         -DE/DX =    0.0                 !
 ! D12   D(13,3,4,6)          -179.9464         -DE/DX =    0.0                 !
 ! D13   D(1,3,13,14)         -180.0031         -DE/DX =    0.0                 !
 ! D14   D(1,3,13,15)           -0.0018         -DE/DX =    0.0                 !
 ! D15   D(4,3,13,14)           -0.0033         -DE/DX =    0.0                 !
 ! D16   D(4,3,13,15)          179.998          -DE/DX =    0.0                 !
 ! D17   D(1,7,9,10)          -180.0027         -DE/DX =    0.0                 !
 ! D18   D(1,7,9,15)            -0.0015         -DE/DX =    0.0                 !
 ! D19   D(8,7,9,10)            -0.0039         -DE/DX =    0.0                 !
 ! D20   D(8,7,9,15)          -180.0028         -DE/DX =    0.0                 !
 ! D21   D(7,9,10,11)           -0.0112         -DE/DX =    0.0                 !
 ! D22   D(15,9,10,11)        -180.0124         -DE/DX =    0.0                 !
 ! D23   D(7,9,15,13)           -0.0024         -DE/DX =    0.0                 !
 ! D24   D(7,9,15,16)          179.9974         -DE/DX =    0.0                 !
 ! D25   D(10,9,15,13)         179.9987         -DE/DX =    0.0                 !
 ! D26   D(10,9,15,16)          -0.0015         -DE/DX =    0.0                 !
 ! D27   D(3,13,15,9)            0.004          -DE/DX =    0.0                 !
 ! D28   D(3,13,15,16)         180.0042         -DE/DX =    0.0                 !
 ! D29   D(14,13,15,9)        -179.9947         -DE/DX =    0.0                 !
 ! D30   D(14,13,15,16)          0.0055         -DE/DX =    0.0                 !
 --------------------------------------------------------------------------------
 GradGradGradGradGradGradGradGradGradGradGradGradGradGradGradGradGradGrad

 Leave Link  103 at Fri Aug 20 16:01:48 2021, MaxMem= 24159191040 cpu:         2.2
 (Enter /public/home/users/caep010/software/Gaussian09/g09/l9999.exe)
 1\1\GINC-B1868\Freq\RB3LYP\6-31G(d,p)\C7H4N2O3\ROOT\20-Aug-2021\0\\#P 
 Geom=AllCheck Guess=TCheck SCRF=Check GenChk RB3LYP/6-31G(d,p) Freq\\X
 EKWIW\\0,1\C,-0.001990864,9.1441212873,12.0178418241\H,-0.4612927609,8
 .8244345413,11.0910749032\C,0.4501445435,8.1863091955,12.9250045265\N,
 0.2906176333,6.7638377066,12.5980171539\O,0.6978213344,5.9402846259,13
 .4174484776\O,-0.240774445,6.4808948398,11.5240152855\C,0.1488133596,1
 0.4888462115,12.3270376765\H,-0.1960713835,11.2506043455,11.6353695343
 \C,0.7502965608,10.8672644384,13.5402519413\N,0.9220611332,12.20250726
 69,13.8915117426\C,0.6985432574,13.3075559545,13.445195793\O,0.5428353
 814,14.4301802291,13.1355525528\C,1.0488342405,8.5417102715,14.1325781
 674\H,1.38545139,7.7654764798,14.8078321888\C,1.1984668473,9.887916643
 1,14.4392353824\H,1.659743772,10.1983559634,15.3696328502\\Version=ES6
 4L-G09RevE.01\State=1-A\HF=-604.2394637\RMSD=1.447e-09\RMSF=9.005e-06\
 ZeroPoint=0.1065214\Thermal=0.1161127\Dipole=0.1396961,1.0280696,0.285
 5599\DipoleDeriv=-0.0446294,-0.0498044,0.0201197,0.0517273,0.2696285,0
 .1055342,0.0205584,-0.0994124,-0.0136971,0.1118207,-0.0038211,-0.02658
 4,-0.0108695,0.1094099,-0.0219648,-0.0266406,-0.007642,0.0713445,0.032
 2512,-0.0990009,-0.0378779,-0.0584115,-0.7304496,-0.1206948,-0.0377521
 ,-0.2024711,-0.02615,0.501303,0.0935484,0.4298412,0.0640502,2.1900246,
 0.1358222,0.4296073,0.195345,1.1572905,-0.3382872,0.1053951,-0.1614423
 ,0.1110093,-1.0820377,0.2213443,-0.1613905,0.2098701,-0.5834674,-0.390
 1221,-0.1371149,-0.2660263,-0.1212112,-0.796354,-0.2466008,-0.265903,-
 0.2785614,-0.796672,-0.1218185,-0.1687854,0.0096804,-0.0684063,-0.3251
 422,-0.1385275,0.0100485,-0.340807,-0.1080455,0.1021544,0.0216811,-0.0
 357993,0.0269067,-0.0268706,0.0536182,-0.03577,0.0431047,0.0480833,0.1
 958386,0.0618216,0.0508273,0.0860289,1.8020067,0.1796192,0.0509166,0.1
 307987,0.2738203,-0.3208211,0.2790236,-0.0595878,-0.0029244,-2.5987282
 ,-0.0146577,-0.0606441,0.5535707,-0.4108777,0.4428614,-0.5351174,0.039
 259,-0.1797813,3.331107,-0.3513544,0.0406097,-1.0675556,0.5002136,-0.2
 626227,0.230802,-0.01777,0.091185,-2.0573596,0.1769506,-0.0183074,0.45
 84252,-0.2885381,-0.0399557,0.1095455,0.0340782,-0.0146219,0.2949947,-
 0.0281197,0.0336979,0.2223947,0.0120533,0.1178355,0.0119624,-0.0146765
 ,0.0200881,0.0871484,0.0403132,-0.0146932,0.0238527,0.0956726,-0.08392
 13,0.0993339,0.0900926,0.0234434,-0.5322769,0.045647,0.0897889,0.19857
 55,0.0532079,0.0981131,-0.0194692,-0.054134,-0.0182129,0.0648991,-0.03
 69292,-0.0541266,-0.0394877,0.015762\Polar=45.4029251,0.9118272,170.32
 32544,23.8774347,2.3587315,81.6975135\PG=C01 [X(C7H4N2O3)]\NImag=0\\0.
 25562464,0.01444773,0.69655329,0.24453476,0.03136641,0.62711081,-0.095
 63403,-0.03481262,-0.11525306,0.08953616,-0.03571211,-0.08039907,-0.07
 211875,0.03846842,0.08131230,-0.11525875,-0.07031551,-0.27102515,0.126
 73107,0.07772607,0.28238768,-0.09797958,0.03337800,-0.07472596,0.00048
 330,0.00889548,-0.00890278,0.25393030,0.05908934,-0.19665347,0.1184975
 4,-0.00325725,0.01220597,-0.00652325,-0.02250838,0.56677175,-0.0746265
 9,0.06670192,-0.21092065,-0.00895151,0.01795041,-0.01304434,0.24528788
 ,-0.04367513,0.62629259,0.00168089,0.00525053,0.01003468,-0.00443575,0
 .00103044,0.00021487,-0.08220286,-0.00168144,-0.01378280,0.37001155,0.
 00235553,-0.04418711,0.00459427,-0.00092038,0.00179203,-0.00183395,-0.
 00165705,-0.12466675,-0.00353309,-0.03560260,0.67600084,0.01002383,0.0
 1039192,0.01695223,0.00020500,0.00210792,-0.00412041,-0.01377558,-0.00
 358718,-0.10312626,0.29360223,-0.07031582,0.81703578,0.00287727,-0.000
 58277,-0.00104435,0.00062956,-0.00079285,0.00014759,0.01561216,0.01088
 987,-0.00439523,-0.12696365,0.09017932,-0.10511901,0.10811121,-0.00373
 531,-0.00221379,-0.00754253,0.00000035,0.00073800,0.00000611,0.0171551
 8,-0.05670111,0.03437993,0.09452037,-0.33914473,0.18995476,-0.11989146
 ,0.37289207,-0.00105345,-0.00118929,0.00126829,0.00015404,-0.00160155,
 0.00085220,-0.00437486,0.02173885,0.00904334,-0.10510083,0.18118791,-0
 .28633613,0.16181249,-0.24092251,0.35366668,0.00011361,0.00442401,-0.0
 0300009,0.00045168,-0.00082156,0.00119394,0.00756779,-0.01622790,-0.02
 064936,-0.16066475,-0.04728385,-0.17400401,0.00042080,0.00995073,-0.05
 106602,0.14925312,-0.00073224,-0.00497718,-0.00151261,-0.00110844,-0.0
 0404772,-0.00225539,-0.02245088,-0.01557856,-0.04544163,-0.05170151,-0
 .16448575,-0.10471296,0.02376457,0.03661506,0.04802227,0.05270032,0.16
 047178,-0.00302231,0.00890430,-0.00444294,0.00119306,-0.00167367,0.002
 25586,-0.02067341,-0.03288213,-0.02409238,-0.17401695,-0.09579590,-0.4
 2627280,-0.05101775,0.02013400,-0.07722710,0.24571297,0.10688907,0.524
 17551,-0.07363096,-0.00912497,-0.03419869,0.00309164,-0.01271898,-0.00
 162677,0.01405790,0.00054919,0.01788498,0.00564579,0.00394819,-0.00457
 261,-0.00049961,-0.00007320,0.00114203,-0.00059997,-0.00081620,0.00014
 132,0.23479763,-0.03847158,-0.34704599,-0.07867840,0.00001925,-0.00347
 884,0.00001209,0.02285214,-0.05338208,0.04581008,0.00375624,0.00608555
 ,0.00757062,0.00009505,-0.00367396,0.00018133,-0.00138719,0.00053193,-
 0.00279659,-0.01934751,0.73652709,-0.03430951,-0.01955004,-0.12588259,
 -0.00157791,-0.02565710,0.00059658,0.01796621,0.00087870,0.04138879,-0
 .00457553,0.00794962,-0.00126027,0.00114545,-0.00016405,0.00123781,0.0
 0014192,-0.00163773,-0.00039844,0.22407178,-0.03651293,0.57477136,0.00
 386300,-0.00332453,0.00307560,-0.00340678,0.00011100,0.00204281,0.0059
 8569,-0.00094624,-0.00272981,0.00096454,-0.00018194,-0.00016622,-0.000
 39798,-0.00012366,0.00019018,-0.00001709,0.00002993,-0.00001527,-0.068
 18524,0.06305560,-0.06798032,0.06180102,0.01016130,-0.01704185,0.02039
 235,-0.00001853,0.00116128,-0.00001445,-0.00148652,-0.00365582,-0.0030
 4090,0.00083632,0.00020825,0.00168206,-0.00000908,-0.00095299,-0.00001
 918,-0.00014029,-0.00016415,-0.00028347,0.06394276,-0.19674141,0.12815
 321,-0.06768454,0.20770286,0.00312942,-0.00677239,0.00860657,0.0020430
 2,0.00024678,-0.00030410,-0.00273167,-0.00195041,0.00182793,-0.0001624
 4,-0.00036974,0.00071827,0.00019057,-0.00025207,-0.00010942,-0.0000159
 0,0.00005895,-0.00004114,-0.06797583,0.12636269,-0.17073604,0.07544813
 ,-0.13560623,0.17565071,0.00356773,-0.03911792,0.00260000,0.00673856,0
 .00003807,-0.00257858,-0.01705438,0.00835464,-0.02301909,-0.00201306,-
 0.00051004,-0.00155538,0.00017335,0.00096194,-0.00005836,0.00029798,-0
 .00055733,0.00018681,-0.11174696,0.00187270,-0.09347745,-0.00052250,-0
 .00420419,-0.00825211,0.25241684,-0.01590261,-0.00390363,-0.03206190,-
 0.00001303,-0.00427104,-0.00007497,0.00770144,0.00244617,0.01554937,-0
 .00064330,-0.01021531,-0.00132942,-0.00088365,0.00316014,-0.00177288,0
 .00156939,0.00260676,0.00317416,-0.02857290,-0.12305371,-0.05778807,0.
 01065842,0.00635733,0.02148232,-0.00538217,0.67912199,0.00268891,-0.07
 883369,0.00731350,-0.00257956,0.00002649,0.00282159,-0.02301724,0.0168
 6253,-0.05192715,-0.00155075,-0.00106265,-0.00438072,-0.00006732,0.001
 94831,0.00007908,0.00019297,-0.00111219,0.00059319,-0.09359769,0.00354
 862,-0.25387901,-0.00819176,-0.00845787,-0.01297227,0.20263124,-0.0087
 7651,0.55998573,0.00376757,0.00145920,-0.00422569,-0.00015293,-0.00043
 978,0.00006178,0.00002041,0.00002008,0.00096817,-0.00089762,-0.0004532
 9,0.00021530,0.00013630,0.00007085,0.00011618,0.00023307,0.00017876,0.
 00026220,0.00423302,-0.01661110,-0.00673937,-0.00219207,-0.00002634,0.
 00238284,-0.04043588,-0.02318608,-0.01370841,0.06945945,-0.00173472,0.
 01042611,-0.00347929,0.00001943,-0.00124900,0.00003512,-0.00120808,-0.
 01225810,-0.00247996,0.00152591,0.01311233,0.00313044,0.00066209,-0.00
 484139,0.00131801,-0.00176709,-0.00356925,-0.00357879,-0.00986002,-0.0
 4432193,-0.02006919,0.00045767,0.00257523,0.00094639,-0.04049221,-0.26
 738103,-0.08249700,-0.08802045,1.16699037,-0.00423806,0.00295730,-0.00
 265843,0.00006362,-0.00088958,-0.00005987,0.00096388,-0.00000513,0.001
 48211,0.00022345,-0.00085930,-0.00056008,0.00011822,0.00012448,0.00031
 788,0.00025420,0.00034584,0.00061771,-0.00671400,-0.03366469,-0.006111
 42,0.00238439,-0.00002952,0.00142840,-0.01377126,-0.04761574,-0.061602
 68,0.06410782,-0.17313555,0.16602756,0.00014969,0.00145813,-0.00113285
 ,-0.00003544,-0.00027887,0.00000872,0.00005912,-0.00204620,-0.00037106
 ,0.00006254,0.00229049,0.00066614,0.00010081,-0.00080072,0.00018297,-0
 .00031411,-0.00064773,-0.00060453,0.00033213,-0.00729667,-0.00056741,-
 0.00043128,0.00001861,-0.00016045,-0.01668373,0.00532364,-0.00293665,-
 0.05691607,0.11325621,-0.03800149,0.14085949,0.00102042,-0.00421739,0.
 00203822,-0.00002117,0.00081319,-0.00003960,0.00138059,0.00968103,0.00
 281868,-0.00136571,-0.01216049,-0.00279815,-0.00056205,0.00460941,-0.0
 0111724,0.00151585,0.00362110,0.00307155,0.00274462,0.01757449,0.00559
 706,-0.00043287,0.00033873,-0.00086982,0.02020953,-0.06956608,0.040518
 73,0.09547535,-0.74460817,0.18976387,-0.21974381,1.67812906,-0.0011345
 8,0.00291952,-0.00156090,0.00000977,-0.00055878,-0.00002288,-0.0003577
 5,-0.00408779,-0.00049715,0.00065223,0.00457097,0.00106875,0.00018360,
 -0.00159602,0.00037299,-0.00059599,-0.00129183,-0.00122272,-0.00052782
 ,-0.01463895,-0.00052234,-0.00016269,0.00004038,-0.00067780,-0.0028814
 0,0.01051811,-0.02098111,-0.03806804,0.22560355,-0.11372470,0.07203688
 ,-0.43698686,0.24825492,-0.00020419,-0.00034281,0.00039313,-0.00001849
 ,0.00010276,-0.00000082,0.00006409,0.00080910,0.00025895,0.00002112,-0
 .00103266,-0.00032687,-0.00004636,0.00037184,-0.00006285,0.00013017,0.
 00031031,0.00027227,-0.00029169,0.00202294,0.00007289,0.00032502,0.000
 01058,-0.00006651,0.00664772,-0.00462572,-0.00108442,0.01543849,0.0246
 9151,-0.00654882,-0.07016212,0.10318721,-0.02876158,0.04849505,-0.0005
 9593,0.00140078,-0.00119493,0.00002795,-0.00048556,0.00005470,-0.00086
 848,-0.00502455,-0.00176923,0.00083176,0.00727108,0.00170380,0.0002424
 2,-0.00279068,0.00047902,-0.00090601,-0.00230205,-0.00183625,0.0002914
 2,-0.00671390,0.00056115,-0.00026530,-0.00018461,-0.00053591,-0.001884
 34,0.02427648,-0.00373123,0.02139397,-0.06375348,0.04280895,0.10710399
 ,-0.88164003,0.21278580,-0.12544504,0.93177709,0.00039220,-0.00068434,
 0.00038814,-0.00000112,0.00020538,-0.00001934,0.00025242,0.00161202,0.
 00045193,-0.00031985,-0.00205458,-0.00047124,-0.00006322,0.00073885,-0
 .00013932,0.00026760,0.00061685,0.00053783,0.00006581,0.00405268,-0.00
 017503,-0.00006726,0.00001913,0.00022208,-0.00107406,-0.00925805,0.004
 97623,-0.00656107,0.04945254,0.00569618,-0.02874721,0.20489485,-0.1128
 7568,0.03583770,-0.24947008,0.10178035,-0.00278276,0.02161960,-0.02256
 256,0.00335864,0.00141482,-0.00224310,-0.11282515,-0.02798981,-0.10523
 252,-0.00256973,-0.01297067,0.00122851,-0.00052680,0.00178411,-0.00429
 036,0.00354737,0.00224012,0.00033318,-0.00881465,-0.01452289,-0.011201
 50,-0.00049697,-0.00034127,0.00009392,0.01336294,0.00106012,0.02234396
 ,0.00355441,0.00353905,-0.00393248,0.00148484,-0.00002201,-0.00094230,
 -0.00080187,0.00048589,0.00035531,0.24863612,0.00214724,0.05049754,0.0
 0449412,0.00173956,-0.00379482,0.00347042,-0.00242457,-0.12177720,-0.0
 0510883,-0.01582688,-0.02192851,-0.03194073,-0.00333153,-0.00169501,-0
 .00673772,-0.00090955,-0.00554898,-0.00187743,-0.01228139,-0.03123528,
 -0.02485408,-0.00045857,-0.00032560,-0.00092286,0.02347363,-0.05053891
 ,0.04708460,0.00000491,0.00625249,0.00001294,0.00101761,-0.00592727,0.
 00201964,-0.00044884,0.00258928,-0.00089065,-0.01949644,0.73804075,-0.
 02263980,0.04371921,-0.03698045,-0.00224270,0.00281951,-0.00003183,-0.
 10512894,-0.05661243,-0.27267559,0.00120976,-0.02621604,-0.00085137,-0
 .00430280,0.00359180,-0.00706176,0.00031814,0.00447324,0.00404962,-0.0
 1119103,-0.02937022,-0.02594688,0.00009408,-0.00068629,-0.00035890,0.0
 2243334,0.00192590,0.04747642,-0.00394669,0.00713609,-0.00240951,-0.00
 093751,-0.00007952,0.00006389,0.00035156,0.00099483,-0.00026577,0.2284
 1884,-0.03696923,0.59527395,0.00270399,-0.00147783,-0.00366779,0.00046
 481,0.00057879,-0.00061338,0.00081184,0.01009353,-0.00837615,-0.004186
 75,0.00200148,0.00067551,0.00051162,-0.00061637,0.00133420,0.00076186,
 -0.00021757,0.00043901,-0.00056587,-0.00039816,0.00026396,-0.00056501,
 0.00003895,0.00030296,0.00649361,-0.00100688,-0.00317139,0.00003671,-0
 .00026603,0.00012901,-0.00019620,-0.00007403,0.00012281,0.00003812,-0.
 00004655,-0.00001234,-0.07183871,0.06525434,-0.06615622,0.06358820,-0.
 00116981,-0.00019917,-0.00237620,-0.00022390,0.00069606,-0.00045033,-0
 .00209524,0.01079882,-0.00419738,0.00004832,0.00050159,0.00011381,-0.0
 0087161,-0.00414365,-0.00177002,0.00057516,0.00004656,0.00116038,-0.00
 041293,-0.00046197,-0.00083099,0.00003290,-0.00000146,0.00006898,-0.00
 111046,-0.00283647,-0.00227758,0.00031227,-0.00103235,0.00062501,0.000
 05766,-0.00026864,0.00011578,0.00000010,-0.00017270,-0.00000045,0.0660
 9585,-0.20446929,0.13252827,-0.07050462,0.21496451,-0.00366511,-0.0029
 9474,-0.00287631,-0.00061681,0.00116441,-0.00046681,-0.00842599,0.0203
 4808,-0.01190816,0.00067246,0.00405696,-0.00315716,0.00133374,-0.00125
 205,0.00253331,0.00043710,-0.00044158,0.00142662,0.00026438,-0.0008006
 2,-0.00016784,0.00030289,0.00008135,-0.00010474,-0.00317158,-0.0020707
 1,0.00166744,0.00013143,-0.00054047,0.00023458,0.00012328,-0.00014877,
 -0.00000963,-0.00001217,-0.00009488,0.00001940,-0.06615249,0.13084220,
 -0.17166416,0.07377259,-0.14132847,0.17493855,-0.00377372,0.00643993,-
 0.00123259,-0.00051312,0.00015030,0.00056190,0.00524052,-0.01484441,-0
 .00005923,0.00472726,-0.00040281,-0.00668895,-0.00014113,0.00049538,0.
 00106260,-0.00077040,-0.00093062,0.00064570,-0.00161736,0.00267617,-0.
 02072916,0.00317222,-0.00093359,-0.00376524,-0.10122230,0.05848923,-0.
 06926444,0.00624412,-0.00034597,0.00280815,0.00215019,-0.00366819,0.00
 016341,0.00010930,-0.00016716,-0.00020339,-0.07492376,-0.03836271,-0.0
 3476524,0.00538161,0.00930836,0.00297030,0.24876321,0.00864268,-0.0569
 6902,0.01720127,0.00013551,-0.00107953,0.00027073,-0.03683067,-0.00724
 082,-0.07425484,-0.00022639,0.01103409,-0.00045448,0.00099596,-0.00167
 099,0.00201075,-0.00111533,-0.00243071,-0.00225128,0.02056318,0.052758
 16,0.04160282,-0.00147129,0.00021933,-0.00298219,0.02811778,-0.1955771
 8,0.05613107,0.01025446,-0.05825390,0.02041137,0.00014205,0.00450025,0
 .00029395,0.00042112,-0.00484199,0.00083026,-0.00953455,-0.34600558,-0
 .02031259,-0.00348316,-0.01460112,-0.00709246,0.01709814,0.70124655,-0
 .00122545,0.01276391,-0.00556556,0.00056153,0.00030152,0.00034184,-0.0
 0015125,-0.02995368,0.00482493,-0.00668866,-0.00080184,-0.00543409,0.0
 0106519,0.00099225,0.00148029,0.00064893,-0.00187621,0.00020474,-0.020
 65903,0.00556346,-0.03291908,-0.00376684,-0.00190045,-0.00255751,-0.06
 938277,0.11731639,-0.20603462,0.00284999,-0.00094143,0.01058669,0.0001
 7867,-0.00738041,0.00239290,-0.00020159,-0.00035652,-0.00019645,-0.034
 64956,-0.07840109,-0.12784824,0.00292015,0.01868323,0.00988248,0.24378
 761,0.03667597,0.61900998,-0.00034313,0.00030633,0.00040547,-0.0005577
 9,-0.00002591,0.00026149,0.00622886,-0.00030413,-0.00220663,0.00082049
 ,0.00024028,-0.00040787,0.00000248,-0.00007003,0.00001203,-0.00041112,
 -0.00006148,0.00016370,0.00379422,0.00168501,-0.00250403,0.00010343,-0
 .00016418,-0.00046071,-0.00001991,-0.00458589,-0.00868747,-0.00252896,
 -0.00045729,0.00215335,-0.00045986,0.00035625,0.00026344,0.00025564,-0
 .00019860,-0.00012151,0.00163608,-0.00009680,-0.00151480,-0.00343983,-
 0.00004203,0.00203597,-0.09282663,-0.03370950,-0.11528691,0.08774603,0
 .00019007,-0.00107006,0.00038043,-0.00003515,0.00008675,-0.00006777,0.
 00016705,-0.00496529,0.00029061,-0.00075206,0.00078290,-0.00151660,0.0
 0009573,-0.00018638,0.00019223,-0.00017669,-0.00078884,-0.00035797,0.0
 0116875,-0.00336818,0.00232163,0.00054342,0.00050486,0.00109550,0.0102
 3037,0.00937448,0.02062837,-0.00043281,0.00191208,-0.00085025,0.000145
 59,-0.00087918,0.00029254,-0.00003239,0.00059483,-0.00006439,-0.013361
 92,-0.00413359,-0.02694253,0.00012413,0.00117927,0.00027174,-0.0350020
 6,-0.08108755,-0.07068508,0.03712797,0.08204390,0.00040451,0.00061551,
 0.00027343,0.00026155,-0.00004905,-0.00016102,-0.00220496,-0.00066059,
 0.00288006,-0.00041187,0.00048319,0.00019550,0.00001282,-0.00014125,0.
 00002186,0.00016359,-0.00012409,-0.00016356,-0.00250682,0.00336083,0.0
 0000440,-0.00045792,-0.00033010,-0.00059205,-0.00862935,-0.00921799,-0
 .01313563,0.00215356,-0.00090047,0.00073558,0.00026250,0.00071741,-0.0
 0005856,-0.00012088,-0.00039921,0.00007069,-0.00156685,-0.00022132,-0.
 00076942,0.00203708,-0.00006404,-0.00034757,-0.11529143,-0.06808036,-0
 .26816827,0.12589448,0.07501154,0.27921457\\0.00000204,-0.00000186,0.0
 0001549,-0.00000565,-0.00000519,-0.00001696,0.00000250,0.00000619,0.00
 000489,0.00000132,0.00002324,0.00000520,0.00000150,-0.00001710,0.00001
 010,-0.00000206,-0.00000543,-0.00001309,0.00000777,0.,0.00001083,-0.00
 000660,0.00000791,-0.00000859,-0.00000377,-0.00001670,-0.00000263,0.00
 000044,-0.00000550,-0.00000057,0.00000041,-0.00000092,0.00000553,-0.00
 000146,0.00001064,-0.00000665,-0.00000383,0.00000577,-0.00001789,0.000
 00468,-0.00001254,0.00001341,-0.00000507,0.00000698,-0.00001172,0.0000
 0777,0.00000449,0.00001265\\\@


 COMMON SENSE IS NOT SO COMMON.   -- VOLTAIRE
 Job cpu time:       0 days  0 hours 10 minutes 45.8 seconds.
 File lengths (MBytes):  RWF=     81 Int=      0 D2E=      0 Chk=      4 Scr=      1
 Normal termination of Gaussian 09 at Fri Aug 20 16:01:48 2021.
