 Entering Gaussian System, Link 0=g09
 Input=B3LYP6-31G.HABMED.gjf
 Output=B3LYP6-31G.HABMED.log
 Initial command:
 /public/home/users/caep010/software/Gaussian09/g09/l1.exe "/public/home/users/caep010/.cache/gau_scr/Gau-188368.inp" -scrdir="/public/home/users/caep010/.cache/gau_scr/"
 Entering Link 1 = /public/home/users/caep010/software/Gaussian09/g09/l1.exe PID=    188369.
  
 Copyright (c) 1988,1990,1992,1993,1995,1998,2003,2009,2015,
            Gaussian, Inc.  All Rights Reserved.
  
 This is part of the Gaussian(R) 09 program.  It is based on
 the Gaussian(R) 03 system (copyright 2003, Gaussian, Inc.),
 the Gaussian(R) 98 system (copyright 1998, Gaussian, Inc.),
 the Gaussian(R) 94 system (copyright 1995, Gaussian, Inc.),
 the Gaussian 92(TM) system (copyright 1992, Gaussian, Inc.),
 the Gaussian 90(TM) system (copyright 1990, Gaussian, Inc.),
 the Gaussian 88(TM) system (copyright 1988, Gaussian, Inc.),
 the Gaussian 86(TM) system (copyright 1986, Carnegie Mellon
 University), and the Gaussian 82(TM) system (copyright 1983,
 Carnegie Mellon University). Gaussian is a federally registered
 trademark of Gaussian, Inc.
  
 This software contains proprietary and confidential information,
 including trade secrets, belonging to Gaussian, Inc.
  
 This software is provided under written license and may be
 used, copied, transmitted, or stored only in accord with that
 written license.
  
 The following legend is applicable only to US Government
 contracts under FAR:
  
                    RESTRICTED RIGHTS LEGEND
  
 Use, reproduction and disclosure by the US Government is
 subject to restrictions as set forth in subparagraphs (a)
 and (c) of the Commercial Computer Software - Restricted
 Rights clause in FAR 52.227-19.
  
 Gaussian, Inc.
 340 Quinnipiac St., Bldg. 40, Wallingford CT 06492
  
  
 ---------------------------------------------------------------
 Warning -- This program may not be used in any manner that
 competes with the business of Gaussian, Inc. or will provide
 assistance to any competitor of Gaussian, Inc.  The licensee
 of this program is prohibited from giving any competitor of
 Gaussian, Inc. access to this program.  By using this program,
 the user acknowledges that Gaussian, Inc. is engaged in the
 business of creating and licensing software in the field of
 computational chemistry and represents and warrants to the
 licensee that it is not a competitor of Gaussian, Inc. and that
 it will not use this program in any manner prohibited above.
 ---------------------------------------------------------------
  

 Cite this work as:
 Gaussian 09, Revision E.01,
 M. J. Frisch, G. W. Trucks, H. B. Schlegel, G. E. Scuseria, 
 M. A. Robb, J. R. Cheeseman, G. Scalmani, V. Barone, B. Mennucci, 
 G. A. Petersson, H. Nakatsuji, M. Caricato, X. Li, H. P. Hratchian, 
 A. F. Izmaylov, J. Bloino, G. Zheng, J. L. Sonnenberg, M. Hada, 
 M. Ehara, K. Toyota, R. Fukuda, J. Hasegawa, M. Ishida, T. Nakajima, 
 Y. Honda, O. Kitao, H. Nakai, T. Vreven, J. A. Montgomery, Jr., 
 J. E. Peralta, F. Ogliaro, M. Bearpark, J. J. Heyd, E. Brothers, 
 K. N. Kudin, V. N. Staroverov, T. Keith, R. Kobayashi, J. Normand, 
 K. Raghavachari, A. Rendell, J. C. Burant, S. S. Iyengar, J. Tomasi, 
 M. Cossi, N. Rega, J. M. Millam, M. Klene, J. E. Knox, J. B. Cross, 
 V. Bakken, C. Adamo, J. Jaramillo, R. Gomperts, R. E. Stratmann, 
 O. Yazyev, A. J. Austin, R. Cammi, C. Pomelli, J. W. Ochterski, 
 R. L. Martin, K. Morokuma, V. G. Zakrzewski, G. A. Voth, 
 P. Salvador, J. J. Dannenberg, S. Dapprich, A. D. Daniels, 
 O. Farkas, J. B. Foresman, J. V. Ortiz, J. Cioslowski, 
 and D. J. Fox, Gaussian, Inc., Wallingford CT, 2013.
 
 ******************************************
 Gaussian 09:  ES64L-G09RevE.01 30-Nov-2015
                20-Aug-2021 
 ******************************************
 %nproc=32
 Will use up to   32 processors via shared memory.
 %mem=180GB
 -------------------------
 #P OPT Freq B3LYP/6-31G**
 -------------------------
 1/14=-1,18=20,19=15,26=3,38=1/1,3;
 2/9=110,12=2,17=6,18=5,40=1/2;
 3/5=1,6=6,7=101,11=2,16=1,25=1,30=1,71=1,74=-5/1,2,3;
 4//1;
 5/5=2,38=5/2;
 6/7=2,8=2,9=2,10=2,28=1/1;
 7//1,2,3,16;
 1/14=-1,18=20,19=15,26=3/3(2);
 2/9=110/2;
 99//99;
 2/9=110/2;
 3/5=1,6=6,7=101,11=2,16=1,25=1,30=1,71=1,74=-5/1,2,3;
 4/5=5,16=3,69=1/1;
 5/5=2,38=5/2;
 7//1,2,3,16;
 1/14=-1,18=20,19=15,26=3/3(-5);
 2/9=110/2;
 6/7=2,8=2,9=2,10=2,19=2,28=1/1;
 99/9=1/99;
 Leave Link    1 at Fri Aug 20 15:53:54 2021, MaxMem= 24159191040 cpu:         2.4
 (Enter /public/home/users/caep010/software/Gaussian09/g09/l101.exe)
 ------
 HABMED
 ------
 Symbolic Z-matrix:
 Charge =  0 Multiplicity = 1
 O                     4.2602    0.7423    1.8863 
 N                     3.5378    1.7081    2.4123 
 C                     2.5296    1.3944    3.2822 
 N                     2.4218    0.0359    3.6427 
 C                     1.7101    2.3712    3.8143 
 C                     0.5763    2.0088    4.7126 
 H                    -0.1603    1.7292    4.151 
 H                     0.7304    1.2601    5.249 
 H                     0.3385    2.7134    5.2296 
 H                     3.1709   -0.3311    4.0626 
 N                     1.9729   -0.803     2.6504 
 O                     2.2766   -1.9785    2.7665 
 O                     1.2639   -0.332     1.7851 
 C                     1.9729    3.693     3.4611 
 C                     3.0025    3.991     2.5983 
 H                     3.1887    4.9393    2.3572 
 C                     3.7774    2.9893    2.0761 
 H                     4.5425    3.1181    1.4721 
 H                     1.3984    4.3966    3.8462 
 
 NAtoms=     19 NQM=       19 NQMF=       0 NMMI=      0 NMMIF=      0
                NMic=       0 NMicF=      0.
                    Isotopes and Nuclear Properties:
 (Nuclear quadrupole moments (NQMom) in fm**2, nuclear magnetic moments (NMagM)
  in nuclear magnetons)

  Atom         1           2           3           4           5           6           7           8           9          10
 IAtWgt=          16          14          12          14          12          12           1           1           1           1
 AtmWgt=  15.9949146  14.0030740  12.0000000  14.0030740  12.0000000  12.0000000   1.0078250   1.0078250   1.0078250   1.0078250
 NucSpn=           0           2           0           2           0           0           1           1           1           1
 AtZEff=   0.0000000   0.0000000   0.0000000   0.0000000   0.0000000   0.0000000   0.0000000   0.0000000   0.0000000   0.0000000
 NQMom=    0.0000000   2.0440000   0.0000000   2.0440000   0.0000000   0.0000000   0.0000000   0.0000000   0.0000000   0.0000000
 NMagM=    0.0000000   0.4037610   0.0000000   0.4037610   0.0000000   0.0000000   2.7928460   2.7928460   2.7928460   2.7928460
 AtZNuc=   8.0000000   7.0000000   6.0000000   7.0000000   6.0000000   6.0000000   1.0000000   1.0000000   1.0000000   1.0000000

  Atom        11          12          13          14          15          16          17          18          19
 IAtWgt=          14          16          16          12          12           1          12           1           1
 AtmWgt=  14.0030740  15.9949146  15.9949146  12.0000000  12.0000000   1.0078250  12.0000000   1.0078250   1.0078250
 NucSpn=           2           0           0           0           0           1           0           1           1
 AtZEff=   0.0000000   0.0000000   0.0000000   0.0000000   0.0000000   0.0000000   0.0000000   0.0000000   0.0000000
 NQMom=    2.0440000   0.0000000   0.0000000   0.0000000   0.0000000   0.0000000   0.0000000   0.0000000   0.0000000
 NMagM=    0.4037610   0.0000000   0.0000000   0.0000000   0.0000000   2.7928460   0.0000000   2.7928460   2.7928460
 AtZNuc=   7.0000000   8.0000000   8.0000000   6.0000000   6.0000000   1.0000000   6.0000000   1.0000000   1.0000000
 Leave Link  101 at Fri Aug 20 15:53:54 2021, MaxMem= 24159191040 cpu:        11.0
 (Enter /public/home/users/caep010/software/Gaussian09/g09/l103.exe)

 GradGradGradGradGradGradGradGradGradGradGradGradGradGradGradGradGradGrad
 Berny optimization.
 Initialization pass.
                           ----------------------------
                           !    Initial Parameters    !
                           ! (Angstroms and Degrees)  !
 --------------------------                            --------------------------
 ! Name  Definition              Value          Derivative Info.                !
 --------------------------------------------------------------------------------
 ! R1    R(1,2)                  1.3158         estimate D2E/DX2                !
 ! R2    R(2,3)                  1.3681         estimate D2E/DX2                !
 ! R3    R(2,17)                 1.3461         estimate D2E/DX2                !
 ! R4    R(3,4)                  1.4096         estimate D2E/DX2                !
 ! R5    R(3,5)                  1.3816         estimate D2E/DX2                !
 ! R6    R(4,10)                 0.9339         estimate D2E/DX2                !
 ! R7    R(4,11)                 1.3747         estimate D2E/DX2                !
 ! R8    R(5,6)                  1.4912         estimate D2E/DX2                !
 ! R9    R(5,14)                 1.3932         estimate D2E/DX2                !
 ! R10   R(6,7)                  0.9675         estimate D2E/DX2                !
 ! R11   R(6,8)                  0.9338         estimate D2E/DX2                !
 ! R12   R(6,9)                  0.9057         estimate D2E/DX2                !
 ! R13   R(11,12)                1.2196         estimate D2E/DX2                !
 ! R14   R(11,13)                1.2138         estimate D2E/DX2                !
 ! R15   R(14,15)                1.376          estimate D2E/DX2                !
 ! R16   R(14,19)                0.9866         estimate D2E/DX2                !
 ! R17   R(15,16)                0.996          estimate D2E/DX2                !
 ! R18   R(15,17)                1.3699         estimate D2E/DX2                !
 ! R19   R(17,18)                0.9833         estimate D2E/DX2                !
 ! A1    A(1,2,3)              119.3726         estimate D2E/DX2                !
 ! A2    A(1,2,17)             120.0702         estimate D2E/DX2                !
 ! A3    A(3,2,17)             120.5469         estimate D2E/DX2                !
 ! A4    A(2,3,4)              116.1009         estimate D2E/DX2                !
 ! A5    A(2,3,5)              121.3252         estimate D2E/DX2                !
 ! A6    A(4,3,5)              122.5134         estimate D2E/DX2                !
 ! A7    A(3,4,10)             115.6177         estimate D2E/DX2                !
 ! A8    A(3,4,11)             115.3698         estimate D2E/DX2                !
 ! A9    A(10,4,11)            110.283          estimate D2E/DX2                !
 ! A10   A(3,5,6)              120.741          estimate D2E/DX2                !
 ! A11   A(3,5,14)             117.4677         estimate D2E/DX2                !
 ! A12   A(6,5,14)             121.783          estimate D2E/DX2                !
 ! A13   A(5,6,7)              107.4221         estimate D2E/DX2                !
 ! A14   A(5,6,8)              114.5443         estimate D2E/DX2                !
 ! A15   A(5,6,9)              110.7582         estimate D2E/DX2                !
 ! A16   A(7,6,8)              103.1412         estimate D2E/DX2                !
 ! A17   A(7,6,9)              110.8703         estimate D2E/DX2                !
 ! A18   A(8,6,9)              109.8264         estimate D2E/DX2                !
 ! A19   A(4,11,12)            115.984          estimate D2E/DX2                !
 ! A20   A(4,11,13)            117.938          estimate D2E/DX2                !
 ! A21   A(12,11,13)           125.9667         estimate D2E/DX2                !
 ! A22   A(5,14,15)            120.3707         estimate D2E/DX2                !
 ! A23   A(5,14,19)            117.8923         estimate D2E/DX2                !
 ! A24   A(15,14,19)           121.7368         estimate D2E/DX2                !
 ! A25   A(14,15,16)           119.8587         estimate D2E/DX2                !
 ! A26   A(14,15,17)           120.261          estimate D2E/DX2                !
 ! A27   A(16,15,17)           119.8791         estimate D2E/DX2                !
 ! A28   A(2,17,15)            120.0061         estimate D2E/DX2                !
 ! A29   A(2,17,18)            114.621          estimate D2E/DX2                !
 ! A30   A(15,17,18)           125.3485         estimate D2E/DX2                !
 ! D1    D(1,2,3,4)              5.5222         estimate D2E/DX2                !
 ! D2    D(1,2,3,5)           -177.2384         estimate D2E/DX2                !
 ! D3    D(17,2,3,4)          -175.6446         estimate D2E/DX2                !
 ! D4    D(17,2,3,5)             1.5948         estimate D2E/DX2                !
 ! D5    D(1,2,17,15)          178.3414         estimate D2E/DX2                !
 ! D6    D(1,2,17,18)           -3.3597         estimate D2E/DX2                !
 ! D7    D(3,2,17,15)           -0.4837         estimate D2E/DX2                !
 ! D8    D(3,2,17,18)          177.8152         estimate D2E/DX2                !
 ! D9    D(2,3,4,10)            59.9617         estimate D2E/DX2                !
 ! D10   D(2,3,4,11)           -70.7956         estimate D2E/DX2                !
 ! D11   D(5,3,4,10)          -117.2418         estimate D2E/DX2                !
 ! D12   D(5,3,4,11)           112.0009         estimate D2E/DX2                !
 ! D13   D(2,3,5,6)            177.2022         estimate D2E/DX2                !
 ! D14   D(2,3,5,14)            -1.7724         estimate D2E/DX2                !
 ! D15   D(4,3,5,6)             -5.7378         estimate D2E/DX2                !
 ! D16   D(4,3,5,14)           175.2877         estimate D2E/DX2                !
 ! D17   D(3,4,11,12)          156.7787         estimate D2E/DX2                !
 ! D18   D(3,4,11,13)          -26.8259         estimate D2E/DX2                !
 ! D19   D(10,4,11,12)          23.5122         estimate D2E/DX2                !
 ! D20   D(10,4,11,13)        -160.0924         estimate D2E/DX2                !
 ! D21   D(3,5,6,7)            -80.9262         estimate D2E/DX2                !
 ! D22   D(3,5,6,8)             32.9809         estimate D2E/DX2                !
 ! D23   D(3,5,6,9)            157.8592         estimate D2E/DX2                !
 ! D24   D(14,5,6,7)            98.0035         estimate D2E/DX2                !
 ! D25   D(14,5,6,8)          -148.0895         estimate D2E/DX2                !
 ! D26   D(14,5,6,9)           -23.2111         estimate D2E/DX2                !
 ! D27   D(3,5,14,15)            0.908          estimate D2E/DX2                !
 ! D28   D(3,5,14,19)         -179.269          estimate D2E/DX2                !
 ! D29   D(6,5,14,15)         -178.0551         estimate D2E/DX2                !
 ! D30   D(6,5,14,19)            1.7678         estimate D2E/DX2                !
 ! D31   D(5,14,15,16)        -179.4647         estimate D2E/DX2                !
 ! D32   D(5,14,15,17)           0.1391         estimate D2E/DX2                !
 ! D33   D(19,14,15,16)          0.7193         estimate D2E/DX2                !
 ! D34   D(19,14,15,17)       -179.677          estimate D2E/DX2                !
 ! D35   D(14,15,17,2)          -0.3704         estimate D2E/DX2                !
 ! D36   D(14,15,17,18)       -178.4743         estimate D2E/DX2                !
 ! D37   D(16,15,17,2)         179.2333         estimate D2E/DX2                !
 ! D38   D(16,15,17,18)          1.1293         estimate D2E/DX2                !
 --------------------------------------------------------------------------------
 Trust Radius=3.00D-01 FncErr=1.00D-07 GrdErr=1.00D-06
 Number of steps in this run=     97 maximum allowed number of steps=    114.
 GradGradGradGradGradGradGradGradGradGradGradGradGradGradGradGradGradGrad

 Leave Link  103 at Fri Aug 20 15:53:54 2021, MaxMem= 24159191040 cpu:         0.5
 (Enter /public/home/users/caep010/software/Gaussian09/g09/l202.exe)
                          Input orientation:                          
 ---------------------------------------------------------------------
 Center     Atomic      Atomic             Coordinates (Angstroms)
 Number     Number       Type             X           Y           Z
 ---------------------------------------------------------------------
      1          8           0        4.260200    0.742300    1.886300
      2          7           0        3.537800    1.708100    2.412300
      3          6           0        2.529600    1.394400    3.282200
      4          7           0        2.421800    0.035900    3.642700
      5          6           0        1.710100    2.371200    3.814300
      6          6           0        0.576300    2.008800    4.712600
      7          1           0       -0.160300    1.729200    4.151000
      8          1           0        0.730400    1.260100    5.249000
      9          1           0        0.338500    2.713400    5.229600
     10          1           0        3.170900   -0.331100    4.062600
     11          7           0        1.972900   -0.803000    2.650400
     12          8           0        2.276600   -1.978500    2.766500
     13          8           0        1.263900   -0.332000    1.785100
     14          6           0        1.972900    3.693000    3.461100
     15          6           0        3.002500    3.991000    2.598300
     16          1           0        3.188700    4.939300    2.357200
     17          6           0        3.777400    2.989300    2.076100
     18          1           0        4.542500    3.118100    1.472100
     19          1           0        1.398400    4.396600    3.846200
 ---------------------------------------------------------------------
                    Distance matrix (angstroms):
                    1          2          3          4          5
     1  O    0.000000
     2  N    1.315792   0.000000
     3  C    2.317056   1.368065   0.000000
     4  N    2.638874   2.357031   1.409647   0.000000
     5  C    3.587967   2.397038   1.381611   2.447364   0.000000
     6  C    4.812807   3.761952   2.497781   2.905665   1.491234
     7  H    5.063957   4.086498   2.846483   3.129357   2.005973
     8  H    4.902587   4.016101   2.668981   2.634331   2.062212
     9  H    5.517483   4.379878   3.214506   3.745317   2.000365
    10  H    2.659895   2.648857   1.999410   0.933893   3.081885
    11  N    2.864183   2.968371   2.353222   1.374745   3.391058
    12  O    3.480255   3.912429   3.421463   2.201503   4.509844
    13  O    3.184678   3.118655   2.612233   2.219631   3.409404
    14  C    4.051958   2.736553   2.371810   3.689020   1.393187
    15  C    3.555672   2.352185   2.726479   4.131682   2.402646
    16  H    4.357140   3.250471   3.722412   5.126790   3.302202
    17  C    2.306107   1.346073   2.356987   3.607556   2.770761
    18  H    2.428102   1.970152   3.209263   4.325370   3.750500
    19  H    5.038354   3.723054   3.257440   4.483800   2.049493
                    6          7          8          9         10
     6  C    0.000000
     7  H    0.967549   0.000000
     8  H    0.933822   1.489633   0.000000
     9  H    0.905704   1.542994   1.505338   0.000000
    10  H    3.553812   3.917849   3.145712   4.318953   0.000000
    11  N    3.756245   3.635159   3.543009   4.657103   1.911074
    12  O    4.751514   4.647834   4.363722   5.642430   2.278942
    13  O    3.810826   3.445921   3.849417   4.689926   2.970464
    14  C    2.520570   2.980439   3.264873   2.599706   4.241508
    15  C    3.779660   4.186875   4.432433   3.956374   4.566517
    16  H    4.578250   4.973757   5.286044   4.618328   5.539479
    17  C    4.261403   4.625856   4.726694   4.674047   3.916514
    18  H    5.240432   5.587654   5.678842   5.652982   4.526473
    19  H    2.669848   3.104428   3.500243   2.422880   5.053685
                   11         12         13         14         15
    11  N    0.000000
    12  O    1.219636   0.000000
    13  O    1.213782   2.167872   0.000000
    14  C    4.568506   5.721942   4.417271   0.000000
    15  C    4.903593   6.015825   4.729942   1.375974   0.000000
    16  H    5.876916   6.989664   5.640812   2.061560   0.996028
    17  C    4.238818   5.235274   4.175332   2.381100   1.369878
    18  H    4.833866   5.725828   4.769736   3.299920   2.098066
    19  H    5.366174   6.525250   5.160027   0.986613   2.072415
                   16         17         18         19
    16  H    0.000000
    17  C    2.056231   0.000000
    18  H    2.435764   0.983251   0.000000
    19  H    2.390987   3.282284   4.142014   0.000000
 Stoichiometry    C6H7N3O3
 Framework group  C1[X(C6H7N3O3)]
 Deg. of freedom    51
 Full point group                 C1      NOp   1
 Largest Abelian subgroup         C1      NOp   1
 Largest concise Abelian subgroup C1      NOp   1
                         Standard orientation:                         
 ---------------------------------------------------------------------
 Center     Atomic      Atomic             Coordinates (Angstroms)
 Number     Number       Type             X           Y           Z
 ---------------------------------------------------------------------
      1          8           0        0.442867   -2.112772   -0.334655
      2          7           0       -0.499375   -1.205621   -0.191252
      3          6           0       -0.181587    0.118519   -0.322647
      4          7           0        1.138614    0.402285   -0.727183
      5          6           0       -1.126355    1.107012   -0.124803
      6          6           0       -0.751521    2.547822   -0.210509
      7          1           0       -0.350747    2.793691    0.635115
      8          1           0       -0.077137    2.737123   -0.828081
      9          1           0       -1.478877    3.058990   -0.383594
     10          1           0        1.391364    0.051904   -1.555136
     11          7           0        2.109619    0.151186    0.213042
     12          8           0        3.234692   -0.038090   -0.218118
     13          8           0        1.794267    0.202850    1.384003
     14          6           0       -2.425247    0.703387    0.176754
     15          6           0       -2.730162   -0.633785    0.287671
     16          1           0       -3.663029   -0.914086    0.495669
     17          6           0       -1.757581   -1.581069    0.105173
     18          1           0       -1.896057   -2.553678    0.145678
     19          1           0       -3.107415    1.403898    0.308418
 ---------------------------------------------------------------------
 Rotational constants (GHZ):      1.6211777      0.8348272      0.6172697
 Leave Link  202 at Fri Aug 20 15:53:54 2021, MaxMem= 24159191040 cpu:         0.8
 (Enter /public/home/users/caep010/software/Gaussian09/g09/l301.exe)
 Standard basis: 6-31G(d,p) (6D, 7F)
 Ernie: Thresh=  0.10000D-02 Tol=  0.10000D-05 Strict=F.
 There are   215 symmetry adapted cartesian basis functions of A   symmetry.
 There are   215 symmetry adapted basis functions of A   symmetry.
   215 basis functions,   385 primitive gaussians,   215 cartesian basis functions
    44 alpha electrons       44 beta electrons
       nuclear repulsion energy       730.2281589342 Hartrees.
 IExCor=  402 DFT=T Ex+Corr=B3LYP ExCW=0 ScaHFX=  0.200000
 ScaDFX=  0.800000  0.720000  1.000000  0.810000 ScalE2=  1.000000  1.000000
 IRadAn=      0 IRanWt=     -1 IRanGd=            0 ICorTp=0 IEmpDi=  4
 NAtoms=   19 NActive=   19 NUniq=   19 SFac= 1.00D+00 NAtFMM=   60 NAOKFM=F Big=F
 Integral buffers will be    131072 words long.
 Raffenetti 2 integral format.
 Two-electron integral symmetry is turned on.
 Leave Link  301 at Fri Aug 20 15:53:54 2021, MaxMem= 24159191040 cpu:         2.5
 (Enter /public/home/users/caep010/software/Gaussian09/g09/l302.exe)
 NPDir=0 NMtPBC=     1 NCelOv=     1 NCel=       1 NClECP=     1 NCelD=      1
         NCelK=      1 NCelE2=     1 NClLst=     1 CellRange=     0.0.
 One-electron integrals computed using PRISM.
 NBasis=   215 RedAO= T EigKep=  5.09D-04  NBF=   215
 NBsUse=   215 1.00D-06 EigRej= -1.00D+00 NBFU=   215
 Precomputing XC quadrature grid using
 IXCGrd= 4 IRadAn=           0 IRanWt=          -1 IRanGd=           0 AccXCQ= 0.00D+00.
 Generated NRdTot=       0 NPtTot=           0 NUsed=           0 NTot=          32
 NSgBfM=   214   214   214   214   214 MxSgAt=    19 MxSgA2=    19.
 Leave Link  302 at Fri Aug 20 15:53:55 2021, MaxMem= 24159191040 cpu:        13.5
 (Enter /public/home/users/caep010/software/Gaussian09/g09/l303.exe)
 DipDrv:  MaxL=1.
 Leave Link  303 at Fri Aug 20 15:53:55 2021, MaxMem= 24159191040 cpu:         1.4
 (Enter /public/home/users/caep010/software/Gaussian09/g09/l401.exe)
 ExpMin= 1.61D-01 ExpMax= 5.48D+03 ExpMxC= 8.25D+02 IAcc=1 IRadAn=         1 AccDes= 0.00D+00
 Harris functional with IExCor=  402 and IRadAn=       1 diagonalized for initial guess.
 HarFok:  IExCor=  402 AccDes= 0.00D+00 IRadAn=         1 IDoV= 1 UseB2=F ITyADJ=14
 ICtDFT=  3500011 ScaDFX=  1.000000  1.000000  1.000000  1.000000
 FoFCou: FMM=F IPFlag=           0 FMFlag=      100000 FMFlg1=           0
         NFxFlg=           0 DoJE=T BraDBF=F KetDBF=T FulRan=T
         wScrn=  0.000000 ICntrl=     500 IOpCl=  0 I1Cent=   200000004 NGrid=           0
         NMat0=    1 NMatS0=      1 NMatT0=    0 NMatD0=    1 NMtDS0=    0 NMtDT0=    0
 Petite list used in FoFCou.
 Harris En= -622.635931015628    
 JPrj=0 DoOrth=F DoCkMO=F.
 Leave Link  401 at Fri Aug 20 15:53:55 2021, MaxMem= 24159191040 cpu:        12.1
 (Enter /public/home/users/caep010/software/Gaussian09/g09/l502.exe)
 Closed shell SCF:
 Using DIIS extrapolation, IDIIS=  1040.
 Integral symmetry usage will be decided dynamically.
 Keep R1 ints in memory in canonical form, NReq=274800267.
 IVT=      165717 IEndB=      165717 NGot= 24159191040 MDV= 23889429514
 LenX= 23889429514 LenY= 23889382848
 Requested convergence on RMS density matrix=1.00D-08 within 128 cycles.
 Requested convergence on MAX density matrix=1.00D-06.
 Requested convergence on             energy=1.00D-06.
 No special actions if energy rises.
 FoFCou: FMM=F IPFlag=           0 FMFlag=           0 FMFlg1=           0
         NFxFlg=           0 DoJE=F BraDBF=F KetDBF=F FulRan=T
         wScrn=  0.000000 ICntrl=     600 IOpCl=  0 I1Cent=           0 NGrid=           0
         NMat0=    1 NMatS0=  23220 NMatT0=    0 NMatD0=    1 NMtDS0=    0 NMtDT0=    0
 Symmetry not used in FoFCou.
 Integral accuracy reduced to 1.0D-05 until final iterations.

 Cycle   1  Pass 0  IDiag  1:
 E= -622.035589627598    
 DIIS: error= 4.14D-02 at cycle   1 NSaved=   1.
 NSaved= 1 IEnMin= 1 EnMin= -622.035589627598     IErMin= 1 ErrMin= 4.14D-02
 ErrMax= 4.14D-02  0.00D+00 EMaxC= 1.00D-01 BMatC= 5.77D-01 BMatP= 5.77D-01
 IDIUse=3 WtCom= 5.86D-01 WtEn= 4.14D-01
 Coeff-Com:  0.100D+01
 Coeff-En:   0.100D+01
 Coeff:      0.100D+01
 Gap=     0.150 Goal=   None    Shift=    0.000
 GapD=    0.150 DampG=1.000 DampE=0.500 DampFc=0.5000 IDamp=-1.
 Damping current iteration by 5.00D-01
 RMSDP=8.06D-03 MaxDP=2.88D-01              OVMax= 3.22D-01

 Cycle   2  Pass 0  IDiag  1:
 E= -622.108735511987     Delta-E=       -0.073145884389 Rises=F Damp=T
 DIIS: error= 1.83D-02 at cycle   2 NSaved=   2.
 NSaved= 2 IEnMin= 2 EnMin= -622.108735511987     IErMin= 2 ErrMin= 1.83D-02
 ErrMax= 1.83D-02  0.00D+00 EMaxC= 1.00D-01 BMatC= 1.33D-01 BMatP= 5.77D-01
 IDIUse=3 WtCom= 8.17D-01 WtEn= 1.83D-01
 Coeff-Com:  0.287D+00 0.713D+00
 Coeff-En:   0.431D+00 0.569D+00
 Coeff:      0.313D+00 0.687D+00
 Gap=     0.156 Goal=   None    Shift=    0.000
 RMSDP=2.72D-03 MaxDP=9.84D-02 DE=-7.31D-02 OVMax= 2.43D-01

 Cycle   3  Pass 0  IDiag  1:
 E= -622.462988332214     Delta-E=       -0.354252820227 Rises=F Damp=F
 DIIS: error= 1.36D-02 at cycle   3 NSaved=   3.
 NSaved= 3 IEnMin= 3 EnMin= -622.462988332214     IErMin= 3 ErrMin= 1.36D-02
 ErrMax= 1.36D-02  0.00D+00 EMaxC= 1.00D-01 BMatC= 5.05D-02 BMatP= 1.33D-01
 IDIUse=3 WtCom= 8.64D-01 WtEn= 1.36D-01
 Coeff-Com:  0.119D+00 0.382D+00 0.500D+00
 Coeff-En:   0.000D+00 0.000D+00 0.100D+01
 Coeff:      0.103D+00 0.330D+00 0.568D+00
 Gap=     0.178 Goal=   None    Shift=    0.000
 RMSDP=1.74D-03 MaxDP=5.68D-02 DE=-3.54D-01 OVMax= 1.36D-01

 Cycle   4  Pass 0  IDiag  1:
 E= -622.487761420064     Delta-E=       -0.024773087849 Rises=F Damp=F
 DIIS: error= 1.31D-02 at cycle   4 NSaved=   4.
 NSaved= 4 IEnMin= 4 EnMin= -622.487761420064     IErMin= 4 ErrMin= 1.31D-02
 ErrMax= 1.31D-02  0.00D+00 EMaxC= 1.00D-01 BMatC= 2.53D-02 BMatP= 5.05D-02
 IDIUse=3 WtCom= 8.69D-01 WtEn= 1.31D-01
 Coeff-Com:  0.524D-01 0.149D+00 0.398D+00 0.400D+00
 Coeff-En:   0.000D+00 0.000D+00 0.349D+00 0.651D+00
 Coeff:      0.455D-01 0.129D+00 0.392D+00 0.433D+00
 Gap=     0.177 Goal=   None    Shift=    0.000
 RMSDP=9.93D-04 MaxDP=4.56D-02 DE=-2.48D-02 OVMax= 1.01D-01

 Cycle   5  Pass 0  IDiag  1:
 E= -622.506566119281     Delta-E=       -0.018804699217 Rises=F Damp=F
 DIIS: error= 3.88D-03 at cycle   5 NSaved=   5.
 NSaved= 5 IEnMin= 5 EnMin= -622.506566119281     IErMin= 5 ErrMin= 3.88D-03
 ErrMax= 3.88D-03  0.00D+00 EMaxC= 1.00D-01 BMatC= 3.92D-03 BMatP= 2.53D-02
 IDIUse=3 WtCom= 9.61D-01 WtEn= 3.88D-02
 Coeff-Com:  0.134D-01 0.213D-01 0.183D+00 0.322D+00 0.460D+00
 Coeff-En:   0.000D+00 0.000D+00 0.000D+00 0.158D+00 0.842D+00
 Coeff:      0.128D-01 0.204D-01 0.176D+00 0.316D+00 0.475D+00
 Gap=     0.171 Goal=   None    Shift=    0.000
 RMSDP=3.52D-04 MaxDP=1.47D-02 DE=-1.88D-02 OVMax= 3.51D-02

 Cycle   6  Pass 0  IDiag  1:
 E= -622.509809002559     Delta-E=       -0.003242883278 Rises=F Damp=F
 DIIS: error= 7.70D-04 at cycle   6 NSaved=   6.
 NSaved= 6 IEnMin= 6 EnMin= -622.509809002559     IErMin= 6 ErrMin= 7.70D-04
 ErrMax= 7.70D-04  0.00D+00 EMaxC= 1.00D-01 BMatC= 3.10D-04 BMatP= 3.92D-03
 IDIUse=3 WtCom= 9.92D-01 WtEn= 7.70D-03
 Coeff-Com:  0.253D-02-0.205D-02 0.671D-01 0.149D+00 0.298D+00 0.486D+00
 Coeff-En:   0.000D+00 0.000D+00 0.000D+00 0.000D+00 0.470D-01 0.953D+00
 Coeff:      0.251D-02-0.203D-02 0.666D-01 0.148D+00 0.296D+00 0.490D+00
 Gap=     0.172 Goal=   None    Shift=    0.000
 RMSDP=8.99D-05 MaxDP=3.45D-03 DE=-3.24D-03 OVMax= 5.42D-03

 Cycle   7  Pass 0  IDiag  1:
 E= -622.510064537806     Delta-E=       -0.000255535247 Rises=F Damp=F
 DIIS: error= 2.39D-04 at cycle   7 NSaved=   7.
 NSaved= 7 IEnMin= 7 EnMin= -622.510064537806     IErMin= 7 ErrMin= 2.39D-04
 ErrMax= 2.39D-04  0.00D+00 EMaxC= 1.00D-01 BMatC= 1.78D-05 BMatP= 3.10D-04
 IDIUse=3 WtCom= 9.98D-01 WtEn= 2.39D-03
 Coeff-Com:  0.982D-04-0.255D-02 0.167D-01 0.432D-01 0.104D+00 0.265D+00
 Coeff-Com:  0.574D+00
 Coeff-En:   0.000D+00 0.000D+00 0.000D+00 0.000D+00 0.000D+00 0.000D+00
 Coeff-En:   0.100D+01
 Coeff:      0.980D-04-0.254D-02 0.166D-01 0.431D-01 0.103D+00 0.264D+00
 Coeff:      0.575D+00
 Gap=     0.172 Goal=   None    Shift=    0.000
 RMSDP=2.47D-05 MaxDP=8.87D-04 DE=-2.56D-04 OVMax= 1.83D-03

 Cycle   8  Pass 0  IDiag  1:
 E= -622.510075189424     Delta-E=       -0.000010651618 Rises=F Damp=F
 DIIS: error= 1.57D-04 at cycle   8 NSaved=   8.
 NSaved= 8 IEnMin= 8 EnMin= -622.510075189424     IErMin= 8 ErrMin= 1.57D-04
 ErrMax= 1.57D-04  0.00D+00 EMaxC= 1.00D-01 BMatC= 5.29D-06 BMatP= 1.78D-05
 IDIUse=3 WtCom= 9.98D-01 WtEn= 1.57D-03
 Coeff-Com: -0.169D-03-0.147D-02 0.536D-02 0.157D-01 0.438D-01 0.143D+00
 Coeff-Com:  0.409D+00 0.385D+00
 Coeff-En:   0.000D+00 0.000D+00 0.000D+00 0.000D+00 0.000D+00 0.000D+00
 Coeff-En:   0.224D+00 0.776D+00
 Coeff:     -0.169D-03-0.147D-02 0.535D-02 0.157D-01 0.438D-01 0.142D+00
 Coeff:      0.409D+00 0.386D+00
 Gap=     0.172 Goal=   None    Shift=    0.000
 RMSDP=1.20D-05 MaxDP=4.83D-04 DE=-1.07D-05 OVMax= 1.02D-03

 Cycle   9  Pass 0  IDiag  1:
 E= -622.510079592769     Delta-E=       -0.000004403346 Rises=F Damp=F
 DIIS: error= 3.98D-05 at cycle   9 NSaved=   9.
 NSaved= 9 IEnMin= 9 EnMin= -622.510079592769     IErMin= 9 ErrMin= 3.98D-05
 ErrMax= 3.98D-05  0.00D+00 EMaxC= 1.00D-01 BMatC= 3.45D-07 BMatP= 5.29D-06
 IDIUse=1 WtCom= 1.00D+00 WtEn= 0.00D+00
 Coeff-Com: -0.120D-03-0.507D-03 0.729D-03 0.277D-02 0.106D-01 0.457D-01
 Coeff-Com:  0.151D+00 0.231D+00 0.558D+00
 Coeff:     -0.120D-03-0.507D-03 0.729D-03 0.277D-02 0.106D-01 0.457D-01
 Coeff:      0.151D+00 0.231D+00 0.558D+00
 Gap=     0.172 Goal=   None    Shift=    0.000
 RMSDP=3.52D-06 MaxDP=1.21D-04 DE=-4.40D-06 OVMax= 2.57D-04

 Initial convergence to 1.0D-05 achieved.  Increase integral accuracy.
 Cycle  10  Pass 1  IDiag  1:
 E= -622.510060280285     Delta-E=        0.000019312484 Rises=F Damp=F
 DIIS: error= 1.38D-05 at cycle   1 NSaved=   1.
 NSaved= 1 IEnMin= 1 EnMin= -622.510060280285     IErMin= 1 ErrMin= 1.38D-05
 ErrMax= 1.38D-05  0.00D+00 EMaxC= 1.00D-01 BMatC= 1.48D-07 BMatP= 1.48D-07
 IDIUse=1 WtCom= 1.00D+00 WtEn= 0.00D+00
 Coeff-Com:  0.100D+01
 Coeff:      0.100D+01
 Gap=     0.172 Goal=   None    Shift=    0.000
 RMSDP=3.52D-06 MaxDP=1.21D-04 DE= 1.93D-05 OVMax= 2.93D-04

 Cycle  11  Pass 1  IDiag  1:
 E= -622.510060130245     Delta-E=        0.000000150040 Rises=F Damp=F
 DIIS: error= 2.69D-05 at cycle   2 NSaved=   2.
 NSaved= 2 IEnMin= 1 EnMin= -622.510060280285     IErMin= 1 ErrMin= 1.38D-05
 ErrMax= 2.69D-05  0.00D+00 EMaxC= 1.00D-01 BMatC= 3.21D-07 BMatP= 1.48D-07
 IDIUse=1 WtCom= 1.00D+00 WtEn= 0.00D+00
 Coeff-Com:  0.613D+00 0.387D+00
 Coeff:      0.613D+00 0.387D+00
 Gap=     0.172 Goal=   None    Shift=    0.000
 RMSDP=3.23D-06 MaxDP=9.72D-05 DE= 1.50D-07 OVMax= 2.23D-04

 Cycle  12  Pass 1  IDiag  1:
 E= -622.510060410805     Delta-E=       -0.000000280560 Rises=F Damp=F
 DIIS: error= 1.23D-05 at cycle   3 NSaved=   3.
 NSaved= 3 IEnMin= 3 EnMin= -622.510060410805     IErMin= 3 ErrMin= 1.23D-05
 ErrMax= 1.23D-05  0.00D+00 EMaxC= 1.00D-01 BMatC= 2.86D-08 BMatP= 1.48D-07
 IDIUse=1 WtCom= 1.00D+00 WtEn= 0.00D+00
 Coeff-Com:  0.104D+00 0.228D+00 0.668D+00
 Coeff:      0.104D+00 0.228D+00 0.668D+00
 Gap=     0.172 Goal=   None    Shift=    0.000
 RMSDP=1.01D-06 MaxDP=5.92D-05 DE=-2.81D-07 OVMax= 1.08D-04

 Cycle  13  Pass 1  IDiag  1:
 E= -622.510060421584     Delta-E=       -0.000000010779 Rises=F Damp=F
 DIIS: error= 9.17D-06 at cycle   4 NSaved=   4.
 NSaved= 4 IEnMin= 4 EnMin= -622.510060421584     IErMin= 4 ErrMin= 9.17D-06
 ErrMax= 9.17D-06  0.00D+00 EMaxC= 1.00D-01 BMatC= 1.54D-08 BMatP= 2.86D-08
 IDIUse=1 WtCom= 1.00D+00 WtEn= 0.00D+00
 Coeff-Com: -0.110D-01 0.118D+00 0.510D+00 0.383D+00
 Coeff:     -0.110D-01 0.118D+00 0.510D+00 0.383D+00
 Gap=     0.172 Goal=   None    Shift=    0.000
 RMSDP=5.51D-07 MaxDP=2.50D-05 DE=-1.08D-08 OVMax= 5.09D-05

 Cycle  14  Pass 1  IDiag  1:
 E= -622.510060434414     Delta-E=       -0.000000012830 Rises=F Damp=F
 DIIS: error= 1.14D-06 at cycle   5 NSaved=   5.
 NSaved= 5 IEnMin= 5 EnMin= -622.510060434414     IErMin= 5 ErrMin= 1.14D-06
 ErrMax= 1.14D-06  0.00D+00 EMaxC= 1.00D-01 BMatC= 4.04D-10 BMatP= 1.54D-08
 IDIUse=1 WtCom= 1.00D+00 WtEn= 0.00D+00
 Coeff-Com: -0.114D-01 0.611D-01 0.275D+00 0.233D+00 0.442D+00
 Coeff:     -0.114D-01 0.611D-01 0.275D+00 0.233D+00 0.442D+00
 Gap=     0.172 Goal=   None    Shift=    0.000
 RMSDP=1.02D-07 MaxDP=5.01D-06 DE=-1.28D-08 OVMax= 5.91D-06

 Cycle  15  Pass 1  IDiag  1:
 E= -622.510060434712     Delta-E=       -0.000000000298 Rises=F Damp=F
 DIIS: error= 2.28D-07 at cycle   6 NSaved=   6.
 NSaved= 6 IEnMin= 6 EnMin= -622.510060434712     IErMin= 6 ErrMin= 2.28D-07
 ErrMax= 2.28D-07  0.00D+00 EMaxC= 1.00D-01 BMatC= 2.92D-11 BMatP= 4.04D-10
 IDIUse=1 WtCom= 1.00D+00 WtEn= 0.00D+00
 Coeff-Com: -0.586D-02 0.259D-01 0.118D+00 0.105D+00 0.261D+00 0.497D+00
 Coeff:     -0.586D-02 0.259D-01 0.118D+00 0.105D+00 0.261D+00 0.497D+00
 Gap=     0.172 Goal=   None    Shift=    0.000
 RMSDP=3.05D-08 MaxDP=1.24D-06 DE=-2.98D-10 OVMax= 2.76D-06

 Cycle  16  Pass 1  IDiag  1:
 E= -622.510060434732     Delta-E=       -0.000000000020 Rises=F Damp=F
 DIIS: error= 1.61D-07 at cycle   7 NSaved=   7.
 NSaved= 7 IEnMin= 7 EnMin= -622.510060434732     IErMin= 7 ErrMin= 1.61D-07
 ErrMax= 1.61D-07  0.00D+00 EMaxC= 1.00D-01 BMatC= 5.04D-12 BMatP= 2.92D-11
 IDIUse=1 WtCom= 1.00D+00 WtEn= 0.00D+00
 Coeff-Com: -0.185D-02 0.711D-02 0.323D-01 0.305D-01 0.992D-01 0.323D+00
 Coeff-Com:  0.510D+00
 Coeff:     -0.185D-02 0.711D-02 0.323D-01 0.305D-01 0.992D-01 0.323D+00
 Coeff:      0.510D+00
 Gap=     0.172 Goal=   None    Shift=    0.000
 RMSDP=1.66D-08 MaxDP=7.32D-07 DE=-2.00D-11 OVMax= 1.73D-06

 Cycle  17  Pass 1  IDiag  1:
 E= -622.510060434754     Delta-E=       -0.000000000022 Rises=F Damp=F
 DIIS: error= 9.48D-08 at cycle   8 NSaved=   8.
 NSaved= 8 IEnMin= 8 EnMin= -622.510060434754     IErMin= 8 ErrMin= 9.48D-08
 ErrMax= 9.48D-08  0.00D+00 EMaxC= 1.00D-01 BMatC= 1.31D-12 BMatP= 5.04D-12
 IDIUse=1 WtCom= 1.00D+00 WtEn= 0.00D+00
 Coeff-Com: -0.333D-03 0.603D-03 0.257D-02 0.320D-02 0.237D-01 0.135D+00
 Coeff-Com:  0.373D+00 0.462D+00
 Coeff:     -0.333D-03 0.603D-03 0.257D-02 0.320D-02 0.237D-01 0.135D+00
 Coeff:      0.373D+00 0.462D+00
 Gap=     0.172 Goal=   None    Shift=    0.000
 RMSDP=6.59D-09 MaxDP=2.78D-07 DE=-2.21D-11 OVMax= 6.77D-07

 SCF Done:  E(RB3LYP) =  -622.510060435     A.U. after   17 cycles
            NFock= 17  Conv=0.66D-08     -V/T= 2.0061
 KE= 6.187341414051D+02 PE=-2.914609498601D+03 EE= 9.431371378270D+02
 Leave Link  502 at Fri Aug 20 15:54:06 2021, MaxMem= 24159191040 cpu:       110.5
 (Enter /public/home/users/caep010/software/Gaussian09/g09/l601.exe)
 Copying SCF densities to generalized density rwf, IOpCl= 0 IROHF=0.

 **********************************************************************

            Population analysis using the SCF density.

 **********************************************************************

 Orbital symmetries:
       Occupied  (A) (A) (A) (A) (A) (A) (A) (A) (A) (A) (A) (A)
                 (A) (A) (A) (A) (A) (A) (A) (A) (A) (A) (A) (A)
                 (A) (A) (A) (A) (A) (A) (A) (A) (A) (A) (A) (A)
                 (A) (A) (A) (A) (A) (A) (A) (A)
       Virtual   (A) (A) (A) (A) (A) (A) (A) (A) (A) (A) (A) (A)
                 (A) (A) (A) (A) (A) (A) (A) (A) (A) (A) (A) (A)
                 (A) (A) (A) (A) (A) (A) (A) (A) (A) (A) (A) (A)
                 (A) (A) (A) (A) (A) (A) (A) (A) (A) (A) (A) (A)
                 (A) (A) (A) (A) (A) (A) (A) (A) (A) (A) (A) (A)
                 (A) (A) (A) (A) (A) (A) (A) (A) (A) (A) (A) (A)
                 (A) (A) (A) (A) (A) (A) (A) (A) (A) (A) (A) (A)
                 (A) (A) (A) (A) (A) (A) (A) (A) (A) (A) (A) (A)
                 (A) (A) (A) (A) (A) (A) (A) (A) (A) (A) (A) (A)
                 (A) (A) (A) (A) (A) (A) (A) (A) (A) (A) (A) (A)
                 (A) (A) (A) (A) (A) (A) (A) (A) (A) (A) (A) (A)
                 (A) (A) (A) (A) (A) (A) (A) (A) (A) (A) (A) (A)
                 (A) (A) (A) (A) (A) (A) (A) (A) (A) (A) (A) (A)
                 (A) (A) (A) (A) (A) (A) (A) (A) (A) (A) (A) (A)
                 (A) (A) (A)
 The electronic state is 1-A.
 Alpha  occ. eigenvalues --  -19.17808 -19.17520 -19.13017 -14.60043 -14.49211
 Alpha  occ. eigenvalues --  -14.41144 -10.28408 -10.24131 -10.23937 -10.22233
 Alpha  occ. eigenvalues --  -10.21131 -10.16243  -1.25209  -1.10918  -1.06468
 Alpha  occ. eigenvalues --   -0.99387  -0.91808  -0.84133  -0.81425  -0.76789
 Alpha  occ. eigenvalues --   -0.70798  -0.67173  -0.65977  -0.59170  -0.56645
 Alpha  occ. eigenvalues --   -0.55918  -0.54212  -0.52708  -0.49796  -0.48642
 Alpha  occ. eigenvalues --   -0.48289  -0.46821  -0.46557  -0.45073  -0.40992
 Alpha  occ. eigenvalues --   -0.40475  -0.35160  -0.33282  -0.31510  -0.30738
 Alpha  occ. eigenvalues --   -0.30172  -0.28337  -0.25854  -0.23069
 Alpha virt. eigenvalues --   -0.05846  -0.04447  -0.04048   0.09224   0.09962
 Alpha virt. eigenvalues --    0.10592   0.13269   0.15883   0.16408   0.17418
 Alpha virt. eigenvalues --    0.18611   0.19064   0.20830   0.21802   0.22430
 Alpha virt. eigenvalues --    0.27330   0.28847   0.30357   0.31234   0.33497
 Alpha virt. eigenvalues --    0.38718   0.41425   0.44460   0.47367   0.49029
 Alpha virt. eigenvalues --    0.50214   0.50627   0.53247   0.55154   0.55921
 Alpha virt. eigenvalues --    0.57637   0.58732   0.60244   0.60750   0.62992
 Alpha virt. eigenvalues --    0.64761   0.64977   0.67598   0.68269   0.70593
 Alpha virt. eigenvalues --    0.75143   0.75829   0.78587   0.81329   0.82804
 Alpha virt. eigenvalues --    0.83563   0.84415   0.85627   0.85944   0.88147
 Alpha virt. eigenvalues --    0.89123   0.90583   0.92351   0.93830   0.95581
 Alpha virt. eigenvalues --    0.97260   0.98477   0.98856   1.01168   1.02350
 Alpha virt. eigenvalues --    1.03434   1.05246   1.06446   1.10027   1.11068
 Alpha virt. eigenvalues --    1.15318   1.15815   1.18683   1.20209   1.23176
 Alpha virt. eigenvalues --    1.26977   1.28474   1.29677   1.32288   1.34601
 Alpha virt. eigenvalues --    1.36633   1.38694   1.39571   1.41289   1.43072
 Alpha virt. eigenvalues --    1.46021   1.56577   1.59789   1.63839   1.65718
 Alpha virt. eigenvalues --    1.67929   1.71896   1.73394   1.76325   1.77594
 Alpha virt. eigenvalues --    1.80069   1.81694   1.83442   1.85389   1.86851
 Alpha virt. eigenvalues --    1.87204   1.88805   1.92607   1.95511   1.96236
 Alpha virt. eigenvalues --    1.96919   1.99046   1.99680   2.01234   2.04664
 Alpha virt. eigenvalues --    2.06123   2.09266   2.11379   2.13315   2.15054
 Alpha virt. eigenvalues --    2.18506   2.20710   2.21938   2.26028   2.27779
 Alpha virt. eigenvalues --    2.28851   2.29571   2.32939   2.37664   2.38687
 Alpha virt. eigenvalues --    2.40791   2.43520   2.45036   2.45308   2.48100
 Alpha virt. eigenvalues --    2.49029   2.53314   2.54862   2.57496   2.60229
 Alpha virt. eigenvalues --    2.62389   2.63787   2.65495   2.67859   2.68923
 Alpha virt. eigenvalues --    2.76355   2.79939   2.83779   2.85936   2.87121
 Alpha virt. eigenvalues --    2.88979   2.92256   2.97216   3.00622   3.01321
 Alpha virt. eigenvalues --    3.08169   3.11367   3.16964   3.22981   3.25920
 Alpha virt. eigenvalues --    3.34714   3.45095   3.48014   3.55109   3.60284
 Alpha virt. eigenvalues --    3.63610   3.69118   3.74148   3.86200   3.92989
 Alpha virt. eigenvalues --    3.93787   3.97698   4.00829   4.07859   4.14674
 Alpha virt. eigenvalues --    4.18860   4.31885   4.40994   4.44984   4.52068
 Alpha virt. eigenvalues --    4.80867
          Condensed to atoms (all electrons):
               1          2          3          4          5          6
     1  O    8.414544   0.175585  -0.049764  -0.016543   0.006204  -0.000061
     2  N    0.175585   6.488740   0.231967  -0.088180  -0.015923   0.005895
     3  C   -0.049764   0.231967   4.985182   0.247624   0.415468  -0.053055
     4  N   -0.016543  -0.088180   0.247624   6.965055  -0.066200  -0.015298
     5  C    0.006204  -0.015923   0.415468  -0.066200   4.826520   0.402970
     6  C   -0.000061   0.005895  -0.053055  -0.015298   0.402970   4.862799
     7  H    0.000001  -0.000145  -0.004189   0.000925  -0.022738   0.390306
     8  H    0.000004   0.000166  -0.010043   0.010577  -0.014701   0.392023
     9  H    0.000001  -0.000127   0.006568   0.000676  -0.020165   0.388822
    10  H    0.011961  -0.004497  -0.040352   0.343732   0.003613   0.000251
    11  N    0.007930  -0.002431  -0.059113   0.204207  -0.002825  -0.000177
    12  O   -0.001349   0.000528   0.003298  -0.108059  -0.000246  -0.000018
    13  O   -0.001154  -0.004322   0.027444  -0.124883  -0.001297  -0.000376
    14  C    0.000513  -0.052843  -0.027386   0.005396   0.512379  -0.063962
    15  C    0.005605   0.003406  -0.041934   0.000088   0.001576   0.008064
    16  H   -0.000103   0.004020   0.000841   0.000010   0.004542  -0.000238
    17  C   -0.043522   0.385978  -0.057046   0.004072  -0.029567   0.000083
    18  H    0.006526  -0.045281   0.005757  -0.000272   0.000518   0.000017
    19  H    0.000004  -0.000101   0.008535  -0.000146  -0.044700  -0.012139
               7          8          9         10         11         12
     1  O    0.000001   0.000004   0.000001   0.011961   0.007930  -0.001349
     2  N   -0.000145   0.000166  -0.000127  -0.004497  -0.002431   0.000528
     3  C   -0.004189  -0.010043   0.006568  -0.040352  -0.059113   0.003298
     4  N    0.000925   0.010577   0.000676   0.343732   0.204207  -0.108059
     5  C   -0.022738  -0.014701  -0.020165   0.003613  -0.002825  -0.000246
     6  C    0.390306   0.392023   0.388822   0.000251  -0.000177  -0.000018
     7  H    0.542733  -0.035158  -0.028266  -0.000018   0.000317  -0.000002
     8  H   -0.035158   0.555014  -0.035157  -0.000037  -0.000161   0.000005
     9  H   -0.028266  -0.035157   0.576614   0.000033  -0.000009  -0.000000
    10  H   -0.000018  -0.000037   0.000033   0.414535  -0.026340   0.010388
    11  N    0.000317  -0.000161  -0.000009  -0.026340   5.566655   0.332016
    12  O   -0.000002   0.000005  -0.000000   0.010388   0.332016   8.276291
    13  O    0.001356  -0.000106   0.000018   0.006524   0.338630  -0.102313
    14  C   -0.001116   0.004866  -0.006758  -0.000010   0.000117   0.000002
    15  C   -0.000231  -0.000278   0.000014  -0.000045  -0.000031  -0.000000
    16  H    0.000003   0.000004  -0.000001   0.000001  -0.000000  -0.000000
    17  C    0.000051   0.000014   0.000024   0.000082   0.000051   0.000005
    18  H   -0.000000  -0.000000  -0.000000  -0.000008  -0.000000   0.000000
    19  H    0.000533   0.000027   0.005433   0.000002   0.000001  -0.000000
              13         14         15         16         17         18
     1  O   -0.001154   0.000513   0.005605  -0.000103  -0.043522   0.006526
     2  N   -0.004322  -0.052843   0.003406   0.004020   0.385978  -0.045281
     3  C    0.027444  -0.027386  -0.041934   0.000841  -0.057046   0.005757
     4  N   -0.124883   0.005396   0.000088   0.000010   0.004072  -0.000272
     5  C   -0.001297   0.512379   0.001576   0.004542  -0.029567   0.000518
     6  C   -0.000376  -0.063962   0.008064  -0.000238   0.000083   0.000017
     7  H    0.001356  -0.001116  -0.000231   0.000003   0.000051  -0.000000
     8  H   -0.000106   0.004866  -0.000278   0.000004   0.000014  -0.000000
     9  H    0.000018  -0.006758   0.000014  -0.000001   0.000024  -0.000000
    10  H    0.006524  -0.000010  -0.000045   0.000001   0.000082  -0.000008
    11  N    0.338630   0.000117  -0.000031  -0.000000   0.000051  -0.000000
    12  O   -0.102313   0.000002  -0.000000  -0.000000   0.000005   0.000000
    13  O    8.265088   0.000123  -0.000084  -0.000000   0.000235   0.000015
    14  C    0.000123   4.892569   0.496042  -0.036007  -0.043648   0.004447
    15  C   -0.000084   0.496042   4.885204   0.381721   0.465453  -0.037685
    16  H   -0.000000  -0.036007   0.381721   0.591196  -0.036803  -0.005110
    17  C    0.000235  -0.043648   0.465453  -0.036803   4.800373   0.380394
    18  H    0.000015   0.004447  -0.037685  -0.005110   0.380394   0.559266
    19  H    0.000000   0.382816  -0.053436  -0.007448   0.006230  -0.000232
              19
     1  O    0.000004
     2  N   -0.000101
     3  C    0.008535
     4  N   -0.000146
     5  C   -0.044700
     6  C   -0.012139
     7  H    0.000533
     8  H    0.000027
     9  H    0.005433
    10  H    0.000002
    11  N    0.000001
    12  O   -0.000000
    13  O    0.000000
    14  C    0.382816
    15  C   -0.053436
    16  H   -0.007448
    17  C    0.006230
    18  H   -0.000232
    19  H    0.630213
 Mulliken charges:
               1
     1  O   -0.516383
     2  N   -0.082437
     3  C    0.410197
     4  N   -0.362782
     5  C    0.044574
     6  C   -0.305906
     7  H    0.155638
     8  H    0.132940
     9  H    0.112280
    10  H    0.280184
    11  N    0.641162
    12  O   -0.410544
    13  O   -0.404902
    14  C   -0.067541
    15  C   -0.113449
    16  H    0.103373
    17  C    0.167540
    18  H    0.131649
    19  H    0.084407
 Sum of Mulliken charges =  -0.00000
 Mulliken charges with hydrogens summed into heavy atoms:
               1
     1  O   -0.516383
     2  N   -0.082437
     3  C    0.410197
     4  N   -0.082598
     5  C    0.044574
     6  C    0.094952
    11  N    0.641162
    12  O   -0.410544
    13  O   -0.404902
    14  C    0.016867
    15  C   -0.010076
    17  C    0.299189
 Electronic spatial extent (au):  <R**2>=           1823.4150
 Charge=             -0.0000 electrons
 Dipole moment (field-independent basis, Debye):
    X=             -6.1007    Y=              2.8592    Z=             -1.6543  Tot=              6.9376
 Quadrupole moment (field-independent basis, Debye-Ang):
   XX=            -68.3701   YY=            -65.7950   ZZ=            -67.7803
   XY=              3.7018   XZ=             -4.2107   YZ=             -1.4192
 Traceless Quadrupole moment (field-independent basis, Debye-Ang):
   XX=             -1.0550   YY=              1.5201   ZZ=             -0.4652
   XY=              3.7018   XZ=             -4.2107   YZ=             -1.4192
 Octapole moment (field-independent basis, Debye-Ang**2):
  XXX=            -40.7347  YYY=             15.6243  ZZZ=             -8.2800  XYY=             -8.0994
  XXY=             -4.3468  XXZ=              2.0275  XZZ=              9.1837  YZZ=             -1.5792
  YYZ=              4.8325  XYZ=              0.4994
 Hexadecapole moment (field-independent basis, Debye-Ang**3):
 XXXX=          -1391.2042 YYYY=           -707.0811 ZZZZ=           -163.1370 XXXY=             14.0175
 XXXZ=            -16.4650 YYYX=             16.8992 YYYZ=             -6.5972 ZZZX=             -9.2935
 ZZZY=              2.7110 XXYY=           -316.1088 XXZZ=           -265.8849 YYZZ=           -149.8528
 XXYZ=             -2.2448 YYXZ=              2.2908 ZZXY=             -1.5164
 N-N= 7.302281589342D+02 E-N=-2.914609505034D+03  KE= 6.187341414051D+02
 No NMR shielding tensors so no spin-rotation constants.
 Leave Link  601 at Fri Aug 20 15:54:06 2021, MaxMem= 24159191040 cpu:        11.3
 (Enter /public/home/users/caep010/software/Gaussian09/g09/l701.exe)
 Compute integral first derivatives.
 ... and contract with generalized density number  0.
 Leave Link  701 at Fri Aug 20 15:54:06 2021, MaxMem= 24159191040 cpu:        11.9
 (Enter /public/home/users/caep010/software/Gaussian09/g09/l702.exe)
 L702 exits ... SP integral derivatives will be done elsewhere.
 Leave Link  702 at Fri Aug 20 15:54:06 2021, MaxMem= 24159191040 cpu:         0.5
 (Enter /public/home/users/caep010/software/Gaussian09/g09/l703.exe)
 Compute integral first derivatives, UseDBF=F ICtDFT=           0.
 Integral derivatives from FoFJK, PRISM(SPDF).
 Calling FoFJK, ICntrl=      2127 FMM=F ISym2X=0 I1Cent= 0 IOpClX= 0 NMat=1 NMatS=1 NMatT=0.
 FoFJK:  IHMeth= 1 ICntrl=    2127 DoSepK=F KAlg= 0 I1Cent=   0 FoldK=F
 IRaf=         0 NMat=   1 IRICut=       1 DoRegI=T DoRafI=F ISym2E= 0.
 FoFCou: FMM=F IPFlag=           0 FMFlag=      100000 FMFlg1=         800
         NFxFlg=           0 DoJE=F BraDBF=F KetDBF=F FulRan=T
         wScrn=  0.000000 ICntrl=    2127 IOpCl=  0 I1Cent=           0 NGrid=           0
         NMat0=    1 NMatS0=      1 NMatT0=    0 NMatD0=    1 NMtDS0=    0 NMtDT0=    0
 Symmetry not used in FoFCou.
 Leave Link  703 at Fri Aug 20 15:54:07 2021, MaxMem= 24159191040 cpu:        25.5
 (Enter /public/home/users/caep010/software/Gaussian09/g09/l716.exe)
 Dipole        =-2.40020044D+00 1.12490342D+00-6.50868147D-01
 ***** Axes restored to original set *****
 -------------------------------------------------------------------
 Center     Atomic                   Forces (Hartrees/Bohr)
 Number     Number              X              Y              Z
 -------------------------------------------------------------------
      1        8          -0.015276600    0.022075642    0.015599582
      2        7           0.023424932   -0.039482217   -0.019544978
      3        6          -0.002799986   -0.002407253    0.006393867
      4        7          -0.066482868    0.054649296   -0.026792215
      5        6           0.008371835   -0.001619397    0.000173514
      6        6           0.102917990   -0.008212813   -0.141921841
      7        1          -0.095604798   -0.027904499   -0.071201031
      8        1           0.038975669   -0.131948352    0.096705988
      9        1          -0.058323375    0.168165829    0.120262614
     10        1           0.073946324   -0.040575136    0.037400906
     11        7          -0.003434558   -0.024226723   -0.012867048
     12        8           0.004657440   -0.007037945    0.005563166
     13        8          -0.008675911    0.011586815   -0.007705470
     14        6           0.033938717   -0.060476534   -0.022127612
     15        6          -0.012022984   -0.060714289    0.016001133
     16        1           0.016631928    0.074901853   -0.020870235
     17        6          -0.060123246   -0.005602999    0.049605290
     18        1           0.070723972    0.011662690   -0.058159805
     19        1          -0.050844482    0.067166035    0.033484175
 -------------------------------------------------------------------
 Cartesian Forces:  Max     0.168165829 RMS     0.056214320
 Leave Link  716 at Fri Aug 20 15:54:07 2021, MaxMem= 24159191040 cpu:         0.7
 (Enter /public/home/users/caep010/software/Gaussian09/g09/l103.exe)

 GradGradGradGradGradGradGradGradGradGradGradGradGradGradGradGradGradGrad
 Berny optimization.
 FormGI is forming the generalized inverse of G from B-inverse, IUseBI=4.
 Internal  Forces:  Max     0.214789311 RMS     0.037842480
 Search for a local minimum.
 Step number   1 out of a maximum of   97
 All quantities printed in internal units (Hartrees-Bohrs-Radians)
 RMS Force = .37842D-01 SwitMx=.10000D-02 MixMth= 1
 Mixed Optimization -- RFO/linear search
 Second derivative matrix not updated -- first step.
 ITU=  0
     Eigenvalues ---    0.00882   0.01564   0.01629   0.01659   0.01687
     Eigenvalues ---    0.02040   0.02225   0.02270   0.02277   0.02311
     Eigenvalues ---    0.02433   0.02437   0.02458   0.03296   0.06879
     Eigenvalues ---    0.07695   0.13383   0.15992   0.16000   0.16000
     Eigenvalues ---    0.16000   0.16000   0.16000   0.22085   0.22908
     Eigenvalues ---    0.23468   0.24897   0.24969   0.24995   0.24996
     Eigenvalues ---    0.25000   0.25000   0.33315   0.44059   0.44288
     Eigenvalues ---    0.45114   0.48393   0.48689   0.50076   0.50122
     Eigenvalues ---    0.50268   0.50758   0.50788   0.53881   0.54619
     Eigenvalues ---    0.61490   0.61508   0.62992   0.69005   0.95545
     Eigenvalues ---    0.98192
 RFO step:  Lambda=-1.63564430D-01 EMin= 8.81903717D-03
 Linear search not attempted -- first point.
 Maximum step size (   0.300) exceeded in Quadratic search.
    -- Step size scaled by   0.643
 Iteration  1 RMS(Cart)=  0.03605451 RMS(Int)=  0.00027353
 Iteration  2 RMS(Cart)=  0.00034552 RMS(Int)=  0.00001810
 Iteration  3 RMS(Cart)=  0.00000026 RMS(Int)=  0.00001810
 ITry= 1 IFail=0 DXMaxC= 1.23D-01 DCOld= 1.00D+10 DXMaxT= 3.00D-01 DXLimC= 3.00D+00 Rises=F
 Variable       Old X    -DE/DX   Delta X   Delta X   Delta X     New X
                                 (Linear)    (Quad)   (Total)
    R1        2.48649  -0.03083   0.00000  -0.02498  -0.02498   2.46150
    R2        2.58527   0.01061   0.00000   0.00996   0.00996   2.59522
    R3        2.54371   0.01637   0.00000   0.01472   0.01472   2.55843
    R4        2.66385   0.00427   0.00000   0.00455   0.00455   2.66840
    R5        2.61087   0.01192   0.00000   0.01148   0.01148   2.62234
    R6        1.76480   0.09207   0.00000   0.07607   0.07607   1.84087
    R7        2.59789   0.02528   0.00000   0.02447   0.02447   2.62236
    R8        2.81802   0.01144   0.00000   0.01481   0.01481   2.83284
    R9        2.63274   0.00942   0.00000   0.00943   0.00944   2.64218
   R10        1.82840   0.12218   0.00000   0.11187   0.11187   1.94027
   R11        1.76467   0.16777   0.00000   0.13857   0.13857   1.90324
   R12        1.71153   0.21479   0.00000   0.16182   0.16182   1.87336
   R13        2.30478   0.00847   0.00000   0.00487   0.00487   2.30965
   R14        2.29372   0.01506   0.00000   0.00845   0.00845   2.30217
   R15        2.60021   0.01831   0.00000   0.01791   0.01791   2.61813
   R16        1.86443   0.09057   0.00000   0.08762   0.08762   1.95205
   R17        1.88222   0.07947   0.00000   0.07894   0.07894   1.96116
   R18        2.58869   0.01525   0.00000   0.01484   0.01484   2.60354
   R19        1.85808   0.09229   0.00000   0.08843   0.08843   1.94651
    A1        2.08344   0.00004   0.00000   0.00003   0.00003   2.08348
    A2        2.09562   0.00296   0.00000   0.00458   0.00458   2.10020
    A3        2.10394  -0.00298   0.00000  -0.00452  -0.00453   2.09941
    A4        2.02634  -0.00428   0.00000  -0.00633  -0.00634   2.02001
    A5        2.11752   0.00251   0.00000   0.00330   0.00330   2.12082
    A6        2.13826   0.00179   0.00000   0.00311   0.00311   2.14137
    A7        2.01791   0.00041   0.00000   0.00245   0.00247   2.02038
    A8        2.01358   0.00784   0.00000   0.01287   0.01287   2.02645
    A9        1.92480  -0.00609   0.00000  -0.01144  -0.01145   1.91335
   A10        2.10733  -0.00036   0.00000  -0.00022  -0.00022   2.10710
   A11        2.05020   0.00313   0.00000   0.00417   0.00417   2.05437
   A12        2.12551  -0.00278   0.00000  -0.00398  -0.00398   2.12153
   A13        1.87487   0.00255   0.00000   0.00592   0.00595   1.88082
   A14        1.99917  -0.01156   0.00000  -0.02264  -0.02265   1.97652
   A15        1.93310   0.00049   0.00000  -0.00025  -0.00029   1.93280
   A16        1.80015   0.00809   0.00000   0.01857   0.01863   1.81879
   A17        1.93505  -0.00321   0.00000  -0.00723  -0.00722   1.92783
   A18        1.91683   0.00399   0.00000   0.00661   0.00653   1.92336
   A19        2.02430  -0.00354   0.00000  -0.00555  -0.00556   2.01875
   A20        2.05841  -0.00572   0.00000  -0.00894  -0.00895   2.04946
   A21        2.19853   0.00918   0.00000   0.01423   0.01422   2.21276
   A22        2.10087  -0.00351   0.00000  -0.00591  -0.00590   2.09496
   A23        2.05761   0.00521   0.00000   0.00982   0.00981   2.06742
   A24        2.12471  -0.00170   0.00000  -0.00391  -0.00391   2.12080
   A25        2.09193   0.00207   0.00000   0.00384   0.00384   2.09577
   A26        2.09895   0.00060   0.00000   0.00176   0.00176   2.10071
   A27        2.09228  -0.00267   0.00000  -0.00560  -0.00560   2.08668
   A28        2.09450   0.00026   0.00000   0.00125   0.00124   2.09575
   A29        2.00051  -0.00037   0.00000  -0.00109  -0.00109   1.99942
   A30        2.18774   0.00013   0.00000  -0.00009  -0.00009   2.18765
    D1        0.09638  -0.00242   0.00000  -0.00826  -0.00825   0.08813
    D2       -3.09339  -0.00186   0.00000  -0.00643  -0.00642  -3.09982
    D3       -3.06558  -0.00092   0.00000  -0.00300  -0.00299  -3.06857
    D4        0.02783  -0.00036   0.00000  -0.00117  -0.00117   0.02666
    D5        3.11264   0.00132   0.00000   0.00465   0.00466   3.11731
    D6       -0.05864   0.00197   0.00000   0.00684   0.00684  -0.05179
    D7       -0.00844  -0.00017   0.00000  -0.00059  -0.00059  -0.00903
    D8        3.10346   0.00049   0.00000   0.00160   0.00159   3.10505
    D9        1.04653  -0.00220   0.00000  -0.00755  -0.00753   1.03900
   D10       -1.23562  -0.00154   0.00000  -0.00612  -0.00614  -1.24176
   D11       -2.04626  -0.00279   0.00000  -0.00940  -0.00938  -2.05564
   D12        1.95478  -0.00212   0.00000  -0.00797  -0.00799   1.94680
   D13        3.09276  -0.00004   0.00000  -0.00010  -0.00010   3.09266
   D14       -0.03093   0.00057   0.00000   0.00205   0.00206  -0.02887
   D15       -0.10014   0.00039   0.00000   0.00158   0.00159  -0.09855
   D16        3.05935   0.00100   0.00000   0.00374   0.00375   3.06310
   D17        2.73631   0.00143   0.00000   0.00377   0.00375   2.74006
   D18       -0.46820   0.00037   0.00000  -0.00000  -0.00002  -0.46822
   D19        0.41037  -0.00056   0.00000  -0.00065  -0.00063   0.40973
   D20       -2.79414  -0.00162   0.00000  -0.00443  -0.00441  -2.79855
   D21       -1.41243  -0.00195   0.00000  -0.00473  -0.00470  -1.41713
   D22        0.57562   0.00330   0.00000   0.00949   0.00943   0.58505
   D23        2.75516   0.00007   0.00000   0.00053   0.00056   2.75572
   D24        1.71048  -0.00253   0.00000  -0.00689  -0.00686   1.70363
   D25       -2.58465   0.00272   0.00000   0.00733   0.00727  -2.57738
   D26       -0.40511  -0.00051   0.00000  -0.00163  -0.00160  -0.40671
   D27        0.01585  -0.00046   0.00000  -0.00148  -0.00148   0.01437
   D28       -3.12883  -0.00044   0.00000  -0.00150  -0.00150  -3.13034
   D29       -3.10765   0.00014   0.00000   0.00065   0.00065  -3.10699
   D30        0.03085   0.00015   0.00000   0.00063   0.00063   0.03149
   D31       -3.13225  -0.00008   0.00000  -0.00034  -0.00034  -3.13259
   D32        0.00243  -0.00005   0.00000  -0.00020  -0.00020   0.00223
   D33        0.01255  -0.00011   0.00000  -0.00035  -0.00035   0.01221
   D34       -3.13595  -0.00008   0.00000  -0.00021  -0.00020  -3.13616
   D35       -0.00646   0.00039   0.00000   0.00129   0.00129  -0.00518
   D36       -3.11496  -0.00033   0.00000  -0.00113  -0.00113  -3.11609
   D37        3.12821   0.00044   0.00000   0.00147   0.00146   3.12968
   D38        0.01971  -0.00028   0.00000  -0.00095  -0.00095   0.01876
         Item               Value     Threshold  Converged?
 Maximum Force            0.214789     0.000450     NO 
 RMS     Force            0.037842     0.000300     NO 
 Maximum Displacement     0.123351     0.001800     NO 
 RMS     Displacement     0.036063     0.001200     NO 
 Predicted change in Energy=-7.878473D-02
 Lowest energy point so far.  Saving SCF results.
 GradGradGradGradGradGradGradGradGradGradGradGradGradGradGradGradGradGrad

 Leave Link  103 at Fri Aug 20 15:54:08 2021, MaxMem= 24159191040 cpu:         2.9
 (Enter /public/home/users/caep010/software/Gaussian09/g09/l202.exe)
                          Input orientation:                          
 ---------------------------------------------------------------------
 Center     Atomic      Atomic             Coordinates (Angstroms)
 Number     Number       Type             X           Y           Z
 ---------------------------------------------------------------------
      1          8           0        4.264568    0.743168    1.894592
      2          7           0        3.547257    1.701762    2.407673
      3          6           0        2.531947    1.391155    3.278714
      4          7           0        2.423442    0.028624    3.633162
      5          6           0        1.709111    2.372468    3.813158
      6          6           0        0.567104    2.007870    4.713218
      7          1           0       -0.218634    1.716533    4.119966
      8          1           0        0.755202    1.202219    5.287584
      9          1           0        0.306479    2.778675    5.279508
     10          1           0        3.205662   -0.360259    4.064278
     11          7           0        1.965194   -0.825967    2.640499
     12          8           0        2.272777   -2.001662    2.770649
     13          8           0        1.247192   -0.350912    1.778558
     14          6           0        1.969275    3.700772    3.462688
     15          6           0        3.008171    3.998437    2.595755
     16          1           0        3.206966    4.984752    2.341410
     17          6           0        3.788543    2.990991    2.072100
     18          1           0        4.590682    3.125950    1.440151
     19          1           0        1.370161    4.441524    3.861937
 ---------------------------------------------------------------------
                    Distance matrix (angstroms):
                    1          2          3          4          5
     1  O    0.000000
     2  N    1.302570   0.000000
     3  C    2.310337   1.373333   0.000000
     4  N    2.631149   2.358851   1.412055   0.000000
     5  C    3.586903   2.409153   1.387684   2.456883   0.000000
     6  C    4.818233   3.780285   2.509731   2.920604   1.499073
     7  H    5.098905   4.136919   2.894697   3.172788   2.059267
     8  H    4.902935   4.042153   2.688509   2.626302   2.110298
     9  H    5.591728   4.462043   3.298651   3.841194   2.069436
    10  H    2.654500   2.667013   2.034319   0.974146   3.125784
    11  N    2.881958   2.991077   2.375743   1.387694   3.416239
    12  O    3.502684   3.933369   3.440422   2.211037   4.531838
    13  O    3.211702   3.146355   2.633602   2.228714   3.430709
    14  C    4.058906   2.756651   2.384277   3.704052   1.398180
    15  C    3.559065   2.366581   2.736995   4.144580   2.411100
    16  H    4.394224   3.301245   3.774670   5.181288   3.351662
    17  C    2.304521   1.353861   2.365254   3.616081   2.781707
    18  H    2.447553   2.013243   3.260095   4.370316   3.808195
    19  H    5.091746   3.789582   3.315818   4.542624   2.097203
                    6          7          8          9         10
     6  C    0.000000
     7  H    1.026747   0.000000
     8  H    1.007150   1.605058   0.000000
     9  H    0.991337   1.657838   1.639095   0.000000
    10  H    3.604324   4.005243   3.153184   4.442404   0.000000
    11  N    3.779081   3.663637   3.547489   4.765411   1.944940
    12  O    4.770665   4.674693   4.347740   5.745635   2.288657
    13  O    3.826043   3.450387   3.868790   4.789145   3.010018
    14  C    2.528997   3.025915   3.323701   2.629827   4.287486
    15  C    3.795367   4.235868   4.487833   3.998686   4.603672
    16  H    4.632080   5.057594   5.385039   4.681028   5.615819
    17  C    4.280152   4.677122   4.768669   4.738916   3.942005
    18  H    5.305870   5.683079   5.763193   5.763303   4.577988
    19  H    2.700417   3.164874   3.592178   2.430226   5.144621
                   11         12         13         14         15
    11  N    0.000000
    12  O    1.222213   0.000000
    13  O    1.218256   2.181981   0.000000
    14  C    4.600801   5.752285   4.446779   0.000000
    15  C    4.936059   6.047527   4.762950   1.385454   0.000000
    16  H    5.949446   7.061652   5.711990   2.106596   1.037800
    17  C    4.268120   5.264228   4.208675   2.397345   1.377732
    18  H    4.894044   5.782327   4.835495   3.360484   2.144994
    19  H    5.439893   6.596989   5.227144   1.032982   2.117219
                   16         17         18         19
    16  H    0.000000
    17  C    2.094241   0.000000
    18  H    2.486380   1.030049   0.000000
    19  H    2.445598   3.340080   4.238814   0.000000
 Stoichiometry    C6H7N3O3
 Framework group  C1[X(C6H7N3O3)]
 Deg. of freedom    51
 Full point group                 C1      NOp   1
 RotChk:  IX=0 Diff= 7.15D-03
 Largest Abelian subgroup         C1      NOp   1
 Largest concise Abelian subgroup C1      NOp   1
                         Standard orientation:                         
 ---------------------------------------------------------------------
 Center     Atomic      Atomic             Coordinates (Angstroms)
 Number     Number       Type             X           Y           Z
 ---------------------------------------------------------------------
      1          8           0        0.429088   -2.113426   -0.336630
      2          7           0       -0.502430   -1.214849   -0.189926
      3          6           0       -0.183302    0.114230   -0.323155
      4          7           0        1.142096    0.389304   -0.725094
      5          6           0       -1.129367    1.110473   -0.127892
      6          6           0       -0.747527    2.557388   -0.216502
      7          1           0       -0.326004    2.825617    0.680483
      8          1           0       -0.023570    2.736725   -0.893316
      9          1           0       -1.541722    3.118997   -0.407811
     10          1           0        1.410625    0.014670   -1.583290
     11          7           0        2.129502    0.146087    0.219135
     12          8           0        3.252141   -0.042960   -0.225552
     13          8           0        1.811667    0.212688    1.393313
     14          6           0       -2.435692    0.715790    0.176486
     15          6           0       -2.744648   -0.629934    0.290738
     16          1           0       -3.715755   -0.923963    0.508746
     17          6           0       -1.769707   -1.586188    0.108497
     18          1           0       -1.917936   -2.604493    0.154133
     19          1           0       -3.151524    1.447689    0.314176
 ---------------------------------------------------------------------
 Rotational constants (GHZ):      1.6053352      0.8241217      0.6103713
 Leave Link  202 at Fri Aug 20 15:54:08 2021, MaxMem= 24159191040 cpu:         0.3
 (Enter /public/home/users/caep010/software/Gaussian09/g09/l301.exe)
 Standard basis: 6-31G(d,p) (6D, 7F)
 Ernie: Thresh=  0.10000D-02 Tol=  0.10000D-05 Strict=F.
 There are   215 symmetry adapted cartesian basis functions of A   symmetry.
 There are   215 symmetry adapted basis functions of A   symmetry.
   215 basis functions,   385 primitive gaussians,   215 cartesian basis functions
    44 alpha electrons       44 beta electrons
       nuclear repulsion energy       725.1670158686 Hartrees.
 IExCor=  402 DFT=T Ex+Corr=B3LYP ExCW=0 ScaHFX=  0.200000
 ScaDFX=  0.800000  0.720000  1.000000  0.810000 ScalE2=  1.000000  1.000000
 IRadAn=      0 IRanWt=     -1 IRanGd=            0 ICorTp=0 IEmpDi=  4
 NAtoms=   19 NActive=   19 NUniq=   19 SFac= 1.00D+00 NAtFMM=   60 NAOKFM=F Big=F
 Integral buffers will be    131072 words long.
 Raffenetti 2 integral format.
 Two-electron integral symmetry is turned on.
 Leave Link  301 at Fri Aug 20 15:54:08 2021, MaxMem= 24159191040 cpu:         1.6
 (Enter /public/home/users/caep010/software/Gaussian09/g09/l302.exe)
 NPDir=0 NMtPBC=     1 NCelOv=     1 NCel=       1 NClECP=     1 NCelD=      1
         NCelK=      1 NCelE2=     1 NClLst=     1 CellRange=     0.0.
 One-electron integrals computed using PRISM.
 NBasis=   215 RedAO= T EigKep=  5.34D-04  NBF=   215
 NBsUse=   215 1.00D-06 EigRej= -1.00D+00 NBFU=   215
 Precomputing XC quadrature grid using
 IXCGrd= 4 IRadAn=           0 IRanWt=          -1 IRanGd=           0 AccXCQ= 0.00D+00.
 Generated NRdTot=       0 NPtTot=           0 NUsed=           0 NTot=          32
 NSgBfM=   214   214   214   214   214 MxSgAt=    19 MxSgA2=    19.
 Leave Link  302 at Fri Aug 20 15:54:08 2021, MaxMem= 24159191040 cpu:        12.5
 (Enter /public/home/users/caep010/software/Gaussian09/g09/l303.exe)
 DipDrv:  MaxL=1.
 Leave Link  303 at Fri Aug 20 15:54:08 2021, MaxMem= 24159191040 cpu:         0.8
 (Enter /public/home/users/caep010/software/Gaussian09/g09/l401.exe)
 Initial guess from the checkpoint file:  "/public/home/users/caep010/.cache/gau_scr/Gau-188369.chk"
 B after Tr=    -0.000000    0.000000   -0.000000
         Rot=    0.999998    0.001462   -0.000290    0.001220 Ang=   0.22 deg.
 Guess basis will be translated and rotated to current coordinates.
 JPrj=2 DoOrth=T DoCkMO=T.
 Generating alternative initial guess.
 ExpMin= 1.61D-01 ExpMax= 5.48D+03 ExpMxC= 8.25D+02 IAcc=1 IRadAn=         1 AccDes= 0.00D+00
 Harris functional with IExCor=  402 and IRadAn=       1 diagonalized for initial guess.
 HarFok:  IExCor=  402 AccDes= 0.00D+00 IRadAn=         1 IDoV= 1 UseB2=F ITyADJ=14
 ICtDFT=  3500011 ScaDFX=  1.000000  1.000000  1.000000  1.000000
 FoFCou: FMM=F IPFlag=           0 FMFlag=      100000 FMFlg1=           0
         NFxFlg=           0 DoJE=T BraDBF=F KetDBF=T FulRan=T
         wScrn=  0.000000 ICntrl=     500 IOpCl=  0 I1Cent=   200000004 NGrid=           0
         NMat0=    1 NMatS0=      1 NMatT0=    0 NMatD0=    1 NMtDS0=    0 NMtDT0=    0
 Petite list used in FoFCou.
 Harris En= -622.665880965455    
 Leave Link  401 at Fri Aug 20 15:54:09 2021, MaxMem= 24159191040 cpu:        13.7
 (Enter /public/home/users/caep010/software/Gaussian09/g09/l502.exe)
 Closed shell SCF:
 Using DIIS extrapolation, IDIIS=  1040.
 Integral symmetry usage will be decided dynamically.
 Keep R1 ints in memory in canonical form, NReq=274800267.
 IVT=      165717 IEndB=      165717 NGot= 24159191040 MDV= 23889429514
 LenX= 23889429514 LenY= 23889382848
 Requested convergence on RMS density matrix=1.00D-08 within 128 cycles.
 Requested convergence on MAX density matrix=1.00D-06.
 Requested convergence on             energy=1.00D-06.
 No special actions if energy rises.
 FoFCou: FMM=F IPFlag=           0 FMFlag=           0 FMFlg1=           0
         NFxFlg=           0 DoJE=F BraDBF=F KetDBF=F FulRan=T
         wScrn=  0.000000 ICntrl=     600 IOpCl=  0 I1Cent=           0 NGrid=           0
         NMat0=    1 NMatS0=  23220 NMatT0=    0 NMatD0=    1 NMtDS0=    0 NMtDT0=    0
 Symmetry not used in FoFCou.
 Integral accuracy reduced to 1.0D-05 until final iterations.

 Cycle   1  Pass 0  IDiag  1:
 E= -622.579193236774    
 DIIS: error= 3.89D-03 at cycle   1 NSaved=   1.
 NSaved= 1 IEnMin= 1 EnMin= -622.579193236774     IErMin= 1 ErrMin= 3.89D-03
 ErrMax= 3.89D-03  0.00D+00 EMaxC= 1.00D-01 BMatC= 4.11D-03 BMatP= 4.11D-03
 IDIUse=3 WtCom= 9.61D-01 WtEn= 3.89D-02
 Coeff-Com:  0.100D+01
 Coeff-En:   0.100D+01
 Coeff:      0.100D+01
 Gap=     1.702 Goal=   None    Shift=    0.000
 GapD=    1.702 DampG=2.000 DampE=1.000 DampFc=2.0000 IDamp=-1.
 RMSDP=5.30D-04 MaxDP=2.23D-02              OVMax= 2.19D-02

 Cycle   2  Pass 0  IDiag  1:
 E= -622.582567862893     Delta-E=       -0.003374626119 Rises=F Damp=F
 DIIS: error= 3.37D-03 at cycle   2 NSaved=   2.
 NSaved= 2 IEnMin= 2 EnMin= -622.582567862893     IErMin= 2 ErrMin= 3.37D-03
 ErrMax= 3.37D-03  0.00D+00 EMaxC= 1.00D-01 BMatC= 1.52D-03 BMatP= 4.11D-03
 IDIUse=3 WtCom= 9.66D-01 WtEn= 3.37D-02
 Coeff-Com:  0.341D+00 0.659D+00
 Coeff-En:   0.000D+00 0.100D+01
 Coeff:      0.329D+00 0.671D+00
 Gap=     0.170 Goal=   None    Shift=    0.000
 RMSDP=2.78D-04 MaxDP=1.13D-02 DE=-3.37D-03 OVMax= 2.19D-02

 Cycle   3  Pass 0  IDiag  1:
 E= -622.583367329404     Delta-E=       -0.000799466511 Rises=F Damp=F
 DIIS: error= 1.99D-03 at cycle   3 NSaved=   3.
 NSaved= 3 IEnMin= 3 EnMin= -622.583367329404     IErMin= 3 ErrMin= 1.99D-03
 ErrMax= 1.99D-03  0.00D+00 EMaxC= 1.00D-01 BMatC= 7.56D-04 BMatP= 1.52D-03
 IDIUse=3 WtCom= 9.80D-01 WtEn= 1.99D-02
 Coeff-Com:  0.729D-01 0.408D+00 0.519D+00
 Coeff-En:   0.000D+00 0.325D+00 0.675D+00
 Coeff:      0.714D-01 0.407D+00 0.522D+00
 Gap=     0.174 Goal=   None    Shift=    0.000
 RMSDP=2.01D-04 MaxDP=9.48D-03 DE=-7.99D-04 OVMax= 2.18D-02

 Cycle   4  Pass 0  IDiag  1:
 E= -622.583812225889     Delta-E=       -0.000444896485 Rises=F Damp=F
 DIIS: error= 1.52D-03 at cycle   4 NSaved=   4.
 NSaved= 4 IEnMin= 4 EnMin= -622.583812225889     IErMin= 4 ErrMin= 1.52D-03
 ErrMax= 1.52D-03  0.00D+00 EMaxC= 1.00D-01 BMatC= 2.83D-04 BMatP= 7.56D-04
 IDIUse=3 WtCom= 9.85D-01 WtEn= 1.52D-02
 Coeff-Com:  0.965D-02 0.217D+00 0.393D+00 0.381D+00
 Coeff-En:   0.000D+00 0.000D+00 0.291D+00 0.709D+00
 Coeff:      0.951D-02 0.213D+00 0.391D+00 0.386D+00
 Gap=     0.172 Goal=   None    Shift=    0.000
 RMSDP=8.99D-05 MaxDP=4.69D-03 DE=-4.45D-04 OVMax= 1.04D-02

 Cycle   5  Pass 0  IDiag  1:
 E= -622.584061040182     Delta-E=       -0.000248814293 Rises=F Damp=F
 DIIS: error= 2.18D-04 at cycle   5 NSaved=   5.
 NSaved= 5 IEnMin= 5 EnMin= -622.584061040182     IErMin= 5 ErrMin= 2.18D-04
 ErrMax= 2.18D-04  0.00D+00 EMaxC= 1.00D-01 BMatC= 9.06D-06 BMatP= 2.83D-04
 IDIUse=3 WtCom= 9.98D-01 WtEn= 2.18D-03
 Coeff-Com: -0.225D-04 0.892D-01 0.176D+00 0.221D+00 0.514D+00
 Coeff-En:   0.000D+00 0.000D+00 0.000D+00 0.000D+00 0.100D+01
 Coeff:     -0.224D-04 0.890D-01 0.176D+00 0.220D+00 0.515D+00
 Gap=     0.173 Goal=   None    Shift=    0.000
 RMSDP=1.69D-05 MaxDP=5.96D-04 DE=-2.49D-04 OVMax= 1.14D-03

 Cycle   6  Pass 0  IDiag  1:
 E= -622.584067415693     Delta-E=       -0.000006375511 Rises=F Damp=F
 DIIS: error= 6.76D-05 at cycle   6 NSaved=   6.
 NSaved= 6 IEnMin= 6 EnMin= -622.584067415693     IErMin= 6 ErrMin= 6.76D-05
 ErrMax= 6.76D-05  0.00D+00 EMaxC= 1.00D-01 BMatC= 1.70D-06 BMatP= 9.06D-06
 IDIUse=1 WtCom= 1.00D+00 WtEn= 0.00D+00
 Coeff-Com: -0.185D-02 0.228D-01 0.494D-01 0.829D-01 0.339D+00 0.508D+00
 Coeff:     -0.185D-02 0.228D-01 0.494D-01 0.829D-01 0.339D+00 0.508D+00
 Gap=     0.173 Goal=   None    Shift=    0.000
 RMSDP=5.99D-06 MaxDP=3.19D-04 DE=-6.38D-06 OVMax= 3.89D-04

 Initial convergence to 1.0D-05 achieved.  Increase integral accuracy.
 Cycle   7  Pass 1  IDiag  1:
 E= -622.584065871063     Delta-E=        0.000001544631 Rises=F Damp=F
 DIIS: error= 3.60D-05 at cycle   1 NSaved=   1.
 NSaved= 1 IEnMin= 1 EnMin= -622.584065871063     IErMin= 1 ErrMin= 3.60D-05
 ErrMax= 3.60D-05  0.00D+00 EMaxC= 1.00D-01 BMatC= 2.65D-07 BMatP= 2.65D-07
 IDIUse=1 WtCom= 1.00D+00 WtEn= 0.00D+00
 Coeff-Com:  0.100D+01
 Coeff:      0.100D+01
 Gap=     0.173 Goal=   None    Shift=    0.000
 RMSDP=5.99D-06 MaxDP=3.19D-04 DE= 1.54D-06 OVMax= 6.23D-04

 Cycle   8  Pass 1  IDiag  1:
 E= -622.584065123170     Delta-E=        0.000000747892 Rises=F Damp=F
 DIIS: error= 1.05D-04 at cycle   2 NSaved=   2.
 NSaved= 2 IEnMin= 1 EnMin= -622.584065871063     IErMin= 1 ErrMin= 3.60D-05
 ErrMax= 1.05D-04  0.00D+00 EMaxC= 1.00D-01 BMatC= 1.25D-06 BMatP= 2.65D-07
 IDIUse=3 WtCom= 4.94D-01 WtEn= 5.06D-01
 Coeff-Com:  0.700D+00 0.300D+00
 Coeff-En:   0.774D+00 0.226D+00
 Coeff:      0.737D+00 0.263D+00
 Gap=     0.173 Goal=   None    Shift=    0.000
 RMSDP=4.07D-06 MaxDP=2.37D-04 DE= 7.48D-07 OVMax= 4.43D-04

 Cycle   9  Pass 1  IDiag  1:
 E= -622.584066101517     Delta-E=       -0.000000978347 Rises=F Damp=F
 DIIS: error= 6.64D-06 at cycle   3 NSaved=   3.
 NSaved= 3 IEnMin= 3 EnMin= -622.584066101517     IErMin= 3 ErrMin= 6.64D-06
 ErrMax= 6.64D-06  0.00D+00 EMaxC= 1.00D-01 BMatC= 1.29D-08 BMatP= 2.65D-07
 IDIUse=1 WtCom= 1.00D+00 WtEn= 0.00D+00
 Coeff-Com:  0.193D+00 0.550D-01 0.752D+00
 Coeff:      0.193D+00 0.550D-01 0.752D+00
 Gap=     0.173 Goal=   None    Shift=    0.000
 RMSDP=8.61D-07 MaxDP=3.73D-05 DE=-9.78D-07 OVMax= 4.46D-05

 Cycle  10  Pass 1  IDiag  1:
 E= -622.584066102602     Delta-E=       -0.000000001085 Rises=F Damp=F
 DIIS: error= 6.56D-06 at cycle   4 NSaved=   4.
 NSaved= 4 IEnMin= 4 EnMin= -622.584066102602     IErMin= 4 ErrMin= 6.56D-06
 ErrMax= 6.56D-06  0.00D+00 EMaxC= 1.00D-01 BMatC= 1.22D-08 BMatP= 1.29D-08
 IDIUse=1 WtCom= 1.00D+00 WtEn= 0.00D+00
 Coeff-Com:  0.773D-04-0.198D-01 0.515D+00 0.505D+00
 Coeff:      0.773D-04-0.198D-01 0.515D+00 0.505D+00
 Gap=     0.173 Goal=   None    Shift=    0.000
 RMSDP=5.08D-07 MaxDP=1.96D-05 DE=-1.09D-09 OVMax= 3.54D-05

 Cycle  11  Pass 1  IDiag  1:
 E= -622.584066111554     Delta-E=       -0.000000008952 Rises=F Damp=F
 DIIS: error= 1.80D-06 at cycle   5 NSaved=   5.
 NSaved= 5 IEnMin= 5 EnMin= -622.584066111554     IErMin= 5 ErrMin= 1.80D-06
 ErrMax= 1.80D-06  0.00D+00 EMaxC= 1.00D-01 BMatC= 1.17D-09 BMatP= 1.22D-08
 IDIUse=1 WtCom= 1.00D+00 WtEn= 0.00D+00
 Coeff-Com: -0.114D-01-0.162D-01 0.302D+00 0.338D+00 0.388D+00
 Coeff:     -0.114D-01-0.162D-01 0.302D+00 0.338D+00 0.388D+00
 Gap=     0.173 Goal=   None    Shift=    0.000
 RMSDP=1.83D-07 MaxDP=7.53D-06 DE=-8.95D-09 OVMax= 1.52D-05

 Cycle  12  Pass 1  IDiag  1:
 E= -622.584066112497     Delta-E=       -0.000000000943 Rises=F Damp=F
 DIIS: error= 7.73D-07 at cycle   6 NSaved=   6.
 NSaved= 6 IEnMin= 6 EnMin= -622.584066112497     IErMin= 6 ErrMin= 7.73D-07
 ErrMax= 7.73D-07  0.00D+00 EMaxC= 1.00D-01 BMatC= 6.18D-11 BMatP= 1.17D-09
 IDIUse=1 WtCom= 1.00D+00 WtEn= 0.00D+00
 Coeff-Com: -0.705D-02-0.845D-02 0.148D+00 0.173D+00 0.241D+00 0.453D+00
[...]
 0.02466185,-0.03849089,0.02865154,0.00133253,-0.24085397,0.05642277,-0
 .10996890,0.59562913,0.00194789,0.00575718,-0.00176472,0.01289324,0.02
 504282,-0.00663441,-0.00272855,0.03224142,-0.06045236,-0.03008669,-0.0
 0805535,0.13247192,0.00484538,-0.00317972,0.00147095,-0.04336193,0.000
 86894,0.02708709,-0.18708358,0.11389275,0.06995630,0.00711755,0.008557
 15,-0.00319340,0.49980962,-0.00738375,-0.00981636,0.00707670,0.0390656
 2,0.07198466,-0.03796898,0.06915496,-0.20442690,-0.02000024,0.01920264
 ,-0.03883146,-0.00741566,-0.03815890,0.66440511,0.00328116,0.00282934,
 0.00375081,0.01843351,-0.01177319,-0.01392902,0.08144680,-0.05205246,-
 0.10190180,-0.00853697,0.00368631,0.00572655,-0.21938043,-0.05747016,0
 .32816484,-0.00008190,-0.00072034,-0.00031453,0.00256988,0.00211312,0.
 00310401,-0.01923852,-0.00018902,0.01644557,-0.00102160,-0.00292869,-0
 .00132744,-0.15489811,-0.02459453,0.06120024,0.51324428,0.00150983,0.0
 0067160,-0.00114489,0.00398219,-0.00575004,0.00051497,0.01444501,0.013
 70076,-0.01014599,0.00100214,-0.00121947,-0.00137493,-0.02135909,-0.09
 674756,0.01942248,-0.02755686,0.58495197,-0.00007468,0.00038806,-0.000
 31919,0.00286689,-0.00052031,0.00557354,0.01211838,-0.00207449,-0.0058
 8778,-0.00152651,0.00178514,-0.00356232,0.06671506,0.02626350,-0.12216
 653,0.02500715,0.01736662,0.53509196,-0.00013953,0.00018844,-0.0000447
 0,0.00083547,0.00025385,0.00111736,0.00017657,-0.00276132,0.00077043,0
 .00045549,0.00110845,-0.00042497,-0.02103235,-0.00894254,-0.00987032,-
 0.19592026,-0.07208884,-0.11455195,0.21333507,0.00004251,-0.00003404,0
 .00004131,-0.00034466,-0.00049756,0.00062388,0.00137127,-0.00072435,-0
 .00098545,-0.00067060,0.00055323,-0.00107224,-0.00931161,-0.00491798,-
 0.00219631,-0.07245157,-0.07869442,-0.05636806,0.08120796,0.08475002,0
 .00004482,-0.00009960,0.00012567,-0.00059265,0.00018402,-0.00110127,0.
 00011107,0.00087514,-0.00040915,-0.00034717,-0.00087162,-0.00000720,0.
 01652691,0.00748460,0.01348526,-0.11299265,-0.05406231,-0.13011540,0.1
 2162400,0.05890738,0.14117229,0.00005733,0.00022972,-0.00005994,-0.000
 15367,-0.00067387,-0.00055975,0.00051906,-0.00028583,0.00062835,-0.000
 17765,-0.00061925,-0.00044632,0.00758150,-0.02131959,0.01760945,-0.068
 87010,0.05947469,-0.04870566,-0.00673537,0.01898443,-0.01487037,0.0752
 6333,-0.00012339,0.00012071,0.00008642,-0.00005734,0.00006424,-0.00002
 775,0.00082065,-0.00131602,-0.00123619,0.00059939,0.00115119,-0.000468
 64,-0.00119865,-0.00802265,0.00608231,0.05862572,-0.18754510,0.1212247
 8,-0.00304289,0.00923127,-0.00811137,-0.06089933,0.20187063,-0.0000924
 7,-0.00047010,0.00005236,0.00004990,0.00082927,0.00014899,0.00008039,0
 .00207312,0.00023584,-0.00077497,-0.00022776,0.00089944,-0.00571394,0.
 01232668,-0.01136273,-0.04625993,0.12130398,-0.15383949,-0.00537170,0.
 01377587,-0.01153003,0.05014367,-0.13509699,0.16404684,-0.00051075,-0.
 00022334,0.00023384,-0.00052309,0.00157570,-0.00010679,-0.00181966,-0.
 00293304,0.00262919,0.00007366,0.00017974,0.00062179,-0.01227731,0.020
 27059,0.01457215,-0.07557267,0.06855589,0.04611839,0.01046003,-0.01946
 756,-0.01164392,-0.00369701,0.00632234,0.00508467,0.08260642,0.0000069
 4,0.00008233,-0.00003199,-0.00075832,0.00015096,0.00007481,-0.00139693
 ,-0.00126748,0.00104288,0.00052764,-0.00013927,-0.00048513,-0.00419295
 ,0.00879247,0.00703418,0.07123847,-0.21505385,-0.11202318,0.00409805,-
 0.00833776,-0.00403924,0.00568335,-0.01599676,-0.01334153,-0.07408363,
 0.23037859,0.00013402,0.00022960,-0.00020326,0.00030131,-0.00105287,0.
 00081475,0.00213569,0.00214496,-0.00184740,-0.00034051,0.00045578,0.00
 049869,0.00537859,-0.01487813,-0.01003444,0.04769673,-0.10922728,-0.12
 435836,0.00698949,-0.01349104,-0.00901215,-0.00668846,0.01597083,0.013
 34281,-0.05515910,0.12091473,0.13093202,-0.00782051,0.00743510,-0.0006
 6578,0.00609158,-0.00982776,-0.00222871,0.00612075,0.01066352,0.001144
 39,-0.31837119,0.12459622,0.05055172,0.00006001,-0.00302924,0.00039370
 ,-0.00002557,-0.00005665,0.00003920,-0.00013473,0.00016424,0.00000852,
 -0.00019323,0.00007952,0.00036838,0.00006719,-0.00019620,0.00004253,0.
 34392685,-0.00137471,0.00658930,-0.00278006,0.00705044,-0.00928629,-0.
 00219396,0.03189854,-0.01767632,-0.00610726,0.12728418,-0.12546686,-0.
 03540604,-0.00148410,-0.00417621,0.00311545,-0.00026509,0.00020640,0.0
 0033974,0.00013832,-0.00008792,-0.00009236,-0.00003405,-0.00004720,-0.
 00004318,0.00006281,0.00004347,-0.00002504,-0.13792299,0.13971126,0.00
 216965,-0.00717479,-0.00367744,-0.00547882,0.00639108,0.00321825,-0.00
 817941,0.00397789,-0.00140582,0.09263473,-0.04856269,-0.03085527,0.000
 58928,0.00093491,-0.00013021,-0.00012630,-0.00041136,-0.00040419,-0.00
 010477,-0.00003186,0.00004964,0.00006599,-0.00001939,0.00026538,0.0000
 7254,-0.00006524,0.00004882,-0.04904167,0.04242114,0.03795008,0.002563
 27,0.00262999,0.00079542,0.00296860,0.00926198,-0.00680912,0.00879561,
 -0.03862629,0.01237607,-0.11997380,0.03305616,0.00487314,0.00244844,0.
 00789843,-0.00386205,0.00143385,-0.00121337,0.00043025,-0.00416889,0.0
 0295941,0.00286371,0.00153974,-0.00015118,0.00060920,-0.00172555,-0.00
 084222,-0.00080237,-0.03416529,-0.02333874,-0.02812249,0.70435604,0.00
 311156,0.00260055,-0.00491593,0.00148907,0.00058177,-0.00396577,-0.023
 10163,-0.05458822,-0.01376091,0.00768126,-0.10624283,0.01527437,-0.002
 94707,0.00354290,0.00125293,0.00036051,0.00079370,-0.00137063,0.000734
 00,-0.00130649,-0.00030522,0.00054641,-0.00035304,-0.00150148,-0.00002
 096,0.00102074,0.00010478,0.00755680,0.01810683,0.00526417,-0.23009305
 ,0.89213977,-0.00170941,0.00829889,-0.00303436,0.00900434,0.00833705,-
 0.00617352,0.01971199,-0.01968215,0.00256161,-0.03734300,0.00315904,-0
 .05668798,-0.00041176,0.00082833,-0.00094447,0.00145623,-0.00159263,0.
 00149901,-0.00156460,0.00104249,0.00079391,0.00039875,-0.00010810,-0.0
 0135652,-0.00098655,0.00019876,-0.00071749,-0.00018400,0.00697345,-0.0
 0323132,0.16597164,-0.04448974,0.30539053,-0.00007161,-0.00021717,-0.0
 0033874,-0.00027767,-0.00095467,-0.00014662,-0.00066632,-0.00095803,-0
 .00572078,0.01547831,-0.03763605,-0.00075676,-0.00121190,-0.00129267,0
 .00151393,-0.00032577,0.00032078,-0.00016057,0.00085882,-0.00060928,-0
 .00074360,-0.00015950,0.00006654,-0.00011948,0.00034812,0.00020435,0.0
 0014182,0.00483299,0.00164410,0.00090296,-0.14157362,0.08088603,-0.018
 76538,0.13550376,-0.00342944,0.00282607,0.00159185,0.00471345,-0.00533
 918,-0.00116992,-0.00660245,0.00420439,-0.00468979,-0.01618758,-0.0742
 0080,-0.02466377,-0.00126134,-0.00067148,0.00045419,0.00093798,-0.0006
 3746,0.00018023,-0.00087227,0.00022172,-0.00004541,-0.00016457,0.00005
 649,0.00013397,-0.00022102,-0.00042150,-0.00036732,0.00207033,-0.00538
 809,0.00288520,0.08961640,-0.54626798,-0.01471234,-0.12328009,0.675984
 61,0.00025762,-0.00050726,0.00050255,-0.00057998,-0.00275964,0.0001515
 8,-0.00558391,0.00304648,0.00121136,-0.00318850,-0.03653855,0.01359185
 ,-0.00005474,-0.00050240,0.00037842,-0.00090111,0.00049226,-0.00009819
 ,0.00065240,-0.00005965,0.00011828,0.00000375,-0.00009715,0.00001952,0
 .00030892,0.00009567,0.00018476,0.00033090,-0.00109223,-0.00161999,-0.
 01276400,-0.01099125,-0.09520458,0.03383905,0.02176227,0.05369384,-0.0
 0007765,-0.00236065,0.00128106,-0.00170335,-0.00087094,0.00123978,-0.0
 0141707,0.01220520,-0.00098570,-0.06521710,0.00235119,-0.03947506,-0.0
 0320600,-0.00271405,0.00209962,-0.00170081,0.00195630,0.00101175,0.002
 90590,-0.00119982,-0.00065946,-0.00076814,0.00001217,-0.00045719,0.001
 27219,0.00077555,0.00065826,0.00145127,-0.00420555,-0.00661310,-0.4203
 2597,0.15259698,-0.13697320,-0.01353005,0.05461820,-0.01188075,0.50159
 300,-0.00118522,0.00099321,0.00114728,0.00188061,0.00115193,-0.0026099
 8,-0.00149436,0.00012766,-0.00160474,-0.01216009,0.02415808,0.00195225
 ,0.00111237,-0.00048813,-0.00169876,-0.00031870,-0.00278504,-0.0007392
 5,-0.00112988,-0.00047051,-0.00020982,0.00028289,0.00008116,0.00025084
 ,-0.00065997,-0.00055432,-0.00068207,-0.00394423,-0.00256511,-0.003516
 20,0.14667165,-0.20942512,0.05127084,0.08274725,-0.04998287,0.02707710
 ,-0.21149566,0.23905525,0.00012437,-0.00267507,0.00134393,-0.00330266,
 -0.00052446,0.00124394,-0.00131716,0.00513826,-0.00133981,-0.04235982,
 0.00288658,0.00095763,0.00077085,-0.00040314,-0.00003603,0.00060808,-0
 .00180542,-0.00121808,-0.00010722,-0.00142283,-0.00200065,0.00015141,0
 .00011532,0.00038308,-0.00038282,-0.00048060,-0.00032377,-0.00074845,-
 0.00423104,-0.00126109,-0.13478964,0.05673748,-0.14172944,-0.00997041,
 0.01778712,0.02680219,0.19127329,-0.07031650,0.11695940,-0.00032205,0.
 00779177,-0.00170079,-0.02109224,-0.03530816,0.01498485,0.03372842,0.0
 0985802,-0.02262521,0.00019935,0.00637483,0.00495470,-0.10926147,0.010
 12065,0.03131599,-0.00230659,-0.02786621,0.01105101,-0.00027669,-0.000
 69708,0.00088598,-0.00372157,-0.00051071,0.00258574,0.00089738,-0.0013
 5839,-0.00030478,-0.00054598,0.00029961,0.00105299,-0.00256794,-0.0000
 0005,-0.00157739,0.00064955,0.00005464,0.00025735,0.00097080,-0.000350
 34,0.00020906,0.55127127,0.00713236,0.00024985,-0.00474991,-0.03349700
 ,-0.03539649,0.02615839,0.04716304,-0.04979113,-0.02310856,0.00408419,
 0.00475954,-0.00134398,-0.04620273,-0.30760862,0.07082408,-0.00813520,
 -0.00840794,0.00700364,0.00159378,0.00043413,0.00038319,-0.00008536,0.
 00106629,-0.00032564,0.00153292,0.00034408,-0.00133823,0.00057655,-0.0
 0026934,-0.00065839,0.00028610,-0.00176615,0.00082832,-0.00043358,0.00
 035212,-0.00004531,-0.00011642,0.00064028,-0.00055622,-0.07620752,0.68
 451817,-0.00171169,-0.00519900,0.00126716,0.01743503,0.02940011,-0.018
 52388,-0.02749191,-0.00114974,0.02281963,0.00583068,-0.00201210,0.0023
 9897,0.03942742,0.03337316,-0.09404224,0.00783005,0.01926712,-0.002096
 35,0.00014401,0.00113345,-0.00124953,0.00229607,0.00136652,-0.00172184
 ,-0.00143996,0.00139044,0.00084570,-0.00020504,-0.00089514,0.00024975,
 -0.00064987,0.00200253,0.00062047,0.00030543,0.00050669,-0.00013257,-0
 .00038975,-0.00058532,0.00021739,-0.26876428,-0.03992539,0.30623400,-0
 .00448022,-0.00723534,0.00799024,0.04608763,0.05475998,-0.03700933,-0.
 04324236,0.01118388,0.02804498,-0.00168956,-0.00165963,-0.00029602,0.0
 1192908,-0.07077713,0.00668653,0.00527185,0.00161956,0.00212152,-0.000
 26429,0.00055701,-0.00086117,-0.00037453,-0.00074761,-0.00041812,-0.00
 036979,0.00045916,-0.00002717,0.00035451,0.00025830,-0.00025139,0.0002
 1582,0.00061250,-0.00026897,0.00000833,-0.00008587,0.00004481,-0.00048
 637,-0.00014657,0.00019250,-0.24304872,-0.00989154,0.12164349,0.531786
 34,-0.00293999,0.00283452,0.00206001,0.01373432,-0.06145048,-0.0001919
 7,0.01347239,-0.00366412,-0.00837310,-0.00062703,-0.00166141,0.0010355
 7,-0.03242448,0.00301577,0.02166191,0.00226884,-0.00474571,0.00121886,
 0.00009977,-0.00014250,-0.00007653,-0.00119736,-0.00037363,0.00068359,
 -0.00002217,0.00040655,0.00004011,-0.00052543,-0.00034298,0.00071798,0
 .00205040,0.00102284,-0.00056189,-0.00028578,-0.00080150,0.00004342,-0
 .00056725,0.00008467,-0.00017194,-0.06686325,-0.14283702,0.05668998,-0
 .03537685,0.74370034,0.00741230,0.00476261,0.00105114,-0.03207397,-0.0
 2490615,0.02182705,0.02546994,-0.00678009,-0.01600484,0.00026100,0.001
 31206,-0.00112022,-0.00022434,0.04631734,-0.00432376,0.00177874,-0.000
 33738,0.00458575,0.00117633,0.00073881,-0.00050519,-0.00058629,0.00031
 490,0.00084589,-0.00022771,0.00004919,0.00005971,0.00010226,0.00008505
 ,0.00005229,-0.00021969,-0.00095537,0.00034542,-0.00009001,0.00015230,
 -0.00006004,0.00027217,0.00016725,-0.00019123,0.13047171,0.01961460,-0
 .14369082,-0.25076903,-0.08042687,0.29849478,0.00033072,0.00088373,-0.
 00043311,-0.00099066,0.00355425,0.00519969,-0.00113104,0.00028066,0.00
 051407,-0.00006855,0.00010713,-0.00049259,-0.00188652,0.00007136,0.005
 55579,0.00034385,-0.00101598,-0.00004567,-0.00010206,-0.00007801,0.000
 10751,-0.00025641,-0.00017375,0.00014887,0.00002477,0.00005534,-0.0000
 2782,-0.00003506,-0.00005046,0.00002898,-0.00003328,-0.00005834,0.0000
 2409,-0.00000117,-0.00004033,0.00000126,0.00007286,-0.00002242,-0.0000
 1148,0.00153119,-0.02506199,0.00479051,-0.06014564,-0.04137943,0.02213
 011,0.05609676,-0.00009129,-0.00117010,0.00024044,0.00398532,0.0002763
 6,-0.00099323,0.00026157,0.00063570,-0.00030492,-0.00021634,0.00001838
 ,-0.00012501,-0.00067437,0.00166961,0.00126119,0.00019118,-0.00019597,
 -0.00014041,-0.00005019,-0.00003746,0.00006637,-0.00008587,-0.00004404
 ,0.00004173,-0.00000539,0.00000422,-0.00000075,0.00012587,0.00005664,-
 0.00014426,0.00012775,0.00011202,0.00013772,-0.00002287,-0.00008642,-0
 .00002062,-0.00003393,-0.00002285,-0.00004524,0.00036496,-0.00262846,0
 .00069555,-0.04035654,-0.32032944,0.07179323,0.04351739,0.33682654,-0.
 00016096,-0.00045911,-0.00001119,0.00510887,-0.00157498,0.00553895,0.0
 0029870,-0.00062523,-0.00050245,-0.00065326,0.00030495,-0.00047576,0.0
 0590206,0.00129049,0.00289570,-0.00043587,0.00069055,-0.00016726,0.000
 05640,-0.00000655,0.00003499,0.00020866,0.00001758,-0.00013133,0.00001
 558,-0.00005128,-0.00001375,0.00015502,0.00002998,-0.00009472,0.000202
 89,-0.00023232,0.00003572,-0.00005023,-0.00003062,-0.00001094,-0.00001
 639,0.00005853,-0.00000743,0.00083366,0.01666251,-0.00025748,0.0220927
 2,0.07218910,-0.06135607,-0.02626814,-0.07811488,0.05497739,0.01078505
 ,0.04488418,-0.00626910,-0.13850928,-0.05566052,0.05515352,0.00983596,
 -0.02827069,-0.00214575,-0.00202187,-0.00398329,0.00344439,-0.00505997
 ,0.01709165,-0.00059954,-0.00184540,-0.00084056,-0.00037452,-0.0000223
 6,-0.00001974,0.00047567,-0.00001858,0.00030692,0.00026764,0.00017505,
 -0.00020234,0.00002655,-0.00164490,0.00027724,0.00038230,-0.00009559,0
 .00061443,0.00310985,0.00019371,0.00006406,-0.00072279,0.00021896,0.00
 010998,-0.00032735,-0.03815620,0.00343121,0.02835110,-0.22068214,0.137
 79619,0.08139899,0.00718451,-0.00642568,-0.00317734,0.63643032,0.02051
 380,-0.06713656,0.00168174,-0.00305918,-0.25521875,0.03201169,-0.06724
 582,-0.00319673,0.04586562,0.00132240,0.00425788,-0.00064738,0.0178034
 6,-0.05955191,-0.00172466,0.00069785,0.00025678,-0.00022757,-0.0003559
 3,0.00029755,-0.00019351,0.00015375,-0.00038239,-0.00050079,-0.0000991
 2,0.00024783,0.00019728,0.00290711,0.00097062,-0.00207329,-0.00166554,
 -0.00043162,-0.00127939,0.00007984,0.00061625,0.00043476,-0.00038856,-
 0.00014620,0.00017101,0.04171161,0.05514361,-0.03571419,0.08749296,-0.
 23540829,-0.02395335,0.02000911,-0.01627894,-0.00917207,-0.07212061,0.
 63860790,-0.00333073,-0.01353371,0.01674534,0.04528143,0.06561844,-0.1
 0467895,0.00608691,0.02063179,-0.00571510,0.00575519,-0.00279689,0.004
 45604,0.00026202,-0.00291901,0.00014644,0.00049869,0.00048054,-0.00031
 398,-0.00003344,-0.00011127,-0.00020737,0.00006710,-0.00016610,-0.0001
 8985,-0.00004833,0.00009201,-0.00007399,-0.00020781,-0.00011374,0.0007
 5534,-0.00018974,0.00164810,-0.00208026,0.00010428,0.00018875,0.000463
 12,-0.00035112,-0.00004228,0.00023548,0.02285814,-0.00879433,-0.006794
 73,0.08761448,-0.05497748,-0.09718181,-0.00715259,0.00670006,0.0043166
 7,-0.30732967,-0.04077785,0.31117007,-0.00031168,0.00114771,-0.0026846
 2,-0.00228085,-0.00056113,0.00369790,0.00234880,0.00016650,0.00146876,
 0.00015178,0.00003943,0.00008749,-0.00015187,0.00022887,-0.00060376,-0
 .00014579,0.00001864,-0.00020264,-0.00003241,-0.00007417,-0.00000178,0
 .00003278,-0.00002060,-0.00001333,0.00003613,-0.00003021,-0.00003742,-
 0.00001698,-0.00008385,0.00001523,0.00025177,0.00007597,0.00004116,-0.
 00003380,0.00000412,-0.00000730,-0.00004401,0.00004714,0.00000312,0.00
 155294,0.00351224,0.00271038,-0.00836909,-0.00545645,0.00730801,-0.000
 61041,-0.00021156,-0.00189221,-0.25628501,-0.04527070,0.14464901,0.264
 27309,-0.00066082,0.00391376,-0.00095314,-0.03214819,-0.01179767,0.022
 54594,0.00308002,-0.00423908,-0.00065693,-0.00152979,-0.00129340,0.000
 46603,-0.00006883,-0.00083229,-0.00009691,-0.00009274,0.00016203,-0.00
 010214,0.00000150,-0.00002655,-0.00000406,0.00004438,0.00002989,-0.000
 03188,-0.00004251,-0.00000493,0.00005762,-0.00041467,0.00004149,0.0000
 3989,0.00055713,0.00017741,0.00098829,-0.00004577,-0.00022419,-0.00024
 456,-0.00018784,0.00010389,-0.00012165,0.00308207,-0.00333056,-0.00021
 108,0.01686217,0.01066029,-0.01161107,-0.00069724,0.00058492,-0.000303
 87,-0.03544531,-0.06324063,0.02691683,0.04681396,0.06893648,-0.0025178
 9,-0.00167367,-0.00256254,0.00868074,0.00139778,-0.00185901,0.00143094
 ,0.00156053,0.00386372,0.00037908,-0.00011271,0.00012224,-0.00063014,0
 .00036726,-0.00051793,-0.00037246,-0.00001321,-0.00045059,-0.00008346,
 -0.00011121,0.00005832,0.00005256,0.00003182,0.00001640,0.00003660,-0.
 00008248,0.00001346,0.00005762,-0.00002189,0.00007193,0.00001636,0.000
 13805,-0.00009584,0.00004196,0.00001624,0.00003280,-0.00002276,0.00004
 135,-0.00000237,0.00281435,-0.00055635,0.00522139,0.00390883,0.0018647
 0,-0.00061130,-0.00181790,-0.00060342,-0.00252459,0.14280687,0.0336061
 8,-0.12419134,-0.15502663,-0.03601474,0.12329775,-0.00003457,0.0001180
 7,-0.00045667,-0.00021812,-0.00056438,-0.00048556,0.00178549,-0.000862
 22,0.00325456,0.00050749,-0.00030697,-0.00014657,0.00563944,-0.0048923
 6,-0.00125582,-0.00091061,-0.00088746,-0.00183742,-0.00019841,-0.00036
 272,0.00006457,0.00013200,0.00009219,-0.00011730,0.00053490,0.00001235
 ,-0.00011736,0.00004828,-0.00015401,0.00000329,0.00005680,-0.00004441,
 0.00006623,-0.00002219,0.00006579,-0.00001298,-0.00000846,0.00005556,-
 0.00001568,-0.16950145,0.13031893,0.06988833,-0.01250087,0.01824356,0.
 00640950,-0.00032387,-0.00040000,-0.00222016,-0.00048225,-0.00248644,0
 .00546618,-0.00036538,0.00089249,0.00024533,0.17586178,0.00003458,0.00
 039405,-0.00019028,-0.00084425,-0.00078699,0.00053743,-0.00177235,-0.0
 0330780,0.00308143,0.00121775,-0.00104389,-0.00071152,0.02022917,-0.01
 731896,-0.01061192,0.00081908,0.00103935,-0.00220453,-0.00018027,-0.00
 021038,0.00021035,-0.00003455,0.00040896,0.00012029,-0.00072127,0.0003
 0462,0.00094700,-0.00025809,-0.00041970,0.00002521,0.00081501,0.000282
 91,0.00036304,-0.00021293,-0.00024018,-0.00009333,-0.00037493,0.000044
 03,-0.00008166,0.12950353,-0.19547236,-0.06013358,-0.00752845,0.010032
 12,0.00366297,0.00009897,0.00060928,-0.00067278,-0.00160711,0.00059361
 ,0.00195614,-0.00034593,0.00037911,0.00016579,-0.13883794,0.20471223,-
 0.00065812,-0.00004984,-0.00026800,0.00019193,0.00052235,-0.00131347,0
 .00252898,0.00253345,0.00420231,-0.00036007,0.00021506,0.00043690,-0.0
 0447779,0.00529474,0.00484113,-0.00289521,0.00057690,-0.00175256,-0.00
 037327,-0.00040674,0.00029959,0.00029103,0.00012121,-0.00012478,0.0003
 0150,-0.00029200,-0.00015610,0.00008722,0.00003712,0.00001860,0.000070
 26,0.00006623,0.00000913,0.00001315,0.00002035,-0.00002395,-0.00001145
 ,0.00003949,-0.00003313,0.07069693,-0.06007244,-0.07136503,0.00956110,
 -0.01342545,-0.00221675,-0.00225156,-0.00044357,-0.00224645,0.00552920
 ,0.00229576,0.00313890,0.00048865,-0.00066258,0.00011750,-0.07873248,0
 .06362995,0.06643617\\0.00000601,-0.00000460,0.00000075,-0.00000462,-0
 .00000299,0.00001556,0.00000298,-0.00000450,-0.00000311,-0.00000291,0.
 00000556,-0.00000246,-0.00000072,0.00000414,-0.00000585,-0.00001050,-0
 .00002191,-0.00000975,0.00000743,0.00000735,0.00000273,-0.00000601,0.0
 0001048,-0.00000650,-0.00000588,0.00001363,0.00000160,-0.00000207,-0.0
 0000115,0.00000726,-0.00001652,0.00000857,0.00000014,0.00000149,-0.000
 00431,0.00000177,0.00001307,-0.00000339,0.00000350,0.00000272,-0.00000
 572,-0.00000033,0.00000754,-0.00000424,-0.00000296,0.00000366,0.000000
 13,-0.00000138,-0.00000138,0.00000521,0.00000036,0.00000656,-0.0000047
 5,0.00000347,-0.00000085,0.00000246,-0.00000478\\\@


 MY DESCRIPTION OF EXPERIENCE IS NOT WHAT HAPPENS
 TO A MAN.  EXPERIENCE IS WHAT A MAN DOES WITH WHAT
 HAPPENS TO HIM.
                         - CHUCK KNOX, SEATTLE SEAHAWKS, 1985
 Job cpu time:       0 days  0 hours 14 minutes 34.9 seconds.
 File lengths (MBytes):  RWF=    106 Int=      0 D2E=      0 Chk=      5 Scr=      1
 Normal termination of Gaussian 09 at Fri Aug 20 15:57:45 2021.
