 Entering Gaussian System, Link 0=g09
 Input=B3LYP6-31G.JEDSUG.gjf
 Output=B3LYP6-31G.JEDSUG.log
 Initial command:
 /public/home/users/caep010/software/Gaussian09/g09/l1.exe "/public/home/users/caep010/.cache/gau_scr/Gau-61354.inp" -scrdir="/public/home/users/caep010/.cache/gau_scr/"
 Entering Link 1 = /public/home/users/caep010/software/Gaussian09/g09/l1.exe PID=     61355.
  
 Copyright (c) 1988,1990,1992,1993,1995,1998,2003,2009,2015,
            Gaussian, Inc.  All Rights Reserved.
  
 This is part of the Gaussian(R) 09 program.  It is based on
 the Gaussian(R) 03 system (copyright 2003, Gaussian, Inc.),
 the Gaussian(R) 98 system (copyright 1998, Gaussian, Inc.),
 the Gaussian(R) 94 system (copyright 1995, Gaussian, Inc.),
 the Gaussian 92(TM) system (copyright 1992, Gaussian, Inc.),
 the Gaussian 90(TM) system (copyright 1990, Gaussian, Inc.),
 the Gaussian 88(TM) system (copyright 1988, Gaussian, Inc.),
 the Gaussian 86(TM) system (copyright 1986, Carnegie Mellon
 University), and the Gaussian 82(TM) system (copyright 1983,
 Carnegie Mellon University). Gaussian is a federally registered
 trademark of Gaussian, Inc.
  
 This software contains proprietary and confidential information,
 including trade secrets, belonging to Gaussian, Inc.
  
 This software is provided under written license and may be
 used, copied, transmitted, or stored only in accord with that
 written license.
  
 The following legend is applicable only to US Government
 contracts under FAR:
  
                    RESTRICTED RIGHTS LEGEND
  
 Use, reproduction and disclosure by the US Government is
 subject to restrictions as set forth in subparagraphs (a)
 and (c) of the Commercial Computer Software - Restricted
 Rights clause in FAR 52.227-19.
  
 Gaussian, Inc.
 340 Quinnipiac St., Bldg. 40, Wallingford CT 06492
  
  
 ---------------------------------------------------------------
 Warning -- This program may not be used in any manner that
 competes with the business of Gaussian, Inc. or will provide
 assistance to any competitor of Gaussian, Inc.  The licensee
 of this program is prohibited from giving any competitor of
 Gaussian, Inc. access to this program.  By using this program,
 the user acknowledges that Gaussian, Inc. is engaged in the
 business of creating and licensing software in the field of
 computational chemistry and represents and warrants to the
 licensee that it is not a competitor of Gaussian, Inc. and that
 it will not use this program in any manner prohibited above.
 ---------------------------------------------------------------
  

 Cite this work as:
 Gaussian 09, Revision E.01,
 M. J. Frisch, G. W. Trucks, H. B. Schlegel, G. E. Scuseria, 
 M. A. Robb, J. R. Cheeseman, G. Scalmani, V. Barone, B. Mennucci, 
 G. A. Petersson, H. Nakatsuji, M. Caricato, X. Li, H. P. Hratchian, 
 A. F. Izmaylov, J. Bloino, G. Zheng, J. L. Sonnenberg, M. Hada, 
 M. Ehara, K. Toyota, R. Fukuda, J. Hasegawa, M. Ishida, T. Nakajima, 
 Y. Honda, O. Kitao, H. Nakai, T. Vreven, J. A. Montgomery, Jr., 
 J. E. Peralta, F. Ogliaro, M. Bearpark, J. J. Heyd, E. Brothers, 
 K. N. Kudin, V. N. Staroverov, T. Keith, R. Kobayashi, J. Normand, 
 K. Raghavachari, A. Rendell, J. C. Burant, S. S. Iyengar, J. Tomasi, 
 M. Cossi, N. Rega, J. M. Millam, M. Klene, J. E. Knox, J. B. Cross, 
 V. Bakken, C. Adamo, J. Jaramillo, R. Gomperts, R. E. Stratmann, 
 O. Yazyev, A. J. Austin, R. Cammi, C. Pomelli, J. W. Ochterski, 
 R. L. Martin, K. Morokuma, V. G. Zakrzewski, G. A. Voth, 
 P. Salvador, J. J. Dannenberg, S. Dapprich, A. D. Daniels, 
 O. Farkas, J. B. Foresman, J. V. Ortiz, J. Cioslowski, 
 and D. J. Fox, Gaussian, Inc., Wallingford CT, 2013.
 
 ******************************************
 Gaussian 09:  ES64L-G09RevE.01 30-Nov-2015
                20-Aug-2021 
 ******************************************
 %nproc=32
 Will use up to   32 processors via shared memory.
 %mem=180GB
 -------------------------
 #P OPT Freq B3LYP/6-31G**
 -------------------------
 1/14=-1,18=20,19=15,26=3,38=1/1,3;
 2/9=110,12=2,17=6,18=5,40=1/2;
 3/5=1,6=6,7=101,11=2,16=1,25=1,30=1,71=1,74=-5/1,2,3;
 4//1;
 5/5=2,38=5/2;
 6/7=2,8=2,9=2,10=2,28=1/1;
 7//1,2,3,16;
 1/14=-1,18=20,19=15,26=3/3(2);
 2/9=110/2;
 99//99;
 2/9=110/2;
 3/5=1,6=6,7=101,11=2,16=1,25=1,30=1,71=1,74=-5/1,2,3;
 4/5=5,16=3,69=1/1;
 5/5=2,38=5/2;
 7//1,2,3,16;
 1/14=-1,18=20,19=15,26=3/3(-5);
 2/9=110/2;
 6/7=2,8=2,9=2,10=2,19=2,28=1/1;
 99/9=1/99;
 Leave Link    1 at Fri Aug 20 15:46:12 2021, MaxMem= 24159191040 cpu:         2.7
 (Enter /public/home/users/caep010/software/Gaussian09/g09/l101.exe)
 ------
 JEDSUG
 ------
 Symbolic Z-matrix:
 Charge =  0 Multiplicity = 1
 C                    -0.2211    1.1519    8.079 
 O                     0.8129    1.5198    7.6326 
 N                    -1.0121    0.0706    7.6842 
 N                    -0.8159   -0.6065    6.5012 
 O                    -1.6749   -1.4167    6.2375 
 O                     0.159    -0.3631    5.8427 
 C                    -2.2803   -0.0658    8.3943 
 N                    -0.9412    1.6784    9.1519 
 C                    -2.2673    1.1139    9.3639 
 H                    -2.3335    0.8871    10.2679 
 H                    -2.8809    1.7568    9.103 
 H                    -2.2856   -1.0964    8.9105 
 N                    -0.512     2.7431    9.8982 
 O                     0.6379    3.1022    9.7601 
 O                    -1.3219    3.2172    10.66 
 H                    -2.9554   -0.0301    7.7861 
 
 NAtoms=     16 NQM=       16 NQMF=       0 NMMI=      0 NMMIF=      0
                NMic=       0 NMicF=      0.
                    Isotopes and Nuclear Properties:
 (Nuclear quadrupole moments (NQMom) in fm**2, nuclear magnetic moments (NMagM)
  in nuclear magnetons)

  Atom         1           2           3           4           5           6           7           8           9          10
 IAtWgt=          12          16          14          14          16          16          12          14          12           1
 AtmWgt=  12.0000000  15.9949146  14.0030740  14.0030740  15.9949146  15.9949146  12.0000000  14.0030740  12.0000000   1.0078250
 NucSpn=           0           0           2           2           0           0           0           2           0           1
 AtZEff=   0.0000000   0.0000000   0.0000000   0.0000000   0.0000000   0.0000000   0.0000000   0.0000000   0.0000000   0.0000000
 NQMom=    0.0000000   0.0000000   2.0440000   2.0440000   0.0000000   0.0000000   0.0000000   2.0440000   0.0000000   0.0000000
 NMagM=    0.0000000   0.0000000   0.4037610   0.4037610   0.0000000   0.0000000   0.0000000   0.4037610   0.0000000   2.7928460
 AtZNuc=   6.0000000   8.0000000   7.0000000   7.0000000   8.0000000   8.0000000   6.0000000   7.0000000   6.0000000   1.0000000

  Atom        11          12          13          14          15          16
 IAtWgt=           1           1          14          16          16           1
 AtmWgt=   1.0078250   1.0078250  14.0030740  15.9949146  15.9949146   1.0078250
 NucSpn=           1           1           2           0           0           1
 AtZEff=   0.0000000   0.0000000   0.0000000   0.0000000   0.0000000   0.0000000
 NQMom=    0.0000000   0.0000000   2.0440000   0.0000000   0.0000000   0.0000000
 NMagM=    2.7928460   2.7928460   0.4037610   0.0000000   0.0000000   2.7928460
 AtZNuc=   1.0000000   1.0000000   7.0000000   8.0000000   8.0000000   1.0000000
 Leave Link  101 at Fri Aug 20 15:46:12 2021, MaxMem= 24159191040 cpu:        10.0
 (Enter /public/home/users/caep010/software/Gaussian09/g09/l103.exe)

 GradGradGradGradGradGradGradGradGradGradGradGradGradGradGradGradGradGrad
 Berny optimization.
 Initialization pass.
                           ----------------------------
                           !    Initial Parameters    !
                           ! (Angstroms and Degrees)  !
 --------------------------                            --------------------------
 ! Name  Definition              Value          Derivative Info.                !
 --------------------------------------------------------------------------------
 ! R1    R(1,2)                  1.1848         estimate D2E/DX2                !
 ! R2    R(1,3)                  1.3967         estimate D2E/DX2                !
 ! R3    R(1,8)                  1.3953         estimate D2E/DX2                !
 ! R4    R(3,4)                  1.3771         estimate D2E/DX2                !
 ! R5    R(3,7)                  1.4599         estimate D2E/DX2                !
 ! R6    R(4,5)                  1.2099         estimate D2E/DX2                !
 ! R7    R(4,6)                  1.2014         estimate D2E/DX2                !
 ! R8    R(7,9)                  1.5271         estimate D2E/DX2                !
 ! R9    R(7,12)                 1.1527         estimate D2E/DX2                !
 ! R10   R(7,16)                 0.9094         estimate D2E/DX2                !
 ! R11   R(8,9)                  1.4568         estimate D2E/DX2                !
 ! R12   R(8,13)                 1.3692         estimate D2E/DX2                !
 ! R13   R(9,10)                 0.9344         estimate D2E/DX2                !
 ! R14   R(9,11)                 0.9262         estimate D2E/DX2                !
 ! R15   R(13,14)                1.2126         estimate D2E/DX2                !
 ! R16   R(13,15)                1.2087         estimate D2E/DX2                !
 ! A1    A(2,1,3)              128.9133         estimate D2E/DX2                !
 ! A2    A(2,1,8)              128.5313         estimate D2E/DX2                !
 ! A3    A(3,1,8)              102.5448         estimate D2E/DX2                !
 ! A4    A(1,3,4)              122.8736         estimate D2E/DX2                !
 ! A5    A(1,3,7)              115.2663         estimate D2E/DX2                !
 ! A6    A(4,3,7)              119.7147         estimate D2E/DX2                !
 ! A7    A(3,4,5)              114.5401         estimate D2E/DX2                !
 ! A8    A(3,4,6)              119.1344         estimate D2E/DX2                !
 ! A9    A(5,4,6)              126.3237         estimate D2E/DX2                !
 ! A10   A(3,7,9)              103.2541         estimate D2E/DX2                !
 ! A11   A(3,7,12)             107.7803         estimate D2E/DX2                !
 ! A12   A(3,7,16)             108.417          estimate D2E/DX2                !
 ! A13   A(9,7,12)             113.9793         estimate D2E/DX2                !
 ! A14   A(9,7,16)             113.6188         estimate D2E/DX2                !
 ! A15   A(12,7,16)            109.3421         estimate D2E/DX2                !
 ! A16   A(1,8,9)              115.8161         estimate D2E/DX2                !
 ! A17   A(1,8,13)             123.4189         estimate D2E/DX2                !
 ! A18   A(9,8,13)             120.4874         estimate D2E/DX2                !
 ! A19   A(7,9,8)              102.3981         estimate D2E/DX2                !
 ! A20   A(7,9,10)             115.2256         estimate D2E/DX2                !
 ! A21   A(7,9,11)             110.5927         estimate D2E/DX2                !
 ! A22   A(8,9,10)             107.4188         estimate D2E/DX2                !
 ! A23   A(8,9,11)             107.0432         estimate D2E/DX2                !
 ! A24   A(10,9,11)            113.2081         estimate D2E/DX2                !
 ! A25   A(8,13,14)            117.7409         estimate D2E/DX2                !
 ! A26   A(8,13,15)            116.0069         estimate D2E/DX2                !
 ! A27   A(14,13,15)           126.2305         estimate D2E/DX2                !
 ! D1    D(2,1,3,4)            -13.1858         estimate D2E/DX2                !
 ! D2    D(2,1,3,7)           -176.4514         estimate D2E/DX2                !
 ! D3    D(8,1,3,4)            167.9359         estimate D2E/DX2                !
 ! D4    D(8,1,3,7)              4.6703         estimate D2E/DX2                !
 ! D5    D(2,1,8,9)            172.5889         estimate D2E/DX2                !
 ! D6    D(2,1,8,13)            -1.3719         estimate D2E/DX2                !
 ! D7    D(3,1,8,9)             -8.5268         estimate D2E/DX2                !
 ! D8    D(3,1,8,13)           177.5124         estimate D2E/DX2                !
 ! D9    D(1,3,4,5)           -172.0645         estimate D2E/DX2                !
 ! D10   D(1,3,4,6)              8.394          estimate D2E/DX2                !
 ! D11   D(7,3,4,5)             -9.5108         estimate D2E/DX2                !
 ! D12   D(7,3,4,6)            170.9476         estimate D2E/DX2                !
 ! D13   D(1,3,7,9)              0.3679         estimate D2E/DX2                !
 ! D14   D(1,3,7,12)          -120.5633         estimate D2E/DX2                !
 ! D15   D(1,3,7,16)           121.1827         estimate D2E/DX2                !
 ! D16   D(4,3,7,9)           -163.4649         estimate D2E/DX2                !
 ! D17   D(4,3,7,12)            75.604          estimate D2E/DX2                !
 ! D18   D(4,3,7,16)           -42.65           estimate D2E/DX2                !
 ! D19   D(3,7,9,8)             -5.0193         estimate D2E/DX2                !
 ! D20   D(3,7,9,10)          -121.2749         estimate D2E/DX2                !
 ! D21   D(3,7,9,11)           108.7572         estimate D2E/DX2                !
 ! D22   D(12,7,9,8)           111.6043         estimate D2E/DX2                !
 ! D23   D(12,7,9,10)           -4.6513         estimate D2E/DX2                !
 ! D24   D(12,7,9,11)         -134.6191         estimate D2E/DX2                !
 ! D25   D(16,7,9,8)          -122.2291         estimate D2E/DX2                !
 ! D26   D(16,7,9,10)          121.5153         estimate D2E/DX2                !
 ! D27   D(16,7,9,11)           -8.4525         estimate D2E/DX2                !
 ! D28   D(1,8,9,7)              8.8089         estimate D2E/DX2                !
 ! D29   D(1,8,9,10)           130.5648         estimate D2E/DX2                !
 ! D30   D(1,8,9,11)          -107.5538         estimate D2E/DX2                !
 ! D31   D(13,8,9,7)          -177.04           estimate D2E/DX2                !
 ! D32   D(13,8,9,10)          -55.284          estimate D2E/DX2                !
 ! D33   D(13,8,9,11)           66.5974         estimate D2E/DX2                !
 ! D34   D(1,8,13,14)          -12.3593         estimate D2E/DX2                !
 ! D35   D(1,8,13,15)          169.2261         estimate D2E/DX2                !
 ! D36   D(9,8,13,14)          173.9506         estimate D2E/DX2                !
 ! D37   D(9,8,13,15)           -4.464          estimate D2E/DX2                !
 --------------------------------------------------------------------------------
 Trust Radius=3.00D-01 FncErr=1.00D-07 GrdErr=1.00D-06
 Number of steps in this run=     90 maximum allowed number of steps=    100.
 GradGradGradGradGradGradGradGradGradGradGradGradGradGradGradGradGradGrad

 Leave Link  103 at Fri Aug 20 15:46:12 2021, MaxMem= 24159191040 cpu:         0.8
 (Enter /public/home/users/caep010/software/Gaussian09/g09/l202.exe)
                          Input orientation:                          
 ---------------------------------------------------------------------
 Center     Atomic      Atomic             Coordinates (Angstroms)
 Number     Number       Type             X           Y           Z
 ---------------------------------------------------------------------
      1          6           0       -0.221100    1.151900    8.079000
      2          8           0        0.812900    1.519800    7.632600
      3          7           0       -1.012100    0.070600    7.684200
      4          7           0       -0.815900   -0.606500    6.501200
      5          8           0       -1.674900   -1.416700    6.237500
      6          8           0        0.159000   -0.363100    5.842700
      7          6           0       -2.280300   -0.065800    8.394300
      8          7           0       -0.941200    1.678400    9.151900
      9          6           0       -2.267300    1.113900    9.363900
     10          1           0       -2.333500    0.887100   10.267900
     11          1           0       -2.880900    1.756800    9.103000
     12          1           0       -2.285600   -1.096400    8.910500
     13          7           0       -0.512000    2.743100    9.898200
     14          8           0        0.637900    3.102200    9.760100
     15          8           0       -1.321900    3.217200   10.660000
     16          1           0       -2.955400   -0.030100    7.786100
 ---------------------------------------------------------------------
                    Distance matrix (angstroms):
                    1          2          3          4          5
     1  C    0.000000
     2  O    1.184812   0.000000
     3  N    1.396695   2.330980   0.000000
     4  N    2.436229   2.907612   1.377116   0.000000
     5  O    3.478845   4.093713   2.178143   1.209894   0.000000
     6  O    2.727772   2.678925   2.225015   1.201372   2.151541
     7  C    2.412988   3.558399   1.459856   2.453702   2.615956
     8  N    1.395299   2.326004   2.178116   3.501811   4.314126
     9  C    2.416474   3.556654   2.342092   3.641619   4.065618
    10  H    3.053463   4.152704   3.014677   4.326890   4.688856
    11  H    2.913592   3.982763   2.889408   4.076613   4.442593
    12  H    3.163606   4.251851   2.118373   2.864393   2.760521
    13  N    2.434344   2.895646   3.506302   4.780354   5.661890
    14  O    2.714341   2.657230   4.027711   5.146690   6.178852
    15  O    3.484076   4.074762   4.341941   5.672066   6.415305
    16  H    2.993211   4.077479   1.948574   2.561380   2.441414
                    6          7          8          9         10
     6  O    0.000000
     7  C    3.542490   0.000000
     8  N    4.040912   2.325807   0.000000
     9  C    4.524081   1.527084   1.456759   0.000000
    10  H    5.230483   2.102671   1.951951   0.934364   0.000000
    11  H    4.936043   2.045690   1.941900   0.926226   1.553389
    12  H    3.990638   1.152661   3.092766   2.256398   2.403976
    13  N    5.152262   3.643970   1.369220   2.453741   2.626647
    14  O    5.252016   4.518576   2.211486   3.542668   3.740822
    15  O    6.182070   4.102440   2.187968   2.645284   2.570300
    16  H    3.686079   0.909363   2.973446   2.066802   2.717967
                   11         12         13         14         15
    11  H    0.000000
    12  H    2.920991   0.000000
    13  N    2.686414   4.343152   0.000000
    14  O    3.824112   5.186224   1.212557   0.000000
    15  O    2.643388   4.753589   1.208738   2.159597   0.000000
    16  H    2.220988   1.688166   4.256972   5.159436   4.633852
                   16
    16  H    0.000000
 Stoichiometry    C3H4N4O5
 Framework group  C1[X(C3H4N4O5)]
 Deg. of freedom    42
 Full point group                 C1      NOp   1
 Largest Abelian subgroup         C1      NOp   1
 Largest concise Abelian subgroup C1      NOp   1
                         Standard orientation:                         
 ---------------------------------------------------------------------
 Center     Atomic      Atomic             Coordinates (Angstroms)
 Number     Number       Type             X           Y           Z
 ---------------------------------------------------------------------
      1          6           0        0.004212   -0.638811    0.046510
      2          8           0        0.016269   -1.822355   -0.006956
      3          7           0       -1.088692    0.223078    0.162552
      4          7           0       -2.388912   -0.188689   -0.028033
      5          8           0       -3.202853    0.706409   -0.039986
      6          8           0       -2.618444   -1.361012   -0.155583
      7          6           0       -0.766934    1.646426    0.120936
      8          7           0        1.085628    0.242823    0.035542
      9          6           0        0.749931    1.657475   -0.055087
     10          1           0        1.225431    2.101316    0.615690
     11          1           0        0.976807    1.936173   -0.908755
     12          1           0       -1.127295    2.117796    1.109154
     13          7           0        2.391373   -0.165983   -0.016142
     14          8           0        2.623066   -1.340615    0.175830
     15          8           0        3.209851    0.699203   -0.222523
     16          1           0       -1.217099    2.022536   -0.573927
 ---------------------------------------------------------------------
 Rotational constants (GHZ):      2.2793777      0.6598725      0.5170934
 Leave Link  202 at Fri Aug 20 15:46:12 2021, MaxMem= 24159191040 cpu:         0.9
 (Enter /public/home/users/caep010/software/Gaussian09/g09/l301.exe)
 Standard basis: 6-31G(d,p) (6D, 7F)
 Ernie: Thresh=  0.10000D-02 Tol=  0.10000D-05 Strict=F.
 There are   200 symmetry adapted cartesian basis functions of A   symmetry.
 There are   200 symmetry adapted basis functions of A   symmetry.
   200 basis functions,   364 primitive gaussians,   200 cartesian basis functions
    45 alpha electrons       45 beta electrons
       nuclear repulsion energy       766.9222296927 Hartrees.
 IExCor=  402 DFT=T Ex+Corr=B3LYP ExCW=0 ScaHFX=  0.200000
 ScaDFX=  0.800000  0.720000  1.000000  0.810000 ScalE2=  1.000000  1.000000
 IRadAn=      0 IRanWt=     -1 IRanGd=            0 ICorTp=0 IEmpDi=  4
 NAtoms=   16 NActive=   16 NUniq=   16 SFac= 1.00D+00 NAtFMM=   60 NAOKFM=F Big=F
 Integral buffers will be    131072 words long.
 Raffenetti 2 integral format.
 Two-electron integral symmetry is turned on.
 Leave Link  301 at Fri Aug 20 15:46:13 2021, MaxMem= 24159191040 cpu:         2.3
 (Enter /public/home/users/caep010/software/Gaussian09/g09/l302.exe)
 NPDir=0 NMtPBC=     1 NCelOv=     1 NCel=       1 NClECP=     1 NCelD=      1
         NCelK=      1 NCelE2=     1 NClLst=     1 CellRange=     0.0.
 One-electron integrals computed using PRISM.
 NBasis=   200 RedAO= T EigKep=  1.58D-03  NBF=   200
 NBsUse=   200 1.00D-06 EigRej= -1.00D+00 NBFU=   200
 Precomputing XC quadrature grid using
 IXCGrd= 4 IRadAn=           0 IRanWt=          -1 IRanGd=           0 AccXCQ= 0.00D+00.
 Generated NRdTot=       0 NPtTot=           0 NUsed=           0 NTot=          32
 NSgBfM=   199   199   199   199   199 MxSgAt=    16 MxSgA2=    16.
 Leave Link  302 at Fri Aug 20 15:46:13 2021, MaxMem= 24159191040 cpu:        11.8
 (Enter /public/home/users/caep010/software/Gaussian09/g09/l303.exe)
 DipDrv:  MaxL=1.
 Leave Link  303 at Fri Aug 20 15:46:13 2021, MaxMem= 24159191040 cpu:         1.1
 (Enter /public/home/users/caep010/software/Gaussian09/g09/l401.exe)
 ExpMin= 1.61D-01 ExpMax= 5.48D+03 ExpMxC= 8.25D+02 IAcc=1 IRadAn=         1 AccDes= 0.00D+00
 Harris functional with IExCor=  402 and IRadAn=       1 diagonalized for initial guess.
 HarFok:  IExCor=  402 AccDes= 0.00D+00 IRadAn=         1 IDoV= 1 UseB2=F ITyADJ=14
 ICtDFT=  3500011 ScaDFX=  1.000000  1.000000  1.000000  1.000000
 FoFCou: FMM=F IPFlag=           0 FMFlag=      100000 FMFlg1=           0
         NFxFlg=           0 DoJE=T BraDBF=F KetDBF=T FulRan=T
         wScrn=  0.000000 ICntrl=     500 IOpCl=  0 I1Cent=   200000004 NGrid=           0
         NMat0=    1 NMatS0=      1 NMatT0=    0 NMatD0=    1 NMtDS0=    0 NMtDT0=    0
 Petite list used in FoFCou.
 Harris En= -711.633837167437    
 JPrj=0 DoOrth=F DoCkMO=F.
 Leave Link  401 at Fri Aug 20 15:46:14 2021, MaxMem= 24159191040 cpu:        12.0
 (Enter /public/home/users/caep010/software/Gaussian09/g09/l502.exe)
 Closed shell SCF:
 Using DIIS extrapolation, IDIIS=  1040.
 Integral symmetry usage will be decided dynamically.
 Keep R1 ints in memory in canonical form, NReq=206221692.
 IVT=      146442 IEndB=      146442 NGot= 24159191040 MDV= 23957029549
 LenX= 23957029549 LenY= 23956989108
 Requested convergence on RMS density matrix=1.00D-08 within 128 cycles.
 Requested convergence on MAX density matrix=1.00D-06.
 Requested convergence on             energy=1.00D-06.
 No special actions if energy rises.
 FoFCou: FMM=F IPFlag=           0 FMFlag=           0 FMFlg1=           0
         NFxFlg=           0 DoJE=F BraDBF=F KetDBF=F FulRan=T
         wScrn=  0.000000 ICntrl=     600 IOpCl=  0 I1Cent=           0 NGrid=           0
         NMat0=    1 NMatS0=  20100 NMatT0=    0 NMatD0=    1 NMtDS0=    0 NMtDT0=    0
 Symmetry not used in FoFCou.
 Integral accuracy reduced to 1.0D-05 until final iterations.

 Cycle   1  Pass 0  IDiag  1:
 E= -710.983591852589    
 DIIS: error= 6.55D-02 at cycle   1 NSaved=   1.
 NSaved= 1 IEnMin= 1 EnMin= -710.983591852589     IErMin= 1 ErrMin= 6.55D-02
 ErrMax= 6.55D-02  0.00D+00 EMaxC= 1.00D-01 BMatC= 7.35D-01 BMatP= 7.35D-01
 IDIUse=3 WtCom= 3.45D-01 WtEn= 6.55D-01
 Coeff-Com:  0.100D+01
 Coeff-En:   0.100D+01
 Coeff:      0.100D+01
 Gap=     0.246 Goal=   None    Shift=    0.000
 GapD=    0.246 DampG=1.000 DampE=0.500 DampFc=0.5000 IDamp=-1.
 Damping current iteration by 5.00D-01
 RMSDP=1.11D-02 MaxDP=3.83D-01              OVMax= 4.46D-01

 Cycle   2  Pass 0  IDiag  1:
 E= -710.868945717572     Delta-E=        0.114646135017 Rises=F Damp=T
 DIIS: error= 3.42D-02 at cycle   2 NSaved=   2.
 NSaved= 2 IEnMin= 1 EnMin= -710.983591852589     IErMin= 2 ErrMin= 3.42D-02
 ErrMax= 3.42D-02  0.00D+00 EMaxC= 1.00D-01 BMatC= 3.13D-01 BMatP= 7.35D-01
 IDIUse=3 WtCom= 6.58D-01 WtEn= 3.42D-01
 Coeff-Com:  0.381D+00 0.619D+00
 Coeff-En:   0.562D+00 0.438D+00
 Coeff:      0.443D+00 0.557D+00
 Gap=     0.167 Goal=   None    Shift=    0.000
 RMSDP=3.40D-03 MaxDP=1.37D-01 DE= 1.15D-01 OVMax= 3.14D-01

 Cycle   3  Pass 0  IDiag  1:
 E= -711.460919724085     Delta-E=       -0.591974006514 Rises=F Damp=F
 DIIS: error= 1.29D-02 at cycle   3 NSaved=   3.
 NSaved= 3 IEnMin= 3 EnMin= -711.460919724085     IErMin= 3 ErrMin= 1.29D-02
 ErrMax= 1.29D-02  0.00D+00 EMaxC= 1.00D-01 BMatC= 8.41D-02 BMatP= 3.13D-01
 IDIUse=3 WtCom= 8.71D-01 WtEn= 1.29D-01
 Coeff-Com:  0.235D+00 0.315D+00 0.450D+00
 Coeff-En:   0.000D+00 0.000D+00 0.100D+01
 Coeff:      0.204D+00 0.274D+00 0.521D+00
 Gap=     0.245 Goal=   None    Shift=    0.000
 RMSDP=1.72D-03 MaxDP=4.58D-02 DE=-5.92D-01 OVMax= 8.57D-02

 Cycle   4  Pass 0  IDiag  1:
 E= -711.505231799664     Delta-E=       -0.044312075578 Rises=F Damp=F
 DIIS: error= 9.03D-03 at cycle   4 NSaved=   4.
 NSaved= 4 IEnMin= 4 EnMin= -711.505231799664     IErMin= 4 ErrMin= 9.03D-03
 ErrMax= 9.03D-03  0.00D+00 EMaxC= 1.00D-01 BMatC= 3.06D-02 BMatP= 8.41D-02
 IDIUse=3 WtCom= 9.10D-01 WtEn= 9.03D-02
 Coeff-Com:  0.755D-01 0.703D-01 0.367D+00 0.487D+00
 Coeff-En:   0.000D+00 0.000D+00 0.291D+00 0.709D+00
 Coeff:      0.687D-01 0.639D-01 0.360D+00 0.507D+00
 Gap=     0.214 Goal=   None    Shift=    0.000
 RMSDP=8.52D-04 MaxDP=3.16D-02 DE=-4.43D-02 OVMax= 5.78D-02

 Cycle   5  Pass 0  IDiag  1:
 E= -711.524867372406     Delta-E=       -0.019635572743 Rises=F Damp=F
 DIIS: error= 4.93D-03 at cycle   5 NSaved=   5.
 NSaved= 5 IEnMin= 5 EnMin= -711.524867372406     IErMin= 5 ErrMin= 4.93D-03
 ErrMax= 4.93D-03  0.00D+00 EMaxC= 1.00D-01 BMatC= 4.96D-03 BMatP= 3.06D-02
 IDIUse=3 WtCom= 9.51D-01 WtEn= 4.93D-02
 Coeff-Com:  0.253D-01 0.106D-01 0.205D+00 0.364D+00 0.395D+00
 Coeff-En:   0.000D+00 0.000D+00 0.000D+00 0.135D+00 0.865D+00
 Coeff:      0.241D-01 0.101D-01 0.195D+00 0.352D+00 0.418D+00
 Gap=     0.209 Goal=   None    Shift=    0.000
 RMSDP=3.75D-04 MaxDP=1.47D-02 DE=-1.96D-02 OVMax= 2.98D-02

 Cycle   6  Pass 0  IDiag  1:
 E= -711.528343992219     Delta-E=       -0.003476619813 Rises=F Damp=F
 DIIS: error= 1.67D-03 at cycle   6 NSaved=   6.
 NSaved= 6 IEnMin= 6 EnMin= -711.528343992219     IErMin= 6 ErrMin= 1.67D-03
 ErrMax= 1.67D-03  0.00D+00 EMaxC= 1.00D-01 BMatC= 6.33D-04 BMatP= 4.96D-03
 IDIUse=3 WtCom= 9.83D-01 WtEn= 1.67D-02
 Coeff-Com:  0.401D-02-0.610D-02 0.674D-01 0.144D+00 0.292D+00 0.499D+00
 Coeff-En:   0.000D+00 0.000D+00 0.000D+00 0.000D+00 0.141D+00 0.859D+00
 Coeff:      0.395D-02-0.600D-02 0.663D-01 0.142D+00 0.289D+00 0.505D+00
 Gap=     0.210 Goal=   None    Shift=    0.000
 RMSDP=1.11D-04 MaxDP=3.69D-03 DE=-3.48D-03 OVMax= 8.17D-03

 Cycle   7  Pass 0  IDiag  1:
 E= -711.528811754677     Delta-E=       -0.000467762458 Rises=F Damp=F
 DIIS: error= 3.13D-04 at cycle   7 NSaved=   7.
 NSaved= 7 IEnMin= 7 EnMin= -711.528811754677     IErMin= 7 ErrMin= 3.13D-04
 ErrMax= 3.13D-04  0.00D+00 EMaxC= 1.00D-01 BMatC= 3.59D-05 BMatP= 6.33D-04
 IDIUse=3 WtCom= 9.97D-01 WtEn= 3.13D-03
 Coeff-Com:  0.988D-03-0.418D-02 0.255D-01 0.563D-01 0.138D+00 0.299D+00
 Coeff-Com:  0.484D+00
 Coeff-En:   0.000D+00 0.000D+00 0.000D+00 0.000D+00 0.000D+00 0.000D+00
 Coeff-En:   0.100D+01
 Coeff:      0.984D-03-0.416D-02 0.254D-01 0.561D-01 0.138D+00 0.298D+00
 Coeff:      0.486D+00
 Gap=     0.211 Goal=   None    Shift=    0.000
 RMSDP=2.84D-05 MaxDP=1.19D-03 DE=-4.68D-04 OVMax= 1.39D-03

 Cycle   8  Pass 0  IDiag  1:
 E= -711.528837226143     Delta-E=       -0.000025471467 Rises=F Damp=F
 DIIS: error= 6.89D-05 at cycle   8 NSaved=   8.
 NSaved= 8 IEnMin= 8 EnMin= -711.528837226143     IErMin= 8 ErrMin= 6.89D-05
 ErrMax= 6.89D-05  0.00D+00 EMaxC= 1.00D-01 BMatC= 2.50D-06 BMatP= 3.59D-05
 IDIUse=1 WtCom= 1.00D+00 WtEn= 0.00D+00
 Coeff-Com:  0.147D-03-0.198D-02 0.690D-02 0.148D-01 0.435D-01 0.110D+00
 Coeff-Com:  0.259D+00 0.567D+00
 Coeff:      0.147D-03-0.198D-02 0.690D-02 0.148D-01 0.435D-01 0.110D+00
 Coeff:      0.259D+00 0.567D+00
 Gap=     0.210 Goal=   None    Shift=    0.000
 RMSDP=7.91D-06 MaxDP=2.66D-04 DE=-2.55D-05 OVMax= 3.93D-04

 Initial convergence to 1.0D-05 achieved.  Increase integral accuracy.
 Cycle   9  Pass 1  IDiag  1:
 E= -711.528860945563     Delta-E=       -0.000023719419 Rises=F Damp=F
 DIIS: error= 3.86D-05 at cycle   1 NSaved=   1.
 NSaved= 1 IEnMin= 1 EnMin= -711.528860945563     IErMin= 1 ErrMin= 3.86D-05
 ErrMax= 3.86D-05  0.00D+00 EMaxC= 1.00D-01 BMatC= 3.08D-07 BMatP= 3.08D-07
 IDIUse=1 WtCom= 1.00D+00 WtEn= 0.00D+00
 Coeff-Com:  0.100D+01
 Coeff:      0.100D+01
 Gap=     0.210 Goal=   None    Shift=    0.000
 RMSDP=7.91D-06 MaxDP=2.66D-04 DE=-2.37D-05 OVMax= 2.98D-04

 Cycle  10  Pass 1  IDiag  1:
 E= -711.528860703186     Delta-E=        0.000000242377 Rises=F Damp=F
 DIIS: error= 4.71D-05 at cycle   2 NSaved=   2.
 NSaved= 2 IEnMin= 1 EnMin= -711.528860945563     IErMin= 1 ErrMin= 3.86D-05
 ErrMax= 4.71D-05  0.00D+00 EMaxC= 1.00D-01 BMatC= 6.57D-07 BMatP= 3.08D-07
 IDIUse=1 WtCom= 1.00D+00 WtEn= 0.00D+00
 Coeff-Com:  0.610D+00 0.390D+00
 Coeff:      0.610D+00 0.390D+00
 Gap=     0.210 Goal=   None    Shift=    0.000
 RMSDP=4.37D-06 MaxDP=1.97D-04 DE= 2.42D-07 OVMax= 2.76D-04

 Cycle  11  Pass 1  IDiag  1:
 E= -711.528861159610     Delta-E=       -0.000000456424 Rises=F Damp=F
 DIIS: error= 1.91D-05 at cycle   3 NSaved=   3.
 NSaved= 3 IEnMin= 3 EnMin= -711.528861159610     IErMin= 3 ErrMin= 1.91D-05
 ErrMax= 1.91D-05  0.00D+00 EMaxC= 1.00D-01 BMatC= 7.86D-08 BMatP= 3.08D-07
 IDIUse=1 WtCom= 1.00D+00 WtEn= 0.00D+00
 Coeff-Com:  0.171D+00 0.254D+00 0.576D+00
 Coeff:      0.171D+00 0.254D+00 0.576D+00
 Gap=     0.210 Goal=   None    Shift=    0.000
 RMSDP=1.53D-06 MaxDP=6.50D-05 DE=-4.56D-07 OVMax= 1.14D-04

 Cycle  12  Pass 1  IDiag  1:
 E= -711.528861204238     Delta-E=       -0.000000044628 Rises=F Damp=F
 DIIS: error= 8.04D-06 at cycle   4 NSaved=   4.
 NSaved= 4 IEnMin= 4 EnMin= -711.528861204238     IErMin= 4 ErrMin= 8.04D-06
 ErrMax= 8.04D-06  0.00D+00 EMaxC= 1.00D-01 BMatC= 1.96D-08 BMatP= 7.86D-08
 IDIUse=1 WtCom= 1.00D+00 WtEn= 0.00D+00
 Coeff-Com:  0.344D-02 0.103D+00 0.398D+00 0.496D+00
 Coeff:      0.344D-02 0.103D+00 0.398D+00 0.496D+00
 Gap=     0.210 Goal=   None    Shift=    0.000
 RMSDP=6.89D-07 MaxDP=3.44D-05 DE=-4.46D-08 OVMax= 6.42D-05

 Cycle  13  Pass 1  IDiag  1:
 E= -711.528861217916     Delta-E=       -0.000000013678 Rises=F Damp=F
 DIIS: error= 3.31D-06 at cycle   5 NSaved=   5.
 NSaved= 5 IEnMin= 5 EnMin= -711.528861217916     IErMin= 5 ErrMin= 3.31D-06
 ErrMax= 3.31D-06  0.00D+00 EMaxC= 1.00D-01 BMatC= 2.83D-09 BMatP= 1.96D-08
 IDIUse=1 WtCom= 1.00D+00 WtEn= 0.00D+00
 Coeff-Com: -0.104D-01 0.551D-01 0.241D+00 0.353D+00 0.361D+00
 Coeff:     -0.104D-01 0.551D-01 0.241D+00 0.353D+00 0.361D+00
 Gap=     0.210 Goal=   None    Shift=    0.000
 RMSDP=2.24D-07 MaxDP=9.72D-06 DE=-1.37D-08 OVMax= 2.02D-05

 Cycle  14  Pass 1  IDiag  1:
 E= -711.528861220040     Delta-E=       -0.000000002123 Rises=F Damp=F
 DIIS: error= 4.14D-07 at cycle   6 NSaved=   6.
 NSaved= 6 IEnMin= 6 EnMin= -711.528861220040     IErMin= 6 ErrMin= 4.14D-07
 ErrMax= 4.14D-07  0.00D+00 EMaxC= 1.00D-01 BMatC= 7.59D-11 BMatP= 2.83D-09
 IDIUse=1 WtCom= 1.00D+00 WtEn= 0.00D+00
 Coeff-Com: -0.642D-02 0.272D-01 0.121D+00 0.184D+00 0.218D+00 0.457D+00
 Coeff:     -0.642D-02 0.272D-01 0.121D+00 0.184D+00 0.218D+00 0.457D+00
 Gap=     0.210 Goal=   None    Shift=    0.000
 RMSDP=5.02D-08 MaxDP=1.57D-06 DE=-2.12D-09 OVMax= 2.43D-06

 Cycle  15  Pass 1  IDiag  1:
 E= -711.528861220076     Delta-E=       -0.000000000037 Rises=F Damp=F
 DIIS: error= 1.12D-07 at cycle   7 NSaved=   7.
 NSaved= 7 IEnMin= 7 EnMin= -711.528861220076     IErMin= 7 ErrMin= 1.12D-07
 ErrMax= 1.12D-07  0.00D+00 EMaxC= 1.00D-01 BMatC= 7.29D-12 BMatP= 7.59D-11
 IDIUse=1 WtCom= 1.00D+00 WtEn= 0.00D+00
 Coeff-Com: -0.175D-02 0.531D-02 0.238D-01 0.401D-01 0.592D-01 0.257D+00
 Coeff-Com:  0.616D+00
 Coeff:     -0.175D-02 0.531D-02 0.238D-01 0.401D-01 0.592D-01 0.257D+00
 Coeff:      0.616D+00
 Gap=     0.210 Goal=   None    Shift=    0.000
 RMSDP=1.50D-08 MaxDP=6.89D-07 DE=-3.66D-11 OVMax= 8.61D-07

 Cycle  16  Pass 1  IDiag  1:
 E= -711.528861220078     Delta-E=       -0.000000000002 Rises=F Damp=F
 DIIS: error= 9.06D-08 at cycle   8 NSaved=   8.
 NSaved= 8 IEnMin= 8 EnMin= -711.528861220078     IErMin= 8 ErrMin= 9.06D-08
 ErrMax= 9.06D-08  0.00D+00 EMaxC= 1.00D-01 BMatC= 1.62D-12 BMatP= 7.29D-12
 IDIUse=1 WtCom= 1.00D+00 WtEn= 0.00D+00
 Coeff-Com: -0.349D-03 0.330D-03 0.122D-02 0.472D-02 0.127D-01 0.108D+00
 Coeff-Com:  0.393D+00 0.480D+00
 Coeff:     -0.349D-03 0.330D-03 0.122D-02 0.472D-02 0.127D-01 0.108D+00
 Coeff:      0.393D+00 0.480D+00
 Gap=     0.210 Goal=   None    Shift=    0.000
 RMSDP=6.79D-09 MaxDP=3.50D-07 DE=-1.59D-12 OVMax= 6.32D-07

 SCF Done:  E(RB3LYP) =  -711.528861220     A.U. after   16 cycles
            NFock= 16  Conv=0.68D-08     -V/T= 2.0067
 KE= 7.067759566719D+02 PE=-3.199864612073D+03 EE= 1.014637564488D+03
 Leave Link  502 at Fri Aug 20 15:46:22 2021, MaxMem= 24159191040 cpu:        85.6
 (Enter /public/home/users/caep010/software/Gaussian09/g09/l601.exe)
 Copying SCF densities to generalized density rwf, IOpCl= 0 IROHF=0.

 **********************************************************************

            Population analysis using the SCF density.

 **********************************************************************

 Orbital symmetries:
       Occupied  (A) (A) (A) (A) (A) (A) (A) (A) (A) (A) (A) (A)
                 (A) (A) (A) (A) (A) (A) (A) (A) (A) (A) (A) (A)
                 (A) (A) (A) (A) (A) (A) (A) (A) (A) (A) (A) (A)
                 (A) (A) (A) (A) (A) (A) (A) (A) (A)
       Virtual   (A) (A) (A) (A) (A) (A) (A) (A) (A) (A) (A) (A)
                 (A) (A) (A) (A) (A) (A) (A) (A) (A) (A) (A) (A)
                 (A) (A) (A) (A) (A) (A) (A) (A) (A) (A) (A) (A)
                 (A) (A) (A) (A) (A) (A) (A) (A) (A) (A) (A) (A)
                 (A) (A) (A) (A) (A) (A) (A) (A) (A) (A) (A) (A)
                 (A) (A) (A) (A) (A) (A) (A) (A) (A) (A) (A) (A)
                 (A) (A) (A) (A) (A) (A) (A) (A) (A) (A) (A) (A)
                 (A) (A) (A) (A) (A) (A) (A) (A) (A) (A) (A) (A)
                 (A) (A) (A) (A) (A) (A) (A) (A) (A) (A) (A) (A)
                 (A) (A) (A) (A) (A) (A) (A) (A) (A) (A) (A) (A)
                 (A) (A) (A) (A) (A) (A) (A) (A) (A) (A) (A) (A)
                 (A) (A) (A) (A) (A) (A) (A) (A) (A) (A) (A) (A)
                 (A) (A) (A) (A) (A) (A) (A) (A) (A) (A) (A)
 The electronic state is 1-A.
 Alpha  occ. eigenvalues --  -19.20688 -19.20566 -19.20553 -19.20104 -19.17177
 Alpha  occ. eigenvalues --  -14.63647 -14.63483 -14.46039 -14.45930 -10.37738
 Alpha  occ. eigenvalues --  -10.28175 -10.26483  -1.29270  -1.28799  -1.12428
 Alpha  occ. eigenvalues --   -1.10371  -1.09775  -1.04978  -1.00194  -0.86275
 Alpha  occ. eigenvalues --   -0.80854  -0.75966  -0.67578  -0.61910  -0.60384
 Alpha  occ. eigenvalues --   -0.59270  -0.59186  -0.57974  -0.56240  -0.55250
 Alpha  occ. eigenvalues --   -0.52895  -0.51427  -0.48522  -0.47663  -0.47222
 Alpha  occ. eigenvalues --   -0.46011  -0.36370  -0.36155  -0.33859  -0.33629
 Alpha  occ. eigenvalues --   -0.33232  -0.32413  -0.32047  -0.31550  -0.29943
 Alpha virt. eigenvalues --   -0.08904  -0.06185   0.02236   0.04897   0.06870
 Alpha virt. eigenvalues --    0.08204   0.10409   0.11962   0.14857   0.16624
 Alpha virt. eigenvalues --    0.18130   0.20219   0.23824   0.26304   0.29389
 Alpha virt. eigenvalues --    0.30432   0.30962   0.38016   0.38291   0.42596
 Alpha virt. eigenvalues --    0.44876   0.48372   0.49852   0.51635   0.52701
 Alpha virt. eigenvalues --    0.57139   0.58896   0.60474   0.61301   0.64799
 Alpha virt. eigenvalues --    0.65514   0.66731   0.69445   0.73392   0.74550
 Alpha virt. eigenvalues --    0.76089   0.76338   0.77924   0.78842   0.80394
 Alpha virt. eigenvalues --    0.82554   0.83867   0.86183   0.86832   0.87164
 Alpha virt. eigenvalues --    0.89860   0.92307   0.94203   0.96660   0.97078
 Alpha virt. eigenvalues --    0.97641   0.98605   1.00429   1.00980   1.01693
 Alpha virt. eigenvalues --    1.02826   1.06301   1.08279   1.12764   1.17779
 Alpha virt. eigenvalues --    1.20180   1.22845   1.24547   1.27406   1.29599
 Alpha virt. eigenvalues --    1.33289   1.36588   1.37557   1.42107   1.43554
 Alpha virt. eigenvalues --    1.46344   1.52154   1.56840   1.62758   1.64234
 Alpha virt. eigenvalues --    1.66349   1.66987   1.68302   1.70410   1.70975
 Alpha virt. eigenvalues --    1.73747   1.75583   1.76259   1.77974   1.78169
 Alpha virt. eigenvalues --    1.78585   1.78957   1.80051   1.81399   1.85177
 Alpha virt. eigenvalues --    1.86165   1.87915   1.92393   1.95664   1.97413
 Alpha virt. eigenvalues --    1.97890   2.00771   2.02080   2.04939   2.08254
 Alpha virt. eigenvalues --    2.09538   2.11812   2.14847   2.16366   2.18509
 Alpha virt. eigenvalues --    2.21707   2.23233   2.27035   2.29404   2.35031
 Alpha virt. eigenvalues --    2.40083   2.41562   2.43612   2.48288   2.50583
 Alpha virt. eigenvalues --    2.57021   2.59032   2.59234   2.63203   2.66366
 Alpha virt. eigenvalues --    2.68018   2.69769   2.72717   2.73377   2.77952
 Alpha virt. eigenvalues --    2.81459   2.83916   2.84723   2.86469   2.87300
 Alpha virt. eigenvalues --    2.88436   2.95760   2.96644   3.02045   3.10389
 Alpha virt. eigenvalues --    3.15779   3.18515   3.26222   3.30515   3.35280
 Alpha virt. eigenvalues --    3.56234   3.68989   3.76104   3.78976   3.80164
 Alpha virt. eigenvalues --    3.83062   3.91767   3.95964   4.01347   4.07592
 Alpha virt. eigenvalues --    4.10361   4.24691   4.41979   4.64386   4.70931
          Condensed to atoms (all electrons):
               1          2          3          4          5          6
     1  C    4.243216   0.632878   0.189210  -0.023453   0.003660   0.010802
     2  O    0.632878   7.916517  -0.069167   0.000011  -0.000048  -0.010300
     3  N    0.189210  -0.069167   7.394283   0.152989  -0.140628  -0.121839
     4  N   -0.023453   0.000011   0.152989   5.489046   0.353243   0.375018
     5  O    0.003660  -0.000048  -0.140628   0.353243   8.278391  -0.106693
     6  O    0.010802  -0.010300  -0.121839   0.375018  -0.106693   8.212585
     7  C   -0.056333   0.001666   0.253912  -0.024717   0.011162   0.004855
     8  N    0.189203  -0.071210  -0.127814   0.001726  -0.000176   0.000055
     9  C   -0.051001   0.001651  -0.019174   0.003190   0.001161  -0.000088
    10  H    0.002546  -0.000086   0.000518  -0.000103  -0.000010   0.000002
    11  H    0.004553   0.000031   0.000149  -0.000052  -0.000009  -0.000001
    12  H    0.004110  -0.000009  -0.042022  -0.002731   0.002247  -0.000061
    13  N   -0.023259   0.000386   0.001948   0.000001   0.000000   0.000000
    14  O    0.011137  -0.011475  -0.000013  -0.000000  -0.000000  -0.000000
    15  O    0.003570  -0.000048  -0.000182   0.000000  -0.000000  -0.000000
    16  H    0.001487  -0.000069  -0.038141  -0.003285   0.009838   0.000093
               7          8          9         10         11         12
     1  C   -0.056333   0.189203  -0.051001   0.002546   0.004553   0.004110
     2  O    0.001666  -0.071210   0.001651  -0.000086   0.000031  -0.000009
     3  N    0.253912  -0.127814  -0.019174   0.000518   0.000149  -0.042022
     4  N   -0.024717   0.001726   0.003190  -0.000103  -0.000052  -0.002731
     5  O    0.011162  -0.000176   0.001161  -0.000010  -0.000009   0.002247
     6  O    0.004855   0.000055  -0.000088   0.000002  -0.000001  -0.000061
     7  C    4.778840  -0.017980   0.328861  -0.021109  -0.029799   0.386375
     8  N   -0.017980   7.412904   0.260080  -0.037073  -0.043989   0.000302
     9  C    0.328861   0.260080   4.695960   0.409992   0.408639  -0.028519
    10  H   -0.021109  -0.037073   0.409992   0.529955  -0.042178  -0.006509
    11  H   -0.029799  -0.043989   0.408639  -0.042178   0.546208   0.003917
    12  H    0.386375   0.000302  -0.028519  -0.006509   0.003917   0.566159
    13  N    0.003600   0.146872  -0.023645  -0.002699  -0.003384  -0.000081
    14  O   -0.000106  -0.124255   0.005062   0.000019  -0.000051   0.000001
    15  O    0.001067  -0.138591   0.013295   0.005717   0.005124  -0.000004
    16  H    0.406743   0.001064  -0.025159   0.002931  -0.008808  -0.037764
              13         14         15         16
     1  C   -0.023259   0.011137   0.003570   0.001487
     2  O    0.000386  -0.011475  -0.000048  -0.000069
     3  N    0.001948  -0.000013  -0.000182  -0.038141
     4  N    0.000001  -0.000000   0.000000  -0.003285
     5  O    0.000000  -0.000000  -0.000000   0.009838
     6  O    0.000000  -0.000000  -0.000000   0.000093
     7  C    0.003600  -0.000106   0.001067   0.406743
     8  N    0.146872  -0.124255  -0.138591   0.001064
     9  C   -0.023645   0.005062   0.013295  -0.025159
    10  H   -0.002699   0.000019   0.005717   0.002931
    11  H   -0.003384  -0.000051   0.005124  -0.008808
    12  H   -0.000081   0.000001  -0.000004  -0.037764
    13  N    5.501086   0.369634   0.353958  -0.000095
    14  O    0.369634   8.220598  -0.104744   0.000002
    15  O    0.353958  -0.104744   8.275795  -0.000006
    16  H   -0.000095   0.000002  -0.000006   0.535420
 Mulliken charges:
               1
     1  C    0.857674
     2  O   -0.390728
     3  N   -0.434030
     4  N    0.679116
     5  O   -0.412140
     6  O   -0.364429
     7  C   -0.027036
     8  N   -0.451118
     9  C    0.019695
    10  H    0.158087
    11  H    0.159650
    12  H    0.154588
    13  N    0.675677
    14  O   -0.365808
    15  O   -0.414949
    16  H    0.155750
 Sum of Mulliken charges =  -0.00000
 Mulliken charges with hydrogens summed into heavy atoms:
               1
     1  C    0.857674
     2  O   -0.390728
     3  N   -0.434030
     4  N    0.679116
     5  O   -0.412140
     6  O   -0.364429
     7  C    0.283302
     8  N   -0.451118
     9  C    0.337433
    13  N    0.675677
    14  O   -0.365808
    15  O   -0.414949
 Electronic spatial extent (au):  <R**2>=           1959.3883
 Charge=              0.0000 electrons
 Dipole moment (field-independent basis, Debye):
    X=             -0.0936    Y=              5.6562    Z=              0.1680  Tot=              5.6594
 Quadrupole moment (field-independent basis, Debye-Ang):
   XX=            -86.3621   YY=            -68.1306   ZZ=            -61.2577
   XY=              0.3066   XZ=             -0.2166   YZ=              0.3714
 Traceless Quadrupole moment (field-independent basis, Debye-Ang):
   XX=            -14.4453   YY=              3.7862   ZZ=             10.6591
   XY=              0.3066   XZ=             -0.2166   YZ=              0.3714
 Octapole moment (field-independent basis, Debye-Ang**2):
  XXX=             -0.4682  YYY=             19.4529  ZZZ=             -1.2771  XYY=              0.0899
  XXY=             -1.3765  XXZ=              4.0010  XZZ=             -0.2769  YZZ=             -0.8957
  YYZ=              0.4694  XYZ=              2.4884
 Hexadecapole moment (field-independent basis, Debye-Ang**3):
 XXXX=          -1910.8954 YYYY=           -542.9515 ZZZZ=            -62.8964 XXXY=              3.6773
 XXXZ=              1.7186 YYYX=              0.9797 YYYZ=              0.0359 ZZZX=              0.7316
 ZZZY=             -0.6695 XXYY=           -397.1548 XXZZ=           -268.4552 YYZZ=            -95.2112
 XXYZ=              3.5312 YYXZ=             -1.3372 ZZXY=             -0.2671
 N-N= 7.669222296927D+02 E-N=-3.199864614705D+03  KE= 7.067759566719D+02
 No NMR shielding tensors so no spin-rotation constants.
 Leave Link  601 at Fri Aug 20 15:46:22 2021, MaxMem= 24159191040 cpu:        14.0
 (Enter /public/home/users/caep010/software/Gaussian09/g09/l701.exe)
 Compute integral first derivatives.
 ... and contract with generalized density number  0.
 Leave Link  701 at Fri Aug 20 15:46:22 2021, MaxMem= 24159191040 cpu:        10.8
 (Enter /public/home/users/caep010/software/Gaussian09/g09/l702.exe)
 L702 exits ... SP integral derivatives will be done elsewhere.
 Leave Link  702 at Fri Aug 20 15:46:23 2021, MaxMem= 24159191040 cpu:         0.5
 (Enter /public/home/users/caep010/software/Gaussian09/g09/l703.exe)
 Compute integral first derivatives, UseDBF=F ICtDFT=           0.
 Integral derivatives from FoFJK, PRISM(SPDF).
 Calling FoFJK, ICntrl=      2127 FMM=F ISym2X=0 I1Cent= 0 IOpClX= 0 NMat=1 NMatS=1 NMatT=0.
 FoFJK:  IHMeth= 1 ICntrl=    2127 DoSepK=F KAlg= 0 I1Cent=   0 FoldK=F
 IRaf=         0 NMat=   1 IRICut=       1 DoRegI=T DoRafI=F ISym2E= 0.
 FoFCou: FMM=F IPFlag=           0 FMFlag=      100000 FMFlg1=         800
         NFxFlg=           0 DoJE=F BraDBF=F KetDBF=F FulRan=T
         wScrn=  0.000000 ICntrl=    2127 IOpCl=  0 I1Cent=           0 NGrid=           0
         NMat0=    1 NMatS0=      1 NMatT0=    0 NMatD0=    1 NMtDS0=    0 NMtDT0=    0
 Symmetry not used in FoFCou.
 Leave Link  703 at Fri Aug 20 15:46:23 2021, MaxMem= 24159191040 cpu:        21.1
 (Enter /public/home/users/caep010/software/Gaussian09/g09/l716.exe)
 Dipole        =-3.68292471D-02 2.22530106D+00 6.60893890D-02
 ***** Axes restored to original set *****
 -------------------------------------------------------------------
 Center     Atomic                   Forces (Hartrees/Bohr)
 Number     Number              X              Y              Z
 -------------------------------------------------------------------
      1        6           0.001097570   -0.001220552    0.003624767
      2        8           0.019797160    0.006626865   -0.010333367
      3        7          -0.002497658    0.003275498    0.005473336
      4        7           0.002591360   -0.000368695   -0.003611452
      5        8          -0.026590705   -0.020901350   -0.002666051
      6        8           0.022486412    0.007989069   -0.009808298
      7        6           0.154685748   -0.051870380    0.142464580
      8        7          -0.000056052   -0.005235762   -0.002052176
      9        6           0.128311807   -0.068335418   -0.102810193
     10        1          -0.019178291   -0.044032990    0.157699379
     11        1          -0.125245233    0.121162102   -0.044775588
     12        1          -0.003255960    0.029815858   -0.011161838
     13        7           0.023096687    0.005529269   -0.001381284
     14        8           0.011366507    0.003218631   -0.003190250
     15        8          -0.028228500    0.007022079    0.017427830
     16        1          -0.158380851    0.007325779   -0.134899394
 -------------------------------------------------------------------
 Cartesian Forces:  Max     0.158380851 RMS     0.062394008
 Leave Link  716 at Fri Aug 20 15:46:23 2021, MaxMem= 24159191040 cpu:         0.8
 (Enter /public/home/users/caep010/software/Gaussian09/g09/l103.exe)

 GradGradGradGradGradGradGradGradGradGradGradGradGradGradGradGradGradGrad
 Berny optimization.
 FormGI is forming the generalized inverse of G from B-inverse, IUseBI=4.
 Internal  Forces:  Max     0.208091728 RMS     0.037108895
 Search for a local minimum.
 Step number   1 out of a maximum of   90
 All quantities printed in internal units (Hartrees-Bohrs-Radians)
 RMS Force = .37109D-01 SwitMx=.10000D-02 MixMth= 1
 Mixed Optimization -- RFO/linear search
 Second derivative matrix not updated -- first step.
 ITU=  0
     Eigenvalues ---    0.00684   0.01277   0.01401   0.01512   0.01598
     Eigenvalues ---    0.01598   0.01702   0.01708   0.01746   0.04133
     Eigenvalues ---    0.04656   0.05371   0.05664   0.08315   0.08585
     Eigenvalues ---    0.08674   0.10547   0.22698   0.23629   0.24489
     Eigenvalues ---    0.24812   0.24992   0.25000   0.25000   0.25000
     Eigenvalues ---    0.25000   0.28470   0.29055   0.34493   0.37028
     Eigenvalues ---    0.44052   0.45022   0.49633   0.51127   0.61374
     Eigenvalues ---    0.63421   0.67963   0.98758   1.00005   1.00552
     Eigenvalues ---    1.04136   1.12841
 RFO step:  Lambda=-1.41782883D-01 EMin= 6.83845213D-03
 Linear search not attempted -- first point.
 Maximum step size (   0.300) exceeded in Quadratic search.
    -- Step size scaled by   0.697
 Iteration  1 RMS(Cart)=  0.03855174 RMS(Int)=  0.00051172
 Iteration  2 RMS(Cart)=  0.00048767 RMS(Int)=  0.00002855
 Iteration  3 RMS(Cart)=  0.00000025 RMS(Int)=  0.00002855
 ITry= 1 IFail=0 DXMaxC= 1.47D-01 DCOld= 1.00D+10 DXMaxT= 3.00D-01 DXLimC= 3.00D+00 Rises=F
 Variable       Old X    -DE/DX   Delta X   Delta X   Delta X     New X
                                 (Linear)    (Quad)   (Total)
    R1        2.23897   0.02323   0.00000   0.01274   0.01274   2.25171
    R2        2.63937   0.02002   0.00000   0.02389   0.02389   2.66326
    R3        2.63673   0.01934   0.00000   0.02322   0.02323   2.65997
    R4        2.60237   0.02014   0.00000   0.02198   0.02198   2.62435
    R5        2.75873   0.00841   0.00000   0.01098   0.01097   2.76970
    R6        2.28637   0.03346   0.00000   0.02041   0.02041   2.30678
    R7        2.27026   0.02524   0.00000   0.01486   0.01486   2.28513
    R8        2.88577   0.01197   0.00000   0.01747   0.01746   2.90323
    R9        2.17821  -0.03164   0.00000  -0.05168  -0.05168   2.12654
   R10        1.71845   0.20809   0.00000   0.17645   0.17645   1.89490
   R11        2.75287   0.01517   0.00000   0.02035   0.02035   2.77323
   R12        2.58745   0.02122   0.00000   0.02264   0.02264   2.61009
   R13        1.76569   0.16462   0.00000   0.15176   0.15176   1.91746
   R14        1.75031   0.17968   0.00000   0.16127   0.16127   1.91159
   R15        2.29140   0.01210   0.00000   0.00746   0.00746   2.29886
   R16        2.28418   0.03265   0.00000   0.01982   0.01982   2.30401
    A1        2.24996  -0.00002   0.00000  -0.00111  -0.00112   2.24884
    A2        2.24329   0.00339   0.00000   0.00492   0.00492   2.24821
    A3        1.78974  -0.00336   0.00000  -0.00378  -0.00376   1.78598
    A4        2.14455   0.00702   0.00000   0.01318   0.01320   2.15775
    A5        2.01178   0.00106   0.00000   0.00207   0.00206   2.01384
    A6        2.08942  -0.00787   0.00000  -0.01417  -0.01418   2.07523
    A7        1.99910  -0.00460   0.00000  -0.00818  -0.00819   1.99092
    A8        2.07929  -0.00366   0.00000  -0.00652  -0.00652   2.07277
    A9        2.20476   0.00826   0.00000   0.01468   0.01468   2.21944
   A10        1.80212   0.00237   0.00000   0.00219   0.00218   1.80430
   A11        1.88112   0.00218   0.00000   0.00860   0.00862   1.88974
   A12        1.89223   0.00152   0.00000   0.00772   0.00773   1.89996
   A13        1.98931  -0.00354   0.00000  -0.00915  -0.00917   1.98014
   A14        1.98302  -0.00194   0.00000  -0.00543  -0.00547   1.97755
   A15        1.90838   0.00007   0.00000  -0.00176  -0.00187   1.90651
   A16        2.02137  -0.00076   0.00000  -0.00075  -0.00074   2.02063
   A17        2.15407   0.01031   0.00000   0.01807   0.01807   2.17213
   A18        2.10290  -0.00957   0.00000  -0.01736  -0.01736   2.08554
   A19        1.78718   0.00054   0.00000  -0.00012  -0.00013   1.78705
   A20        2.01107  -0.00441   0.00000  -0.01318  -0.01320   1.99787
   A21        1.93021   0.00033   0.00000   0.00089   0.00082   1.93103
   A22        1.87481   0.00311   0.00000   0.01072   0.01072   1.88554
   A23        1.86826   0.00354   0.00000   0.01323   0.01321   1.88147
   A24        1.97585  -0.00201   0.00000  -0.00785  -0.00800   1.96785
   A25        2.05497   0.00471   0.00000   0.00841   0.00840   2.06337
   A26        2.02470  -0.01277   0.00000  -0.02266  -0.02267   2.00204
   A27        2.20314   0.00809   0.00000   0.01442   0.01442   2.21755
    D1       -0.23013  -0.00011   0.00000   0.00204   0.00207  -0.22807
    D2       -3.07966   0.00048   0.00000   0.00049   0.00047  -3.07919
    D3        2.93104  -0.00070   0.00000   0.00009   0.00014   2.93118
    D4        0.08151  -0.00011   0.00000  -0.00146  -0.00146   0.08006
    D5        3.01224  -0.00096   0.00000  -0.00283  -0.00283   3.00942
    D6       -0.02394  -0.00018   0.00000  -0.00132  -0.00131  -0.02525
    D7       -0.14882  -0.00043   0.00000  -0.00099  -0.00100  -0.14982
    D8        3.09818   0.00035   0.00000   0.00052   0.00052   3.09870
    D9       -3.00309  -0.00023   0.00000  -0.00115  -0.00114  -3.00423
   D10        0.14650   0.00049   0.00000   0.00204   0.00205   0.14855
   D11       -0.16600   0.00072   0.00000   0.00332   0.00331  -0.16269
   D12        2.98360   0.00144   0.00000   0.00651   0.00650   2.99009
   D13        0.00642   0.00066   0.00000   0.00326   0.00327   0.00969
   D14       -2.10423   0.00249   0.00000   0.00864   0.00865  -2.09558
   D15        2.11504   0.00039   0.00000   0.00180   0.00178   2.11681
   D16       -2.85300  -0.00138   0.00000  -0.00305  -0.00302  -2.85602
   D17        1.31954   0.00045   0.00000   0.00233   0.00236   1.32190
   D18       -0.74438  -0.00165   0.00000  -0.00451  -0.00451  -0.74889
   D19       -0.08760  -0.00110   0.00000  -0.00365  -0.00365  -0.09126
   D20       -2.11665  -0.00308   0.00000  -0.01019  -0.01017  -2.12681
   D21        1.89817   0.00335   0.00000   0.01176   0.01173   1.90990
   D22        1.94786   0.00124   0.00000   0.00355   0.00352   1.95138
   D23       -0.08118  -0.00074   0.00000  -0.00299  -0.00299  -0.08417
   D24       -2.34955   0.00569   0.00000   0.01896   0.01891  -2.33064
   D25       -2.13330  -0.00342   0.00000  -0.01157  -0.01154  -2.14484
   D26        2.12084  -0.00540   0.00000  -0.01811  -0.01805   2.10279
   D27       -0.14752   0.00103   0.00000   0.00384   0.00385  -0.14368
   D28        0.15374   0.00109   0.00000   0.00316   0.00316   0.15691
   D29        2.27879  -0.00226   0.00000  -0.00709  -0.00714   2.27165
   D30       -1.87717  -0.00093   0.00000  -0.00303  -0.00302  -1.88018
   D31       -3.08993   0.00162   0.00000   0.00396   0.00397  -3.08596
   D32       -0.96489  -0.00173   0.00000  -0.00629  -0.00632  -0.97121
   D33        1.16234  -0.00041   0.00000  -0.00223  -0.00221   1.16014
   D34       -0.21571   0.00091   0.00000   0.00423   0.00423  -0.21148
   D35        2.95355  -0.00060   0.00000  -0.00237  -0.00237   2.95118
   D36        3.03601   0.00114   0.00000   0.00473   0.00474   3.04075
   D37       -0.07791  -0.00037   0.00000  -0.00187  -0.00187  -0.07978
         Item               Value     Threshold  Converged?
 Maximum Force            0.208092     0.000450     NO 
 RMS     Force            0.037109     0.000300     NO 
 Maximum Displacement     0.146783     0.001800     NO 
 RMS     Displacement     0.038515     0.001200     NO 
 Predicted change in Energy=-7.084615D-02
 Lowest energy point so far.  Saving SCF results.
 GradGradGradGradGradGradGradGradGradGradGradGradGradGradGradGradGradGrad

 Leave Link  103 at Fri Aug 20 15:46:23 2021, MaxMem= 24159191040 cpu:         2.6
 (Enter /public/home/users/caep010/software/Gaussian09/g09/l202.exe)
                          Input orientation:                          
 ---------------------------------------------------------------------
 Center     Atomic      Atomic             Coordinates (Angstroms)
 Number     Number       Type             X           Y           Z
 ---------------------------------------------------------------------
      1          6           0       -0.192886    1.155813    8.067162
      2          8           0        0.844156    1.524353    7.610522
      3          7           0       -0.994153    0.065113    7.673997
      4          7           0       -0.816998   -0.630247    6.485003
      5          8           0       -1.696872   -1.442281    6.247278
      6          8           0        0.160572   -0.394717    5.813338
      7          6           0       -2.263689   -0.073365    8.393214
      8          7           0       -0.916970    1.685057    9.152023
      9          6           0       -2.251865    1.114646    9.367263
     10          1           0       -2.329265    0.856808   10.345574
     11          1           0       -2.933237    1.809284    9.090710
     12          1           0       -2.270494   -1.074224    8.907575
     13          7           0       -0.504235    2.757659    9.918105
     14          8           0        0.642745    3.144230    9.796108
     15          8           0       -1.352556    3.200955   10.673324
     16          1           0       -3.016551   -0.036685    7.731902
 ---------------------------------------------------------------------
                    Distance matrix (angstroms):
                    1          2          3          4          5
     1  C    0.000000
     2  O    1.191552   0.000000
     3  N    1.409339   2.347933   0.000000
     4  N    2.466324   2.944236   1.388746   0.000000
     5  O    3.510562   4.137170   2.191250   1.220693   0.000000
     6  O    2.758406   2.716614   2.237608   1.209236   2.176188
     7  C    2.430106   3.581062   1.465663   2.458515   2.607729
     8  N    1.407594   2.345978   2.194251   3.533216   4.338897
     9  C    2.435436   3.583202   2.355951   3.662091   4.071879
    10  H    3.137624   4.242255   3.089762   4.404804   4.741494
    11  H    2.997366   4.067043   2.968039   4.149637   4.492926
    12  H    3.161616   4.258637   2.109229   2.859829   2.746214
    13  N    2.467557   2.943491   3.539187   4.833417   5.704108
    14  O    2.764296   2.727884   4.082126   5.228856   6.253326
    15  O    3.509917   4.125202   4.354069   5.701487   6.424023
    16  H    3.083430   4.166129   2.025786   2.597134   2.433384
                    6          7          8          9         10
     6  O    0.000000
     7  C    3.554725   0.000000
     8  N    4.078404   2.341258   0.000000
     9  C    4.552847   1.536321   1.467528   0.000000
    10  H    5.320411   2.163616   2.026114   1.014675   0.000000
    11  H    5.017016   2.116404   2.021020   1.011569   1.687209
    12  H    3.993259   1.125315   3.083085   2.236697   2.408356
    13  N    5.218099   3.665470   1.381198   2.461123   2.669588
    14  O    5.349682   4.557235   2.230862   3.561164   3.790390
    15  O    6.232005   4.092705   2.191355   2.620541   2.560548
    16  H    3.728698   1.002736   3.064209   2.141195   2.846397
                   11         12         13         14         15
    11  H    0.000000
    12  H    2.964352   0.000000
    13  N    2.735699   4.338683   0.000000
    14  O    3.881664   5.203058   1.216505   0.000000
    15  O    2.634381   4.715679   1.219227   2.180356   0.000000
    16  H    2.293666   1.736461   4.347365   5.269689   4.680081
                   16
    16  H    0.000000
 Stoichiometry    C3H4N4O5
 Framework group  C1[X(C3H4N4O5)]
 Deg. of freedom    42
 Full point group                 C1      NOp   1
 RotChk:  IX=0 Diff= 8.28D-04
 Largest Abelian subgroup         C1      NOp   1
 Largest concise Abelian subgroup C1      NOp   1
                         Standard orientation:                         
 ---------------------------------------------------------------------
 Center     Atomic      Atomic             Coordinates (Angstroms)
 Number     Number       Type             X           Y           Z
 ---------------------------------------------------------------------
      1          6           0        0.002137   -0.665059    0.045575
      2          8           0        0.007293   -1.855178   -0.012622
      3          7           0       -1.096695    0.209514    0.163589
      4          7           0       -2.415346   -0.182117   -0.027195
      5          8           0       -3.213345    0.741608   -0.031979
      6          8           0       -2.659846   -1.359363   -0.155898
      7          6           0       -0.769647    1.637771    0.127660
      8          7           0        1.093920    0.223351    0.038088
      9          6           0        0.756170    1.648680   -0.051359
     10          1           0        1.261656    2.137768    0.679970
     11          1           0        1.004105    1.967619   -0.978762
     12          1           0       -1.110526    2.102244    1.094303
     13          7           0        2.418025   -0.166241   -0.013611
     14          8           0        2.679896   -1.340030    0.169498
     15          8           0        3.207890    0.739038   -0.221213
     16          1           0       -1.261633    2.063868   -0.635145
 ---------------------------------------------------------------------
 Rotational constants (GHZ):      2.2424823      0.6481346      0.5082233
 Leave Link  202 at Fri Aug 20 15:46:24 2021, MaxMem= 24159191040 cpu:         0.3
 (Enter /public/home/users/caep010/software/Gaussian09/g09/l301.exe)
 Standard basis: 6-31G(d,p) (6D, 7F)
 Ernie: Thresh=  0.10000D-02 Tol=  0.10000D-05 Strict=F.
 There are   200 symmetry adapted cartesian basis functions of A   symmetry.
 There are   200 symmetry adapted basis functions of A   symmetry.
   200 basis functions,   364 primitive gaussians,   200 cartesian basis functions
    45 alpha electrons       45 beta electrons
       nuclear repulsion energy       759.7399090980 Hartrees.
 IExCor=  402 DFT=T Ex+Corr=B3LYP ExCW=0 ScaHFX=  0.200000
 ScaDFX=  0.800000  0.720000  1.000000  0.810000 ScalE2=  1.000000  1.000000
 IRadAn=      0 IRanWt=     -1 IRanGd=            0 ICorTp=0 IEmpDi=  4
 NAtoms=   16 NActive=   16 NUniq=   16 SFac= 1.00D+00 NAtFMM=   60 NAOKFM=F Big=F
 Integral buffers will be    131072 words long.
 Raffenetti 2 integral format.
 Two-electron integral symmetry is turned on.
 Leave Link  301 at Fri Aug 20 15:46:24 2021, MaxMem= 24159191040 cpu:         1.9
 (Enter /public/home/users/caep010/software/Gaussian09/g09/l302.exe)
 NPDir=0 NMtPBC=     1 NCelOv=     1 NCel=       1 NClECP=     1 NCelD=      1
         NCelK=      1 NCelE2=     1 NClLst=     1 CellRange=     0.0.
 One-electron integrals computed using PRISM.
 NBasis=   200 RedAO= T EigKep=  1.68D-03  NBF=   200
 NBsUse=   200 1.00D-06 EigRej= -1.00D+00 NBFU=   200
 Precomputing XC quadrature grid using
 IXCGrd= 4 IRadAn=           0 IRanWt=          -1 IRanGd=           0 AccXCQ= 0.00D+00.
 Generated NRdTot=       0 NPtTot=           0 NUsed=           0 NTot=          32
 NSgBfM=   199   199   199   199   199 MxSgAt=    16 MxSgA2=    16.
 Leave Link  302 at Fri Aug 20 15:46:24 2021, MaxMem= 24159191040 cpu:        11.6
 (Enter /public/home/users/caep010/software/Gaussian09/g09/l303.exe)
 DipDrv:  MaxL=1.
 Leave Link  303 at Fri Aug 20 15:46:24 2021, MaxMem= 24159191040 cpu:         0.7
 (Enter /public/home/users/caep010/software/Gaussian09/g09/l401.exe)
 Initial guess from the checkpoint file:  "/public/home/users/caep010/.cache/gau_scr/Gau-61355.chk"
 B after Tr=    -0.000000   -0.000000   -0.000000
         Rot=    0.999999   -0.001317   -0.000438    0.000047 Ang=  -0.16 deg.
 Guess basis will be translated and rotated to current coordinates.
 JPrj=2 DoOrth=T DoCkMO=T.
 Generating alternative initial guess.
 ExpMin= 1.61D-01 ExpMax= 5.48D+03 ExpMxC= 8.25D+02 IAcc=1 IRadAn=         1 AccDes= 0.00D+00
 Harris functional with IExCor=  402 and IRadAn=       1 diagonalized for initial guess.
 HarFok:  IExCor=  402 AccDes= 0.00D+00 IRadAn=         1 IDoV= 1 UseB2=F ITyADJ=14
 ICtDFT=  3500011 ScaDFX=  1.000000  1.000000  1.000000  1.000000
 FoFCou: FMM=F IPFlag=           0 FMFlag=      100000 FMFlg1=           0
         NFxFlg=           0 DoJE=T BraDBF=F KetDBF=T FulRan=T
         wScrn=  0.000000 ICntrl=     500 IOpCl=  0 I1Cent=   200000004 NGrid=           0
         NMat0=    1 NMatS0=      1 NMatT0=    0 NMatD0=    1 NMtDS0=    0 NMtDT0=    0
 Petite list used in FoFCou.
 Harris En= -711.676919898482    
 Leave Link  401 at Fri Aug 20 15:46:25 2021, MaxMem= 24159191040 cpu:        16.6
 (Enter /public/home/users/caep010/software/Gaussian09/g09/l502.exe)
 Closed shell SCF:
 Using DIIS extrapolation, IDIIS=  1040.
 Integral symmetry usage will be decided dynamically.
 Keep R1 ints in memory in canonical form, NReq=206221692.
 IVT=      146442 IEndB=      146442 NGot= 24159191040 MDV= 23957029549
 LenX= 23957029549 LenY= 23956989108
 Requested convergence on RMS density matrix=1.00D-08 within 128 cycles.
 Requested convergence on MAX density matrix=1.00D-06.
 Requested convergence on             energy=1.00D-06.
 No special actions if energy rises.
 FoFCou: FMM=F IPFlag=           0 FMFlag=           0 FMFlg1=           0
         NFxFlg=           0 DoJE=F BraDBF=F KetDBF=F FulRan=T
         wScrn=  0.000000 ICntrl=     600 IOpCl=  0 I1Cent=           0 NGrid=           0
         NMat0=    1 NMatS0=  20100 NMatT0=    0 NMatD0=    1 NMtDS0=    0 NMtDT0=    0
 Symmetry not used in FoFCou.
 Integral accuracy reduced to 1.0D-05 until final iterations.

 Cycle   1  Pass 0  IDiag  1:
 E= -711.587890905395    
 DIIS: error= 3.28D-03 at cycle   1 NSaved=   1.
 NSaved= 1 IEnMin= 1 EnMin= -711.587890905395     IErMin= 1 ErrMin= 3.28D-03
 ErrMax= 3.28D-03  0.00D+00 EMaxC= 1.00D-01 BMatC= 5.19D-03 BMatP= 5.19D-03
 IDIUse=3 WtCom= 9.67D-01 WtEn= 3.28D-02
 Coeff-Com:  0.100D+01
 Coeff-En:   0.100D+01
 Coeff:      0.100D+01
 Gap=     1.697 Goal=   None    Shift=    0.000
 GapD=    1.697 DampG=2.000 DampE=1.000 DampFc=2.0000 IDamp=-1.
 RMSDP=6.19D-04 MaxDP=2.36D-02              OVMax= 2.13D-02

 Cycle   2  Pass 0  IDiag  1:
 E= -711.593416903941     Delta-E=       -0.005525998546 Rises=F Damp=F
 DIIS: error= 2.70D-03 at cycle   2 NSaved=   2.
 NSaved= 2 IEnMin= 2 EnMin= -711.593416903941     IErMin= 2 ErrMin= 2.70D-03
 ErrMax= 2.70D-03  0.00D+00 EMaxC= 1.00D-01 BMatC= 1.11D-03 BMatP= 5.19D-03
 IDIUse=3 WtCom= 9.73D-01 WtEn= 2.70D-02
 Coeff-Com:  0.246D+00 0.754D+00
 Coeff-En:   0.000D+00 0.100D+01
 Coeff:      0.239D+00 0.761D+00
 Gap=     0.209 Goal=   None    Shift=    0.000
 RMSDP=3.03D-04 MaxDP=1.00D-02 DE=-5.53D-03 OVMax= 1.19D-02

 Cycle   3  Pass 0  IDiag  1:
 E= -711.593509272094     Delta-E=       -0.000092368153 Rises=F Damp=F
 DIIS: error= 2.10D-03 at cycle   3 NSaved=   3.
 NSaved= 3 IEnMin= 3 EnMin= -711.593509272094     IErMin= 3 ErrMin= 2.10D-03
 ErrMax= 2.10D-03  0.00D+00 EMaxC= 1.00D-01 BMatC= 1.16D-03 BMatP= 1.11D-03
 IDIUse=3 WtCom= 9.79D-01 WtEn= 2.10D-02
 Coeff-Com:  0.491D-01 0.499D+00 0.452D+00
 Coeff-En:   0.000D+00 0.480D+00 0.520D+00
 Coeff:      0.481D-01 0.499D+00 0.453D+00
 Gap=     0.212 Goal=   None    Shift=    0.000
 RMSDP=1.98D-04 MaxDP=6.17D-03 DE=-9.24D-05 OVMax= 9.58D-03

 Cycle   4  Pass 0  IDiag  1:
 E= -711.594327352069     Delta-E=       -0.000818079975 Rises=F Damp=F
 DIIS: error= 1.00D-03 at cycle   4 NSaved=   4.
 NSaved= 4 IEnMin= 4 EnMin= -711.594327352069     IErMin= 4 ErrMin= 1.00D-03
 ErrMax= 1.00D-03  0.00D+00 EMaxC= 1.00D-01 BMatC= 2.38D-04 BMatP= 1.11D-03
 IDIUse=3 WtCom= 9.90D-01 WtEn= 1.00D-02
 Coeff-Com:  0.195D-02 0.257D+00 0.328D+00 0.413D+00
 Coeff-En:   0.000D+00 0.000D+00 0.152D+00 0.848D+00
 Coeff:      0.193D-02 0.255D+00 0.326D+00 0.417D+00
 Gap=     0.210 Goal=   None    Shift=    0.000
 RMSDP=6.79D-05 MaxDP=2.78D-03 DE=-8.18D-04 OVMax= 4.69D-03

 Cycle   5  Pass 0  IDiag  1:
 E= -711.594502921439     Delta-E=       -0.000175569370 Rises=F Damp=F
 DIIS: error= 3.01D-04 at cycle   5 NSaved=   5.
 NSaved= 5 IEnMin= 5 EnMin= -711.594502921439     IErMin= 5 ErrMin= 3.01D-04
 ErrMax= 3.01D-04  0.00D+00 EMaxC= 1.00D-01 BMatC= 1.14D-05 BMatP= 2.38D-04
 IDIUse=3 WtCom= 9.97D-01 WtEn= 3.01D-03
 Coeff-Com: -0.388D-02 0.927D-01 0.135D+00 0.233D+00 0.544D+00
 Coeff-En:   0.000D+00 0.000D+00 0.000D+00 0.000D+00 0.100D+01
 Coeff:     -0.387D-02 0.924D-01 0.134D+00 0.232D+00 0.545D+00
 Gap=     0.211 Goal=   None    Shift=    0.000
 RMSDP=2.14D-05 MaxDP=1.13D-03 DE=-1.76D-04 OVMax= 2.03D-03

 Cycle   6  Pass 0  IDiag  1:
 E= -711.594507362639     Delta-E=       -0.000004441201 Rises=F Damp=F
 DIIS: error= 1.96D-04 at cycle   6 NSaved=   6.
 NSaved= 6 IEnMin= 6 EnMin= -711.594507362639     IErMin= 6 ErrMin= 1.96D-04
 ErrMax= 1.96D-04  0.00D+00 EMaxC= 1.00D-01 BMatC= 5.86D-06 BMatP= 1.14D-05
 IDIUse=3 WtCom= 9.98D-01 WtEn= 1.96D-03
 Coeff-Com: -0.330D-02 0.319D-01 0.543D-01 0.116D+00 0.430D+00 0.371D+00
 Coeff-En:   0.000D+00 0.000D+00 0.000D+00 0.000D+00 0.364D+00 0.636D+00
 Coeff:     -0.330D-02 0.319D-01 0.542D-01 0.116D+00 0.430D+00 0.372D+00
 Gap=     0.211 Goal=   None    Shift=    0.000
 RMSDP=1.03D-05 MaxDP=4.64D-04 DE=-4.44D-06 OVMax= 8.91D-04

 Cycle   7  Pass 0  IDiag  1:
 E= -711.594511916566     Delta-E=       -0.000004553927 Rises=F Damp=F
 DIIS: error= 1.86D-05 at cycle   7 NSaved=   7.
 NSaved= 7 IEnMin= 7 EnMin= -711.594511916566     IErMin= 7 ErrMin= 1.86D-05
 ErrMax= 1.86D-05  0.00D+00 EMaxC= 1.00D-01 BMatC= 7.24D-08 BMatP= 5.86D-06
 IDIUse=1 WtCom= 1.00D+00 WtEn= 0.00D+00
 Coeff-Com: -0.958D-03 0.450D-02 0.103D-01 0.255D-01 0.131D+00 0.159D+00
 Coeff-Com:  0.670D+00
 Coeff:     -0.958D-03 0.450D-02 0.103D-01 0.255D-01 0.131D+00 0.159D+00
 Coeff:      0.670D+00
 Gap=     0.211 Goal=   None    Shift=    0.000
 RMSDP=1.61D-06 MaxDP=4.84D-05 DE=-4.55D-06 OVMax= 7.42D-05

 Initial convergence to 1.0D-05 achieved.  Increase integral accuracy.
 Cycle   8  Pass 1  IDiag  1:
 E= -711.594503320195     Delta-E=        0.000008596371 Rises=F Damp=F
 DIIS: error= 3.77D-05 at cycle   1 NSaved=   1.
 NSaved= 1 IEnMin= 1 EnMin= -711.594503320195     IErMin= 1 ErrMin= 3.77D-05
 ErrMax= 3.77D-05  0.00D+00 EMaxC= 1.00D-01 BMatC= 1.31D-07 BMatP= 1.31D-07
 IDIUse=1 WtCom= 1.00D+00 WtEn= 0.00D+00
 Coeff-Com:  0.100D+01
 Coeff:      0.100D+01
 Gap=     0.211 Goal=   None    Shift=    0.000
 RMSDP=1.61D-06 MaxDP=4.84D-05 DE= 8.60D-06 OVMax= 1.11D-04

 Cycle   9  Pass 1  IDiag  1:
 E= -711.594503398543     Delta-E=       -0.000000078349 Rises=F Damp=F
 DIIS: error= 1.19D-05 at cycle   2 NSaved=   2.
 NSaved= 2 IEnMin= 2 EnMin= -711.594503398543     IErMin= 2 ErrMin= 1.19D-05
 ErrMax= 1.19D-05  0.00D+00 EMaxC= 1.00D-01 BMatC= 5.64D-08 BMatP= 1.31D-07
 IDIUse=1 WtCom= 1.00D+00 WtEn= 0.00D+00
 Coeff-Com:  0.338D+00 0.662D+00
 Coeff:      0.338D+00 0.662D+00
 Gap=     0.211 Goal=   None    Shift=    0.000
 RMSDP=2.16D-06 MaxDP=1.04D-04 DE=-7.83D-08 OVMax= 1.89D-04

 Cycle  10  Pass 1  IDiag  1:
 E= -711.594503370591     Delta-E=        0.000000027952 Rises=F Damp=F
 DIIS: error= 1.75D-05 at cycle   3 NSaved=   3.
 NSaved= 3 IEnMin= 2 EnMin= -711.594503398543     IErMin= 2 ErrMin= 1.19D-05
 ErrMax= 1.75D-05  0.00D+00 EMaxC= 1.00D-01 BMatC= 9.29D-08 BMatP= 5.64D-08
 IDIUse=1 WtCom= 1.00D+00 WtEn= 0.00D+00
 Coeff-Com:  0.433D-02 0.562D+00 0.434D+00
 Coeff:      0.433D-02 0.562D+00 0.434D+00
 Gap=     0.211 Goal=   None    Shift=    0.000
 RMSDP=1.33D-06 MaxDP=6.90D-05 DE= 2.80D-08 OVMax= 1.37D-04

 Cycle  11  Pass 1  IDiag  1:
 E= -711.594503438074     Delta-E=       -0.000000067483 Rises=F Damp=F
 DIIS: error= 4.72D-06 at cycle   4 NSaved=   4.
 NSaved= 4 IEnMin= 4 EnMin= -711.594503438074     IErMin= 4 ErrMin= 4.72D-06
 ErrMax= 4.72D-06  0.00D+00 EMaxC= 1.00D-01 BMatC= 5.93D-09 BMatP= 5.64D-08
 IDIUse=1 WtCom= 1.00D+00 WtEn= 0.00D+00
 Coeff-Com: -0.159D-01 0.358D+00 0.304D+00 0.354D+00
 Coeff:     -0.159D-01 0.358D+00 0.304D+00 0.354D+00
 Gap=     0.211 Goal=   None    Shift=    0.000
 RMSDP=3.48D-07 MaxDP=1.43D-05 DE=-6.75D-08 OVMax= 2.50D-05

 Cycle  12  Pass 1  IDiag  1:
 E= -711.594503442666     Delta-E=       -0.000000004592 Rises=F Damp=F
 DIIS: error= 4.88D-07 at cycle   5 NSaved=   5.
 NSaved= 5 IEnMin= 5 EnMin= -711.594503442666     IErMin= 5 ErrMin= 4.88D-07
 ErrMax= 4.88D-07  0.00D+00 EMaxC= 1.00D-01 BMatC= 1.12D-10 BMatP= 5.93D-09
 IDIUse=1 WtCom= 1.00D+00 WtEn= 0.00D+00
 Coeff-Com: -0.875D-02 0.161D+00 0.139D+00 0.190D+00 0.518D+00
 Coeff:     -0.875D-02 0.161D+00 0.139D+00 0.190D+00 0.518D+00
 Gap=     0.211 Goal=   None    Shift=    0.000
 RMSDP=5.17D-08 MaxDP=2.14D-06 DE=-4.59D-09 OVMax= 2.23D-06

 Cycle  13  Pass 1  IDiag  1:
 E= -711.594503442731     Delta-E=       -0.000000000065 Rises=F Damp=F
 DIIS: error= 1.78D-07 at cycle   6 NSaved=   6.
 NSaved= 6 IEnMin= 6 EnMin= -711.594503442731     IErMin= 6 ErrMin= 1.78D-07
 ErrMax= 1.78D-07  0.00D+00 EMaxC= 1.00D-01 BMatC= 1.32D-11 BMatP= 1.12D-10
 IDIUse=1 WtCom= 1.00D+00 WtEn= 0.00D+00
 Coeff-Com: -0.327D-02 0.527D-01 0.456D-01 0.678D-01 0.294D+00 0.543D+00
 Coeff:     -0.327D-02 0.527D-01 0.456D-01 0.678D-01 0.294D+00 0.543D+00
 Gap=     0.211 Goal=   None    Shift=    0.000
 RMSDP=1.83D-08 MaxDP=8.05D-07 DE=-6.53D-11 OVMax= 1.27D-06

 Cycle  14  Pass 1  IDiag  1:
 E= -711.594503442750     Delta-E=       -0.000000000019 Rises=F Damp=F
 DIIS: error= 1.40D-07 at cycle   7 NSaved=   7.
 NSaved= 7 IEnMin= 7 EnMin= -711.594503442750     IErMin= 7 ErrMin= 1.40D-07
 ErrMax= 1.40D-07  0.00D+00 EMaxC= 1.00D-01 BMatC= 3.05D-12 BMatP= 1.32D-11
 IDIUse=1 WtCom= 1.00D+00 WtEn= 0.00D+00
 Coeff-Com: -0.959D-03 0.129D-01 0.111D-01 0.184D-01 0.126D+00 0.364D+00
 Coeff-Com:  0.468D+00
 Coeff:     -0.959D-03 0.129D-01 0.111D-01 0.184D-01 0.126D+00 0.364D+00
 Coeff:      0.468D+00
 Gap=     0.211 Goal=   None    Shift=    0.000
 RMSDP=9.36D-09 MaxDP=4.80D-07 DE=-1.91D-11 OVMax= 9.40D-07

 SCF Done:  E(RB3LYP) =  -711.594503443     A.U. after   14 cycles
            NFock= 14  Conv=0.94D-08     -V/T= 2.0079
 KE= 7.059937249919D+02 PE=-3.185146922746D+03 EE= 1.007818785213D+03
 Leave Link  502 at Fri Aug 20 15:46:32 2021, MaxMem= 24159191040 cpu:        82.1
 (Enter /public/home/users/caep010/software/Gaussian09/g09/l701.exe)
 Compute integral first derivatives.
 ... and contract with generalized density number  0.
 Leave Link  701 at Fri Aug 20 15:46:32 2021, MaxMem= 24159191040 cpu:        10.9
 (Enter /public/home/users/caep010/software/Gaussian09/g09/l702.exe)
 L702 exits ... SP integral derivatives will be done elsewhere.
 Leave Link  702 at Fri Aug 20 15:46:32 2021, MaxMem= 24159191040 cpu:         0.5
 (Enter /public/home/users/caep010/software/Gaussian09/g09/l703.exe)
 Compute integral first derivatives, UseDBF=F ICtDFT=           0.
 Integral derivatives from FoFJK, PRISM(SPDF).
 Calling FoFJK, ICntrl=      2127 FMM=F ISym2X=0 I1Cent= 0 IOpClX= 0 NMat=1 NMatS=1 NMatT=0.
 FoFJK:  IHMeth= 1 ICntrl=    2127 DoSepK=F KAlg= 0 I1Cent=   0 FoldK=F
 IRaf=         0 NMat=   1 IRICut=       1 DoRegI=T DoRafI=F ISym2E= 0.
 FoFCou: FMM=F IPFlag=           0 FMFlag=      100000 FMFlg1=         800
         NFxFlg=           0 DoJE=F BraDBF=F KetDBF=F FulRan=T
         wScrn=  0.000000 ICntrl=    2127 IOpCl=  0 I1Cent=           0 NGrid=           0
         NMat0=    1 NMatS0=      1 NMatT0=    0 NMatD0=    1 NMtDS0=    0 NMtDT0=    0
 Symmetry not used in FoFCou.
 Leave Link  703 at Fri Aug 20 15:46:33 2021, MaxMem= 24159191040 cpu:        23.7
 (Enter /public/home/users/caep010/software/Gaussian09/g09/l716.exe)
 Dipole        =-2.98854689D-02 2.17367944D+00 7.40306112D-02
 ***** Axes restored to original set *****
 -------------------------------------------------------------------
 Center     Atomic                   Forces (Hartrees/Bohr)
 Number     Number              X              Y              Z
 -------------------------------------------------------------------
      1        6           0.002526998   -0.000474146    0.001637110
      2        8           0.006998818    0.002807086   -0.003511022
      3        7          -0.002649492    0.004455232    0.003976547
      4        7           0.001660072   -0.001551246   -0.003630988
      5        8          -0.011163795   -0.008857585   -0.001344969
      6        8           0.009282190    0.003215275   -0.003581425
      7        6           0.059364729   -0.028860167    0.052306511
      8        7          -0.002151421   -0.006566446   -0.002532154
      9        6           0.054456650   -0.020228687   -0.043167534
     10        1          -0.010804608   -0.017082561    0.058652276
     11        1          -0.049319353    0.044127949   -0.012047085
     12        1          -0.002757354    0.017689302   -0.006760621
     13        7           0.013870722    0.005706076    0.000210947
     14        8           0.002148401    0.000064252   -0.002060848
     15        8          -0.012892308    0.003347476    0.008543359
     16        1          -0.058570249    0.002208190   -0.046690104
 -------------------------------------------------------------------
 Cartesian Forces:  Max     0.059364729 RMS     0.024013174
 Leave Link  716 at Fri Aug 20 15:46:33 2021, MaxMem= 24159191040 cpu:         0.5
 (Enter /public/home/users/caep010/software/Gaussian09/g09/l103.exe)

 GradGradGradGradGradGradGradGradGradGradGradGradGradGradGradGradGradGrad
 Berny optimization.
 Using GEDIIS/GDIIS optimizer.
 FormGI is forming the generalized inverse of G from B-inverse, IUseBI=4.
 Internal  Forces:  Max     0.074849113 RMS     0.013906978
 Search for a local minimum.
 Step number   2 out of a maximum of   90
 All quantities printed in internal units (Hartrees-Bohrs-Radians)
 RMS Force = .13907D-01 SwitMx=.10000D-02 MixMth= 1
 Mixed Optimization -- RFO/linear search
 Update second derivatives using D2CorX and points    1    2
 DE= -6.56D-02 DEPred=-7.08D-02 R= 9.27D-01
 TightC=F SS=  1.41D+00  RLast= 3.02D-01 DXNew= 5.0454D-01 9.0736D-01
 Trust test= 9.27D-01 RLast= 3.02D-01 DXMaxT set to 5.05D-01
 ITU=  1  0
 Use linear search instead of GDIIS.
     Eigenvalues ---    0.00684   0.01278   0.01408   0.01512   0.01598
     Eigenvalues ---    0.01599   0.01702   0.01706   0.01746   0.04141
     Eigenvalues ---    0.04649   0.05452   0.05749   0.08296   0.08496
     Eigenvalues ---    0.08614   0.10574   0.22689   0.23691   0.24484
     Eigenvalues ---    0.24852   0.24985   0.24994   0.25000   0.25000
     Eigenvalues ---    0.25124   0.28343   0.29051   0.34529   0.37069
     Eigenvalues ---    0.44158   0.45028   0.49538   0.51018   0.61963
     Eigenvalues ---    0.64768   0.72838   0.98843   0.99803   1.00405
     Eigenvalues ---    1.04086   1.12835
 RFO step:  Lambda=-8.50436358D-03 EMin= 6.84203508D-03
 Quartic linear search produced a step of  1.00192.
 Iteration  1 RMS(Cart)=  0.05428184 RMS(Int)=  0.00323834
 Iteration  2 RMS(Cart)=  0.00295770 RMS(Int)=  0.00094370
 Iteration  3 RMS(Cart)=  0.00001217 RMS(Int)=  0.00094360
 Iteration  4 RMS(Cart)=  0.00000002 RMS(Int)=  0.00094360
 ITry= 1 IFail=0 DXMaxC= 1.80D-01 DCOld= 1.00D+10 DXMaxT= 5.05D-01 DXLimC= 3.00D+00 Rises=F
 Variable       Old X    -DE/DX   Delta X   Delta X   Delta X     New X
                                 (Linear)    (Quad)   (Total)
    R1        2.25171   0.00831   0.01276  -0.00275   0.01001   2.26172
[...]
   D12       -3.06203   0.00001   0.00000   0.00125   0.00125  -3.06078
   D13        0.43361  -0.00000   0.00000  -0.00068  -0.00068   0.43294
   D14       -1.64725  -0.00000   0.00000  -0.00074  -0.00074  -1.64799
   D15        2.52538  -0.00001   0.00000  -0.00076  -0.00076   2.52462
   D16        3.07716   0.00000   0.00000  -0.00053  -0.00053   3.07663
   D17        0.99629   0.00000   0.00000  -0.00059  -0.00059   0.99570
   D18       -1.11426  -0.00000   0.00000  -0.00061  -0.00061  -1.11487
   D19       -0.48559  -0.00000   0.00000   0.00007   0.00007  -0.48552
   D20       -2.55284  -0.00000   0.00000   0.00003   0.00003  -2.55282
   D21        1.57454   0.00000   0.00000   0.00014   0.00014   1.57469
   D22        1.57453   0.00000   0.00000   0.00015   0.00015   1.57469
   D23       -0.49272   0.00000   0.00000   0.00011   0.00011  -0.49261
   D24       -2.64852   0.00001   0.00000   0.00022   0.00022  -2.64829
   D25       -2.55286  -0.00000   0.00000   0.00004   0.00004  -2.55282
   D26        1.66308  -0.00000   0.00000  -0.00001  -0.00001   1.66307
   D27       -0.49272   0.00000   0.00000   0.00011   0.00011  -0.49261
   D28        0.43242   0.00000   0.00000   0.00052   0.00052   0.43294
   D29        2.52403   0.00000   0.00000   0.00059   0.00059   2.52462
   D30       -1.64851   0.00000   0.00000   0.00051   0.00051  -1.64799
   D31        3.07668   0.00000   0.00000  -0.00006  -0.00006   3.07663
   D32       -1.11489   0.00000   0.00000   0.00001   0.00001  -1.11488
   D33        0.99576  -0.00000   0.00000  -0.00006  -0.00006   0.99569
   D34       -0.46113  -0.00001   0.00000  -0.00181  -0.00181  -0.46294
   D35        2.71460  -0.00001   0.00000  -0.00168  -0.00168   2.71292
   D36       -3.05959  -0.00001   0.00000  -0.00119  -0.00119  -3.06078
   D37        0.11614  -0.00001   0.00000  -0.00107  -0.00107   0.11507
         Item               Value     Threshold  Converged?
 Maximum Force            0.000052     0.000450     YES
 RMS     Force            0.000014     0.000300     YES
 Maximum Displacement     0.003084     0.001800     NO 
 RMS     Displacement     0.000733     0.001200     YES
 Predicted change in Energy=-8.374872D-08
 GradGradGradGradGradGradGradGradGradGradGradGradGradGradGradGradGradGrad

 Leave Link  103 at Fri Aug 20 15:49:55 2021, MaxMem= 24159191040 cpu:         1.5
 (Enter /public/home/users/caep010/software/Gaussian09/g09/l9999.exe)
 1\1\GINC-B1113\Freq\RB3LYP\6-31G(d,p)\C3H4N4O5\ROOT\20-Aug-2021\0\\#P 
 Geom=AllCheck Guess=TCheck SCRF=Check GenChk RB3LYP/6-31G(d,p) Freq\\J
 EDSUG\\0,1\C,-0.2101887824,1.1735582871,8.0450082913\O,0.8571064681,1.
 5033231228,7.622199663\N,-1.1689119503,0.2964644283,7.4611675157\N,-0.
 8165159459,-0.6347542144,6.4551344401\O,-1.5647536135,-1.6043941681,6.
 3866425399\O,0.1391612603,-0.3739754488,5.7548811383\C,-2.256553619,-0
 .0584688028,8.3749169915\N,-0.845723878,1.5577465921,9.2606758163\C,-2
 .2473350718,1.140801807,9.3349947038\H,-2.5154138546,0.8660093961,10.3
 545440214\H,-2.9073418018,1.9463840184,8.9987387776\H,-2.0380154297,-1
 .0008707048,8.8864400793\N,-0.4597793849,2.7184460197,9.9731919837\O,0
 .6806536486,3.1096442604,9.8392795776\O,-1.3409971268,3.1812614123,10.
 6900710275\H,-3.1976909184,-0.1587760051,7.8352134332\\Version=ES64L-G
 09RevE.01\State=1-A\HF=-711.6137868\RMSD=8.012e-09\RMSF=2.369e-05\Zero
 Point=0.1039693\Thermal=0.1140959\Dipole=-1.8489562,-0.5727934,0.73394
 76\DipoleDeriv=1.2566126,0.3966654,-0.1776896,0.3618949,1.1227326,0.65
 95993,-0.2051674,0.74775,1.5143666,-0.8589457,-0.1920277,0.2103217,-0.
 1833968,-0.4613292,-0.0421517,0.2169885,-0.063373,-0.5030588,-0.572471
 9,-0.3046814,-0.0550254,-0.136265,-1.0610087,-0.7605408,-0.0759123,-0.
 7178255,-0.9952114,1.0573465,0.1564977,-0.641492,0.3130165,1.6336001,0
 .7995496,-0.4342614,0.8813031,1.6460854,-0.5376143,-0.3382951,0.007179
 2,-0.3310039,-0.8943855,-0.2807681,0.0282163,-0.2238647,-0.497143,-0.6
 230715,-0.0048372,0.4466083,-0.0783747,-0.3829509,-0.0787356,0.3637024
 ,-0.1321861,-0.7189554,0.3773709,0.0337205,-0.0967034,0.0035588,0.2414
 938,-0.0936083,-0.1045956,-0.1240289,0.2823417,-0.4791404,-0.0081841,0
 .1121936,-0.1654319,-0.9883572,-0.6862474,0.1416473,-0.7566663,-1.1615
 509,0.4611278,0.0155761,-0.0164014,0.0559534,0.2442142,-0.0788333,-0.0
 006031,-0.0746248,0.1958743,0.034096,-0.0155706,-0.0025675,0.0046456,0
 .0432218,0.0091242,0.0404764,0.0157328,-0.0258624,-0.0325107,-0.004226
 4,-0.0105942,0.0526815,-0.042993,0.0127545,-0.0289221,0.031916,0.03319
 38,0.0064091,0.0537281,0.0084586,-0.0046258,-0.0464538,0.0462094,0.025
 7309,0.0306796,-0.0021405,1.4500849,0.4374015,0.0299611,0.3090205,1.68
 20244,1.0587748,-0.1552875,0.9058024,1.2064042,-0.8657984,-0.3596038,-
 0.0832163,-0.2870325,-0.5345661,-0.1906717,-0.0007016,-0.1347189,-0.32
 50887,-0.6604699,0.1409004,0.2819704,0.1033751,-0.5986003,-0.3834772,0
 .2374636,-0.36471,-0.6702761,-0.013025,-0.0070634,-0.013003,-0.0180157
 ,0.0433578,0.0090222,-0.0487744,-0.0211858,0.0210212\Polar=77.8560421,
 13.6504547,75.3592857,-12.4826489,25.2333727,75.3425321\PG=C01 [X(C3H4
 N4O5)]\NImag=0\\0.92586005,0.24351851,0.36436414,-0.27015474,0.0343085
 8,0.45309386,-0.65356399,-0.18007626,0.22669313,0.74567996,-0.18114885
 ,-0.13907956,0.05743296,0.22499606,0.12412752,0.22586822,0.06017226,-0
 .18195876,-0.27435411,-0.05586009,0.18779873,-0.13824788,-0.04386054,-
 0.00418926,-0.05492658,-0.04192460,-0.00596873,0.47052897,-0.04353982,
 -0.09332051,-0.05475185,-0.04131472,-0.00503496,0.00466050,0.18605271,
 0.36394309,0.01855280,-0.02313913,-0.10322396,-0.00436963,0.00335622,0
 .02803823,-0.14493505,0.15025622,0.41680226,0.04257599,0.00522047,-0.0
 2438790,-0.01404961,-0.00011797,0.01054253,-0.12045439,-0.03571115,0.0
 2011610,0.76642967,-0.00432969,-0.03727612,-0.02143331,0.00638078,0.00
 677963,0.00242012,-0.01922747,-0.08936315,-0.02694032,0.31149676,0.614
 17835,-0.04036742,-0.03733451,-0.02551850,0.01918076,0.00747109,-0.006
 52082,0.03156554,0.00815382,-0.08111060,-0.24780064,0.02026072,0.50172
 263,-0.00168681,0.00086759,0.00724842,0.00223285,-0.00060347,-0.003239
 10,0.01525509,-0.02370909,-0.01066837,-0.26196796,-0.20005530,0.004933
 49,0.29527682,0.01194458,0.00721341,0.00384314,-0.00247033,-0.00256572
 ,-0.00098280,-0.03539840,-0.07198101,-0.04506278,-0.21088442,-0.370255
 95,-0.02841233,0.28857270,0.45057177,0.01270802,0.00028772,0.00219370,
 -0.00444531,-0.00014297,0.00166492,-0.02101548,-0.04973878,-0.00579776
 ,-0.00234897,-0.04067584,-0.11446021,-0.01706106,0.06112284,0.09771798
 ,-0.01595561,-0.00935854,0.00240007,0.00802080,-0.00123218,-0.00700815
 ,-0.02055061,0.02006762,0.04928178,-0.39590067,-0.09562142,0.22045033,
 -0.05013612,-0.04918300,0.03690583,0.47066691,-0.00301648,-0.00041742,
 0.00186002,0.00010999,-0.00333929,-0.00713573,0.02401715,0.02048565,-0
 .01919296,-0.08180387,-0.13854447,0.03865397,-0.06977285,-0.00610957,0
 .03594995,0.13153830,0.13090398,0.01084697,0.00842369,0.00195070,-0.00
 604681,-0.00512726,-0.00152200,0.05075648,-0.01438283,-0.04132253,0.23
 143669,0.04637921,-0.26678231,0.01992990,0.01786224,0.02322430,-0.3076
 6149,-0.04489169,0.28966591,-0.03135639,-0.01887674,0.00321169,0.00424
 482,-0.00080157,-0.00045412,-0.13638622,-0.03733972,0.04760834,-0.0058
 0259,0.01514611,0.01335192,-0.00377525,-0.00414919,-0.00302122,0.00352
 478,-0.00418456,-0.00102535,0.57847726,-0.00734970,-0.00228847,0.01853
 174,-0.00393080,-0.00033079,-0.00420650,-0.05616306,-0.10040886,0.0174
 7117,0.02450741,0.00954359,-0.01221143,0.00330694,-0.00312192,-0.00383
 113,0.00054761,-0.00358709,-0.00771734,0.01826048,0.57109472,0.0003977
 3,0.01399738,0.01788247,-0.00638470,-0.00745897,-0.00202949,0.05775906
 ,0.00756603,-0.11699207,0.01509512,-0.00067918,-0.02401903,0.00266118,
 0.00315674,-0.00165462,0.00292625,-0.00258632,0.00017679,0.09800916,-0
 .03627210,0.48667047,-0.12003231,-0.01533456,0.05769074,-0.03269577,0.
 00395038,0.05191280,0.01499330,-0.01151278,-0.01850515,-0.00716089,-0.
 00017515,0.00338190,0.00043579,-0.00211341,-0.00151471,0.00179732,0.00
 058269,-0.00066838,-0.00802306,-0.01251051,-0.01100891,0.54768906,-0.0
 3119038,-0.08250366,-0.03821563,0.00463703,0.02125053,0.00707984,-0.00
 322143,-0.02206099,-0.05310488,-0.01100525,0.00670121,0.00776296,0.000
 16053,-0.00553086,-0.00262563,0.00279191,-0.00028775,-0.00196896,-0.03
 117041,-0.01802452,-0.01202330,0.11785447,0.31428079,0.02289410,-0.030
 92871,-0.13226663,0.05131246,0.00513381,-0.02047001,-0.01160551,-0.047
 64761,-0.05860603,-0.00681165,0.00864587,0.01483830,-0.00207124,-0.006
 99305,-0.00327678,0.00134653,-0.00095832,-0.00307949,-0.02014266,-0.01
 216079,-0.01106325,-0.12576632,0.19274236,0.38904796,-0.02377872,0.006
 88166,0.01861351,0.00544776,-0.00096920,-0.00292152,-0.00523767,0.0170
 0278,0.01466100,-0.00505127,-0.00157476,0.00293811,0.00047675,-0.00185
 449,-0.00091416,-0.00109246,0.00085368,0.00185025,-0.07631529,-0.00230
 248,-0.00711517,-0.19489895,-0.02887201,0.02407323,0.49940507,0.000583
 57,0.00742311,0.02107645,0.00228911,0.00142064,-0.00729736,0.00473426,
 0.00199856,-0.00786570,-0.00333006,-0.00142055,0.00102158,-0.00016285,
 -0.00030319,-0.00078410,-0.00118306,0.00088300,0.00173767,0.01067343,-
 0.14837948,-0.05154908,-0.00654577,-0.07675799,-0.01670620,-0.07108864
 ,0.52325670,0.02548784,0.01251497,0.00061505,0.00309147,-0.00432374,-0
 .00498102,0.01052010,-0.02413066,-0.03387120,0.00334888,0.00382373,-0.
 00158736,-0.00033305,-0.00036406,0.00113889,0.00065107,-0.00120633,-0.
 00113097,0.00555513,-0.04248648,-0.11340159,0.01668214,-0.01575488,-0.
 08213468,-0.04620070,-0.05525906,0.61364947,-0.00305686,-0.00603223,-0
 .00246465,-0.00148077,0.00124918,0.00176446,0.00069305,-0.00022169,0.0
 0020024,0.00019149,-0.00031893,-0.00006016,0.00012981,0.00023016,-0.00
 000949,0.00016978,0.00000753,-0.00016637,0.00062296,0.00329596,-0.0011
 2221,-0.01726851,-0.00872156,0.03296041,-0.06157334,-0.01342759,0.0510
 0912,0.07429371,-0.00019282,-0.00246146,-0.00214032,-0.00052978,0.0003
 9510,0.00057283,-0.00067503,-0.00408341,-0.00382774,0.00087234,0.00152
 067,-0.00020005,-0.00001170,-0.00021183,0.00001664,0.00061499,-0.00048
 536,-0.00076300,0.00857298,0.00792096,-0.02312766,-0.00725603,-0.00331
 055,0.00785613,-0.01382765,-0.06713622,0.06968028,0.01746925,0.0707404
 6,-0.00122214,0.00006827,-0.00012923,-0.00003117,0.00015492,0.00018167
 ,-0.00128294,-0.00256648,-0.00065913,0.00024860,0.00081091,0.00037041,
 0.00001285,-0.00017773,-0.00007227,0.00021262,-0.00016413,-0.00031648,
 0.00388449,0.00495253,-0.01350297,0.00299390,-0.00175646,0.00585906,0.
 06010055,0.07085409,-0.29807455,-0.06618779,-0.07211926,0.31397747,-0.
 00117522,-0.00122940,-0.00774101,-0.00072686,-0.00048912,0.00209630,0.
 00093893,0.00019936,0.00089995,-0.00010002,-0.00020522,-0.00007265,0.0
 0019102,0.00032513,-0.00005770,0.00020671,0.00006160,-0.00011506,0.002
 77041,-0.00360958,0.00180931,-0.03647665,0.01592024,-0.00612178,-0.135
 75916,0.11399636,-0.04687497,0.00671006,-0.00477653,0.00184505,0.16036
 410,0.00003523,-0.00043077,-0.00206230,-0.00027841,-0.00025138,0.00078
 267,-0.00044949,0.00051268,0.00015498,0.00000079,-0.00067003,0.0001535
 3,0.00018280,0.00035495,-0.00025592,0.00029988,0.00010554,-0.00031977,
 0.01142839,-0.01934341,0.00824716,-0.01047948,0.01213546,-0.00485507,0
 .11784131,-0.19706906,0.06667299,0.00479299,-0.00519291,0.00183808,-0.
 12276449,0.20958724,0.00056790,-0.00103294,0.00032547,-0.00005031,0.00
 034653,-0.00027929,-0.00086630,0.00060847,0.00117612,-0.00004171,-0.00
 061508,-0.00068879,0.00021582,0.00026629,-0.00015928,0.00007315,0.0000
 4729,-0.00008429,0.01236419,-0.01621841,0.00726347,0.00104595,-0.00548
 431,0.00291789,-0.04825580,0.06719213,-0.08276998,-0.01769839,0.022526
 95,-0.00826885,0.05203276,-0.06721655,0.07996612,0.00293913,0.00087547
 ,0.00508548,-0.00178206,-0.00008029,-0.00089084,-0.00203551,-0.0281369
 0,0.01963916,0.00122607,-0.00344152,-0.00184064,0.00029553,0.00121261,
 0.00025176,-0.00107389,0.00056993,-0.00001678,-0.06731868,0.05380568,-
 0.03397119,0.00060403,0.00047515,-0.00045885,-0.00138051,0.00085509,0.
 00019861,0.00072308,0.00030475,0.00020794,0.00080888,0.00039998,0.0007
 2971,0.07075544,0.00091040,0.00009995,0.00207217,-0.00038855,-0.000057
 75,-0.00022923,-0.00656069,-0.00361749,0.00581680,-0.00115403,-0.00110
 514,-0.00136169,0.00064356,0.00077638,-0.00051727,0.00090355,0.0002929
 9,0.00008464,0.05032495,-0.24331331,0.10596025,0.00032858,0.00086918,-
 0.00061681,0.00716103,-0.01888767,0.00892991,0.00012197,0.00131731,0.0
 0013691,-0.00114631,-0.00202368,-0.00252954,-0.05068078,0.26297187,-0.
 00221366,-0.00222517,-0.00430804,0.00118333,0.00043697,0.00058253,0.00
 869983,0.01861893,-0.01577224,0.00088832,0.00752580,0.00279791,-0.0019
 2481,-0.00271590,0.00063593,0.00046596,-0.00117608,-0.00029504,-0.0323
 0144,0.10451782,-0.10504154,0.00068577,0.00093975,0.00115147,0.0063183
 4,-0.02038011,0.01095316,0.00022271,0.00028141,0.00139180,-0.00086429,
 -0.00363764,-0.00185814,0.02413477,-0.11556602,0.11627484,0.03883890,0
 .01881941,-0.02577034,-0.01839876,-0.00962146,0.00257462,-0.00208795,0
 .00548775,0.01257336,0.00477319,-0.00360378,-0.00390210,-0.00024795,0.
 00193157,0.00094865,-0.00206680,0.00026526,0.00175142,-0.00810654,-0.0
 0093332,0.00056843,-0.12684113,-0.00002706,0.04055394,-0.00435533,-0.0
 2976274,-0.02036771,-0.00056461,-0.00171826,0.00113224,-0.00163540,-0.
 00007999,-0.00190668,-0.00034776,0.00028334,0.00007577,0.97997991,0.03
 298572,-0.02115301,-0.03710811,-0.01603149,-0.00269115,0.00828289,-0.0
 0004910,0.01136146,0.01525932,0.00440718,-0.00567671,-0.01006383,0.001
 36669,0.00488459,0.00282592,-0.00179288,0.00080020,0.00298924,-0.00055
 397,-0.00006540,0.00217913,-0.03238648,-0.08163156,-0.01610006,-0.0158
 0188,-0.01703293,0.00080021,0.00211850,0.00256396,-0.00060680,0.006727
 75,0.00266364,0.00226901,-0.00005463,-0.00050996,-0.00066816,0.0665472
 4,0.44105758,-0.00631565,-0.03260409,-0.03786206,-0.00592360,0.0029469
 9,0.00728819,0.00651971,0.00280122,0.00509946,-0.00017921,-0.00572922,
 -0.00559299,0.00128996,0.00213650,0.00066033,-0.00050725,0.00110253,0.
 00175662,0.00263656,-0.00039411,0.00011169,0.01674899,-0.01128751,-0.0
 8217982,-0.01503124,0.00069344,0.00110572,0.00411943,0.00397445,-0.000
 36726,0.00435644,-0.00022394,0.00190287,-0.00031636,-0.00006560,-0.000
 60136,-0.23971493,0.14655738,0.46132869,-0.01683632,0.00036969,0.01263
 919,0.00984863,0.00487000,-0.00059661,0.00098709,-0.00190465,-0.003374
 92,-0.00202691,0.00124519,0.00255295,0.00042286,-0.00068189,-0.0008238
 8,0.00126512,-0.00010943,-0.00122773,-0.00182866,0.00036702,0.00077493
 ,-0.03293925,-0.05152189,-0.01990070,0.00188443,-0.00264667,-0.0013540
 2,-0.00024312,-0.00009414,-0.00100355,0.00017658,-0.00068173,0.0001816
 2,0.00027288,-0.00027778,-0.00031769,-0.52995099,-0.14134313,0.0597213
 7,0.65183456,-0.00690087,0.00148368,0.00648482,0.00280498,-0.00081853,
 -0.00600502,-0.00001623,-0.00185723,-0.00229515,-0.00104498,0.00133525
 ,0.00258072,-0.00000663,-0.00089422,-0.00077801,0.00071628,-0.00021059
 ,-0.00101144,-0.00279163,0.00030526,0.00018623,-0.05723170,-0.02580276
 ,-0.00989685,0.00338444,-0.00208875,-0.00711519,0.00003189,-0.00028905
 ,0.00028601,-0.00132216,-0.00090710,-0.00035667,0.00009586,-0.00007034
 ,-0.00007978,-0.15441652,-0.16235564,0.00094673,0.19912999,0.15540681,
 0.00352531,0.00217546,0.00093923,-0.00215329,-0.00613318,-0.00587509,-
 0.00160769,-0.00049168,-0.00070533,0.00011189,0.00127752,0.00118599,-0
 .00027952,-0.00051958,-0.00016332,0.00009847,-0.00027002,-0.00033505,-
 0.00128971,0.00005531,0.00018424,-0.02275475,-0.01029325,0.01737461,0.
 00358438,-0.00522108,0.00031873,-0.00092318,-0.00071413,-0.00010356,-0
 .00009553,0.00084618,-0.00034997,-0.00002468,-0.00005364,0.00002564,0.
 04930330,-0.00864182,-0.10911740,-0.08556433,0.01972122,0.08419265,-0.
 00299325,-0.00580279,-0.00238275,0.00317740,0.00342891,0.00104253,0.00
 127596,0.00142243,0.00204487,-0.00005167,-0.00139305,-0.00146583,0.000
 68062,0.00105728,0.00021273,0.00048382,0.00023934,-0.00004701,0.000787
 80,-0.00002174,0.00080757,0.00968825,0.02273798,0.01918171,-0.00266347
 ,-0.00442296,-0.00217789,0.00094831,0.00164834,-0.00104860,0.00273852,
 -0.00004970,0.00156227,0.00017736,-0.00029447,-0.00055471,-0.32947790,
 0.09363821,0.17257360,-0.08313732,0.01726710,0.05800899,0.39828715,-0.
 01080668,-0.00175711,0.00968198,0.00406768,0.00061576,-0.00211583,0.00
 047778,-0.00441133,-0.00664043,-0.00231878,0.00268507,0.00299240,-0.00
 034070,-0.00198481,-0.00092556,0.00080124,-0.00036130,-0.00102871,0.00
 139413,0.00071971,-0.00126234,0.03242822,-0.03596285,-0.06342425,0.004
 46984,-0.00296020,-0.00163154,-0.00065822,-0.00071343,-0.00105853,-0.0
 0144235,-0.00049490,-0.00027931,-0.00012452,0.00006884,0.00020397,0.10
 807705,-0.17321814,-0.11155703,-0.00626142,0.03750181,0.00851452,-0.12
 966294,0.18051464,-0.00308369,-0.00211070,0.01248656,0.00128301,0.0001
 4129,-0.00246193,-0.00103784,-0.00287996,-0.00523892,-0.00141018,0.003
 21571,0.00266157,-0.00051694,-0.00170871,-0.00055882,0.00041027,-0.000
 48450,-0.00075572,0.00117988,-0.00015277,-0.00019664,0.02797817,-0.053
 69206,-0.03629784,0.00462293,0.00174483,-0.00293426,-0.00175284,-0.001
 53905,0.00024114,-0.00126322,-0.00040522,-0.00053218,-0.00003785,-0.00
 006118,0.00014171,0.18268585,-0.10837457,-0.24412254,0.03873008,-0.002
 19777,0.01259277,-0.24768256,0.16861120,0.26496642,-0.00153070,0.00401
 825,0.00350844,-0.00102782,-0.00150581,-0.00036827,-0.02474559,-0.0068
 4211,-0.00372448,-0.00263041,-0.00432254,-0.00284557,0.00241695,0.0014
 6111,0.00018500,0.00064093,0.00064171,0.00040328,-0.25151535,-0.017269
 93,-0.12120655,0.00112878,0.00115270,0.00055634,0.00489217,-0.00056149
 ,0.00076397,-0.00029505,-0.00040073,0.00013794,0.00096811,-0.00019807,
 0.00004583,-0.00386397,-0.00017477,-0.00449819,0.00048911,0.00022227,0
 .00002218,0.00027043,0.00030020,0.00006035,0.00007843,-0.00010032,-0.0
 0010509,0.27472396,-0.00150271,0.00010379,0.00041967,-0.00026527,-0.00
 042007,-0.00013856,-0.00773584,-0.00216250,-0.00424563,0.00086557,0.00
 156835,0.00053306,-0.00043821,-0.00084200,0.00007213,0.00008970,-0.000
 12850,-0.00026567,-0.01593266,-0.05072100,-0.00633398,0.00040153,-0.00
 336367,-0.00409045,-0.02130364,-0.00294598,-0.01015016,0.00006279,-0.0
 0057423,-0.00065234,-0.00024529,0.00102372,0.00047615,0.02392411,0.003
 18885,0.01392421,-0.00124848,0.00100308,0.00070225,-0.00045918,-0.0007
 3858,-0.00025184,0.00020806,-0.00024176,-0.00010654,0.02357952,0.05525
 053,0.00250842,-0.00257307,-0.00421985,0.00101478,0.00162544,0.0005441
 3,0.02668808,0.00392466,0.01218369,0.00119212,0.00171338,0.00270380,-0
 .00019751,-0.00145081,-0.00109298,-0.00004543,0.00045231,-0.00115043,-
 0.12956687,-0.00987752,-0.12438794,0.00109786,-0.00231805,-0.00181476,
 -0.01632372,0.00074249,-0.00689542,0.00010873,-0.00047749,-0.00052722,
 0.00016640,0.00028083,0.00143883,-0.01269026,-0.00199971,-0.00607864,-
 0.00050582,0.00040023,0.00058987,-0.00043670,-0.00046985,-0.00016413,-
 0.00007492,-0.00008054,0.00000866,0.12706484,0.01010770,0.12886240\\0.
 00003492,-0.00001622,-0.00003404,-0.00000871,-0.00001075,0.00001070,0.
 00002714,-0.00002201,-0.00003980,-0.00002381,0.00004890,0.00006269,-0.
 00002633,-0.00004614,0.00000197,0.00004113,0.00002426,-0.00002446,0.00
 000548,-0.00000267,0.00003461,-0.00000928,0.00000753,0.00001088,-0.000
 01755,-0.00002442,0.00004265,0.00000954,0.00000178,-0.00002585,-0.0000
 1510,0.00002631,-0.00001542,0.00000776,0.00000022,0.00000335,0.0000171
 1,0.00001033,-0.00000287,0.00000110,0.00001118,-0.00000733,-0.00001284
 ,0.00000081,0.00000686,-0.00003058,-0.00000911,-0.00002393\\\@


 HO!  SUCH BUGS AND GOBLINS IN MY LIFE!

                            -- HAMLET, ACT 5, SCENE 2
 Job cpu time:       0 days  0 hours 11 minutes 18.4 seconds.
 File lengths (MBytes):  RWF=     84 Int=      0 D2E=      0 Chk=      4 Scr=      1
 Normal termination of Gaussian 09 at Fri Aug 20 15:49:55 2021.
