 Entering Gaussian System, Link 0=g09
 Input=B3LYP6-31G.DAFBOB.gjf
 Output=B3LYP6-31G.DAFBOB.log
 Initial command:
 /public/home/users/caep010/software/Gaussian09/g09/l1.exe "/public/home/users/caep010/.cache/gau_scr/Gau-132908.inp" -scrdir="/public/home/users/caep010/.cache/gau_scr/"
 Entering Link 1 = /public/home/users/caep010/software/Gaussian09/g09/l1.exe PID=    132911.
  
 Copyright (c) 1988,1990,1992,1993,1995,1998,2003,2009,2015,
            Gaussian, Inc.  All Rights Reserved.
  
 This is part of the Gaussian(R) 09 program.  It is based on
 the Gaussian(R) 03 system (copyright 2003, Gaussian, Inc.),
 the Gaussian(R) 98 system (copyright 1998, Gaussian, Inc.),
 the Gaussian(R) 94 system (copyright 1995, Gaussian, Inc.),
 the Gaussian 92(TM) system (copyright 1992, Gaussian, Inc.),
 the Gaussian 90(TM) system (copyright 1990, Gaussian, Inc.),
 the Gaussian 88(TM) system (copyright 1988, Gaussian, Inc.),
 the Gaussian 86(TM) system (copyright 1986, Carnegie Mellon
 University), and the Gaussian 82(TM) system (copyright 1983,
 Carnegie Mellon University). Gaussian is a federally registered
 trademark of Gaussian, Inc.
  
 This software contains proprietary and confidential information,
 including trade secrets, belonging to Gaussian, Inc.
  
 This software is provided under written license and may be
 used, copied, transmitted, or stored only in accord with that
 written license.
  
 The following legend is applicable only to US Government
 contracts under FAR:
  
                    RESTRICTED RIGHTS LEGEND
  
 Use, reproduction and disclosure by the US Government is
 subject to restrictions as set forth in subparagraphs (a)
 and (c) of the Commercial Computer Software - Restricted
 Rights clause in FAR 52.227-19.
  
 Gaussian, Inc.
 340 Quinnipiac St., Bldg. 40, Wallingford CT 06492
  
  
 ---------------------------------------------------------------
 Warning -- This program may not be used in any manner that
 competes with the business of Gaussian, Inc. or will provide
 assistance to any competitor of Gaussian, Inc.  The licensee
 of this program is prohibited from giving any competitor of
 Gaussian, Inc. access to this program.  By using this program,
 the user acknowledges that Gaussian, Inc. is engaged in the
 business of creating and licensing software in the field of
 computational chemistry and represents and warrants to the
 licensee that it is not a competitor of Gaussian, Inc. and that
 it will not use this program in any manner prohibited above.
 ---------------------------------------------------------------
  

 Cite this work as:
 Gaussian 09, Revision E.01,
 M. J. Frisch, G. W. Trucks, H. B. Schlegel, G. E. Scuseria, 
 M. A. Robb, J. R. Cheeseman, G. Scalmani, V. Barone, B. Mennucci, 
 G. A. Petersson, H. Nakatsuji, M. Caricato, X. Li, H. P. Hratchian, 
 A. F. Izmaylov, J. Bloino, G. Zheng, J. L. Sonnenberg, M. Hada, 
 M. Ehara, K. Toyota, R. Fukuda, J. Hasegawa, M. Ishida, T. Nakajima, 
 Y. Honda, O. Kitao, H. Nakai, T. Vreven, J. A. Montgomery, Jr., 
 J. E. Peralta, F. Ogliaro, M. Bearpark, J. J. Heyd, E. Brothers, 
 K. N. Kudin, V. N. Staroverov, T. Keith, R. Kobayashi, J. Normand, 
 K. Raghavachari, A. Rendell, J. C. Burant, S. S. Iyengar, J. Tomasi, 
 M. Cossi, N. Rega, J. M. Millam, M. Klene, J. E. Knox, J. B. Cross, 
 V. Bakken, C. Adamo, J. Jaramillo, R. Gomperts, R. E. Stratmann, 
 O. Yazyev, A. J. Austin, R. Cammi, C. Pomelli, J. W. Ochterski, 
 R. L. Martin, K. Morokuma, V. G. Zakrzewski, G. A. Voth, 
 P. Salvador, J. J. Dannenberg, S. Dapprich, A. D. Daniels, 
 O. Farkas, J. B. Foresman, J. V. Ortiz, J. Cioslowski, 
 and D. J. Fox, Gaussian, Inc., Wallingford CT, 2013.
 
 ******************************************
 Gaussian 09:  ES64L-G09RevE.01 30-Nov-2015
                20-Aug-2021 
 ******************************************
 %nproc=32
 Will use up to   32 processors via shared memory.
 %mem=180GB
 -------------------------
 #P OPT Freq B3LYP/6-31G**
 -------------------------
 1/14=-1,18=20,19=15,26=3,38=1/1,3;
 2/9=110,12=2,17=6,18=5,40=1/2;
 3/5=1,6=6,7=101,11=2,16=1,25=1,30=1,71=1,74=-5/1,2,3;
 4//1;
 5/5=2,38=5/2;
 6/7=2,8=2,9=2,10=2,28=1/1;
 7//1,2,3,16;
 1/14=-1,18=20,19=15,26=3/3(2);
 2/9=110/2;
 99//99;
 2/9=110/2;
 3/5=1,6=6,7=101,11=2,16=1,25=1,30=1,71=1,74=-5/1,2,3;
 4/5=5,16=3,69=1/1;
 5/5=2,38=5/2;
 7//1,2,3,16;
 1/14=-1,18=20,19=15,26=3/3(-5);
 2/9=110/2;
 6/7=2,8=2,9=2,10=2,19=2,28=1/1;
 99/9=1/99;
 Leave Link    1 at Fri Aug 20 15:50:33 2021, MaxMem= 24159191040 cpu:         2.2
 (Enter /public/home/users/caep010/software/Gaussian09/g09/l101.exe)
 ------
 DAFBOB
 ------
 Symbolic Z-matrix:
 Charge =  0 Multiplicity = 1
 N                     3.1062   -2.4395    0.393 
 C                     3.0733   -1.173     0.7522 
 C                     4.4368   -0.7466    1.2353 
 C                     4.4288   -3.0339    0.4968 
 H                     4.8639   -3.0909   -0.4724 
 H                     4.4432   -3.8201    0.7278 
 C                     2.0677   -3.1623   -0.2574 
 H                     2.3397   -4.2164   -0.5247 
 H                     1.8557   -2.6788   -1.0404 
 H                     1.2052   -3.1226    0.1477 
 C                     1.9582   -0.4137    0.5966 
 H                     1.1699   -0.8401    0.3148 
 C                     5.1774   -2.0812    1.3887 
 N                     1.9237    0.9162    0.9519 
 O                     2.9062    1.5154    1.401 
 O                     0.8616    1.5122    0.7592 
 H                     4.9503   -0.1902    0.3279 
 H                     4.3279   -0.2378    2.1032 
 H                     6.2988   -1.807     1.0055 
 H                     5.1635   -2.4094    2.2143 
 
 NAtoms=     20 NQM=       20 NQMF=       0 NMMI=      0 NMMIF=      0
                NMic=       0 NMicF=      0.
                    Isotopes and Nuclear Properties:
 (Nuclear quadrupole moments (NQMom) in fm**2, nuclear magnetic moments (NMagM)
  in nuclear magnetons)

  Atom         1           2           3           4           5           6           7           8           9          10
 IAtWgt=          14          12          12          12           1           1          12           1           1           1
 AtmWgt=  14.0030740  12.0000000  12.0000000  12.0000000   1.0078250   1.0078250  12.0000000   1.0078250   1.0078250   1.0078250
 NucSpn=           2           0           0           0           1           1           0           1           1           1
 AtZEff=   0.0000000   0.0000000   0.0000000   0.0000000   0.0000000   0.0000000   0.0000000   0.0000000   0.0000000   0.0000000
 NQMom=    2.0440000   0.0000000   0.0000000   0.0000000   0.0000000   0.0000000   0.0000000   0.0000000   0.0000000   0.0000000
 NMagM=    0.4037610   0.0000000   0.0000000   0.0000000   2.7928460   2.7928460   0.0000000   2.7928460   2.7928460   2.7928460
 AtZNuc=   7.0000000   6.0000000   6.0000000   6.0000000   1.0000000   1.0000000   6.0000000   1.0000000   1.0000000   1.0000000

  Atom        11          12          13          14          15          16          17          18          19          20
 IAtWgt=          12           1          12          14          16          16           1           1           1           1
 AtmWgt=  12.0000000   1.0078250  12.0000000  14.0030740  15.9949146  15.9949146   1.0078250   1.0078250   1.0078250   1.0078250
 NucSpn=           0           1           0           2           0           0           1           1           1           1
 AtZEff=   0.0000000   0.0000000   0.0000000   0.0000000   0.0000000   0.0000000   0.0000000   0.0000000   0.0000000   0.0000000
 NQMom=    0.0000000   0.0000000   0.0000000   2.0440000   0.0000000   0.0000000   0.0000000   0.0000000   0.0000000   0.0000000
 NMagM=    0.0000000   2.7928460   0.0000000   0.4037610   0.0000000   0.0000000   2.7928460   2.7928460   2.7928460   2.7928460
 AtZNuc=   6.0000000   1.0000000   6.0000000   7.0000000   8.0000000   8.0000000   1.0000000   1.0000000   1.0000000   1.0000000
 Leave Link  101 at Fri Aug 20 15:50:33 2021, MaxMem= 24159191040 cpu:         9.8
 (Enter /public/home/users/caep010/software/Gaussian09/g09/l103.exe)

 GradGradGradGradGradGradGradGradGradGradGradGradGradGradGradGradGradGrad
 Berny optimization.
 Initialization pass.
                           ----------------------------
                           !    Initial Parameters    !
                           ! (Angstroms and Degrees)  !
 --------------------------                            --------------------------
 ! Name  Definition              Value          Derivative Info.                !
 --------------------------------------------------------------------------------
 ! R1    R(1,2)                  1.3169         estimate D2E/DX2                !
 ! R2    R(1,4)                  1.4537         estimate D2E/DX2                !
 ! R3    R(1,7)                  1.4227         estimate D2E/DX2                !
 ! R4    R(2,3)                  1.5081         estimate D2E/DX2                !
 ! R5    R(2,11)                 1.358          estimate D2E/DX2                !
 ! R6    R(3,13)                 1.534          estimate D2E/DX2                !
 ! R7    R(3,17)                 1.1818         estimate D2E/DX2                !
 ! R8    R(3,18)                 1.0119         estimate D2E/DX2                !
 ! R9    R(4,5)                  1.0639         estimate D2E/DX2                !
 ! R10   R(4,6)                  0.8196         estimate D2E/DX2                !
 ! R11   R(4,13)                 1.5045         estimate D2E/DX2                !
 ! R12   R(7,8)                  1.121          estimate D2E/DX2                !
 ! R13   R(7,9)                  0.9444         estimate D2E/DX2                !
 ! R14   R(7,10)                 0.9537         estimate D2E/DX2                !
 ! R15   R(11,12)                0.9395         estimate D2E/DX2                !
 ! R16   R(11,14)                1.377          estimate D2E/DX2                !
 ! R17   R(13,19)                1.2164         estimate D2E/DX2                !
 ! R18   R(13,20)                0.8886         estimate D2E/DX2                !
 ! R19   R(14,15)                1.2353         estimate D2E/DX2                !
 ! R20   R(14,16)                1.233          estimate D2E/DX2                !
 ! A1    A(2,1,4)              113.3591         estimate D2E/DX2                !
 ! A2    A(2,1,7)              126.5197         estimate D2E/DX2                !
 ! A3    A(4,1,7)              119.277          estimate D2E/DX2                !
 ! A4    A(1,2,3)              109.6771         estimate D2E/DX2                !
 ! A5    A(1,2,11)             121.8032         estimate D2E/DX2                !
 ! A6    A(3,2,11)             128.3904         estimate D2E/DX2                !
 ! A7    A(2,3,13)             102.8586         estimate D2E/DX2                !
 ! A8    A(2,3,17)             106.2606         estimate D2E/DX2                !
 ! A9    A(2,3,18)             108.6394         estimate D2E/DX2                !
 ! A10   A(13,3,17)            106.0582         estimate D2E/DX2                !
 ! A11   A(13,3,18)            113.8056         estimate D2E/DX2                !
 ! A12   A(17,3,18)            117.9416         estimate D2E/DX2                !
 ! A13   A(1,4,5)              109.2039         estimate D2E/DX2                !
 ! A14   A(1,4,6)              115.3625         estimate D2E/DX2                !
 ! A15   A(1,4,13)             103.6566         estimate D2E/DX2                !
 ! A16   A(5,4,6)              101.4309         estimate D2E/DX2                !
 ! A17   A(5,4,13)             111.7454         estimate D2E/DX2                !
 ! A18   A(6,4,13)             115.5706         estimate D2E/DX2                !
 ! A19   A(1,7,8)              114.1827         estimate D2E/DX2                !
 ! A20   A(1,7,9)              106.428          estimate D2E/DX2                !
 ! A21   A(1,7,10)             116.4116         estimate D2E/DX2                !
 ! A22   A(8,7,9)              109.7679         estimate D2E/DX2                !
 ! A23   A(8,7,10)             111.0921         estimate D2E/DX2                !
 ! A24   A(9,7,10)              97.3454         estimate D2E/DX2                !
 ! A25   A(2,11,12)            118.0074         estimate D2E/DX2                !
 ! A26   A(2,11,14)            122.0744         estimate D2E/DX2                !
 ! A27   A(12,11,14)           119.6512         estimate D2E/DX2                !
 ! A28   A(3,13,4)             104.5612         estimate D2E/DX2                !
 ! A29   A(3,13,19)            102.5603         estimate D2E/DX2                !
 ! A30   A(3,13,20)            113.9985         estimate D2E/DX2                !
 ! A31   A(4,13,19)            114.501          estimate D2E/DX2                !
 ! A32   A(4,13,20)            108.0076         estimate D2E/DX2                !
 ! A33   A(19,13,20)           112.9795         estimate D2E/DX2                !
 ! A34   A(11,14,15)           122.8437         estimate D2E/DX2                !
 ! A35   A(11,14,16)           116.621          estimate D2E/DX2                !
 ! A36   A(15,14,16)           120.493          estimate D2E/DX2                !
 ! D1    D(4,1,2,3)             -2.8798         estimate D2E/DX2                !
 ! D2    D(4,1,2,11)           173.3116         estimate D2E/DX2                !
 ! D3    D(7,1,2,3)           -172.1922         estimate D2E/DX2                !
 ! D4    D(7,1,2,11)             3.9992         estimate D2E/DX2                !
 ! D5    D(2,1,4,5)           -101.9704         estimate D2E/DX2                !
 ! D6    D(2,1,4,6)            144.6162         estimate D2E/DX2                !
 ! D7    D(2,1,4,13)            17.2623         estimate D2E/DX2                !
 ! D8    D(7,1,4,5)             68.1914         estimate D2E/DX2                !
 ! D9    D(7,1,4,6)            -45.2219         estimate D2E/DX2                !
 ! D10   D(7,1,4,13)          -172.5758         estimate D2E/DX2                !
 ! D11   D(2,1,7,8)            176.4402         estimate D2E/DX2                !
 ! D12   D(2,1,7,9)             55.1798         estimate D2E/DX2                !
 ! D13   D(2,1,7,10)           -51.9935         estimate D2E/DX2                !
 ! D14   D(4,1,7,8)              7.6957         estimate D2E/DX2                !
 ! D15   D(4,1,7,9)           -113.5646         estimate D2E/DX2                !
 ! D16   D(4,1,7,10)           139.2621         estimate D2E/DX2                !
 ! D17   D(1,2,3,13)           -12.4352         estimate D2E/DX2                !
 ! D18   D(1,2,3,17)            98.796          estimate D2E/DX2                !
 ! D19   D(1,2,3,18)          -133.3612         estimate D2E/DX2                !
 ! D20   D(11,2,3,13)          171.695          estimate D2E/DX2                !
 ! D21   D(11,2,3,17)          -77.0738         estimate D2E/DX2                !
 ! D22   D(11,2,3,18)           50.769          estimate D2E/DX2                !
 ! D23   D(1,2,11,12)            6.9428         estimate D2E/DX2                !
 ! D24   D(1,2,11,14)         -179.0184         estimate D2E/DX2                !
 ! D25   D(3,2,11,12)         -177.6341         estimate D2E/DX2                !
 ! D26   D(3,2,11,14)           -3.5954         estimate D2E/DX2                !
 ! D27   D(2,3,13,4)            22.0216         estimate D2E/DX2                !
 ! D28   D(2,3,13,19)          141.8135         estimate D2E/DX2                !
 ! D29   D(2,3,13,20)          -95.7061         estimate D2E/DX2                !
 ! D30   D(17,3,13,4)          -89.36           estimate D2E/DX2                !
 ! D31   D(17,3,13,19)          30.432          estimate D2E/DX2                !
 ! D32   D(17,3,13,20)         152.9124         estimate D2E/DX2                !
 ! D33   D(18,3,13,4)          139.3457         estimate D2E/DX2                !
 ! D34   D(18,3,13,19)        -100.8623         estimate D2E/DX2                !
 ! D35   D(18,3,13,20)          21.6181         estimate D2E/DX2                !
 ! D36   D(1,4,13,3)           -23.6594         estimate D2E/DX2                !
 ! D37   D(1,4,13,19)         -135.0856         estimate D2E/DX2                !
 ! D38   D(1,4,13,20)           98.096          estimate D2E/DX2                !
 ! D39   D(5,4,13,3)            93.8147         estimate D2E/DX2                !
 ! D40   D(5,4,13,19)          -17.6115         estimate D2E/DX2                !
 ! D41   D(5,4,13,20)         -144.4299         estimate D2E/DX2                !
 ! D42   D(6,4,13,3)          -150.8831         estimate D2E/DX2                !
 ! D43   D(6,4,13,19)           97.6906         estimate D2E/DX2                !
 ! D44   D(6,4,13,20)          -29.1278         estimate D2E/DX2                !
 ! D45   D(2,11,14,15)           1.9078         estimate D2E/DX2                !
 ! D46   D(2,11,14,16)         179.5494         estimate D2E/DX2                !
 ! D47   D(12,11,14,15)        175.8513         estimate D2E/DX2                !
 ! D48   D(12,11,14,16)         -6.5071         estimate D2E/DX2                !
 --------------------------------------------------------------------------------
 Trust Radius=3.00D-01 FncErr=1.00D-07 GrdErr=1.00D-06
 Number of steps in this run=    114 maximum allowed number of steps=    120.
 GradGradGradGradGradGradGradGradGradGradGradGradGradGradGradGradGradGrad

 Leave Link  103 at Fri Aug 20 15:50:33 2021, MaxMem= 24159191040 cpu:         0.4
 (Enter /public/home/users/caep010/software/Gaussian09/g09/l202.exe)
                          Input orientation:                          
 ---------------------------------------------------------------------
 Center     Atomic      Atomic             Coordinates (Angstroms)
 Number     Number       Type             X           Y           Z
 ---------------------------------------------------------------------
      1          7           0        3.106200   -2.439500    0.393000
      2          6           0        3.073300   -1.173000    0.752200
      3          6           0        4.436800   -0.746600    1.235300
      4          6           0        4.428800   -3.033900    0.496800
      5          1           0        4.863900   -3.090900   -0.472400
      6          1           0        4.443200   -3.820100    0.727800
      7          6           0        2.067700   -3.162300   -0.257400
      8          1           0        2.339700   -4.216400   -0.524700
      9          1           0        1.855700   -2.678800   -1.040400
     10          1           0        1.205200   -3.122600    0.147700
     11          6           0        1.958200   -0.413700    0.596600
     12          1           0        1.169900   -0.840100    0.314800
     13          6           0        5.177400   -2.081200    1.388700
     14          7           0        1.923700    0.916200    0.951900
     15          8           0        2.906200    1.515400    1.401000
     16          8           0        0.861600    1.512200    0.759200
     17          1           0        4.950300   -0.190200    0.327900
     18          1           0        4.327900   -0.237800    2.103200
     19          1           0        6.298800   -1.807000    1.005500
     20          1           0        5.163500   -2.409400    2.214300
 ---------------------------------------------------------------------
                    Distance matrix (angstroms):
                    1          2          3          4          5
     1  N    0.000000
     2  C    1.316863   0.000000
     3  C    2.312115   1.508090   0.000000
     4  C    1.453739   2.316367   2.403578   0.000000
     5  H    2.064642   2.895554   2.931620   1.063912   0.000000
     6  H    1.950825   2.980664   3.115124   0.819560   1.466015
     7  C    1.422653   2.447006   3.698161   2.481954   2.805362
     8  H    2.141744   3.380965   4.419835   2.608852   2.764249
     9  H    1.917199   2.638825   3.946427   3.018265   3.088967
    10  H    2.034846   2.766976   4.155898   3.243661   3.711013
    11  C    2.337354   1.358012   2.581127   3.602676   4.093074
    12  H    2.512659   1.981180   3.395394   3.932723   4.396751
    13  C    2.325869   2.378486   1.534007   1.504502   2.140437
    14  N    3.601583   2.392952   3.026696   4.699567   5.170131
    15  O    4.086233   2.770624   2.736208   4.881805   5.344176
    16  O    4.559415   3.478788   4.255691   5.784531   6.222843
    17  H    2.909346   2.160800   1.181794   2.896052   3.010317
    18  H    3.043816   2.067322   1.011922   3.226279   3.880875
    19  H    3.311783   3.296963   2.155064   2.293678   2.427247
    20  H    2.747821   2.834671   2.061901   1.969668   2.787931
                    6          7          8          9         10
     6  H    0.000000
     7  C    2.654491   0.000000
     8  H    2.480025   1.120964   0.000000
     9  H    3.335304   0.944354   1.692459   0.000000
    10  H    3.362687   0.953723   1.713362   1.425374   0.000000
    11  C    4.218530   2.880297   3.982886   2.796597   2.847220
    12  H    4.445836   2.554617   3.670503   2.384891   2.288881
    13  C    1.999903   3.680850   4.033946   4.158286   4.289868
    14  N    5.369417   4.256443   5.356957   4.110707   4.180297
    15  O    5.593132   5.033314   6.073119   4.965410   5.096588
    16  O    6.423571   4.933468   6.053927   4.668113   4.687576
    17  H    3.686902   4.181547   4.873648   4.200229   4.759960
    18  H    3.838996   4.385617   5.166048   4.685347   4.679456
    19  H    2.751898   4.618870   4.880696   4.968589   5.330233
    20  H    2.172231   4.032386   4.329113   4.648353   4.521905
                   11         12         13         14         15
    11  C    0.000000
    12  H    0.939492   0.000000
    13  C    3.710960   4.330548   0.000000
    14  N    1.376976   2.014622   4.445421   0.000000
    15  O    2.295036   3.121370   4.253708   1.235329   0.000000
    16  O    2.222175   2.413681   5.651099   1.233047   2.142967
    17  H    3.012443   3.835879   2.180081   3.282347   2.870359
    18  H    2.813585   3.678873   2.151809   2.904718   2.363901
    19  H    4.577040   5.264749   1.216374   5.153658   4.764924
    20  H    4.107763   4.692509   0.888552   4.811400   4.600099
                   16         17         18         19         20
    16  O    0.000000
    17  H    4.449905   0.000000
    18  H    4.109023   1.881844   0.000000
    19  H    6.375021   2.211704   2.748050   0.000000
    20  H    6.000217   2.920412   2.329467   1.764367   0.000000
 Stoichiometry    C6H10N2O2
 Framework group  C1[X(C6H10N2O2)]
 Deg. of freedom    54
 Full point group                 C1      NOp   1
 Largest Abelian subgroup         C1      NOp   1
 Largest concise Abelian subgroup C1      NOp   1
                         Standard orientation:                         
 ---------------------------------------------------------------------
 Center     Atomic      Atomic             Coordinates (Angstroms)
 Number     Number       Type             X           Y           Z
 ---------------------------------------------------------------------
      1          7           0        1.366340    0.685655   -0.059204
      2          6           0        0.219659    0.038300   -0.045637
      3          6           0        0.474722   -1.444258    0.060658
      4          6           0        2.520964   -0.183785    0.096597
      5          1           0        2.875277   -0.118999    1.097684
      6          1           0        3.187094    0.038113   -0.326144
      7          6           0        1.543332    2.095731    0.006377
      8          1           0        2.614887    2.422824    0.042978
      9          1           0        1.094214    2.385347    0.784979
     10          1           0        1.047151    2.615203   -0.620952
     11          6           0       -0.970956    0.691469   -0.043758
     12          1           0       -0.962420    1.624587   -0.152681
     13          6           0        1.979758   -1.552404   -0.215657
     14          7           0       -2.172956    0.020580   -0.009618
     15          8           0       -2.251479   -1.210506    0.055953
     16          8           0       -3.192637    0.713839   -0.002580
     17          1           0        0.330564   -1.723996    1.199781
     18          1           0       -0.101052   -1.921198   -0.621250
     19          1           0        2.329235   -2.422028    0.559705
     20          1           0        2.179420   -1.740497   -1.060808
 ---------------------------------------------------------------------
 Rotational constants (GHZ):      2.5999779      0.9239699      0.6938643
 Leave Link  202 at Fri Aug 20 15:50:33 2021, MaxMem= 24159191040 cpu:         0.4
 (Enter /public/home/users/caep010/software/Gaussian09/g09/l301.exe)
 Standard basis: 6-31G(d,p) (6D, 7F)
 Ernie: Thresh=  0.10000D-02 Tol=  0.10000D-05 Strict=F.
 There are   200 symmetry adapted cartesian basis functions of A   symmetry.
 There are   200 symmetry adapted basis functions of A   symmetry.
   200 basis functions,   350 primitive gaussians,   200 cartesian basis functions
    38 alpha electrons       38 beta electrons
       nuclear repulsion energy       557.1623990834 Hartrees.
 IExCor=  402 DFT=T Ex+Corr=B3LYP ExCW=0 ScaHFX=  0.200000
 ScaDFX=  0.800000  0.720000  1.000000  0.810000 ScalE2=  1.000000  1.000000
 IRadAn=      0 IRanWt=     -1 IRanGd=            0 ICorTp=0 IEmpDi=  4
 NAtoms=   20 NActive=   20 NUniq=   20 SFac= 1.00D+00 NAtFMM=   60 NAOKFM=F Big=F
 Integral buffers will be    131072 words long.
 Raffenetti 2 integral format.
 Two-electron integral symmetry is turned on.
 Leave Link  301 at Fri Aug 20 15:50:34 2021, MaxMem= 24159191040 cpu:         2.2
 (Enter /public/home/users/caep010/software/Gaussian09/g09/l302.exe)
 NPDir=0 NMtPBC=     1 NCelOv=     1 NCel=       1 NClECP=     1 NCelD=      1
         NCelK=      1 NCelE2=     1 NClLst=     1 CellRange=     0.0.
 One-electron integrals computed using PRISM.
 NBasis=   200 RedAO= T EigKep=  1.19D-03  NBF=   200
 NBsUse=   200 1.00D-06 EigRej= -1.00D+00 NBFU=   200
 Precomputing XC quadrature grid using
 IXCGrd= 4 IRadAn=           0 IRanWt=          -1 IRanGd=           0 AccXCQ= 0.00D+00.
 Generated NRdTot=       0 NPtTot=           0 NUsed=           0 NTot=          32
 NSgBfM=   200   200   200   200   200 MxSgAt=    20 MxSgA2=    20.
 Leave Link  302 at Fri Aug 20 15:50:34 2021, MaxMem= 24159191040 cpu:        12.1
 (Enter /public/home/users/caep010/software/Gaussian09/g09/l303.exe)
 DipDrv:  MaxL=1.
 Leave Link  303 at Fri Aug 20 15:50:34 2021, MaxMem= 24159191040 cpu:         1.1
 (Enter /public/home/users/caep010/software/Gaussian09/g09/l401.exe)
 ExpMin= 1.61D-01 ExpMax= 5.48D+03 ExpMxC= 8.25D+02 IAcc=1 IRadAn=         1 AccDes= 0.00D+00
 Harris functional with IExCor=  402 and IRadAn=       1 diagonalized for initial guess.
 HarFok:  IExCor=  402 AccDes= 0.00D+00 IRadAn=         1 IDoV= 1 UseB2=F ITyADJ=14
 ICtDFT=  3500011 ScaDFX=  1.000000  1.000000  1.000000  1.000000
 FoFCou: FMM=F IPFlag=           0 FMFlag=      100000 FMFlg1=           0
         NFxFlg=           0 DoJE=T BraDBF=F KetDBF=T FulRan=T
         wScrn=  0.000000 ICntrl=     500 IOpCl=  0 I1Cent=   200000004 NGrid=           0
         NMat0=    1 NMatS0=      1 NMatT0=    0 NMatD0=    1 NMtDS0=    0 NMtDT0=    0
 Petite list used in FoFCou.
 Harris En= -494.421102804115    
 JPrj=0 DoOrth=F DoCkMO=F.
 Leave Link  401 at Fri Aug 20 15:50:35 2021, MaxMem= 24159191040 cpu:        11.3
 (Enter /public/home/users/caep010/software/Gaussian09/g09/l502.exe)
 Closed shell SCF:
 Using DIIS extrapolation, IDIIS=  1040.
 Integral symmetry usage will be decided dynamically.
 Keep R1 ints in memory in canonical form, NReq=206221710.
 IVT=      146460 IEndB=      146460 NGot= 24159191040 MDV= 23957029531
 LenX= 23957029531 LenY= 23956989090
 Requested convergence on RMS density matrix=1.00D-08 within 128 cycles.
 Requested convergence on MAX density matrix=1.00D-06.
 Requested convergence on             energy=1.00D-06.
 No special actions if energy rises.
 FoFCou: FMM=F IPFlag=           0 FMFlag=           0 FMFlg1=           0
         NFxFlg=           0 DoJE=F BraDBF=F KetDBF=F FulRan=T
         wScrn=  0.000000 ICntrl=     600 IOpCl=  0 I1Cent=           0 NGrid=           0
         NMat0=    1 NMatS0=  20100 NMatT0=    0 NMatD0=    1 NMtDS0=    0 NMtDT0=    0
 Symmetry not used in FoFCou.
 Integral accuracy reduced to 1.0D-05 until final iterations.

 Cycle   1  Pass 0  IDiag  1:
 E= -493.944158435686    
 DIIS: error= 3.55D-02 at cycle   1 NSaved=   1.
 NSaved= 1 IEnMin= 1 EnMin= -493.944158435686     IErMin= 1 ErrMin= 3.55D-02
 ErrMax= 3.55D-02  0.00D+00 EMaxC= 1.00D-01 BMatC= 4.11D-01 BMatP= 4.11D-01
 IDIUse=3 WtCom= 6.45D-01 WtEn= 3.55D-01
 Coeff-Com:  0.100D+01
 Coeff-En:   0.100D+01
 Coeff:      0.100D+01
 Gap=     0.136 Goal=   None    Shift=    0.000
 GapD=    0.136 DampG=1.000 DampE=0.500 DampFc=0.5000 IDamp=-1.
 Damping current iteration by 5.00D-01
 RMSDP=6.17D-03 MaxDP=2.12D-01              OVMax= 3.02D-01

 Cycle   2  Pass 0  IDiag  1:
 E= -494.079524410405     Delta-E=       -0.135365974718 Rises=F Damp=T
 DIIS: error= 1.21D-02 at cycle   2 NSaved=   2.
 NSaved= 2 IEnMin= 2 EnMin= -494.079524410405     IErMin= 2 ErrMin= 1.21D-02
 ErrMax= 1.21D-02  0.00D+00 EMaxC= 1.00D-01 BMatC= 4.57D-02 BMatP= 4.11D-01
 IDIUse=3 WtCom= 8.79D-01 WtEn= 1.21D-01
 Coeff-Com:  0.169D+00 0.831D+00
 Coeff-En:   0.230D+00 0.770D+00
 Coeff:      0.176D+00 0.824D+00
 Gap=     0.200 Goal=   None    Shift=    0.000
 RMSDP=1.70D-03 MaxDP=7.02D-02 DE=-1.35D-01 OVMax= 2.22D-01

 Cycle   3  Pass 0  IDiag  1:
 E= -494.276596088894     Delta-E=       -0.197071678489 Rises=F Damp=F
 DIIS: error= 1.10D-02 at cycle   3 NSaved=   3.
 NSaved= 3 IEnMin= 3 EnMin= -494.276596088894     IErMin= 3 ErrMin= 1.10D-02
 ErrMax= 1.10D-02  0.00D+00 EMaxC= 1.00D-01 BMatC= 3.04D-02 BMatP= 4.57D-02
 IDIUse=3 WtCom= 8.90D-01 WtEn= 1.10D-01
 Coeff-Com:  0.387D-01 0.444D+00 0.518D+00
 Coeff-En:   0.000D+00 0.000D+00 0.100D+01
 Coeff:      0.344D-01 0.395D+00 0.571D+00
 Gap=     0.186 Goal=   None    Shift=    0.000
 RMSDP=1.22D-03 MaxDP=4.99D-02 DE=-1.97D-01 OVMax= 7.03D-02

 Cycle   4  Pass 0  IDiag  1:
 E= -494.294240211008     Delta-E=       -0.017644122114 Rises=F Damp=F
 DIIS: error= 7.96D-03 at cycle   4 NSaved=   4.
 NSaved= 4 IEnMin= 4 EnMin= -494.294240211008     IErMin= 4 ErrMin= 7.96D-03
 ErrMax= 7.96D-03  0.00D+00 EMaxC= 1.00D-01 BMatC= 9.42D-03 BMatP= 3.04D-02
 IDIUse=3 WtCom= 9.20D-01 WtEn= 7.96D-02
 Coeff-Com:  0.135D-01 0.133D+00 0.366D+00 0.488D+00
 Coeff-En:   0.000D+00 0.000D+00 0.262D+00 0.738D+00
 Coeff:      0.124D-01 0.122D+00 0.357D+00 0.508D+00
 Gap=     0.200 Goal=   None    Shift=    0.000
 RMSDP=6.34D-04 MaxDP=3.32D-02 DE=-1.76D-02 OVMax= 5.66D-02

 Cycle   5  Pass 0  IDiag  1:
 E= -494.300021078110     Delta-E=       -0.005780867103 Rises=F Damp=F
 DIIS: error= 5.10D-03 at cycle   5 NSaved=   5.
 NSaved= 5 IEnMin= 5 EnMin= -494.300021078110     IErMin= 5 ErrMin= 5.10D-03
 ErrMax= 5.10D-03  0.00D+00 EMaxC= 1.00D-01 BMatC= 2.49D-03 BMatP= 9.42D-03
 IDIUse=3 WtCom= 9.49D-01 WtEn= 5.10D-02
 Coeff-Com:  0.615D-02 0.340D-01 0.203D+00 0.392D+00 0.365D+00
 Coeff-En:   0.000D+00 0.000D+00 0.000D+00 0.213D+00 0.787D+00
 Coeff:      0.584D-02 0.323D-01 0.193D+00 0.383D+00 0.386D+00
 Gap=     0.180 Goal=   None    Shift=    0.000
 RMSDP=2.50D-04 MaxDP=1.28D-02 DE=-5.78D-03 OVMax= 2.79D-02

 Cycle   6  Pass 0  IDiag  1:
 E= -494.301872315577     Delta-E=       -0.001851237466 Rises=F Damp=F
 DIIS: error= 1.20D-03 at cycle   6 NSaved=   6.
 NSaved= 6 IEnMin= 6 EnMin= -494.301872315577     IErMin= 6 ErrMin= 1.20D-03
 ErrMax= 1.20D-03  0.00D+00 EMaxC= 1.00D-01 BMatC= 1.66D-04 BMatP= 2.49D-03
 IDIUse=3 WtCom= 9.88D-01 WtEn= 1.20D-02
 Coeff-Com:  0.148D-02 0.237D-02 0.647D-01 0.160D+00 0.249D+00 0.522D+00
 Coeff-En:   0.000D+00 0.000D+00 0.000D+00 0.000D+00 0.642D-01 0.936D+00
 Coeff:      0.146D-02 0.234D-02 0.640D-01 0.158D+00 0.247D+00 0.527D+00
 Gap=     0.181 Goal=   None    Shift=    0.000
 RMSDP=6.67D-05 MaxDP=3.56D-03 DE=-1.85D-03 OVMax= 5.24D-03

 Cycle   7  Pass 0  IDiag  1:
 E= -494.302003517936     Delta-E=       -0.000131202360 Rises=F Damp=F
 DIIS: error= 1.19D-04 at cycle   7 NSaved=   7.
 NSaved= 7 IEnMin= 7 EnMin= -494.302003517936     IErMin= 7 ErrMin= 1.19D-04
 ErrMax= 1.19D-04  0.00D+00 EMaxC= 1.00D-01 BMatC= 6.42D-06 BMatP= 1.66D-04
 IDIUse=3 WtCom= 9.99D-01 WtEn= 1.19D-03
 Coeff-Com:  0.278D-03-0.160D-02 0.156D-01 0.485D-01 0.961D-01 0.274D+00
 Coeff-Com:  0.567D+00
 Coeff-En:   0.000D+00 0.000D+00 0.000D+00 0.000D+00 0.000D+00 0.000D+00
 Coeff-En:   0.100D+01
 Coeff:      0.278D-03-0.159D-02 0.155D-01 0.485D-01 0.960D-01 0.273D+00
 Coeff:      0.568D+00
 Gap=     0.181 Goal=   None    Shift=    0.000
 RMSDP=1.44D-05 MaxDP=3.77D-04 DE=-1.31D-04 OVMax= 7.57D-04

 Cycle   8  Pass 0  IDiag  1:
 E= -494.302008904243     Delta-E=       -0.000005386307 Rises=F Damp=F
 DIIS: error= 2.27D-05 at cycle   8 NSaved=   8.
 NSaved= 8 IEnMin= 8 EnMin= -494.302008904243     IErMin= 8 ErrMin= 2.27D-05
 ErrMax= 2.27D-05  0.00D+00 EMaxC= 1.00D-01 BMatC= 2.03D-07 BMatP= 6.42D-06
 IDIUse=1 WtCom= 1.00D+00 WtEn= 0.00D+00
 Coeff-Com:  0.417D-04-0.815D-03 0.366D-02 0.135D-01 0.304D-01 0.950D-01
 Coeff-Com:  0.243D+00 0.615D+00
 Coeff:      0.417D-04-0.815D-03 0.366D-02 0.135D-01 0.304D-01 0.950D-01
 Coeff:      0.243D+00 0.615D+00
 Gap=     0.181 Goal=   None    Shift=    0.000
 RMSDP=3.09D-06 MaxDP=9.98D-05 DE=-5.39D-06 OVMax= 1.47D-04

 Initial convergence to 1.0D-05 achieved.  Increase integral accuracy.
 Cycle   9  Pass 1  IDiag  1:
 E= -494.301970460437     Delta-E=        0.000038443806 Rises=F Damp=F
 DIIS: error= 1.51D-05 at cycle   1 NSaved=   1.
 NSaved= 1 IEnMin= 1 EnMin= -494.301970460437     IErMin= 1 ErrMin= 1.51D-05
 ErrMax= 1.51D-05  0.00D+00 EMaxC= 1.00D-01 BMatC= 1.03D-07 BMatP= 1.03D-07
 IDIUse=1 WtCom= 1.00D+00 WtEn= 0.00D+00
 Coeff-Com:  0.100D+01
 Coeff:      0.100D+01
 Gap=     0.181 Goal=   None    Shift=    0.000
 RMSDP=3.09D-06 MaxDP=9.98D-05 DE= 3.84D-05 OVMax= 1.49D-04

 Cycle  10  Pass 1  IDiag  1:
 E= -494.301970520226     Delta-E=       -0.000000059789 Rises=F Damp=F
 DIIS: error= 1.17D-05 at cycle   2 NSaved=   2.
 NSaved= 2 IEnMin= 2 EnMin= -494.301970520226     IErMin= 2 ErrMin= 1.17D-05
 ErrMax= 1.17D-05  0.00D+00 EMaxC= 1.00D-01 BMatC= 7.02D-08 BMatP= 1.03D-07
 IDIUse=1 WtCom= 1.00D+00 WtEn= 0.00D+00
 Coeff-Com:  0.435D+00 0.565D+00
 Coeff:      0.435D+00 0.565D+00
 Gap=     0.181 Goal=   None    Shift=    0.000
 RMSDP=1.90D-06 MaxDP=1.01D-04 DE=-5.98D-08 OVMax= 1.26D-04

 Cycle  11  Pass 1  IDiag  1:
 E= -494.301970564007     Delta-E=       -0.000000043781 Rises=F Damp=F
 DIIS: error= 7.10D-06 at cycle   3 NSaved=   3.
 NSaved= 3 IEnMin= 3 EnMin= -494.301970564007     IErMin= 3 ErrMin= 7.10D-06
 ErrMax= 7.10D-06  0.00D+00 EMaxC= 1.00D-01 BMatC= 2.12D-08 BMatP= 7.02D-08
 IDIUse=1 WtCom= 1.00D+00 WtEn= 0.00D+00
 Coeff-Com:  0.202D-01 0.350D+00 0.630D+00
 Coeff:      0.202D-01 0.350D+00 0.630D+00
 Gap=     0.181 Goal=   None    Shift=    0.000
 RMSDP=8.70D-07 MaxDP=4.56D-05 DE=-4.38D-08 OVMax= 7.16D-05

 Cycle  12  Pass 1  IDiag  1:
 E= -494.301970580376     Delta-E=       -0.000000016369 Rises=F Damp=F
 DIIS: error= 2.13D-06 at cycle   4 NSaved=   4.
 NSaved= 4 IEnMin= 4 EnMin= -494.301970580376     IErMin= 4 ErrMin= 2.13D-06
 ErrMax= 2.13D-06  0.00D+00 EMaxC= 1.00D-01 BMatC= 2.71D-09 BMatP= 2.12D-08
 IDIUse=1 WtCom= 1.00D+00 WtEn= 0.00D+00
 Coeff-Com: -0.137D-01 0.185D+00 0.399D+00 0.430D+00
 Coeff:     -0.137D-01 0.185D+00 0.399D+00 0.430D+00
 Gap=     0.181 Goal=   None    Shift=    0.000
 RMSDP=2.78D-07 MaxDP=7.71D-06 DE=-1.64D-08 OVMax= 1.85D-05

 Cycle  13  Pass 1  IDiag  1:
 E= -494.301970582719     Delta-E=       -0.000000002343 Rises=F Damp=F
 DIIS: error= 8.32D-07 at cycle   5 NSaved=   5.
 NSaved= 5 IEnMin= 5 EnMin= -494.301970582719     IErMin= 5 ErrMin= 8.32D-07
 ErrMax= 8.32D-07  0.00D+00 EMaxC= 1.00D-01 BMatC= 1.22D-10 BMatP= 2.71D-09
 IDIUse=1 WtCom= 1.00D+00 WtEn= 0.00D+00
 Coeff-Com: -0.899D-02 0.884D-01 0.200D+00 0.248D+00 0.472D+00
 Coeff:     -0.899D-02 0.884D-01 0.200D+00 0.248D+00 0.472D+00
 Gap=     0.181 Goal=   None    Shift=    0.000
 RMSDP=6.77D-08 MaxDP=3.46D-06 DE=-2.34D-09 OVMax= 6.73D-06

 Cycle  14  Pass 1  IDiag  1:
 E= -494.301970582797     Delta-E=       -0.000000000078 Rises=F Damp=F
 DIIS: error= 5.87D-07 at cycle   6 NSaved=   6.
 NSaved= 6 IEnMin= 6 EnMin= -494.301970582797     IErMin= 6 ErrMin= 5.87D-07
 ErrMax= 5.87D-07  0.00D+00 EMaxC= 1.00D-01 BMatC= 3.39D-11 BMatP= 1.22D-10
 IDIUse=1 WtCom= 1.00D+00 WtEn= 0.00D+00
 Coeff-Com: -0.443D-02 0.379D-01 0.896D-01 0.117D+00 0.348D+00 0.412D+00
 Coeff:     -0.443D-02 0.379D-01 0.896D-01 0.117D+00 0.348D+00 0.412D+00
 Gap=     0.181 Goal=   None    Shift=    0.000
 RMSDP=3.07D-08 MaxDP=1.52D-06 DE=-7.78D-11 OVMax= 3.22D-06

 Cycle  15  Pass 1  IDiag  1:
 E= -494.301970582832     Delta-E=       -0.000000000035 Rises=F Damp=F
 DIIS: error= 1.22D-07 at cycle   7 NSaved=   7.
 NSaved= 7 IEnMin= 7 EnMin= -494.301970582832     IErMin= 7 ErrMin= 1.22D-07
 ErrMax= 1.22D-07  0.00D+00 EMaxC= 1.00D-01 BMatC= 3.13D-12 BMatP= 3.39D-11
 IDIUse=1 WtCom= 1.00D+00 WtEn= 0.00D+00
 Coeff-Com: -0.122D-02 0.794D-02 0.211D-01 0.282D-01 0.137D+00 0.272D+00
 Coeff-Com:  0.535D+00
 Coeff:     -0.122D-02 0.794D-02 0.211D-01 0.282D-01 0.137D+00 0.272D+00
 Coeff:      0.535D+00
 Gap=     0.181 Goal=   None    Shift=    0.000
 RMSDP=1.11D-08 MaxDP=3.66D-07 DE=-3.52D-11 OVMax= 7.39D-07

 Cycle  16  Pass 1  IDiag  1:
 E= -494.301970582843     Delta-E=       -0.000000000011 Rises=F Damp=F
 DIIS: error= 1.74D-08 at cycle   8 NSaved=   8.
 NSaved= 8 IEnMin= 8 EnMin= -494.301970582843     IErMin= 8 ErrMin= 1.74D-08
 ErrMax= 1.74D-08  0.00D+00 EMaxC= 1.00D-01 BMatC= 1.15D-13 BMatP= 3.13D-12
 IDIUse=1 WtCom= 1.00D+00 WtEn= 0.00D+00
 Coeff-Com: -0.580D-04-0.749D-03-0.599D-03-0.875D-03 0.195D-01 0.714D-01
 Coeff-Com:  0.226D+00 0.686D+00
 Coeff:     -0.580D-04-0.749D-03-0.599D-03-0.875D-03 0.195D-01 0.714D-01
 Coeff:      0.226D+00 0.686D+00
 Gap=     0.181 Goal=   None    Shift=    0.000
 RMSDP=2.29D-09 MaxDP=6.20D-08 DE=-1.11D-11 OVMax= 1.48D-07

 SCF Done:  E(RB3LYP) =  -494.301970583     A.U. after   16 cycles
            NFock= 16  Conv=0.23D-08     -V/T= 2.0047
 KE= 4.919987407223D+02 PE=-2.267663315165D+03 EE= 7.242002047766D+02
 Leave Link  502 at Fri Aug 20 15:50:43 2021, MaxMem= 24159191040 cpu:        89.0
 (Enter /public/home/users/caep010/software/Gaussian09/g09/l601.exe)
 Copying SCF densities to generalized density rwf, IOpCl= 0 IROHF=0.

 **********************************************************************

            Population analysis using the SCF density.

 **********************************************************************

 Orbital symmetries:
       Occupied  (A) (A) (A) (A) (A) (A) (A) (A) (A) (A) (A) (A)
                 (A) (A) (A) (A) (A) (A) (A) (A) (A) (A) (A) (A)
                 (A) (A) (A) (A) (A) (A) (A) (A) (A) (A) (A) (A)
                 (A) (A)
       Virtual   (A) (A) (A) (A) (A) (A) (A) (A) (A) (A) (A) (A)
                 (A) (A) (A) (A) (A) (A) (A) (A) (A) (A) (A) (A)
                 (A) (A) (A) (A) (A) (A) (A) (A) (A) (A) (A) (A)
                 (A) (A) (A) (A) (A) (A) (A) (A) (A) (A) (A) (A)
                 (A) (A) (A) (A) (A) (A) (A) (A) (A) (A) (A) (A)
                 (A) (A) (A) (A) (A) (A) (A) (A) (A) (A) (A) (A)
                 (A) (A) (A) (A) (A) (A) (A) (A) (A) (A) (A) (A)
                 (A) (A) (A) (A) (A) (A) (A) (A) (A) (A) (A) (A)
                 (A) (A) (A) (A) (A) (A) (A) (A) (A) (A) (A) (A)
                 (A) (A) (A) (A) (A) (A) (A) (A) (A) (A) (A) (A)
                 (A) (A) (A) (A) (A) (A) (A) (A) (A) (A) (A) (A)
                 (A) (A) (A) (A) (A) (A) (A) (A) (A) (A) (A) (A)
                 (A) (A) (A) (A) (A) (A) (A) (A) (A) (A) (A) (A)
                 (A) (A) (A) (A) (A) (A)
 The electronic state is 1-A.
 Alpha  occ. eigenvalues --  -19.12686 -19.12382 -14.52874 -14.39177 -10.25309
 Alpha  occ. eigenvalues --  -10.22079 -10.21589 -10.20495 -10.19717 -10.19023
 Alpha  occ. eigenvalues --   -1.18286  -1.01393  -0.99738  -0.84002  -0.83399
 Alpha  occ. eigenvalues --   -0.76869  -0.74647  -0.64841  -0.64271  -0.57583
 Alpha  occ. eigenvalues --   -0.54497  -0.52901  -0.51449  -0.49651  -0.49232
 Alpha  occ. eigenvalues --   -0.47960  -0.45514  -0.44100  -0.43803  -0.40925
 Alpha  occ. eigenvalues --   -0.39935  -0.37809  -0.35827  -0.32279  -0.26936
 Alpha  occ. eigenvalues --   -0.26141  -0.23812  -0.22016
 Alpha virt. eigenvalues --   -0.03900   0.04415   0.06743   0.08011   0.11564
 Alpha virt. eigenvalues --    0.12895   0.13539   0.14823   0.15844   0.16450
 Alpha virt. eigenvalues --    0.17758   0.18566   0.20959   0.22399   0.23387
 Alpha virt. eigenvalues --    0.24892   0.27618   0.29790   0.32111   0.34090
 Alpha virt. eigenvalues --    0.40970   0.43965   0.45324   0.46301   0.48549
 Alpha virt. eigenvalues --    0.49492   0.53390   0.54253   0.55304   0.57304
 Alpha virt. eigenvalues --    0.58887   0.61117   0.66032   0.66637   0.68951
 Alpha virt. eigenvalues --    0.69831   0.73723   0.74460   0.76356   0.77925
 Alpha virt. eigenvalues --    0.78735   0.79757   0.80656   0.81073   0.82837
 Alpha virt. eigenvalues --    0.84662   0.86084   0.88256   0.88613   0.92411
 Alpha virt. eigenvalues --    0.95087   0.95706   0.98985   1.00230   1.00807
 Alpha virt. eigenvalues --    1.03583   1.03994   1.05895   1.06665   1.06812
 Alpha virt. eigenvalues --    1.11031   1.12922   1.17104   1.20376   1.25037
 Alpha virt. eigenvalues --    1.27965   1.33302   1.34157   1.39628   1.41345
 Alpha virt. eigenvalues --    1.43938   1.44993   1.51397   1.53709   1.58205
 Alpha virt. eigenvalues --    1.61145   1.67970   1.70076   1.72386   1.72902
 Alpha virt. eigenvalues --    1.74996   1.77181   1.79075   1.80141   1.82118
 Alpha virt. eigenvalues --    1.83441   1.84890   1.85992   1.86496   1.88315
 Alpha virt. eigenvalues --    1.92303   1.95163   1.99178   2.01098   2.03694
 Alpha virt. eigenvalues --    2.04715   2.05044   2.08893   2.11792   2.12507
 Alpha virt. eigenvalues --    2.15148   2.16307   2.17457   2.19411   2.21723
 Alpha virt. eigenvalues --    2.24022   2.25688   2.29510   2.33319   2.37424
 Alpha virt. eigenvalues --    2.39083   2.40545   2.43069   2.44802   2.46868
 Alpha virt. eigenvalues --    2.48947   2.50902   2.54597   2.55579   2.59920
 Alpha virt. eigenvalues --    2.60884   2.61376   2.64773   2.65838   2.70514
 Alpha virt. eigenvalues --    2.75241   2.78386   2.79762   2.81323   2.86653
 Alpha virt. eigenvalues --    2.89511   2.90582   2.92304   2.93708   2.96677
 Alpha virt. eigenvalues --    3.02280   3.05097   3.10093   3.13029   3.18238
 Alpha virt. eigenvalues --    3.22608   3.25671   3.27215   3.33141   3.44011
 Alpha virt. eigenvalues --    3.46496   3.59397   3.75839   3.76329   3.80151
 Alpha virt. eigenvalues --    3.91820   3.94233   3.99874   4.09201   4.11743
 Alpha virt. eigenvalues --    4.21027   4.32820   4.43236   4.46463   4.57092
 Alpha virt. eigenvalues --    4.72192   4.75624
          Condensed to atoms (all electrons):
               1          2          3          4          5          6
     1  N    6.837819   0.394400  -0.077398   0.327054  -0.057524  -0.030333
     2  C    0.394400   4.738258   0.369769  -0.064591   0.002269  -0.000105
     3  C   -0.077398   0.369769   5.041268  -0.064257  -0.002782   0.007281
     4  C    0.327054  -0.064591  -0.064257   4.676336   0.395450   0.391967
     5  H   -0.057524   0.002269  -0.002782   0.395450   0.658783  -0.076848
     6  H   -0.030333  -0.000105   0.007281   0.391967  -0.076848   0.662006
     7  C    0.310553  -0.042428   0.008732  -0.045975   0.000350   0.000081
     8  H   -0.026716   0.003114  -0.000208  -0.005370   0.000501   0.002539
     9  H   -0.054110  -0.002903  -0.000661   0.000956   0.002809  -0.001341
    10  H   -0.027782  -0.005604  -0.000033   0.003690  -0.000639   0.000941
    11  C   -0.046901   0.402591  -0.070482   0.006546   0.000221  -0.000518
    12  H   -0.015273  -0.051532   0.007401  -0.000134   0.000009  -0.000012
    13  C   -0.049495  -0.051093   0.306851   0.377149  -0.030850  -0.020959
    14  N    0.002778  -0.021857  -0.011822  -0.000066   0.000000   0.000005
    15  O    0.000291  -0.004676   0.003659  -0.000029  -0.000001   0.000000
    16  O   -0.000056   0.007953   0.000269   0.000001  -0.000000  -0.000000
    17  H   -0.003379  -0.029219   0.377804   0.003865   0.002597  -0.000392
    18  H    0.003958  -0.025598   0.387606   0.005471  -0.000221  -0.000143
    19  H    0.003822   0.003607  -0.032173  -0.025924  -0.007382   0.003092
    20  H    0.000807   0.003055  -0.033588  -0.039337   0.007816  -0.014722
               7          8          9         10         11         12
     1  N    0.310553  -0.026716  -0.054110  -0.027782  -0.046901  -0.015273
     2  C   -0.042428   0.003114  -0.002903  -0.005604   0.402591  -0.051532
     3  C    0.008732  -0.000208  -0.000661  -0.000033  -0.070482   0.007401
     4  C   -0.045975  -0.005370   0.000956   0.003690   0.006546  -0.000134
     5  H    0.000350   0.000501   0.002809  -0.000639   0.000221   0.000009
     6  H    0.000081   0.002539  -0.001341   0.000941  -0.000518  -0.000012
     7  C    4.739008   0.391195   0.399642   0.402125  -0.009493   0.009890
     8  H    0.391195   0.563644  -0.025688  -0.026238   0.000284  -0.000088
     9  H    0.399642  -0.025688   0.602047  -0.071972   0.009509   0.000716
    10  H    0.402125  -0.026238  -0.071972   0.579837   0.003445   0.000622
    11  C   -0.009493   0.000284   0.009509   0.003445   5.192881   0.373275
    12  H    0.009890  -0.000088   0.000716   0.000622   0.373275   0.641093
    13  C    0.005585   0.000355   0.000013  -0.000439   0.008404  -0.000271
    14  N   -0.000158  -0.000001   0.000008   0.000074   0.289315  -0.036851
    15  O    0.000009   0.000000  -0.000003  -0.000001  -0.083215   0.005333
    16  O    0.000001  -0.000000  -0.000010  -0.000007  -0.077762   0.002250
    17  H   -0.000275   0.000003   0.000065  -0.000009  -0.002696  -0.000111
    18  H   -0.000186   0.000005  -0.000013   0.000014  -0.005684  -0.000240
    19  H   -0.000096  -0.000008   0.000016  -0.000000  -0.000192   0.000005
    20  H   -0.000261  -0.000014   0.000011   0.000013   0.000024   0.000009
              13         14         15         16         17         18
     1  N   -0.049495   0.002778   0.000291  -0.000056  -0.003379   0.003958
     2  C   -0.051093  -0.021857  -0.004676   0.007953  -0.029219  -0.025598
     3  C    0.306851  -0.011822   0.003659   0.000269   0.377804   0.387606
     4  C    0.377149  -0.000066  -0.000029   0.000001   0.003865   0.005471
     5  H   -0.030850   0.000000  -0.000001  -0.000000   0.002597  -0.000221
     6  H   -0.020959   0.000005   0.000000  -0.000000  -0.000392  -0.000143
     7  C    0.005585  -0.000158   0.000009   0.000001  -0.000275  -0.000186
     8  H    0.000355  -0.000001   0.000000  -0.000000   0.000003   0.000005
     9  H    0.000013   0.000008  -0.000003  -0.000010   0.000065  -0.000013
    10  H   -0.000439   0.000074  -0.000001  -0.000007  -0.000009   0.000014
    11  C    0.008404   0.289315  -0.083215  -0.077762  -0.002696  -0.005684
    12  H   -0.000271  -0.036851   0.005333   0.002250  -0.000111  -0.000240
    13  C    4.969648   0.000203   0.001232   0.000003  -0.046164  -0.034215
    14  N    0.000203   5.790886   0.309259   0.270240   0.000442   0.001411
    15  O    0.001232   0.309259   8.322439  -0.098936   0.000142   0.011218
    16  O    0.000003   0.270240  -0.098936   8.338469  -0.000009   0.000024
    17  H   -0.046164   0.000442   0.000142  -0.000009   0.589583  -0.016980
    18  H   -0.034215   0.001411   0.011218   0.000024  -0.016980   0.523839
    19  H    0.369219  -0.000002  -0.000007  -0.000000  -0.013088   0.001691
    20  H    0.408175  -0.000009  -0.000012  -0.000000   0.005671  -0.007805
              19         20
     1  N    0.003822   0.000807
     2  C    0.003607   0.003055
     3  C   -0.032173  -0.033588
     4  C   -0.025924  -0.039337
     5  H   -0.007382   0.007816
     6  H    0.003092  -0.014722
     7  C   -0.000096  -0.000261
     8  H   -0.000008  -0.000014
     9  H    0.000016   0.000011
    10  H   -0.000000   0.000013
    11  C   -0.000192   0.000024
    12  H    0.000005   0.000009
    13  C    0.369219   0.408175
    14  N   -0.000002  -0.000009
    15  O   -0.000007  -0.000012
    16  O   -0.000000  -0.000000
    17  H   -0.013088   0.005671
    18  H    0.001691  -0.007805
    19  H    0.630893  -0.028823
    20  H   -0.028823   0.582552
 Mulliken charges:
               1
     1  N   -0.492515
     2  C    0.374590
     3  C   -0.217236
     4  C    0.057198
     5  H    0.105442
     6  H    0.077463
     7  C   -0.168301
     8  H    0.122690
     9  H    0.140908
    10  H    0.141963
    11  C    0.010446
    12  H    0.063910
    13  C   -0.213350
    14  N    0.406145
    15  O   -0.466704
    16  O   -0.442431
    17  H    0.132148
    18  H    0.155848
    19  H    0.095349
    20  H    0.116438
 Sum of Mulliken charges =  -0.00000
 Mulliken charges with hydrogens summed into heavy atoms:
               1
     1  N   -0.492515
     2  C    0.374590
     3  C    0.070761
     4  C    0.240102
     7  C    0.237259
    11  C    0.074356
    13  C   -0.001563
    14  N    0.406145
    15  O   -0.466704
    16  O   -0.442431
 Electronic spatial extent (au):  <R**2>=           1593.6828
 Charge=             -0.0000 electrons
 Dipole moment (field-independent basis, Debye):
    X=              8.1913    Y=              1.5240    Z=             -0.1077  Tot=              8.3325
 Quadrupole moment (field-independent basis, Debye-Ang):
   XX=            -70.0422   YY=            -54.8260   ZZ=            -57.1603
   XY=              0.7433   XZ=              0.5279   YZ=              0.1213
 Traceless Quadrupole moment (field-independent basis, Debye-Ang):
   XX=             -9.3661   YY=              5.8502   ZZ=              3.5159
   XY=              0.7433   XZ=              0.5279   YZ=              0.1213
 Octapole moment (field-independent basis, Debye-Ang**2):
  XXX=             62.8359  YYY=             13.5658  ZZZ=             -0.1128  XYY=             11.0742
  XXY=              3.3924  XXZ=             -1.2418  XZZ=             -5.5339  YZZ=             -2.9421
  YYZ=             -0.4951  XYZ=             -0.3488
 Hexadecapole moment (field-independent basis, Debye-Ang**3):
 XXXX=          -1463.7147 YYYY=           -537.9490 ZZZZ=            -76.4115 XXXY=             35.8965
 XXXZ=             -2.1692 YYYX=             13.4751 YYYZ=             -1.3577 ZZZX=             -2.0890
 ZZZY=              0.8128 XXYY=           -326.5799 XXZZ=           -228.6149 YYZZ=           -104.5114
 XXYZ=              1.7986 YYXZ=              2.4686 ZZXY=             -1.2832
 N-N= 5.571623990834D+02 E-N=-2.267663317953D+03  KE= 4.919987407223D+02
 No NMR shielding tensors so no spin-rotation constants.
 Leave Link  601 at Fri Aug 20 15:50:43 2021, MaxMem= 24159191040 cpu:        10.9
 (Enter /public/home/users/caep010/software/Gaussian09/g09/l701.exe)
 Compute integral first derivatives.
 ... and contract with generalized density number  0.
 Leave Link  701 at Fri Aug 20 15:50:44 2021, MaxMem= 24159191040 cpu:        13.1
 (Enter /public/home/users/caep010/software/Gaussian09/g09/l702.exe)
 L702 exits ... SP integral derivatives will be done elsewhere.
 Leave Link  702 at Fri Aug 20 15:50:44 2021, MaxMem= 24159191040 cpu:         0.5
 (Enter /public/home/users/caep010/software/Gaussian09/g09/l703.exe)
 Compute integral first derivatives, UseDBF=F ICtDFT=           0.
 Integral derivatives from FoFJK, PRISM(SPDF).
 Calling FoFJK, ICntrl=      2127 FMM=F ISym2X=0 I1Cent= 0 IOpClX= 0 NMat=1 NMatS=1 NMatT=0.
 FoFJK:  IHMeth= 1 ICntrl=    2127 DoSepK=F KAlg= 0 I1Cent=   0 FoldK=F
 IRaf=         0 NMat=   1 IRICut=       1 DoRegI=T DoRafI=F ISym2E= 0.
 FoFCou: FMM=F IPFlag=           0 FMFlag=      100000 FMFlg1=         800
         NFxFlg=           0 DoJE=F BraDBF=F KetDBF=F FulRan=T
         wScrn=  0.000000 ICntrl=    2127 IOpCl=  0 I1Cent=           0 NGrid=           0
         NMat0=    1 NMatS0=      1 NMatT0=    0 NMatD0=    1 NMtDS0=    0 NMtDT0=    0
 Symmetry not used in FoFCou.
 Leave Link  703 at Fri Aug 20 15:50:44 2021, MaxMem= 24159191040 cpu:        21.2
 (Enter /public/home/users/caep010/software/Gaussian09/g09/l716.exe)
 Dipole        = 3.22269137D+00 5.99589575D-01-4.23718637D-02
 ***** Axes restored to original set *****
 -------------------------------------------------------------------
 Center     Atomic                   Forces (Hartrees/Bohr)
 Number     Number              X              Y              Z
 -------------------------------------------------------------------
      1        7           0.015872271   -0.039948867    0.016851580
      2        6           0.005661429    0.024798154    0.001891614
      3        6           0.011926376   -0.028896368   -0.085221032
      4        6           0.003684108    0.384527985   -0.127010695
      5        1           0.011297554    0.007869625   -0.028818767
      6        1          -0.006198359   -0.400317992    0.135626692
      7        6           0.122864863   -0.080789663    0.030270472
      8        1          -0.001370249    0.018914181    0.008812782
      9        1          -0.023949181    0.069832974   -0.143179778
     10        1          -0.118329990   -0.005492300    0.083742988
     11        6           0.124405112    0.042409345    0.045087149
     12        1          -0.133117898   -0.053933358   -0.046605179
     13        6           0.060893568    0.110233747   -0.240213761
     14        7          -0.011117510    0.023571091   -0.002381832
     15        8           0.020128362   -0.001947294    0.007150125
     16        8          -0.022311649    0.002899328   -0.003781496
     17        1          -0.021640653   -0.006856839    0.042115075
     18        1           0.003931116    0.044205179    0.047338354
     19        1          -0.046850052   -0.027157026    0.023037963
     20        1           0.004220783   -0.083921903    0.235287749
 -------------------------------------------------------------------
 Cartesian Forces:  Max     0.400317992 RMS     0.101195315
 Leave Link  716 at Fri Aug 20 15:50:45 2021, MaxMem= 24159191040 cpu:         0.6
 (Enter /public/home/users/caep010/software/Gaussian09/g09/l103.exe)

 GradGradGradGradGradGradGradGradGradGradGradGradGradGradGradGradGradGrad
 Berny optimization.
 FormGI is forming the generalized inverse of G from B-inverse, IUseBI=4.
 Internal  Forces:  Max     0.422144196 RMS     0.056125001
 Search for a local minimum.
 Step number   1 out of a maximum of  114
 All quantities printed in internal units (Hartrees-Bohrs-Radians)
 RMS Force = .56125D-01 SwitMx=.10000D-02 MixMth= 1
 Mixed Optimization -- RFO/linear search
 Second derivative matrix not updated -- first step.
 ITU=  0
     Eigenvalues ---    0.00610   0.01235   0.01392   0.01534   0.01841
     Eigenvalues ---    0.01996   0.02006   0.02336   0.02644   0.03386
     Eigenvalues ---    0.03876   0.04940   0.05526   0.05892   0.06236
     Eigenvalues ---    0.06430   0.06902   0.07487   0.08028   0.08202
     Eigenvalues ---    0.08561   0.09454   0.11057   0.15954   0.16000
     Eigenvalues ---    0.16000   0.16000   0.21701   0.22013   0.23508
     Eigenvalues ---    0.23554   0.24389   0.24905   0.25000   0.25000
     Eigenvalues ---    0.26043   0.28229   0.29956   0.31359   0.31466
     Eigenvalues ---    0.36401   0.38010   0.42063   0.45652   0.49659
     Eigenvalues ---    0.53351   0.56846   0.58979   0.59305   0.60129
     Eigenvalues ---    0.74186   0.88902   0.89828   1.01168
 RFO step:  Lambda=-3.03024883D-01 EMin= 6.09566077D-03
 Linear search not attempted -- first point.
 Maximum step size (   0.300) exceeded in Quadratic search.
    -- Step size scaled by   0.554
 Iteration  1 RMS(Cart)=  0.03150146 RMS(Int)=  0.00042385
 Iteration  2 RMS(Cart)=  0.00041184 RMS(Int)=  0.00005331
 Iteration  3 RMS(Cart)=  0.00000031 RMS(Int)=  0.00005330
 ITry= 1 IFail=0 DXMaxC= 1.70D-01 DCOld= 1.00D+10 DXMaxT= 3.00D-01 DXLimC= 3.00D+00 Rises=F
 Variable       Old X    -DE/DX   Delta X   Delta X   Delta X     New X
                                 (Linear)    (Quad)   (Total)
    R1        2.48851   0.03460   0.00000   0.02143   0.02143   2.50994
    R2        2.74717   0.00886   0.00000   0.00801   0.00801   2.75517
    R3        2.68843   0.02323   0.00000   0.01778   0.01778   2.70621
    R4        2.84988   0.00937   0.00000   0.00840   0.00840   2.85828
    R5        2.56627   0.02538   0.00000   0.01681   0.01681   2.58308
    R6        2.89885   0.01847   0.00000   0.01585   0.01585   2.91470
    R7        2.23327  -0.04497   0.00000  -0.04420  -0.04420   2.18907
    R8        1.91226   0.06240   0.00000   0.04550   0.04550   1.95776
    R9        2.01050   0.03045   0.00000   0.02469   0.02469   2.03519
   R10        1.54874   0.42214   0.00000   0.17783   0.17783   1.72658
   R11        2.84310   0.01859   0.00000   0.01595   0.01595   2.85904
   R12        2.11831  -0.02023   0.00000  -0.01814  -0.01814   2.10018
   R13        1.78457   0.15985   0.00000   0.09916   0.09916   1.88373
   R14        1.80228   0.14236   0.00000   0.09047   0.09047   1.89275
   R15        1.77538   0.15015   0.00000   0.09196   0.09196   1.86734
   R16        2.60211   0.02429   0.00000   0.01682   0.01682   2.61893
   R17        2.29861  -0.05657   0.00000  -0.05823  -0.05823   2.24039
   R18        1.67912   0.24955   0.00000   0.13228   0.13228   1.81139
   R19        2.33443   0.01768   0.00000   0.00821   0.00821   2.34265
   R20        2.33012   0.02120   0.00000   0.00978   0.00978   2.33990
    A1        1.97849  -0.00036   0.00000   0.00136   0.00136   1.97985
    A2        2.20819  -0.00792   0.00000  -0.00887  -0.00887   2.19932
    A3        2.08178   0.00840   0.00000   0.00765   0.00765   2.08943
    A4        1.91423  -0.00533   0.00000  -0.00441  -0.00440   1.90983
    A5        2.12587   0.00286   0.00000   0.00242   0.00241   2.12828
    A6        2.24084   0.00254   0.00000   0.00211   0.00210   2.24294
    A7        1.79522   0.00495   0.00000   0.00437   0.00436   1.79958
    A8        1.85460  -0.00226   0.00000  -0.00190  -0.00195   1.85264
    A9        1.89612   0.00274   0.00000   0.00491   0.00490   1.90102
   A10        1.85107   0.00750   0.00000   0.01098   0.01098   1.86205
   A11        1.98628  -0.00071   0.00000  -0.00005  -0.00008   1.98620
   A12        2.05847  -0.01038   0.00000  -0.01593  -0.01591   2.04255
   A13        1.90597   0.00163   0.00000   0.00223   0.00224   1.90821
   A14        2.01346  -0.00759   0.00000  -0.01014  -0.01015   2.00331
   A15        1.80915   0.00193   0.00000   0.00107   0.00105   1.81020
   A16        1.77030   0.00770   0.00000   0.01133   0.01135   1.78165
   A17        1.95033  -0.00256   0.00000  -0.00226  -0.00226   1.94807
   A18        2.01709  -0.00121   0.00000  -0.00218  -0.00221   2.01488
   A19        1.99286  -0.00901   0.00000  -0.01258  -0.01277   1.98010
   A20        1.85752   0.01109   0.00000   0.01514   0.01522   1.87274
   A21        2.03176  -0.01520   0.00000  -0.01834  -0.01851   2.01325
   A22        1.91581  -0.00393   0.00000  -0.00491  -0.00485   1.91096
   A23        1.93892   0.00432   0.00000   0.00274   0.00241   1.94133
   A24        1.69900   0.01800   0.00000   0.02546   0.02557   1.72456
   A25        2.05962   0.00998   0.00000   0.01253   0.01253   2.07214
   A26        2.13060   0.00802   0.00000   0.00851   0.00850   2.13910
   A27        2.08831  -0.01787   0.00000  -0.02082  -0.02082   2.06748
   A28        1.82494  -0.00177   0.00000  -0.00337  -0.00335   1.82158
   A29        1.79002   0.01117   0.00000   0.01638   0.01639   1.80640
   A30        1.98965  -0.00467   0.00000  -0.00608  -0.00607   1.98358
   A31        1.99842  -0.00662   0.00000  -0.00861  -0.00860   1.98982
   A32        1.88509   0.00737   0.00000   0.01004   0.01003   1.89512
   A33        1.97186  -0.00571   0.00000  -0.00861  -0.00859   1.96327
   A34        2.14403  -0.01254   0.00000  -0.01253  -0.01253   2.13149
   A35        2.03542  -0.00293   0.00000  -0.00290  -0.00291   2.03251
   A36        2.10300   0.01560   0.00000   0.01566   0.01566   2.11865
    D1       -0.05026   0.00045   0.00000   0.00019   0.00020  -0.05007
    D2        3.02486   0.00158   0.00000   0.00196   0.00195   3.02681
    D3       -3.00532  -0.00130   0.00000  -0.00169  -0.00168  -3.00700
    D4        0.06980  -0.00017   0.00000   0.00008   0.00008   0.06988
    D5       -1.77972   0.00161   0.00000   0.00234   0.00233  -1.77739
    D6        2.52403  -0.00467   0.00000  -0.00740  -0.00739   2.51664
    D7        0.30128   0.00044   0.00000   0.00134   0.00134   0.30262
    D8        1.19016   0.00138   0.00000   0.00219   0.00218   1.19235
    D9       -0.78927  -0.00491   0.00000  -0.00756  -0.00754  -0.79681
   D10       -3.01202   0.00021   0.00000   0.00119   0.00119  -3.01083
   D11        3.07946   0.00571   0.00000   0.00879   0.00865   3.08812
   D12        0.96307   0.00841   0.00000   0.01207   0.01205   0.97512
   D13       -0.90746  -0.01309   0.00000  -0.01947  -0.01932  -0.92678
   D14        0.13432   0.00484   0.00000   0.00755   0.00742   0.14173
   D15       -1.98208   0.00754   0.00000   0.01083   0.01081  -1.97127
   D16        2.43058  -0.01396   0.00000  -0.02072  -0.02056   2.41003
   D17       -0.21704  -0.00134   0.00000  -0.00182  -0.00182  -0.21885
   D18        1.72432   0.00810   0.00000   0.01136   0.01135   1.73566
   D19       -2.32759  -0.00442   0.00000  -0.00637  -0.00639  -2.33398
   D20        2.99664  -0.00254   0.00000  -0.00372  -0.00371   2.99293
   D21       -1.34519   0.00689   0.00000   0.00945   0.00945  -1.33574
   D22        0.88609  -0.00563   0.00000  -0.00827  -0.00828   0.87780
   D23        0.12118  -0.00139   0.00000  -0.00259  -0.00260   0.11857
   D24       -3.12446  -0.00096   0.00000  -0.00148  -0.00146  -3.12592
   D25       -3.10030  -0.00035   0.00000  -0.00073  -0.00074  -3.10104
   D26       -0.06275   0.00008   0.00000   0.00038   0.00040  -0.06235
   D27        0.38435   0.00172   0.00000   0.00217   0.00218   0.38653
   D28        2.47511  -0.00158   0.00000  -0.00176  -0.00175   2.47337
   D29       -1.67039  -0.00365   0.00000  -0.00466  -0.00466  -1.67505
   D30       -1.55963  -0.00044   0.00000  -0.00141  -0.00143  -1.56105
   D31        0.53114  -0.00374   0.00000  -0.00534  -0.00535   0.52578
   D32        2.66882  -0.00581   0.00000  -0.00824  -0.00827   2.66056
   D33        2.43204   0.00769   0.00000   0.01071   0.01071   2.44275
   D34       -1.76038   0.00439   0.00000   0.00678   0.00678  -1.75359
   D35        0.37731   0.00233   0.00000   0.00387   0.00387   0.38118
   D36       -0.41293  -0.00098   0.00000  -0.00137  -0.00136  -0.41430
   D37       -2.35769  -0.01020   0.00000  -0.01492  -0.01493  -2.37261
   D38        1.71210  -0.00365   0.00000  -0.00520  -0.00520   1.70689
   D39        1.63738   0.00082   0.00000   0.00079   0.00079   1.63817
   D40       -0.30738  -0.00839   0.00000  -0.01277  -0.01277  -0.32015
   D41       -2.52078  -0.00185   0.00000  -0.00305  -0.00305  -2.52383
   D42       -2.63341   0.00814   0.00000   0.01238   0.01238  -2.62102
   D43        1.70502  -0.00108   0.00000  -0.00118  -0.00118   1.70384
   D44       -0.50838   0.00547   0.00000   0.00854   0.00854  -0.49983
   D45        0.03330  -0.00245   0.00000  -0.00397  -0.00396   0.02934
   D46        3.13373   0.00147   0.00000   0.00276   0.00277   3.13650
   D47        3.06918  -0.00038   0.00000  -0.00088  -0.00089   3.06829
   D48       -0.11357   0.00355   0.00000   0.00585   0.00584  -0.10773
         Item               Value     Threshold  Converged?
 Maximum Force            0.422144     0.000450     NO 
 RMS     Force            0.056125     0.000300     NO 
 Maximum Displacement     0.169580     0.001800     NO 
 RMS     Displacement     0.031524     0.001200     NO 
 Predicted change in Energy=-1.353932D-01
 Lowest energy point so far.  Saving SCF results.
 GradGradGradGradGradGradGradGradGradGradGradGradGradGradGradGradGradGrad

 Leave Link  103 at Fri Aug 20 15:50:45 2021, MaxMem= 24159191040 cpu:         3.9
 (Enter /public/home/users/caep010/software/Gaussian09/g09/l202.exe)
                          Input orientation:                          
 ---------------------------------------------------------------------
 Center     Atomic      Atomic             Coordinates (Angstroms)
 Number     Number       Type             X           Y           Z
 ---------------------------------------------------------------------
      1          7           0        3.118559   -2.442130    0.384204
      2          6           0        3.081576   -1.164803    0.746406
      3          6           0        4.451084   -0.738125    1.226147
      4          6           0        4.446709   -3.035123    0.484546
      5          1           0        4.887486   -3.090493   -0.496540
      6          1           0        4.456638   -3.909838    0.748292
      7          6           0        2.066224   -3.163768   -0.265899
      8          1           0        2.340206   -4.209813   -0.522531
      9          1           0        1.836156   -2.666393   -1.098578
     10          1           0        1.174415   -3.123431    0.188248
     11          6           0        1.956899   -0.402679    0.595743
     12          1           0        1.121820   -0.841412    0.301462
     13          6           0        5.200436   -2.077337    1.380946
     14          7           0        1.909522    0.935692    0.952365
     15          8           0        2.897690    1.533135    1.403342
     16          8           0        0.834323    1.519549    0.761978
     17          1           0        4.944581   -0.181530    0.338136
     18          1           0        4.347652   -0.212010    2.112602
     19          1           0        6.296474   -1.826224    1.005184
     20          1           0        5.189551   -2.422967    2.274947
 ---------------------------------------------------------------------
                    Distance matrix (angstroms):
                    1          2          3          4          5
     1  N    0.000000
     2  C    1.328202   0.000000
     3  C    2.321233   1.512534   0.000000
     4  C    1.457975   2.330291   2.413751   0.000000
     5  H    2.079709   2.917963   2.948175   1.076978   0.000000
     6  H    2.019203   3.070182   3.207513   0.913666   1.551310
     7  C    1.432063   2.459992   3.714499   2.499285   2.831622
     8  H    2.133707   3.381111   4.423381   2.613706   2.782479
     9  H    1.973194   2.685108   3.995048   3.075261   3.138937
    10  H    2.069364   2.790166   4.183716   3.286868   3.775834
    11  C    2.356600   1.366905   2.594396   3.625090   4.123805
    12  H    2.560491   2.035485   3.456835   3.987578   4.458186
    13  C    2.336831   2.392683   1.542395   1.512941   2.156241
    14  N    3.632390   2.414168   3.055512   4.735350   5.213229
    15  O    4.109764   2.782849   2.757363   4.910461   5.380221
    16  O    4.588611   3.500876   4.288765   5.819909   6.266138
    17  H    2.906336   2.145763   1.158404   2.900397   3.026881
    18  H    3.077575   2.092190   1.036001   3.260422   3.922335
    19  H    3.296073   3.292418   2.153659   2.270272   2.416361
    20  H    2.804333   2.891881   2.117548   2.032753   2.866701
                    6          7          8          9         10
     6  H    0.000000
     7  C    2.701718   0.000000
     8  H    2.486817   1.111367   0.000000
     9  H    3.438605   0.996828   1.722800   0.000000
    10  H    3.421268   1.001599   1.744850   1.517467   0.000000
    11  C    4.309539   2.894477   3.986444   2.830143   2.860215
    12  H    4.553670   2.570436   3.675535   2.408516   2.285431
    13  C    2.076426   3.703474   4.043711   4.220593   4.327319
    14  N    5.478011   4.279521   5.370012   4.145693   4.195324
    15  O    5.699593   5.053573   6.082864   5.002249   5.111726
    16  O    6.526837   4.950513   6.061620   4.689078   4.690639
    17  H    3.782406   4.188501   4.873456   4.230957   4.784496
    18  H    3.942988   4.424372   5.191936   4.758497   4.716879
    19  H    2.791494   4.615159   4.864922   5.002613   5.346552
    20  H    2.253580   4.093880   4.374639   4.762896   4.578895
                   11         12         13         14         15
    11  C    0.000000
    12  H    0.988153   0.000000
    13  C    3.733839   4.396352   0.000000
    14  N    1.385879   2.049938   4.482426   0.000000
    15  O    2.298843   3.163278   4.282365   1.239675   0.000000
    16  O    2.232212   2.422574   5.690664   1.238220   2.160790
    17  H    3.006910   3.879470   2.178761   3.291966   2.874805
    18  H    2.837766   3.752649   2.177615   2.933913   2.377177
    19  H    4.585415   5.314332   1.185561   5.184237   4.795368
    20  H    4.165492   4.789822   0.958549   4.877336   4.654360
                   16         17         18         19         20
    16  O    0.000000
    17  H    4.468505   0.000000
    18  H    4.143183   1.872427   0.000000
    19  H    6.410026   2.231050   2.762239   0.000000
    20  H    6.066343   2.972421   2.371388   1.787087   0.000000
 Stoichiometry    C6H10N2O2
 Framework group  C1[X(C6H10N2O2)]
 Deg. of freedom    54
 Full point group                 C1      NOp   1
 RotChk:  IX=0 Diff= 8.87D-03
 Largest Abelian subgroup         C1      NOp   1
 Largest concise Abelian subgroup C1      NOp   1
                         Standard orientation:                         
 ---------------------------------------------------------------------
 Center     Atomic      Atomic             Coordinates (Angstroms)
 Number     Number       Type             X           Y           Z
 ---------------------------------------------------------------------
      1          7           0        1.375622    0.689833   -0.055669
      2          6           0        0.221121    0.033313   -0.040542
      3          6           0        0.488135   -1.451360    0.069957
      4          6           0        2.537523   -0.176552    0.102613
      5          1           0        2.896285   -0.110270    1.115914
      6          1           0        3.272454    0.076897   -0.377414
      7          6           0        1.536632    2.111504    0.005442
      8          1           0        2.599374    2.435488    0.032794
      9          1           0        1.071342    2.427421    0.828465
     10          1           0        1.016275    2.631628   -0.674190
     11          6           0       -0.980934    0.684073   -0.042515
     12          1           0       -0.989516    1.665414   -0.158022
     13          6           0        2.001331   -1.556398   -0.209661
     14          7           0       -2.192746    0.012493   -0.008566
     15          8           0       -2.259777   -1.223652    0.056584
     16          8           0       -3.212681    0.714577   -0.008652
     17          1           0        0.336313   -1.723868    1.185568
     18          1           0       -0.100381   -1.950861   -0.621018
     19          1           0        2.364288   -2.396821    0.543669
     20          1           0        2.210259   -1.766182   -1.121338
 ---------------------------------------------------------------------
 Rotational constants (GHZ):      2.5669183      0.9114435      0.6849890
 Leave Link  202 at Fri Aug 20 15:50:45 2021, MaxMem= 24159191040 cpu:         0.3
 (Enter /public/home/users/caep010/software/Gaussian09/g09/l301.exe)
 Standard basis: 6-31G(d,p) (6D, 7F)
 Ernie: Thresh=  0.10000D-02 Tol=  0.10000D-05 Strict=F.
 There are   200 symmetry adapted cartesian basis functions of A   symmetry.
 There are   200 symmetry adapted basis functions of A   symmetry.
   200 basis functions,   350 primitive gaussians,   200 cartesian basis functions
    38 alpha electrons       38 beta electrons
       nuclear repulsion energy       552.5020727530 Hartrees.
 IExCor=  402 DFT=T Ex+Corr=B3LYP ExCW=0 ScaHFX=  0.200000
 ScaDFX=  0.800000  0.720000  1.000000  0.810000 ScalE2=  1.000000  1.000000
 IRadAn=      0 IRanWt=     -1 IRanGd=            0 ICorTp=0 IEmpDi=  4
 NAtoms=   20 NActive=   20 NUniq=   20 SFac= 1.00D+00 NAtFMM=   60 NAOKFM=F Big=F
 Integral buffers will be    131072 words long.
 Raffenetti 2 integral format.
 Two-electron integral symmetry is turned on.
 Leave Link  301 at Fri Aug 20 15:50:45 2021, MaxMem= 24159191040 cpu:         1.6
 (Enter /public/home/users/caep010/software/Gaussian09/g09/l302.exe)
 NPDir=0 NMtPBC=     1 NCelOv=     1 NCel=       1 NClECP=     1 NCelD=      1
         NCelK=      1 NCelE2=     1 NClLst=     1 CellRange=     0.0.
 One-electron integrals computed using PRISM.
 NBasis=   200 RedAO= T EigKep=  1.24D-03  NBF=   200
 NBsUse=   200 1.00D-06 EigRej= -1.00D+00 NBFU=   200
 Precomputing XC quadrature grid using
 IXCGrd= 4 IRadAn=           0 IRanWt=          -1 IRanGd=           0 AccXCQ= 0.00D+00.
 Generated NRdTot=       0 NPtTot=           0 NUsed=           0 NTot=          32
 NSgBfM=   199   199   200   200   200 MxSgAt=    20 MxSgA2=    20.
 Leave Link  302 at Fri Aug 20 15:50:45 2021, MaxMem= 24159191040 cpu:        12.4
 (Enter /public/home/users/caep010/software/Gaussian09/g09/l303.exe)
 DipDrv:  MaxL=1.
 Leave Link  303 at Fri Aug 20 15:50:45 2021, MaxMem= 24159191040 cpu:         0.8
 (Enter /public/home/users/caep010/software/Gaussian09/g09/l401.exe)
 Initial guess from the checkpoint file:  "/public/home/users/caep010/.cache/gau_scr/Gau-132911.chk"
 B after Tr=     0.000000   -0.000000   -0.000000
         Rot=    0.999998    0.000649    0.000084   -0.002019 Ang=   0.24 deg.
 Guess basis will be translated and rotated to current coordinates.
 JPrj=2 DoOrth=T DoCkMO=T.
 Generating alternative initial guess.
 ExpMin= 1.61D-01 ExpMax= 5.48D+03 ExpMxC= 8.25D+02 IAcc=1 IRadAn=         1 AccDes= 0.00D+00
 Harris functional with IExCor=  402 and IRadAn=       1 diagonalized for initial guess.
 HarFok:  IExCor=  402 AccDes= 0.00D+00 IRadAn=         1 IDoV= 1 UseB2=F ITyADJ=14
 ICtDFT=  3500011 ScaDFX=  1.000000  1.000000  1.000000  1.000000
 FoFCou: FMM=F IPFlag=           0 FMFlag=      100000 FMFlg1=           0
         NFxFlg=           0 DoJE=T BraDBF=F KetDBF=T FulRan=T
         wScrn=  0.000000 ICntrl=     500 IOpCl=  0 I1Cent=   200000004 NGrid=           0
         NMat0=    1 NMatS0=      1 NMatT0=    0 NMatD0=    1 NMtDS0=    0 NMtDT0=    0
 Petite list used in FoFCou.
 Harris En= -494.504933312369    
 Leave Link  401 at Fri Aug 20 15:50:46 2021, MaxMem= 24159191040 cpu:        13.4
 (Enter /public/home/users/caep010/software/Gaussian09/g09/l502.exe)
 Closed shell SCF:
 Using DIIS extrapolation, IDIIS=  1040.
 Integral symmetry usage will be decided dynamically.
 Keep R1 ints in memory in canonical form, NReq=206221710.
 IVT=      146460 IEndB=      146460 NGot= 24159191040 MDV= 23957029531
 LenX= 23957029531 LenY= 23956989090
 Requested convergence on RMS density matrix=1.00D-08 within 128 cycles.
 Requested convergence on MAX density matrix=1.00D-06.
 Requested convergence on             energy=1.00D-06.
 No special actions if energy rises.
 FoFCou: FMM=F IPFlag=           0 FMFlag=           0 FMFlg1=           0
         NFxFlg=           0 DoJE=F BraDBF=F KetDBF=F FulRan=T
         wScrn=  0.000000 ICntrl=     600 IOpCl=  0 I1Cent=           0 NGrid=           0
         NMat0=    1 NMatS0=  20100 NMatT0=    0 NMatD0=    1 NMtDS0=    0 NMtDT0=    0
 Symmetry not used in FoFCou.
 Integral accuracy reduced to 1.0D-05 until final iterations.

 Cycle   1  Pass 0  IDiag  1:
 E= -494.423514969885    
 DIIS: error= 3.00D-03 at cycle   1 NSaved=   1.
 NSaved= 1 IEnMin= 1 EnMin= -494.423514969885     IErMin= 1 ErrMin= 3.00D-03
 ErrMax= 3.00D-03  0.00D+00 EMaxC= 1.00D-01 BMatC= 4.16D-03 BMatP= 4.16D-03
 IDIUse=3 WtCom= 9.70D-01 WtEn= 3.00D-02
 Coeff-Com:  0.100D+01
 Coeff-En:   0.100D+01
 Coeff:      0.100D+01
 Gap=     1.701 Goal=   None    Shift=    0.000
 GapD=    1.701 DampG=2.000 DampE=1.000 DampFc=2.0000 IDamp=-1.
 RMSDP=6.02D-04 MaxDP=1.75D-02              OVMax= 1.43D-02

 Cycle   2  Pass 0  IDiag  1:
 E= -494.427655963196     Delta-E=       -0.004140993311 Rises=F Damp=F
 DIIS: error= 1.20D-03 at cycle   2 NSaved=   2.
 NSaved= 2 IEnMin= 2 EnMin= -494.427655963196     IErMin= 2 ErrMin= 1.20D-03
 ErrMax= 1.20D-03  0.00D+00 EMaxC= 1.00D-01 BMatC= 7.55D-04 BMatP= 4.16D-03
 IDIUse=3 WtCom= 9.88D-01 WtEn= 1.20D-02
 Coeff-Com:  0.240D+00 0.760D+00
 Coeff-En:   0.000D+00 0.100D+01
 Coeff:      0.237D+00 0.763D+00
 Gap=     0.180 Goal=   None    Shift=    0.000
 RMSDP=2.16D-04 MaxDP=7.07D-03 DE=-4.14D-03 OVMax= 1.09D-02

 Cycle   3  Pass 0  IDiag  1:
 E= -494.428084674538     Delta-E=       -0.000428711342 Rises=F Damp=F
 DIIS: error= 7.50D-04 at cycle   3 NSaved=   3.
 NSaved= 3 IEnMin= 3 EnMin= -494.428084674538     IErMin= 3 ErrMin= 7.50D-04
 ErrMax= 7.50D-04  0.00D+00 EMaxC= 1.00D-01 BMatC= 3.44D-04 BMatP= 7.55D-04
 IDIUse=3 WtCom= 9.92D-01 WtEn= 7.50D-03
 Coeff-Com:  0.386D-01 0.403D+00 0.558D+00
 Coeff-En:   0.000D+00 0.295D+00 0.705D+00
 Coeff:      0.384D-01 0.403D+00 0.559D+00
 Gap=     0.178 Goal=   None    Shift=    0.000
 RMSDP=1.15D-04 MaxDP=3.05D-03 DE=-4.29D-04 OVMax= 6.92D-03

 Cycle   4  Pass 0  IDiag  1:
 E= -494.428385790931     Delta-E=       -0.000301116393 Rises=F Damp=F
 DIIS: error= 3.00D-04 at cycle   4 NSaved=   4.
 NSaved= 4 IEnMin= 4 EnMin= -494.428385790931     IErMin= 4 ErrMin= 3.00D-04
 ErrMax= 3.00D-04  0.00D+00 EMaxC= 1.00D-01 BMatC= 3.42D-05 BMatP= 3.44D-04
 IDIUse=3 WtCom= 9.97D-01 WtEn= 3.00D-03
 Coeff-Com:  0.739D-02 0.181D+00 0.315D+00 0.497D+00
 Coeff-En:   0.000D+00 0.000D+00 0.000D+00 0.100D+01
 Coeff:      0.736D-02 0.181D+00 0.314D+00 0.498D+00
 Gap=     0.178 Goal=   None    Shift=    0.000
 RMSDP=3.28D-05 MaxDP=1.15D-03 DE=-3.01D-04 OVMax= 2.17D-03

 Cycle   5  Pass 0  IDiag  1:
 E= -494.428408702578     Delta-E=       -0.000022911647 Rises=F Damp=F
 DIIS: error= 1.21D-04 at cycle   5 NSaved=   5.
 NSaved= 5 IEnMin= 5 EnMin= -494.428408702578     IErMin= 5 ErrMin= 1.21D-04
 ErrMax= 1.21D-04  0.00D+00 EMaxC= 1.00D-01 BMatC= 4.28D-06 BMatP= 3.42D-05
 IDIUse=3 WtCom= 9.99D-01 WtEn= 1.21D-03
 Coeff-Com: -0.198D-02 0.407D-01 0.948D-01 0.291D+00 0.575D+00
 Coeff-En:   0.000D+00 0.000D+00 0.000D+00 0.883D-01 0.912D+00
 Coeff:     -0.198D-02 0.406D-01 0.947D-01 0.291D+00 0.576D+00
 Gap=     0.178 Goal=   None    Shift=    0.000
 RMSDP=9.11D-06 MaxDP=3.88D-04 DE=-2.29D-05 OVMax= 4.32D-04

 Initial convergence to 1.0D-05 achieved.  Increase integral accuracy.
 Cycle   6  Pass 1  IDiag  1:
 E= -494.428354989340     Delta-E=        0.000053713238 Rises=F Damp=F
 DIIS: error= 2.32D-05 at cycle   1 NSaved=   1.
 NSaved= 1 IEnMin= 1 EnMin= -494.428354989340     IErMin= 1 ErrMin= 2.32D-05
 ErrMax= 2.32D-05  0.00D+00 EMaxC= 1.00D-01 BMatC= 2.72D-07 BMatP= 2.72D-07
 IDIUse=1 WtCom= 1.00D+00 WtEn= 0.00D+00
 Coeff-Com:  0.100D+01
 Coeff:      0.100D+01
 Gap=     0.178 Goal=   None    Shift=    0.000
 RMSDP=9.11D-06 MaxDP=3.88D-04 DE= 5.37D-05 OVMax= 3.38D-04

 Cycle   7  Pass 1  IDiag  1:
 E= -494.428354718709     Delta-E=        0.000000270631 Rises=F Damp=F
 DIIS: error= 4.93D-05 at cycle   2 NSaved=   2.
 NSaved= 2 IEnMin= 1 EnMin= -494.428354989340     IErMin= 1 ErrMin= 2.32D-05
[...]
 3,0.00344577,-0.03326607,-0.00395039,-0.00524212,0.00025463,-0.0012771
 3,0.00052587,-0.00122724,-0.00086133,0.00092573,-0.00225248,0.00030770
 ,-0.00026006,0.00005301,0.00002335,0.00005592,0.00046023,-0.00033945,-
 0.06549730,0.06939959,0.00235719,0.07054472,0.00122978,-0.01900394,-0.
 00382353,-0.00305319,0.00129750,0.00034621,0.00057379,-0.00049344,-0.0
 0014629,0.00232351,0.00074262,0.00044730,-0.00036643,-0.00007208,0.000
 20611,-0.00087747,0.00062100,-0.00035178,0.05898886,-0.30473617,-0.008
 67666,-0.06269465,0.33175335,0.00333897,-0.01920136,-0.00357776,-0.002
 88276,-0.00035026,-0.00044350,0.00023312,-0.00070263,-0.00001121,0.000
 73413,-0.00082064,0.00104277,-0.00004874,0.00036237,-0.00011271,-0.000
 26965,0.00038805,-0.00006125,-0.00006124,-0.00383195,-0.04943838,0.003
 17845,0.01221035,0.04978237,-0.01258779,0.00121145,-0.03105566,-0.0006
 5040,0.00523653,0.00040885,-0.00043754,-0.00008878,0.00078063,0.002206
 08,-0.00110434,-0.00286742,-0.00028148,0.00012012,0.00085053,-0.000093
 75,0.00015907,0.00012475,-0.05229655,0.01157253,-0.02525479,-0.0008464
 1,0.00336582,-0.00730651,0.05959336,-0.00569157,0.00343722,-0.02131594
 ,-0.00171160,0.00489164,-0.00129886,-0.00043750,-0.00028070,0.00099987
 ,0.00059207,-0.00025332,-0.00094503,0.00018663,0.00004911,0.00032896,-
 0.00055518,0.00002361,-0.00010675,0.01183042,-0.08348311,0.08468905,0.
 00273460,-0.00930447,0.02967046,-0.00827162,0.08306719,-0.01354708,-0.
 00830749,-0.01307860,-0.00173076,0.00623434,0.00118211,-0.00031672,-0.
 00023937,0.00029478,0.00129704,-0.00065043,-0.00140133,-0.00056904,0.0
 0031458,0.00002594,-0.00018876,0.00030986,-0.00008600,-0.02535633,0.08
 419960,-0.26343663,0.00129154,-0.00033000,0.00318282,0.03853007,-0.087
 67032,0.28906619,-0.03024672,-0.00094301,0.00413463,-0.00079119,0.0042
 6629,0.00082291,-0.00010637,0.00026744,-0.00051656,-0.00008652,-0.0044
 3337,0.00022342,-0.00046796,0.00021983,0.00031263,0.00017825,0.0000617
 6,0.00002514,-0.22861955,0.02707569,0.11716627,-0.00393554,0.00093809,
 0.00320536,0.00489563,0.00005908,-0.00127021,0.25810721,-0.01850854,0.
 00088113,0.00702318,-0.00173457,0.00296035,0.00092347,0.00001922,0.000
 13914,-0.00051999,0.00001960,-0.00217013,0.00031741,-0.00024309,-0.000
 00875,0.00003622,0.00021905,0.00044250,-0.00013207,0.03079920,-0.05435
 064,-0.01951393,0.02606777,-0.00115363,-0.01752833,-0.01023877,0.00175
 796,0.00750411,-0.02696425,0.05421165,-0.01955511,0.00327020,0.0113457
 4,-0.00015192,0.00033248,0.00103444,-0.00001277,0.00025775,-0.00039003
 ,-0.00163213,-0.00196864,-0.00069450,-0.00038384,0.00009408,-0.0000052
 6,0.00010845,0.00008985,-0.00007408,0.12214751,-0.01862878,-0.12798195
 ,-0.00119693,0.00039038,-0.00015176,0.02521007,-0.00505874,-0.01559645
 ,-0.12428961,0.02147431,0.13276154,0.00624629,0.03104250,-0.00038173,-
 0.34058482,0.13332444,-0.04858145,-0.02010306,0.00955774,-0.00377474,0
 .00395063,-0.00492868,0.00153360,-0.00185965,0.00028518,0.00037168,0.0
 0000451,0.00020744,-0.00014242,-0.00212351,-0.00374669,-0.00014648,-0.
 00054624,0.00000499,-0.00025214,0.00143802,0.00125728,0.00119506,0.000
 64156,0.00078067,0.00145307,0.76689131,0.04119996,-0.06305214,0.000052
 16,0.12190220,-0.17490075,0.00118561,-0.00135944,0.01787785,0.00060208
 ,-0.00893529,-0.00023365,-0.00573812,0.00418554,-0.00096942,-0.0003756
 6,0.00222866,-0.00083704,0.00036953,0.00995133,0.00418723,0.00447933,0
 .00026019,-0.00007902,-0.00031276,-0.00213222,0.00046980,-0.00215736,-
 0.00135490,-0.00076623,0.00041960,-0.08546676,0.56839025,0.00883524,-0
 .01068325,0.01107084,-0.05309963,0.00512404,-0.06464954,-0.00664248,0.
 00511076,0.00455542,-0.00207620,-0.00275381,0.00186962,-0.00024028,0.0
 0058692,-0.00018966,0.00105191,-0.00025429,0.00000826,0.00361340,0.000
 54411,-0.00017703,-0.00010818,-0.00005746,0.00013797,-0.00001848,0.001
 29248,-0.00030131,-0.00046044,0.00036769,0.00003207,0.17936311,0.11113
 895,0.16409379,0.00007465,-0.00179324,0.00065073,-0.01552753,-0.009411
 30,-0.00698544,0.00104596,0.00365273,-0.00113651,-0.00036523,0.0000836
 8,0.00011260,0.00001723,0.00000450,-0.00005292,0.00009499,0.00006412,0
 .00003907,-0.00038306,-0.00070226,0.00015369,0.00051995,-0.00011855,0.
 00014913,-0.00008074,0.00030648,0.00040133,0.00072798,-0.00035975,-0.0
 0058325,-0.28372835,-0.09106009,-0.10431892,0.29616793,-0.00136397,0.0
 0021410,0.00054308,0.01586084,0.01091112,0.00764333,0.00138043,-0.0025
 2052,-0.00180773,0.00015779,-0.00010721,0.00025664,-0.00009738,0.00002
 577,-0.00004837,0.00004187,-0.00001298,0.00001674,0.00124299,-0.001313
 15,-0.00008221,-0.00002520,0.00004106,0.00016584,-0.00011434,-0.000023
 45,-0.00008903,0.00008084,-0.00215868,-0.00020111,-0.08180004,-0.08156
 361,-0.04217025,0.09326257,0.09687861,0.00079516,0.00021341,-0.0029815
 8,-0.00121789,0.00084174,0.00027476,-0.00069724,-0.00202101,0.00611874
 ,-0.00027211,0.00026868,-0.00084809,0.00021948,-0.00003940,0.00014430,
 -0.00019842,-0.00000459,-0.00006513,0.00036556,-0.00060576,-0.00000126
 ,0.00040456,0.00000120,-0.00033871,-0.00003860,-0.00099362,-0.00034812
 ,0.00018782,0.00094735,0.00044737,-0.10052002,-0.04547578,-0.06399673,
 0.10901673,0.04990789,0.06450075,-0.03829947,-0.01624196,-0.02489702,-
 0.03250411,0.02511404,-0.00922647,-0.09713331,0.03626537,-0.00491267,-
 0.09395681,-0.02435464,-0.02569736,0.00612919,0.00647573,0.00464626,0.
 00255899,0.00037803,0.00172840,-0.00346558,0.00414720,-0.00000079,0.00
 025225,0.00000524,0.00022465,-0.00075085,-0.00013689,-0.00023596,-0.00
 072692,-0.00034510,-0.00067345,-0.00191535,-0.00464302,-0.00206510,-0.
 00092209,0.00088549,0.00016219,0.61116366,-0.00846901,0.00059125,0.000
 62540,0.01160645,0.00506403,0.00277271,0.04311252,-0.14776919,0.008858
 81,-0.03512337,-0.11414820,-0.03871545,0.00192524,0.00253991,0.0027382
 5,-0.01540499,-0.01273392,-0.01989508,0.00102994,-0.00099499,-0.000834
 42,0.00009074,0.00007264,0.00000290,-0.00022323,0.00001736,0.00004365,
 0.00035489,0.00011953,0.00006913,-0.00136282,-0.00253289,-0.00103329,-
 0.00058203,0.00045401,0.00041301,0.01709094,0.42225493,-0.00936745,-0.
 00067833,-0.00170379,-0.00312236,0.00643367,-0.00130340,-0.00255906,0.
 01071433,-0.08433581,-0.03350248,-0.03933439,-0.12677560,-0.01706409,-
 0.01777001,-0.01782684,0.00634026,0.00480829,0.00609892,0.00032240,-0.
 00022931,0.00116738,0.00010676,-0.00022714,-0.00007268,0.00052135,0.00
 002818,0.00026850,0.00028570,-0.00021319,0.00003277,-0.00121475,-0.001
 22711,0.00083009,-0.00026593,0.00001892,0.00068173,-0.02325682,-0.0537
 3007,0.56286435,-0.00665657,0.00293005,-0.00353177,0.00793322,0.028491
 39,0.01370558,-0.00036243,-0.00237707,0.00229270,0.00218830,0.00075952
 ,-0.00022843,-0.00023090,0.00001147,-0.00002758,-0.00091492,-0.0001385
 2,-0.00028615,-0.00008477,-0.00124063,-0.00004255,0.00030815,-0.000075
 75,-0.00010469,-0.00002394,-0.00012016,0.00023454,0.00020573,0.0003880
 9,-0.00007975,-0.10308238,0.00846638,-0.00873161,-0.00144923,-0.031475
 99,-0.00867075,-0.00029051,0.00002680,-0.00071725,0.86798280,-0.004263
 83,0.03190589,-0.00241308,0.04377248,-0.05624312,0.00110231,-0.0025139
 3,-0.00410286,0.00242507,0.00741817,-0.00300921,0.00281444,-0.00302122
 ,0.00044825,0.00048894,-0.00134677,0.00073918,-0.00048881,-0.00692465,
 -0.00453056,-0.00251273,0.00000853,0.00071267,0.00020041,0.00156421,-0
 .00056266,0.00163828,0.00094393,-0.00023695,-0.00034765,-0.02949115,-0
 .18129127,-0.04065188,0.00321738,-0.01445128,-0.00141463,-0.00069977,-
 0.00066601,-0.00084700,-0.02700396,0.67016849,-0.00586443,0.00741924,0
 .00644563,0.01811943,-0.00434923,-0.00736023,0.00013968,0.00046214,-0.
 00453309,0.00175149,-0.00162364,0.00530394,-0.00179675,0.00053050,-0.0
 0021553,0.00032457,0.00002914,-0.00003573,-0.00229138,-0.00096825,-0.0
 0024354,-0.00012402,0.00019224,0.00019405,0.00044264,0.00063661,0.0002
 7873,0.00061467,-0.00114574,-0.00062150,-0.01979590,-0.02926088,-0.081
 42639,0.00197367,-0.01211334,-0.00657017,-0.00008553,-0.00080897,-0.00
 095103,0.15405732,0.11425176,0.30721394,0.00319593,-0.00757052,0.00080
 258,-0.01598434,0.01072684,-0.00190265,-0.00189859,0.00632223,-0.00131
 527,-0.00307053,0.00132839,-0.00155560,0.00103719,-0.00017991,0.000059
 23,0.00061081,0.00008509,0.00036231,0.00118035,0.00124022,0.00054822,0
 .00012063,-0.00013089,0.00000973,-0.00037384,0.00019105,-0.00024372,-0
 .00007882,0.00020016,-0.00001935,0.00254523,-0.04142058,-0.01528315,0.
 00248498,0.00092399,-0.00043699,0.00097951,0.00115760,0.00139833,-0.34
 774991,-0.13172561,-0.10385096,0.44937020,0.00093605,-0.00731050,0.000
 27489,-0.00929965,0.00891758,-0.00055120,0.00244142,-0.00466916,0.0011
 7309,-0.00197557,0.00060838,-0.00057312,0.00081437,-0.00016769,-0.0002
 4679,0.00031937,-0.00026233,-0.00000073,0.00156975,0.00081683,0.000821
 19,0.00021107,-0.00028677,-0.00009131,-0.00045792,0.00019709,-0.000283
 12,-0.00002084,0.00023026,-0.00015369,-0.03695484,-0.03671957,-0.02471
 795,0.00073380,-0.00642280,-0.00283595,0.00055289,-0.00030434,-0.00096
 479,-0.15356173,-0.22427992,-0.07940173,0.18015196,0.23009473,0.001254
 42,-0.00416297,-0.00012378,-0.00722137,0.00543348,-0.00054405,-0.00039
 821,0.00064072,-0.00160521,-0.00142277,0.00081989,-0.00123266,0.000614
 88,-0.00011761,0.00004893,0.00017377,-0.00004210,0.00009150,0.00095684
 ,0.00053351,0.00015260,0.00013628,-0.00013259,-0.00005701,-0.00024202,
 -0.00006960,-0.00008248,-0.00013473,0.00038351,0.00007608,-0.01373462,
 -0.02666496,0.00677214,-0.00058367,-0.00296928,0.00372140,0.00009127,0
 .00026952,0.00152086,-0.10972224,-0.07218736,-0.12769867,0.15631563,0.
 09892128,0.09780415,-0.00149092,0.00518136,-0.00029793,0.01073809,-0.0
 0502220,0.00049569,-0.00126636,-0.00035907,-0.00095344,0.00091552,-0.0
 0011249,0.00089986,-0.00072117,0.00015853,0.00006634,-0.00014788,0.000
 36382,0.00001484,-0.00210312,-0.00128865,-0.00076030,0.00009757,0.0002
 2368,0.00011394,0.00039874,-0.00000591,0.00047776,0.00035823,-0.000028
 83,-0.00020325,-0.02552641,0.04582240,0.00093290,0.00137139,0.00084553
 ,0.00118006,0.00049568,0.00021832,0.00058185,-0.41118346,0.15691599,-0
 .04039121,-0.09570800,0.01076239,-0.02771477,0.52285262,0.00315510,-0.
 00777473,0.00096935,-0.00936637,0.00342666,-0.00407835,0.00030362,0.00
 064320,-0.00067351,-0.00235575,0.00021587,-0.00055656,0.00085708,-0.00
 014837,-0.00019403,0.00054305,-0.00035258,0.00007894,0.00216331,0.0014
 1227,0.00081552,-0.00003465,-0.00027950,-0.00011003,-0.00047794,0.0000
 5704,-0.00049791,-0.00027337,0.00011647,0.00004187,0.06337568,-0.04620
 009,-0.00231479,0.00237887,0.00053399,0.00100372,0.00011571,0.00015168
 ,0.00007513,0.17221289,-0.22082754,0.00397553,-0.02020952,0.04401816,-
 0.00015415,-0.21375606,0.22625733,0.00099808,-0.00028288,-0.00110283,-
 0.00155764,-0.00235553,0.00499270,-0.00030405,-0.00009185,0.00109164,-
 0.00011718,0.00025529,-0.00108651,0.00028554,-0.00009215,0.00006861,-0
 .00013502,0.00001372,-0.00003406,-0.00005652,-0.00014535,0.00007455,0.
 00004492,-0.00002016,-0.00000345,-0.00000068,-0.00005251,0.00008620,-0
 .00000976,0.00011832,-0.00001331,0.00607822,-0.00757505,0.02014920,0.0
 0138014,0.00085169,-0.00043772,0.00019914,0.00028351,-0.00013146,-0.03
 616561,0.00016896,-0.08939293,-0.03610436,0.00832794,0.01950689,0.0648
 1265,0.00103680,0.04660919,-0.00234456,0.00097878,-0.00080442,-0.01435
 391,-0.01878421,0.02138122,-0.08926447,-0.06732067,0.07659923,-0.00054
 972,0.00003546,0.00028943,0.00005514,-0.00019213,0.00012235,0.00023414
 ,0.00002142,0.00022015,0.00027410,-0.00014561,-0.00127746,-0.00005537,
 -0.00008111,-0.00013709,-0.00015683,-0.00029101,-0.00006201,0.00016531
 ,0.00006450,0.00004365,-0.00055375,0.00090689,-0.00154563,0.00033041,0
 .00036469,-0.00127972,0.00671764,0.01173230,-0.01458607,-0.00324257,-0
 .00321784,-0.00002322,0.00231447,0.00110920,-0.00023785,0.00055285,0.0
 0059254,0.00021554,0.09963557,-0.00096923,0.00011404,-0.00045238,-0.00
 751048,-0.00593423,0.00383674,-0.06430023,-0.14048769,0.11089714,-0.00
 011547,-0.00044247,0.00077166,0.00002219,-0.00020010,-0.00043899,-0.00
 000388,-0.00022214,-0.00058665,0.00008357,-0.00006700,-0.00045378,-0.0
 0001607,-0.00000481,-0.00004059,-0.00010285,-0.00010511,-0.00004443,0.
 00004383,0.00007145,0.00003395,0.00166407,-0.00174503,-0.00077100,-0.0
 0007686,-0.00000058,-0.00003275,-0.00910409,-0.01373017,0.01804958,0.0
 0123967,0.00243745,0.00102054,-0.00134062,-0.00031087,-0.00061911,0.00
 015525,-0.00055848,0.00006552,0.07142277,0.15376604,-0.00030298,-0.001
 17064,-0.00072537,-0.00493116,-0.00737563,0.00898534,0.07542182,0.1086
 7278,-0.16945485,-0.00080393,0.00016472,0.00032680,0.00020354,0.000227
 32,-0.00007915,0.00016370,-0.00002390,-0.00011427,0.00021218,-0.000007
 57,-0.00074349,-0.00000101,-0.00003317,-0.00005276,-0.00011215,-0.0001
 1499,-0.00007168,0.00006717,0.00007571,0.00003125,-0.00038076,0.000340
 46,0.00047072,0.00020350,0.00001281,-0.00050817,-0.00112050,0.00083134
 ,-0.00210181,0.00039491,0.00037124,0.00094877,-0.00129970,-0.00010877,
 0.00009643,-0.00054271,0.00013781,-0.00048978,-0.07925987,-0.11976853,
 0.18157178,-0.00401951,-0.00087690,-0.00113772,0.00540644,-0.01584842,
 -0.02718146,-0.04742716,0.00822581,0.01433474,-0.00293218,0.00197058,-
 0.00164269,0.00021910,-0.00015205,0.00002164,0.00052366,0.00016962,0.0
 0030072,-0.00004218,-0.00149454,0.00074588,-0.00044228,-0.00025907,-0.
 00011972,0.00015001,0.00007634,0.00009547,-0.00003293,-0.00009349,-0.0
 0007453,-0.00099125,0.00173262,0.00095021,-0.00023955,-0.00031874,0.00
 101710,-0.00022468,0.00790340,0.01423086,-0.00363413,-0.00304191,-0.00
 310895,0.00106210,0.00239498,0.00175189,0.00060490,0.00051758,0.000434
 65,0.00015172,0.00731790,0.01306564,0.05129110,-0.00012342,0.00011982,
 -0.00092099,-0.00414425,-0.00515063,-0.00682185,0.00868002,-0.11774844
 ,-0.12622620,0.00241154,-0.00356469,0.00040769,-0.00015925,-0.00030538
 ,-0.00015482,-0.00049187,-0.00051172,-0.00067845,-0.00002635,-0.000505
 27,0.00021328,-0.00012746,0.00001956,-0.00005478,0.00003728,0.00009092
 ,0.00005015,-0.00007359,0.00001348,-0.00001613,0.00131021,-0.00207910,
 0.00065230,-0.00004624,-0.00010045,-0.00011447,-0.00023759,-0.01223479
 ,-0.01876385,0.00229809,0.00365660,0.00122828,-0.00018279,-0.00397278,
 0.00021268,-0.00034680,-0.00049350,-0.00053548,-0.00063757,0.00932977,
 0.01690456,-0.00806910,0.13306326,-0.00069786,0.00111846,-0.00041021,0
 .00137776,-0.00365792,-0.00616458,0.01155922,-0.12667220,-0.25210071,-
 0.00116492,0.00190866,0.00048533,0.00015618,0.00025751,0.00019633,0.00
 018698,0.00017946,0.00016469,0.00001060,-0.00020864,0.00003672,-0.0000
 8497,-0.00005364,0.00000159,0.00004644,-0.00001708,0.00004152,0.000016
 04,-0.00003758,-0.00001453,-0.00074769,0.00009168,0.00084124,-0.000083
 47,0.00002526,0.00025154,0.00051586,0.00537992,0.00731260,-0.00239086,
 -0.00230417,-0.00124691,0.00250860,0.00022964,0.00146749,0.00136787,0.
 00031695,0.00008550,0.00117167,-0.01094828,-0.02006759,-0.01361722,0.1
 3483299,0.26780250,-0.00113055,-0.00136100,-0.00138380,-0.00049927,0.0
 0122167,0.00026676,-0.01047871,-0.00230884,0.00231003,-0.01036982,0.00
 081025,0.00459604,0.00098292,0.00032501,-0.00030296,-0.00044537,-0.000
 31020,-0.00049698,-0.00006926,0.00053621,-0.00004564,0.00001584,0.0000
 0660,0.00002295,-0.00018823,-0.00005537,-0.00007886,-0.00010754,-0.000
 00220,-0.00007739,-0.00050428,-0.00007407,-0.00032861,-0.00008253,0.00
 012689,-0.00002761,-0.30294802,-0.02665865,0.06059552,0.00016371,-0.00
 067454,-0.00009336,0.00004789,0.00034578,0.00003006,-0.00019865,0.0002
 5251,0.00002904,0.00113877,-0.00019842,-0.00032499,-0.00056230,0.00042
 135,-0.00022004,0.32611964,-0.00165216,-0.00265104,-0.00262008,0.00304
 697,-0.00614501,-0.00067250,0.02756841,0.00422674,-0.00550402,-0.01911
 112,-0.00077591,0.00721806,0.00059153,0.00128542,0.00025594,-0.0002286
 3,-0.00071773,-0.00029187,-0.00060605,0.00075797,-0.00011123,0.0000456
 5,0.00011750,0.00005850,-0.00017850,-0.00003607,-0.00007084,-0.0001909
 9,-0.00006283,-0.00010218,0.00052490,0.00164211,0.00072232,0.00033639,
 -0.00031793,-0.00002217,-0.02685354,-0.04948581,0.00613437,-0.00042113
 ,-0.00000486,-0.00005295,0.00018893,-0.00023246,0.00011817,0.00006028,
 -0.00006693,-0.00004460,-0.00067541,0.00171998,0.00006910,0.00062854,-
 0.00077973,-0.00022338,0.02786201,0.05264392,-0.00360092,-0.00251604,-
 0.00189611,-0.00166967,-0.00032871,-0.00051973,-0.00323503,0.00016201,
 -0.00029303,-0.01965942,0.00000613,0.00500704,0.00016634,0.00061330,0.
 00095981,-0.00014092,-0.00057133,-0.00021803,-0.00085804,0.00064227,0.
 00020681,0.00004613,0.00004043,0.00001748,-0.00011239,0.00000191,-0.00
 005483,-0.00027815,-0.00007915,-0.00017971,-0.00026993,0.00005041,-0.0
 0002196,-0.00006249,0.00002037,-0.00000879,0.06485326,0.00643970,-0.06
 491760,-0.00013258,-0.00022817,-0.00009390,0.00015242,0.00007131,0.000
 06203,0.00001053,0.00006527,0.00001696,-0.00045003,-0.00010877,0.00086
 320,0.00013334,-0.00008965,0.00002742,-0.06519771,-0.00700529,0.066937
 16,0.00054096,-0.00076614,0.00005703,0.00019044,0.00091550,-0.00029962
 ,0.00164227,0.00586071,-0.01467975,0.00127181,0.00525507,-0.01454558,-
 0.00067232,-0.00101256,-0.00159987,0.00088835,0.00044350,0.00031555,-0
 .00029859,-0.00013724,0.00017200,0.00001295,-0.00000324,-0.00002788,0.
 00008652,0.00004286,0.00007665,-0.00007983,-0.00003969,-0.00002946,-0.
 00019852,-0.00020980,0.00017194,-0.00005715,0.00002174,0.00001068,-0.0
 5515921,-0.00842503,0.02127323,0.00012382,0.00008449,0.00000225,-0.000
 08528,-0.00007248,0.00008720,-0.00003962,0.00000574,-0.00002710,-0.001
 04893,0.00178894,-0.00065270,0.00113914,-0.00049221,0.00008981,-0.0008
 8424,-0.01093607,0.03030524,0.05262742,0.00076621,0.00046838,0.0001406
 8,-0.00092386,-0.00208235,0.00018833,-0.00239077,-0.01281154,0.0266944
 1,0.00196534,0.00542149,-0.02431153,-0.00307825,-0.00190534,-0.0033040
 1,0.00086990,0.00121058,-0.00002041,-0.00023605,0.00005649,0.00027622,
 0.00005781,0.00003593,-0.00001426,0.00012351,-0.00001005,0.00004573,-0
 .00005735,-0.00003607,0.00000334,0.00041587,0.00040256,-0.00013159,0.0
 0010979,-0.00006601,-0.00003687,-0.00841405,-0.07666503,0.08772273,-0.
 00040939,0.00013771,-0.00002125,0.00024400,0.00005616,-0.00021303,0.00
 021247,-0.00013094,0.00007383,0.00411703,-0.00363007,0.00079533,-0.000
 78314,0.00115307,-0.00021762,-0.00026498,-0.00111735,0.00281399,0.0076
 7591,0.08951239,-0.00014394,-0.00015951,0.00072775,-0.00013452,-0.0000
 7366,-0.00012104,0.00072055,0.00022262,0.00038513,0.00316157,0.0048091
 5,-0.02025320,-0.00279624,-0.00236072,-0.00112343,0.00028713,-0.000113
 12,0.00147290,-0.00018175,0.00006451,0.00012208,0.00004653,0.00001818,
 -0.00003788,0.00009337,-0.00000408,0.00003067,-0.00010229,-0.00000127,
 -0.00003819,-0.00005210,0.00005785,-0.00006874,-0.00000798,0.00001875,
 -0.00003612,0.01975064,0.08628945,-0.28065719,0.00014678,-0.00006592,0
 .00000454,-0.00014529,0.00010980,0.00002338,-0.00009068,0.00006246,0.0
 0001060,-0.00037986,-0.00040988,0.00111461,-0.00019983,-0.00012526,0.0
 0129007,0.00072755,0.00214466,-0.00589421,-0.02069962,-0.09048403,0.30
 304827\\-0.00000608,-0.00001379,0.00002950,0.00000134,0.00001589,-0.00
 001175,0.00002115,-0.00000209,-0.00002879,-0.00001536,0.00001352,-0.00
 001417,-0.00000027,-0.00000691,-0.00000658,-0.00000396,-0.00001128,-0.
 00000069,-0.00000250,0.00000262,-0.00002340,-0.00000364,0.00000781,-0.
 00000043,-0.00000983,-0.00000021,0.00001663,-0.00000316,0.00000668,0.0
 0000199,-0.00000355,-0.00001598,0.00001604,0.00000071,0.00000427,-0.00
 000378,0.00000084,-0.00000424,0.00001866,0.00000087,0.00002327,0.00000
 544,0.00000406,-0.00000409,0.00000110,0.00001322,-0.00000272,0.0000066
 9,-0.00000249,-0.00000609,0.00000853,0.00000029,-0.00000216,0.00001058
 ,0.00000275,-0.00000287,-0.00001274,0.00000560,-0.00000162,-0.00001286
 \\\@


 IF I HAVE SEEN FARTHER, IT IS BY STANDING ON THE
 SHOULDERS OF GIANTS. -- SIR ISAAC NEWTON
 Job cpu time:       0 days  0 hours 12 minutes 41.5 seconds.
 File lengths (MBytes):  RWF=     95 Int=      0 D2E=      0 Chk=      4 Scr=      1
 Normal termination of Gaussian 09 at Fri Aug 20 15:53:37 2021.
