 Entering Gaussian System, Link 0=g09
 Input=B3LYP6-31G.KAVFUI01.gjf
 Output=B3LYP6-31G.KAVFUI01.log
 Initial command:
 /public/home/users/caep010/software/Gaussian09/g09/l1.exe "/public/home/users/caep010/.cache/gau_scr/Gau-24921.inp" -scrdir="/public/home/users/caep010/.cache/gau_scr/"
 Entering Link 1 = /public/home/users/caep010/software/Gaussian09/g09/l1.exe PID=     24922.
  
 Copyright (c) 1988,1990,1992,1993,1995,1998,2003,2009,2015,
            Gaussian, Inc.  All Rights Reserved.
  
 This is part of the Gaussian(R) 09 program.  It is based on
 the Gaussian(R) 03 system (copyright 2003, Gaussian, Inc.),
 the Gaussian(R) 98 system (copyright 1998, Gaussian, Inc.),
 the Gaussian(R) 94 system (copyright 1995, Gaussian, Inc.),
 the Gaussian 92(TM) system (copyright 1992, Gaussian, Inc.),
 the Gaussian 90(TM) system (copyright 1990, Gaussian, Inc.),
 the Gaussian 88(TM) system (copyright 1988, Gaussian, Inc.),
 the Gaussian 86(TM) system (copyright 1986, Carnegie Mellon
 University), and the Gaussian 82(TM) system (copyright 1983,
 Carnegie Mellon University). Gaussian is a federally registered
 trademark of Gaussian, Inc.
  
 This software contains proprietary and confidential information,
 including trade secrets, belonging to Gaussian, Inc.
  
 This software is provided under written license and may be
 used, copied, transmitted, or stored only in accord with that
 written license.
  
 The following legend is applicable only to US Government
 contracts under FAR:
  
                    RESTRICTED RIGHTS LEGEND
  
 Use, reproduction and disclosure by the US Government is
 subject to restrictions as set forth in subparagraphs (a)
 and (c) of the Commercial Computer Software - Restricted
 Rights clause in FAR 52.227-19.
  
 Gaussian, Inc.
 340 Quinnipiac St., Bldg. 40, Wallingford CT 06492
  
  
 ---------------------------------------------------------------
 Warning -- This program may not be used in any manner that
 competes with the business of Gaussian, Inc. or will provide
 assistance to any competitor of Gaussian, Inc.  The licensee
 of this program is prohibited from giving any competitor of
 Gaussian, Inc. access to this program.  By using this program,
 the user acknowledges that Gaussian, Inc. is engaged in the
 business of creating and licensing software in the field of
 computational chemistry and represents and warrants to the
 licensee that it is not a competitor of Gaussian, Inc. and that
 it will not use this program in any manner prohibited above.
 ---------------------------------------------------------------
  

 Cite this work as:
 Gaussian 09, Revision E.01,
 M. J. Frisch, G. W. Trucks, H. B. Schlegel, G. E. Scuseria, 
 M. A. Robb, J. R. Cheeseman, G. Scalmani, V. Barone, B. Mennucci, 
 G. A. Petersson, H. Nakatsuji, M. Caricato, X. Li, H. P. Hratchian, 
 A. F. Izmaylov, J. Bloino, G. Zheng, J. L. Sonnenberg, M. Hada, 
 M. Ehara, K. Toyota, R. Fukuda, J. Hasegawa, M. Ishida, T. Nakajima, 
 Y. Honda, O. Kitao, H. Nakai, T. Vreven, J. A. Montgomery, Jr., 
 J. E. Peralta, F. Ogliaro, M. Bearpark, J. J. Heyd, E. Brothers, 
 K. N. Kudin, V. N. Staroverov, T. Keith, R. Kobayashi, J. Normand, 
 K. Raghavachari, A. Rendell, J. C. Burant, S. S. Iyengar, J. Tomasi, 
 M. Cossi, N. Rega, J. M. Millam, M. Klene, J. E. Knox, J. B. Cross, 
 V. Bakken, C. Adamo, J. Jaramillo, R. Gomperts, R. E. Stratmann, 
 O. Yazyev, A. J. Austin, R. Cammi, C. Pomelli, J. W. Ochterski, 
 R. L. Martin, K. Morokuma, V. G. Zakrzewski, G. A. Voth, 
 P. Salvador, J. J. Dannenberg, S. Dapprich, A. D. Daniels, 
 O. Farkas, J. B. Foresman, J. V. Ortiz, J. Cioslowski, 
 and D. J. Fox, Gaussian, Inc., Wallingford CT, 2013.
 
 ******************************************
 Gaussian 09:  ES64L-G09RevE.01 30-Nov-2015
                20-Aug-2021 
 ******************************************
 %nproc=32
 Will use up to   32 processors via shared memory.
 %mem=180GB
 -------------------------
 #P OPT Freq B3LYP/6-31G**
 -------------------------
 1/14=-1,18=20,19=15,26=3,38=1/1,3;
 2/9=110,12=2,17=6,18=5,40=1/2;
 3/5=1,6=6,7=101,11=2,16=1,25=1,30=1,71=1,74=-5/1,2,3;
 4//1;
 5/5=2,38=5/2;
 6/7=2,8=2,9=2,10=2,28=1/1;
 7//1,2,3,16;
 1/14=-1,18=20,19=15,26=3/3(2);
 2/9=110/2;
 99//99;
 2/9=110/2;
 3/5=1,6=6,7=101,11=2,16=1,25=1,30=1,71=1,74=-5/1,2,3;
 4/5=5,16=3,69=1/1;
 5/5=2,38=5/2;
 7//1,2,3,16;
 1/14=-1,18=20,19=15,26=3/3(-5);
 2/9=110/2;
 6/7=2,8=2,9=2,10=2,19=2,28=1/1;
 99/9=1/99;
 Leave Link    1 at Fri Aug 20 15:33:32 2021, MaxMem= 24159191040 cpu:         3.1
 (Enter /public/home/users/caep010/software/Gaussian09/g09/l101.exe)
 --------
 KAVFUI01
 --------
 Symbolic Z-matrix:
 Charge =  0 Multiplicity = 1
 N                     1.7678    4.0646    4.8205 
 O                     2.853     4.4397    4.3847 
 O                     1.2887    2.9595    4.6295 
 C                     0.999     4.986     5.6141 
 N                     1.4634    6.2507    5.8674 
 C                     0.5334    6.7826    6.5892 
 N                    -0.4874    5.8997    6.8044 
 H                     0.5558    7.6521    6.9195 
 N                    -1.6516    6.1286    7.5906 
 O                    -2.3337    5.1601    7.8049 
 O                    -1.7903    7.2674    7.9558 
 C                    -0.1871    4.7253    6.1692 
 H                    -0.6851    3.9405    6.1322 
 
 NAtoms=     13 NQM=       13 NQMF=       0 NMMI=      0 NMMIF=      0
                NMic=       0 NMicF=      0.
                    Isotopes and Nuclear Properties:
 (Nuclear quadrupole moments (NQMom) in fm**2, nuclear magnetic moments (NMagM)
  in nuclear magnetons)

  Atom         1           2           3           4           5           6           7           8           9          10
 IAtWgt=          14          16          16          12          14          12          14           1          14          16
 AtmWgt=  14.0030740  15.9949146  15.9949146  12.0000000  14.0030740  12.0000000  14.0030740   1.0078250  14.0030740  15.9949146
 NucSpn=           2           0           0           0           2           0           2           1           2           0
 AtZEff=   0.0000000   0.0000000   0.0000000   0.0000000   0.0000000   0.0000000   0.0000000   0.0000000   0.0000000   0.0000000
 NQMom=    2.0440000   0.0000000   0.0000000   0.0000000   2.0440000   0.0000000   2.0440000   0.0000000   2.0440000   0.0000000
 NMagM=    0.4037610   0.0000000   0.0000000   0.0000000   0.4037610   0.0000000   0.4037610   2.7928460   0.4037610   0.0000000
 AtZNuc=   7.0000000   8.0000000   8.0000000   6.0000000   7.0000000   6.0000000   7.0000000   1.0000000   7.0000000   8.0000000

  Atom        11          12          13
 IAtWgt=          16          12           1
 AtmWgt=  15.9949146  12.0000000   1.0078250
 NucSpn=           0           0           1
 AtZEff=   0.0000000   0.0000000   0.0000000
 NQMom=    0.0000000   0.0000000   0.0000000
 NMagM=    0.0000000   0.0000000   2.7928460
 AtZNuc=   8.0000000   6.0000000   1.0000000
 Leave Link  101 at Fri Aug 20 15:33:33 2021, MaxMem= 24159191040 cpu:        10.3
 (Enter /public/home/users/caep010/software/Gaussian09/g09/l103.exe)

 GradGradGradGradGradGradGradGradGradGradGradGradGradGradGradGradGradGrad
 Berny optimization.
 Initialization pass.
                           ----------------------------
                           !    Initial Parameters    !
                           ! (Angstroms and Degrees)  !
 --------------------------                            --------------------------
 ! Name  Definition              Value          Derivative Info.                !
 --------------------------------------------------------------------------------
 ! R1    R(1,2)                  1.2281         estimate D2E/DX2                !
 ! R2    R(1,3)                  1.2195         estimate D2E/DX2                !
 ! R3    R(1,4)                  1.4387         estimate D2E/DX2                !
 ! R4    R(4,5)                  1.3709         estimate D2E/DX2                !
 ! R5    R(4,12)                 1.3353         estimate D2E/DX2                !
 ! R6    R(5,6)                  1.2918         estimate D2E/DX2                !
 ! R7    R(6,7)                  1.3667         estimate D2E/DX2                !
 ! R8    R(6,8)                  0.9304         estimate D2E/DX2                !
 ! R9    R(7,9)                  1.4233         estimate D2E/DX2                !
 ! R10   R(7,12)                 1.3685         estimate D2E/DX2                !
 ! R11   R(9,10)                 1.2038         estimate D2E/DX2                !
 ! R12   R(9,11)                 1.2039         estimate D2E/DX2                !
 ! R13   R(12,13)                0.9302         estimate D2E/DX2                !
 ! A1    A(2,1,3)              124.6337         estimate D2E/DX2                !
 ! A2    A(2,1,4)              118.185          estimate D2E/DX2                !
 ! A3    A(3,1,4)              117.1813         estimate D2E/DX2                !
 ! A4    A(1,4,5)              120.7797         estimate D2E/DX2                !
 ! A5    A(1,4,12)             125.3771         estimate D2E/DX2                !
 ! A6    A(5,4,12)             113.8426         estimate D2E/DX2                !
 ! A7    A(4,5,6)              103.8402         estimate D2E/DX2                !
 ! A8    A(5,6,7)              111.0817         estimate D2E/DX2                !
 ! A9    A(5,6,8)              124.4595         estimate D2E/DX2                !
 ! A10   A(7,6,8)              124.4588         estimate D2E/DX2                !
 ! A11   A(6,7,9)              126.4423         estimate D2E/DX2                !
 ! A12   A(6,7,12)             108.5052         estimate D2E/DX2                !
 ! A13   A(9,7,12)             125.0205         estimate D2E/DX2                !
 ! A14   A(7,9,10)             115.6202         estimate D2E/DX2                !
 ! A15   A(7,9,11)             114.4502         estimate D2E/DX2                !
 ! A16   A(10,9,11)            129.92           estimate D2E/DX2                !
 ! A17   A(4,12,7)             102.7284         estimate D2E/DX2                !
 ! A18   A(4,12,13)            128.5901         estimate D2E/DX2                !
 ! A19   A(7,12,13)            128.6815         estimate D2E/DX2                !
 ! D1    D(2,1,4,5)              0.4501         estimate D2E/DX2                !
 ! D2    D(2,1,4,12)          -179.2246         estimate D2E/DX2                !
 ! D3    D(3,1,4,5)           -179.5639         estimate D2E/DX2                !
 ! D4    D(3,1,4,12)             0.7614         estimate D2E/DX2                !
 ! D5    D(1,4,5,6)            179.857          estimate D2E/DX2                !
 ! D6    D(12,4,5,6)            -0.433          estimate D2E/DX2                !
 ! D7    D(1,4,12,7)           179.9584         estimate D2E/DX2                !
 ! D8    D(1,4,12,13)           -0.0903         estimate D2E/DX2                !
 ! D9    D(5,4,12,7)             0.264          estimate D2E/DX2                !
 ! D10   D(5,4,12,13)         -179.7847         estimate D2E/DX2                !
 ! D11   D(4,5,6,7)              0.4152         estimate D2E/DX2                !
 ! D12   D(4,5,6,8)           -179.6187         estimate D2E/DX2                !
 ! D13   D(5,6,7,9)            177.7394         estimate D2E/DX2                !
 ! D14   D(5,6,7,12)            -0.2795         estimate D2E/DX2                !
 ! D15   D(8,6,7,9)             -2.2267         estimate D2E/DX2                !
 ! D16   D(8,6,7,12)           179.7544         estimate D2E/DX2                !
 ! D17   D(6,7,9,10)          -169.8991         estimate D2E/DX2                !
 ! D18   D(6,7,9,11)             9.0927         estimate D2E/DX2                !
 ! D19   D(12,7,9,10)            7.8068         estimate D2E/DX2                !
 ! D20   D(12,7,9,11)         -173.2014         estimate D2E/DX2                !
 ! D21   D(6,7,12,4)             0.0028         estimate D2E/DX2                !
 ! D22   D(6,7,12,13)         -179.9485         estimate D2E/DX2                !
 ! D23   D(9,7,12,4)          -178.0512         estimate D2E/DX2                !
 ! D24   D(9,7,12,13)            1.9975         estimate D2E/DX2                !
 --------------------------------------------------------------------------------
 Trust Radius=3.00D-01 FncErr=1.00D-07 GrdErr=1.00D-06
 Number of steps in this run=     66 maximum allowed number of steps=    100.
 GradGradGradGradGradGradGradGradGradGradGradGradGradGradGradGradGradGrad

 Leave Link  103 at Fri Aug 20 15:33:33 2021, MaxMem= 24159191040 cpu:         0.6
 (Enter /public/home/users/caep010/software/Gaussian09/g09/l202.exe)
                          Input orientation:                          
 ---------------------------------------------------------------------
 Center     Atomic      Atomic             Coordinates (Angstroms)
 Number     Number       Type             X           Y           Z
 ---------------------------------------------------------------------
      1          7           0        1.767800    4.064600    4.820500
      2          8           0        2.853000    4.439700    4.384700
      3          8           0        1.288700    2.959500    4.629500
      4          6           0        0.999000    4.986000    5.614100
      5          7           0        1.463400    6.250700    5.867400
      6          6           0        0.533400    6.782600    6.589200
      7          7           0       -0.487400    5.899700    6.804400
      8          1           0        0.555800    7.652100    6.919500
      9          7           0       -1.651600    6.128600    7.590600
     10          8           0       -2.333700    5.160100    7.804900
     11          8           0       -1.790300    7.267400    7.955800
     12          6           0       -0.187100    4.725300    6.169200
     13          1           0       -0.685100    3.940500    6.132200
 ---------------------------------------------------------------------
                    Distance matrix (angstroms):
                    1          2          3          4          5
     1  N    0.000000
     2  O    1.228121   0.000000
     3  O    1.219534   2.167476   0.000000
     4  C    1.438691   2.290673   2.271578   0.000000
     5  N    2.442886   2.721968   3.520641   1.370874   0.000000
     6  C    3.469808   3.966049   4.361994   2.096515   1.291825
     7  N    3.519855   4.375479   4.065648   2.112119   2.192439
     8  H    4.329538   4.692745   5.272735   3.001430   1.973468
     9  N    4.860643   5.781142   5.239911   3.498252   3.561959
    10  O    5.189322   6.254486   5.295997   3.992093   4.400146
    11  O    5.722596   6.504527   6.253200   4.297504   3.997706
    12  C    2.465188   3.536696   2.768883   1.335265   2.267615
    13  H    2.784363   3.977576   2.667650   2.048827   3.165943
                    6          7          8          9         10
     6  C    0.000000
     7  N    1.366695   0.000000
     8  H    0.930392   2.042650   0.000000
     9  N    2.490932   1.423330   2.764786   0.000000
    10  O    3.511509   2.226394   3.917041   1.203818   0.000000
    11  O    2.739016   2.212210   2.593472   1.203941   2.181460
    12  C    2.219911   1.368530   3.111432   2.476770   2.733580
    13  H    3.125880   2.080722   3.991948   2.801577   2.646362
                   11         12         13
    11  O    0.000000
    12  C    3.496350   0.000000
    13  H    3.951613   0.930206   0.000000
 Stoichiometry    C3H2N4O4
 Framework group  C1[X(C3H2N4O4)]
 Deg. of freedom    33
 Full point group                 C1      NOp   1
 Largest Abelian subgroup         C1      NOp   1
 Largest concise Abelian subgroup C1      NOp   1
                         Standard orientation:                         
 ---------------------------------------------------------------------
 Center     Atomic      Atomic             Coordinates (Angstroms)
 Number     Number       Type             X           Y           Z
 ---------------------------------------------------------------------
      1          7           0       -2.433674    0.246940   -0.008341
      2          8           0       -3.280522   -0.640939    0.044566
      3          8           0       -2.682395    1.439543   -0.064027
      4          6           0       -1.046804   -0.135698   -0.004640
      5          7           0       -0.683632   -1.456577    0.047110
      6          6           0        0.607656   -1.422885    0.031200
      7          7           0        1.065265   -0.136059   -0.019069
      8          1           0        1.154204   -2.175542    0.051768
      9          7           0        2.426866    0.278286   -0.003912
     10          8           0        2.609842    1.460044    0.134455
     11          8           0        3.222046   -0.619010   -0.113556
     12          6           0       -0.012128    0.707471   -0.042643
     13          1           0       -0.022094    1.636979   -0.077289
 ---------------------------------------------------------------------
 Rotational constants (GHZ):      3.3579402      0.6566216      0.5500282
 Leave Link  202 at Fri Aug 20 15:33:33 2021, MaxMem= 24159191040 cpu:         1.0
 (Enter /public/home/users/caep010/software/Gaussian09/g09/l301.exe)
 Standard basis: 6-31G(d,p) (6D, 7F)
 Ernie: Thresh=  0.10000D-02 Tol=  0.10000D-05 Strict=F.
 There are   175 symmetry adapted cartesian basis functions of A   symmetry.
 There are   175 symmetry adapted basis functions of A   symmetry.
   175 basis functions,   322 primitive gaussians,   175 cartesian basis functions
    40 alpha electrons       40 beta electrons
       nuclear repulsion energy       610.0920678679 Hartrees.
 IExCor=  402 DFT=T Ex+Corr=B3LYP ExCW=0 ScaHFX=  0.200000
 ScaDFX=  0.800000  0.720000  1.000000  0.810000 ScalE2=  1.000000  1.000000
 IRadAn=      0 IRanWt=     -1 IRanGd=            0 ICorTp=0 IEmpDi=  4
 NAtoms=   13 NActive=   13 NUniq=   13 SFac= 1.00D+00 NAtFMM=   60 NAOKFM=F Big=F
 Integral buffers will be    131072 words long.
 Raffenetti 2 integral format.
 Two-electron integral symmetry is turned on.
 Leave Link  301 at Fri Aug 20 15:33:33 2021, MaxMem= 24159191040 cpu:         2.5
 (Enter /public/home/users/caep010/software/Gaussian09/g09/l302.exe)
 NPDir=0 NMtPBC=     1 NCelOv=     1 NCel=       1 NClECP=     1 NCelD=      1
         NCelK=      1 NCelE2=     1 NClLst=     1 CellRange=     0.0.
 One-electron integrals computed using PRISM.
 NBasis=   175 RedAO= T EigKep=  1.00D-03  NBF=   175
 NBsUse=   175 1.00D-06 EigRej= -1.00D+00 NBFU=   175
 Precomputing XC quadrature grid using
 IXCGrd= 4 IRadAn=           0 IRanWt=          -1 IRanGd=           0 AccXCQ= 0.00D+00.
 Generated NRdTot=       0 NPtTot=           0 NUsed=           0 NTot=          32
 NSgBfM=   174   174   174   174   174 MxSgAt=    13 MxSgA2=    13.
 Leave Link  302 at Fri Aug 20 15:33:33 2021, MaxMem= 24159191040 cpu:        12.0
 (Enter /public/home/users/caep010/software/Gaussian09/g09/l303.exe)
 DipDrv:  MaxL=1.
 Leave Link  303 at Fri Aug 20 15:33:33 2021, MaxMem= 24159191040 cpu:         0.8
 (Enter /public/home/users/caep010/software/Gaussian09/g09/l401.exe)
 ExpMin= 1.61D-01 ExpMax= 5.48D+03 ExpMxC= 8.25D+02 IAcc=1 IRadAn=         1 AccDes= 0.00D+00
 Harris functional with IExCor=  402 and IRadAn=       1 diagonalized for initial guess.
 HarFok:  IExCor=  402 AccDes= 0.00D+00 IRadAn=         1 IDoV= 1 UseB2=F ITyADJ=14
 ICtDFT=  3500011 ScaDFX=  1.000000  1.000000  1.000000  1.000000
 FoFCou: FMM=F IPFlag=           0 FMFlag=      100000 FMFlg1=           0
         NFxFlg=           0 DoJE=T BraDBF=F KetDBF=T FulRan=T
         wScrn=  0.000000 ICntrl=     500 IOpCl=  0 I1Cent=   200000004 NGrid=           0
         NMat0=    1 NMatS0=      1 NMatT0=    0 NMatD0=    1 NMtDS0=    0 NMtDT0=    0
 Petite list used in FoFCou.
 Harris En= -635.185624185680    
 JPrj=0 DoOrth=F DoCkMO=F.
 Leave Link  401 at Fri Aug 20 15:33:34 2021, MaxMem= 24159191040 cpu:        10.6
 (Enter /public/home/users/caep010/software/Gaussian09/g09/l502.exe)
 Closed shell SCF:
 Using DIIS extrapolation, IDIIS=  1040.
 Integral symmetry usage will be decided dynamically.
 Keep R1 ints in memory in canonical form, NReq=121430826.
 IVT=      117326 IEndB=      117326 NGot= 24159191040 MDV= 24040486015
 LenX= 24040486015 LenY= 24040454949
 Requested convergence on RMS density matrix=1.00D-08 within 128 cycles.
 Requested convergence on MAX density matrix=1.00D-06.
 Requested convergence on             energy=1.00D-06.
 No special actions if energy rises.
 FoFCou: FMM=F IPFlag=           0 FMFlag=           0 FMFlg1=           0
         NFxFlg=           0 DoJE=F BraDBF=F KetDBF=F FulRan=T
         wScrn=  0.000000 ICntrl=     600 IOpCl=  0 I1Cent=           0 NGrid=           0
         NMat0=    1 NMatS0=  15400 NMatT0=    0 NMatD0=    1 NMtDS0=    0 NMtDT0=    0
 Symmetry not used in FoFCou.
 Integral accuracy reduced to 1.0D-05 until final iterations.

 Cycle   1  Pass 0  IDiag  1:
 E= -634.707438571323    
 DIIS: error= 5.79D-02 at cycle   1 NSaved=   1.
 NSaved= 1 IEnMin= 1 EnMin= -634.707438571323     IErMin= 1 ErrMin= 5.79D-02
 ErrMax= 5.79D-02  0.00D+00 EMaxC= 1.00D-01 BMatC= 5.71D-01 BMatP= 5.71D-01
 IDIUse=3 WtCom= 4.21D-01 WtEn= 5.79D-01
 Coeff-Com:  0.100D+01
 Coeff-En:   0.100D+01
 Coeff:      0.100D+01
 Gap=     0.179 Goal=   None    Shift=    0.000
 GapD=    0.179 DampG=1.000 DampE=0.500 DampFc=0.5000 IDamp=-1.
 Damping current iteration by 5.00D-01
 RMSDP=1.02D-02 MaxDP=3.10D-01              OVMax= 3.62D-01

 Cycle   2  Pass 0  IDiag  1:
 E= -634.694445248305     Delta-E=        0.012993323018 Rises=F Damp=T
 DIIS: error= 2.21D-02 at cycle   2 NSaved=   2.
 NSaved= 2 IEnMin= 1 EnMin= -634.707438571323     IErMin= 2 ErrMin= 2.21D-02
 ErrMax= 2.21D-02  0.00D+00 EMaxC= 1.00D-01 BMatC= 1.79D-01 BMatP= 5.71D-01
 IDIUse=3 WtCom= 7.79D-01 WtEn= 2.21D-01
 Coeff-Com:  0.342D+00 0.658D+00
 Coeff-En:   0.511D+00 0.489D+00
 Coeff:      0.379D+00 0.621D+00
 Gap=     0.142 Goal=   None    Shift=    0.000
 RMSDP=3.03D-03 MaxDP=1.18D-01 DE= 1.30D-02 OVMax= 2.30D-01

 Cycle   3  Pass 0  IDiag  1:
 E= -635.101062914040     Delta-E=       -0.406617665735 Rises=F Damp=F
 DIIS: error= 1.25D-02 at cycle   3 NSaved=   3.
 NSaved= 3 IEnMin= 3 EnMin= -635.101062914040     IErMin= 3 ErrMin= 1.25D-02
 ErrMax= 1.25D-02  0.00D+00 EMaxC= 1.00D-01 BMatC= 3.60D-02 BMatP= 1.79D-01
 IDIUse=3 WtCom= 8.75D-01 WtEn= 1.25D-01
 Coeff-Com:  0.186D+00 0.314D+00 0.500D+00
 Coeff-En:   0.000D+00 0.000D+00 0.100D+01
 Coeff:      0.163D+00 0.275D+00 0.563D+00
 Gap=     0.184 Goal=   None    Shift=    0.000
 RMSDP=1.65D-03 MaxDP=6.39D-02 DE=-4.07D-01 OVMax= 1.21D-01

 Cycle   4  Pass 0  IDiag  1:
 E= -635.104943038660     Delta-E=       -0.003880124620 Rises=F Damp=F
 DIIS: error= 1.75D-02 at cycle   4 NSaved=   4.
 NSaved= 4 IEnMin= 4 EnMin= -635.104943038660     IErMin= 3 ErrMin= 1.25D-02
 ErrMax= 1.75D-02  0.00D+00 EMaxC= 1.00D-01 BMatC= 3.26D-02 BMatP= 3.60D-02
 IDIUse=3 WtCom= 8.25D-01 WtEn= 1.75D-01
 Coeff-Com:  0.634D-01 0.773D-01 0.453D+00 0.406D+00
 Coeff-En:   0.000D+00 0.000D+00 0.474D+00 0.526D+00
 Coeff:      0.523D-01 0.638D-01 0.457D+00 0.427D+00
 Gap=     0.182 Goal=   None    Shift=    0.000
 RMSDP=9.91D-04 MaxDP=4.62D-02 DE=-3.88D-03 OVMax= 9.13D-02

 Cycle   5  Pass 0  IDiag  1:
 E= -635.128642547305     Delta-E=       -0.023699508645 Rises=F Damp=F
 DIIS: error= 6.52D-03 at cycle   5 NSaved=   5.
 NSaved= 5 IEnMin= 5 EnMin= -635.128642547305     IErMin= 5 ErrMin= 6.52D-03
 ErrMax= 6.52D-03  0.00D+00 EMaxC= 1.00D-01 BMatC= 3.82D-03 BMatP= 3.26D-02
 IDIUse=3 WtCom= 9.35D-01 WtEn= 6.52D-02
 Coeff-Com:  0.210D-01 0.151D-01 0.263D+00 0.308D+00 0.392D+00
 Coeff-En:   0.000D+00 0.000D+00 0.000D+00 0.999D-01 0.900D+00
 Coeff:      0.196D-01 0.141D-01 0.246D+00 0.295D+00 0.425D+00
 Gap=     0.175 Goal=   None    Shift=    0.000
 RMSDP=3.70D-04 MaxDP=1.66D-02 DE=-2.37D-02 OVMax= 3.28D-02

 Cycle   6  Pass 0  IDiag  1:
 E= -635.131350060906     Delta-E=       -0.002707513602 Rises=F Damp=F
 DIIS: error= 2.09D-03 at cycle   6 NSaved=   6.
 NSaved= 6 IEnMin= 6 EnMin= -635.131350060906     IErMin= 6 ErrMin= 2.09D-03
 ErrMax= 2.09D-03  0.00D+00 EMaxC= 1.00D-01 BMatC= 5.22D-04 BMatP= 3.82D-03
 IDIUse=3 WtCom= 9.79D-01 WtEn= 2.09D-02
 Coeff-Com:  0.349D-02-0.259D-02 0.906D-01 0.126D+00 0.299D+00 0.484D+00
 Coeff-En:   0.000D+00 0.000D+00 0.000D+00 0.000D+00 0.152D+00 0.848D+00
 Coeff:      0.342D-02-0.254D-02 0.887D-01 0.123D+00 0.296D+00 0.492D+00
 Gap=     0.172 Goal=   None    Shift=    0.000
 RMSDP=1.25D-04 MaxDP=4.55D-03 DE=-2.71D-03 OVMax= 8.23D-03

 Cycle   7  Pass 0  IDiag  1:
 E= -635.131745494962     Delta-E=       -0.000395434055 Rises=F Damp=F
 DIIS: error= 3.74D-04 at cycle   7 NSaved=   7.
 NSaved= 7 IEnMin= 7 EnMin= -635.131745494962     IErMin= 7 ErrMin= 3.74D-04
 ErrMax= 3.74D-04  0.00D+00 EMaxC= 1.00D-01 BMatC= 3.44D-05 BMatP= 5.22D-04
 IDIUse=3 WtCom= 9.96D-01 WtEn= 3.74D-03
 Coeff-Com:  0.227D-03-0.262D-02 0.313D-01 0.464D-01 0.140D+00 0.302D+00
 Coeff-Com:  0.483D+00
 Coeff-En:   0.000D+00 0.000D+00 0.000D+00 0.000D+00 0.000D+00 0.189D-01
 Coeff-En:   0.981D+00
 Coeff:      0.226D-03-0.261D-02 0.312D-01 0.463D-01 0.140D+00 0.301D+00
 Coeff:      0.484D+00
 Gap=     0.172 Goal=   None    Shift=    0.000
 RMSDP=3.71D-05 MaxDP=9.27D-04 DE=-3.95D-04 OVMax= 1.77D-03

 Cycle   8  Pass 0  IDiag  1:
 E= -635.131774333907     Delta-E=       -0.000028838945 Rises=F Damp=F
 DIIS: error= 1.00D-04 at cycle   8 NSaved=   8.
 NSaved= 8 IEnMin= 8 EnMin= -635.131774333907     IErMin= 8 ErrMin= 1.00D-04
 ErrMax= 1.00D-04  0.00D+00 EMaxC= 1.00D-01 BMatC= 2.10D-06 BMatP= 3.44D-05
 IDIUse=3 WtCom= 9.99D-01 WtEn= 1.00D-03
 Coeff-Com: -0.269D-03-0.131D-02 0.831D-02 0.131D-01 0.481D-01 0.120D+00
 Coeff-Com:  0.260D+00 0.552D+00
 Coeff-En:   0.000D+00 0.000D+00 0.000D+00 0.000D+00 0.000D+00 0.000D+00
 Coeff-En:   0.000D+00 0.100D+01
 Coeff:     -0.269D-03-0.130D-02 0.830D-02 0.131D-01 0.480D-01 0.120D+00
 Coeff:      0.260D+00 0.552D+00
 Gap=     0.172 Goal=   None    Shift=    0.000
 RMSDP=9.93D-06 MaxDP=3.95D-04 DE=-2.88D-05 OVMax= 8.49D-04

 Initial convergence to 1.0D-05 achieved.  Increase integral accuracy.
 Cycle   9  Pass 1  IDiag  1:
 E= -635.131797694132     Delta-E=       -0.000023360225 Rises=F Damp=F
 DIIS: error= 1.01D-04 at cycle   1 NSaved=   1.
 NSaved= 1 IEnMin= 1 EnMin= -635.131797694132     IErMin= 1 ErrMin= 1.01D-04
 ErrMax= 1.01D-04  0.00D+00 EMaxC= 1.00D-01 BMatC= 1.03D-06 BMatP= 1.03D-06
 IDIUse=3 WtCom= 9.99D-01 WtEn= 1.01D-03
 Coeff-Com:  0.100D+01
 Coeff-En:   0.100D+01
 Coeff:      0.100D+01
 Gap=     0.172 Goal=   None    Shift=    0.000
 RMSDP=9.93D-06 MaxDP=3.95D-04 DE=-2.34D-05 OVMax= 1.69D-03

 Cycle  10  Pass 1  IDiag  1:
 E= -635.131792193126     Delta-E=        0.000005501006 Rises=F Damp=F
 DIIS: error= 3.02D-04 at cycle   2 NSaved=   2.
 NSaved= 2 IEnMin= 1 EnMin= -635.131797694132     IErMin= 1 ErrMin= 1.01D-04
 ErrMax= 3.02D-04  0.00D+00 EMaxC= 1.00D-01 BMatC= 8.01D-06 BMatP= 1.03D-06
 IDIUse=3 WtCom= 3.65D-01 WtEn= 6.35D-01
 Coeff-Com:  0.739D+00 0.261D+00
 Coeff-En:   0.823D+00 0.177D+00
 Coeff:      0.793D+00 0.207D+00
 Gap=     0.172 Goal=   None    Shift=    0.000
 RMSDP=1.02D-05 MaxDP=5.03D-04 DE= 5.50D-06 OVMax= 1.05D-03

 Cycle  11  Pass 1  IDiag  1:
 E= -635.131798286561     Delta-E=       -0.000006093435 Rises=F Damp=F
 DIIS: error= 5.36D-05 at cycle   3 NSaved=   3.
 NSaved= 3 IEnMin= 3 EnMin= -635.131798286561     IErMin= 3 ErrMin= 5.36D-05
 ErrMax= 5.36D-05  0.00D+00 EMaxC= 1.00D-01 BMatC= 2.89D-07 BMatP= 1.03D-06
 IDIUse=1 WtCom= 1.00D+00 WtEn= 0.00D+00
 Coeff-Com:  0.328D+00-0.111D-01 0.683D+00
 Coeff:      0.328D+00-0.111D-01 0.683D+00
 Gap=     0.172 Goal=   None    Shift=    0.000
 RMSDP=2.49D-06 MaxDP=1.23D-04 DE=-6.09D-06 OVMax= 2.19D-04

 Cycle  12  Pass 1  IDiag  1:
 E= -635.131798512918     Delta-E=       -0.000000226357 Rises=F Damp=F
 DIIS: error= 3.75D-06 at cycle   4 NSaved=   4.
 NSaved= 4 IEnMin= 4 EnMin= -635.131798512918     IErMin= 4 ErrMin= 3.75D-06
 ErrMax= 3.75D-06  0.00D+00 EMaxC= 1.00D-01 BMatC= 4.49D-09 BMatP= 2.89D-07
 IDIUse=1 WtCom= 1.00D+00 WtEn= 0.00D+00
 Coeff-Com:  0.132D-01-0.589D-01 0.349D+00 0.696D+00
 Coeff:      0.132D-01-0.589D-01 0.349D+00 0.696D+00
 Gap=     0.172 Goal=   None    Shift=    0.000
 RMSDP=4.10D-07 MaxDP=1.46D-05 DE=-2.26D-07 OVMax= 2.91D-05

 Cycle  13  Pass 1  IDiag  1:
 E= -635.131798515159     Delta-E=       -0.000000002241 Rises=F Damp=F
 DIIS: error= 4.57D-06 at cycle   5 NSaved=   5.
 NSaved= 5 IEnMin= 5 EnMin= -635.131798515159     IErMin= 4 ErrMin= 3.75D-06
 ErrMax= 4.57D-06  0.00D+00 EMaxC= 1.00D-01 BMatC= 1.76D-09 BMatP= 4.49D-09
 IDIUse=1 WtCom= 1.00D+00 WtEn= 0.00D+00
 Coeff-Com: -0.969D-02-0.424D-01 0.215D+00 0.507D+00 0.330D+00
 Coeff:     -0.969D-02-0.424D-01 0.215D+00 0.507D+00 0.330D+00
 Gap=     0.172 Goal=   None    Shift=    0.000
 RMSDP=2.19D-07 MaxDP=1.06D-05 DE=-2.24D-09 OVMax= 2.23D-05

 Cycle  14  Pass 1  IDiag  1:
 E= -635.131798516439     Delta-E=       -0.000000001280 Rises=F Damp=F
 DIIS: error= 1.31D-06 at cycle   6 NSaved=   6.
 NSaved= 6 IEnMin= 6 EnMin= -635.131798516439     IErMin= 6 ErrMin= 1.31D-06
 ErrMax= 1.31D-06  0.00D+00 EMaxC= 1.00D-01 BMatC= 1.38D-10 BMatP= 1.76D-09
 IDIUse=1 WtCom= 1.00D+00 WtEn= 0.00D+00
 Coeff-Com: -0.779D-02-0.231D-01 0.112D+00 0.278D+00 0.242D+00 0.399D+00
 Coeff:     -0.779D-02-0.231D-01 0.112D+00 0.278D+00 0.242D+00 0.399D+00
 Gap=     0.172 Goal=   None    Shift=    0.000
 RMSDP=6.07D-08 MaxDP=2.67D-06 DE=-1.28D-09 OVMax= 5.72D-06

 Cycle  15  Pass 1  IDiag  1:
 E= -635.131798516553     Delta-E=       -0.000000000115 Rises=F Damp=F
 DIIS: error= 1.47D-07 at cycle   7 NSaved=   7.
 NSaved= 7 IEnMin= 7 EnMin= -635.131798516553     IErMin= 7 ErrMin= 1.47D-07
 ErrMax= 1.47D-07  0.00D+00 EMaxC= 1.00D-01 BMatC= 6.85D-12 BMatP= 1.38D-10
 IDIUse=1 WtCom= 1.00D+00 WtEn= 0.00D+00
 Coeff-Com: -0.303D-02-0.649D-02 0.295D-01 0.793D-01 0.906D-01 0.224D+00
 Coeff-Com:  0.586D+00
 Coeff:     -0.303D-02-0.649D-02 0.295D-01 0.793D-01 0.906D-01 0.224D+00
 Coeff:      0.586D+00
 Gap=     0.172 Goal=   None    Shift=    0.000
 RMSDP=1.57D-08 MaxDP=5.49D-07 DE=-1.15D-10 OVMax= 1.04D-06

 Cycle  16  Pass 1  IDiag  1:
 E= -635.131798516558     Delta-E=       -0.000000000005 Rises=F Damp=F
 DIIS: error= 6.67D-08 at cycle   8 NSaved=   8.
 NSaved= 8 IEnMin= 8 EnMin= -635.131798516558     IErMin= 8 ErrMin= 6.67D-08
 ErrMax= 6.67D-08  0.00D+00 EMaxC= 1.00D-01 BMatC= 8.28D-13 BMatP= 6.85D-12
 IDIUse=1 WtCom= 1.00D+00 WtEn= 0.00D+00
 Coeff-Com: -0.104D-02-0.167D-02 0.700D-02 0.210D-01 0.311D-01 0.938D-01
 Coeff-Com:  0.335D+00 0.514D+00
 Coeff:     -0.104D-02-0.167D-02 0.700D-02 0.210D-01 0.311D-01 0.938D-01
 Coeff:      0.335D+00 0.514D+00
 Gap=     0.172 Goal=   None    Shift=    0.000
 RMSDP=7.01D-09 MaxDP=2.60D-07 DE=-4.55D-12 OVMax= 4.10D-07

 SCF Done:  E(RB3LYP) =  -635.131798517     A.U. after   16 cycles
            NFock= 16  Conv=0.70D-08     -V/T= 2.0072
 KE= 6.306068036076D+02 PE=-2.705995240140D+03 EE= 8.301645701475D+02
 Leave Link  502 at Fri Aug 20 15:33:39 2021, MaxMem= 24159191040 cpu:        71.3
 (Enter /public/home/users/caep010/software/Gaussian09/g09/l601.exe)
 Copying SCF densities to generalized density rwf, IOpCl= 0 IROHF=0.

 **********************************************************************

            Population analysis using the SCF density.

 **********************************************************************

 Orbital symmetries:
       Occupied  (A) (A) (A) (A) (A) (A) (A) (A) (A) (A) (A) (A)
                 (A) (A) (A) (A) (A) (A) (A) (A) (A) (A) (A) (A)
                 (A) (A) (A) (A) (A) (A) (A) (A) (A) (A) (A) (A)
                 (A) (A) (A) (A)
       Virtual   (A) (A) (A) (A) (A) (A) (A) (A) (A) (A) (A) (A)
                 (A) (A) (A) (A) (A) (A) (A) (A) (A) (A) (A) (A)
                 (A) (A) (A) (A) (A) (A) (A) (A) (A) (A) (A) (A)
                 (A) (A) (A) (A) (A) (A) (A) (A) (A) (A) (A) (A)
                 (A) (A) (A) (A) (A) (A) (A) (A) (A) (A) (A) (A)
                 (A) (A) (A) (A) (A) (A) (A) (A) (A) (A) (A) (A)
                 (A) (A) (A) (A) (A) (A) (A) (A) (A) (A) (A) (A)
                 (A) (A) (A) (A) (A) (A) (A) (A) (A) (A) (A) (A)
                 (A) (A) (A) (A) (A) (A) (A) (A) (A) (A) (A) (A)
                 (A) (A) (A) (A) (A) (A) (A) (A) (A) (A) (A) (A)
                 (A) (A) (A) (A) (A) (A) (A) (A) (A) (A) (A) (A)
                 (A) (A) (A)
 The electronic state is 1-A.
 Alpha  occ. eigenvalues --  -19.25250 -19.25119 -19.19326 -19.19138 -14.67382
 Alpha  occ. eigenvalues --  -14.58808 -14.49771 -14.38238 -10.29672 -10.29562
 Alpha  occ. eigenvalues --  -10.27691  -1.32547  -1.24534  -1.14835  -1.10819
 Alpha  occ. eigenvalues --   -1.06761  -0.97402  -0.85915  -0.80642  -0.74478
 Alpha  occ. eigenvalues --   -0.67371  -0.63864  -0.62574  -0.61473  -0.57671
 Alpha  occ. eigenvalues --   -0.56132  -0.55490  -0.53827  -0.52916  -0.50268
 Alpha  occ. eigenvalues --   -0.49469  -0.39697  -0.37918  -0.36777  -0.35610
 Alpha  occ. eigenvalues --   -0.33574  -0.32273  -0.32002  -0.30741  -0.30159
 Alpha virt. eigenvalues --   -0.12920  -0.09001  -0.01809   0.04035   0.04423
 Alpha virt. eigenvalues --    0.12895   0.13690   0.15493   0.17003   0.18553
 Alpha virt. eigenvalues --    0.22805   0.25030   0.28203   0.29857   0.32962
 Alpha virt. eigenvalues --    0.38175   0.40988   0.45925   0.48650   0.50377
 Alpha virt. eigenvalues --    0.51716   0.52522   0.55585   0.55822   0.57782
 Alpha virt. eigenvalues --    0.62048   0.63580   0.63814   0.68258   0.72103
 Alpha virt. eigenvalues --    0.72912   0.74529   0.75829   0.76808   0.77317
 Alpha virt. eigenvalues --    0.78577   0.79653   0.80999   0.84906   0.86914
 Alpha virt. eigenvalues --    0.89363   0.89533   0.91219   0.93872   0.94165
 Alpha virt. eigenvalues --    0.94896   0.97726   0.99710   1.00985   1.02884
 Alpha virt. eigenvalues --    1.09019   1.11183   1.16650   1.18044   1.20533
 Alpha virt. eigenvalues --    1.23517   1.24803   1.28703   1.30200   1.31856
 Alpha virt. eigenvalues --    1.32943   1.35484   1.35731   1.38594   1.41446
 Alpha virt. eigenvalues --    1.48908   1.53367   1.54158   1.62942   1.63589
 Alpha virt. eigenvalues --    1.66715   1.67742   1.70877   1.73748   1.75436
 Alpha virt. eigenvalues --    1.76830   1.79796   1.80101   1.85337   1.86305
 Alpha virt. eigenvalues --    1.86534   1.90654   1.93057   1.93618   1.95156
 Alpha virt. eigenvalues --    2.01148   2.03670   2.08505   2.09174   2.09628
 Alpha virt. eigenvalues --    2.10924   2.13631   2.16343   2.19111   2.24113
 Alpha virt. eigenvalues --    2.26455   2.30901   2.38114   2.40278   2.41147
 Alpha virt. eigenvalues --    2.47327   2.49173   2.50351   2.64791   2.66410
 Alpha virt. eigenvalues --    2.68060   2.69822   2.70419   2.71978   2.74395
 Alpha virt. eigenvalues --    2.80122   2.80506   2.83250   2.83852   2.88450
 Alpha virt. eigenvalues --    2.88870   2.93611   3.01849   3.10647   3.17233
 Alpha virt. eigenvalues --    3.23361   3.39547   3.56127   3.67341   3.75212
 Alpha virt. eigenvalues --    3.82217   3.84677   3.93009   3.95466   4.01882
 Alpha virt. eigenvalues --    4.07308   4.19920   4.27390   4.46860   4.68214
          Condensed to atoms (all electrons):
               1          2          3          4          5          6
     1  N    6.018344   0.296230   0.312568   0.137394  -0.050616   0.002248
     2  O    0.296230   8.242406  -0.096709  -0.082117   0.000707   0.000770
     3  O    0.312568  -0.096709   8.263991  -0.098095   0.002916  -0.000079
     4  C    0.137394  -0.082117  -0.098095   4.967030   0.414445  -0.085996
     5  N   -0.050616   0.000707   0.002916   0.414445   6.754997   0.506990
     6  C    0.002248   0.000770  -0.000079  -0.085996   0.506990   4.551497
     7  N    0.003135  -0.000043   0.000430  -0.033999  -0.051280   0.342816
     8  H   -0.000177   0.000008   0.000003   0.002424  -0.034683   0.403873
     9  N    0.000005   0.000000  -0.000001   0.007987   0.003528  -0.015201
    10  O   -0.000006  -0.000000   0.000000   0.000460  -0.000127   0.003628
    11  O    0.000000  -0.000000   0.000000  -0.000356   0.000421   0.011355
    12  C   -0.070502   0.006912   0.005519   0.432976  -0.111832  -0.111188
    13  H   -0.008383  -0.000009   0.010339  -0.019648   0.006358   0.003433
               7          8          9         10         11         12
     1  N    0.003135  -0.000177   0.000005  -0.000006   0.000000  -0.070502
     2  O   -0.000043   0.000008   0.000000  -0.000000  -0.000000   0.006912
     3  O    0.000430   0.000003  -0.000001   0.000000   0.000000   0.005519
     4  C   -0.033999   0.002424   0.007987   0.000460  -0.000356   0.432976
     5  N   -0.051280  -0.034683   0.003528  -0.000127   0.000421  -0.111832
     6  C    0.342816   0.403873  -0.015201   0.003628   0.011355  -0.111188
     7  N    7.083395  -0.048258   0.093490  -0.124384  -0.126966   0.292104
     8  H   -0.048258   0.527477  -0.001767  -0.000004   0.007726   0.006004
     9  N    0.093490  -0.001767   5.568276   0.346984   0.345565  -0.029433
    10  O   -0.124384  -0.000004   0.346984   8.203680  -0.096933   0.014131
    11  O   -0.126966   0.007726   0.345565  -0.096933   8.211885   0.005435
    12  C    0.292104   0.006004  -0.029433   0.014131   0.005435   4.942664
    13  H   -0.036637  -0.000138  -0.002942   0.006465   0.000066   0.375621
              13
     1  N   -0.008383
     2  O   -0.000009
     3  O    0.010339
     4  C   -0.019648
     5  N    0.006358
     6  C    0.003433
     7  N   -0.036637
     8  H   -0.000138
     9  N   -0.002942
    10  O    0.006465
    11  O    0.000066
    12  C    0.375621
    13  H    0.514442
 Mulliken charges:
               1
     1  N    0.359758
     2  O   -0.368155
     3  O   -0.400882
     4  C    0.357495
     5  N   -0.441823
     6  C    0.385854
     7  N   -0.393801
     8  H    0.137514
     9  N    0.683510
    10  O   -0.353895
    11  O   -0.358198
    12  C    0.241589
    13  H    0.151034
 Sum of Mulliken charges =  -0.00000
 Mulliken charges with hydrogens summed into heavy atoms:
               1
     1  N    0.359758
     2  O   -0.368155
     3  O   -0.400882
     4  C    0.357495
     5  N   -0.441823
     6  C    0.523368
     7  N   -0.393801
     9  N    0.683510
    10  O   -0.353895
    11  O   -0.358198
    12  C    0.392623
 Electronic spatial extent (au):  <R**2>=           1804.1284
 Charge=             -0.0000 electrons
 Dipole moment (field-independent basis, Debye):
    X=              3.5635    Y=             -0.0926    Z=             -0.0823  Tot=              3.5657
 Quadrupole moment (field-independent basis, Debye-Ang):
   XX=            -77.8993   YY=            -62.4020   ZZ=            -56.7922
   XY=             -2.9341   XZ=              0.1568   YZ=             -0.2715
 Traceless Quadrupole moment (field-independent basis, Debye-Ang):
   XX=            -12.2015   YY=              3.2958   ZZ=              8.9056
   XY=             -2.9341   XZ=              0.1568   YZ=             -0.2715
 Octapole moment (field-independent basis, Debye-Ang**2):
  XXX=             23.0963  YYY=              0.9364  ZZZ=              0.0083  XYY=             12.7304
  XXY=             -2.1427  XXZ=              0.2545  XZZ=              1.1657  YZZ=              2.5135
  YYZ=             -0.3761  XYZ=             -2.0185
 Hexadecapole moment (field-independent basis, Debye-Ang**3):
 XXXX=          -1884.4689 YYYY=           -380.3227 ZZZZ=            -47.0624 XXXY=              3.4569
 XXXZ=              2.6633 YYYX=            -17.1103 YYYZ=             -0.1214 ZZZX=              0.1061
 ZZZY=              0.5206 XXYY=           -379.2830 XXZZ=           -264.4883 YYZZ=            -72.1416
 XXYZ=             -1.1580 YYXZ=             -0.6542 ZZXY=              0.1228
 N-N= 6.100920678679D+02 E-N=-2.705995239853D+03  KE= 6.306068036076D+02
 No NMR shielding tensors so no spin-rotation constants.
 Leave Link  601 at Fri Aug 20 15:33:40 2021, MaxMem= 24159191040 cpu:        11.7
 (Enter /public/home/users/caep010/software/Gaussian09/g09/l701.exe)
 Compute integral first derivatives.
 ... and contract with generalized density number  0.
 Leave Link  701 at Fri Aug 20 15:33:40 2021, MaxMem= 24159191040 cpu:        10.9
 (Enter /public/home/users/caep010/software/Gaussian09/g09/l702.exe)
 L702 exits ... SP integral derivatives will be done elsewhere.
 Leave Link  702 at Fri Aug 20 15:33:40 2021, MaxMem= 24159191040 cpu:         0.5
 (Enter /public/home/users/caep010/software/Gaussian09/g09/l703.exe)
 Compute integral first derivatives, UseDBF=F ICtDFT=           0.
 Integral derivatives from FoFJK, PRISM(SPDF).
 Calling FoFJK, ICntrl=      2127 FMM=F ISym2X=0 I1Cent= 0 IOpClX= 0 NMat=1 NMatS=1 NMatT=0.
 FoFJK:  IHMeth= 1 ICntrl=    2127 DoSepK=F KAlg= 0 I1Cent=   0 FoldK=F
 IRaf=         0 NMat=   1 IRICut=       1 DoRegI=T DoRafI=F ISym2E= 0.
 FoFCou: FMM=F IPFlag=           0 FMFlag=      100000 FMFlg1=         800
         NFxFlg=           0 DoJE=F BraDBF=F KetDBF=F FulRan=T
         wScrn=  0.000000 ICntrl=    2127 IOpCl=  0 I1Cent=           0 NGrid=           0
         NMat0=    1 NMatS0=      1 NMatT0=    0 NMatD0=    1 NMtDS0=    0 NMtDT0=    0
 Symmetry not used in FoFCou.
 Leave Link  703 at Fri Aug 20 15:33:41 2021, MaxMem= 24159191040 cpu:        16.4
 (Enter /public/home/users/caep010/software/Gaussian09/g09/l716.exe)
 Dipole        = 1.40199794D+00-3.64356508D-02-3.23881395D-02
 ***** Axes restored to original set *****
 -------------------------------------------------------------------
 Center     Atomic                   Forces (Hartrees/Bohr)
 Number     Number              X              Y              Z
 -------------------------------------------------------------------
      1        7           0.018942574    0.006303397   -0.008054888
      2        8          -0.002098762    0.004231313    0.002922836
      3        8          -0.013903908   -0.016569205    0.000839469
      4        6           0.031006591    0.008327539   -0.013503782
      5        7           0.007846798   -0.007278944   -0.008144116
      6        6           0.002716982   -0.127527570   -0.052287999
      7        7          -0.012090210   -0.009168293    0.002078787
      8        1          -0.001523212    0.155626288    0.062520405
      9        7           0.008608064   -0.000498133   -0.002525238
     10        8          -0.010207975   -0.012579787    0.000938561
     11        8          -0.004089497    0.017619069    0.006823999
     12        6           0.070599720    0.117059732    0.009003539
     13        1          -0.095807166   -0.135545407   -0.000611572
 -------------------------------------------------------------------
 Cartesian Forces:  Max     0.155626288 RMS     0.049811141
 Leave Link  716 at Fri Aug 20 15:33:41 2021, MaxMem= 24159191040 cpu:         0.7
 (Enter /public/home/users/caep010/software/Gaussian09/g09/l103.exe)

 GradGradGradGradGradGradGradGradGradGradGradGradGradGradGradGradGradGrad
 Berny optimization.
 FormGI is forming the generalized inverse of G from B-inverse, IUseBI=4.
 Internal  Forces:  Max     0.167599625 RMS     0.032569494
 Search for a local minimum.
 Step number   1 out of a maximum of   66
 All quantities printed in internal units (Hartrees-Bohrs-Radians)
 RMS Force = .32569D-01 SwitMx=.10000D-02 MixMth= 1
 Mixed Optimization -- RFO/linear search
 Second derivative matrix not updated -- first step.
 ITU=  0
     Eigenvalues ---    0.00986   0.00989   0.01180   0.01180   0.01742
     Eigenvalues ---    0.02048   0.02326   0.02376   0.02546   0.02632
     Eigenvalues ---    0.16000   0.16000   0.23373   0.24051   0.24977
     Eigenvalues ---    0.25000   0.25000   0.25000   0.25000   0.25000
     Eigenvalues ---    0.39765   0.41963   0.44937   0.48363   0.51094
     Eigenvalues ---    0.55706   0.62362   0.62409   0.66577   0.91874
     Eigenvalues ---    0.95590   1.02867   1.02928
 RFO step:  Lambda=-8.47804419D-02 EMin= 9.86198348D-03
 Linear search not attempted -- first point.
 Maximum step size (   0.300) exceeded in Quadratic search.
    -- Step size scaled by   0.854
 Iteration  1 RMS(Cart)=  0.04480985 RMS(Int)=  0.00078075
 Iteration  2 RMS(Cart)=  0.00095739 RMS(Int)=  0.00002307
 Iteration  3 RMS(Cart)=  0.00000154 RMS(Int)=  0.00002302
 Iteration  4 RMS(Cart)=  0.00000000 RMS(Int)=  0.00002302
 ITry= 1 IFail=0 DXMaxC= 2.09D-01 DCOld= 1.00D+10 DXMaxT= 3.00D-01 DXLimC= 3.00D+00 Rises=F
 Variable       Old X    -DE/DX   Delta X   Delta X   Delta X     New X
                                 (Linear)    (Quad)   (Total)
    R1        2.32081  -0.00160   0.00000  -0.00136  -0.00136   2.31945
    R2        2.30459   0.02035   0.00000   0.01669   0.01669   2.32128
    R3        2.71873   0.00780   0.00000   0.01381   0.01381   2.73255
    R4        2.59058   0.00617   0.00000   0.00913   0.00914   2.59971
    R5        2.52329   0.03442   0.00000   0.04431   0.04431   2.56759
    R6        2.44120   0.02113   0.00000   0.02299   0.02300   2.46420
    R7        2.58268   0.01862   0.00000   0.02612   0.02612   2.60880
    R8        1.75819   0.16760   0.00000   0.20203   0.20203   1.96022
    R9        2.68970   0.00828   0.00000   0.01401   0.01401   2.70372
   R10        2.58615   0.01126   0.00000   0.01605   0.01604   2.60219
   R11        2.27489   0.01607   0.00000   0.01232   0.01232   2.28721
   R12        2.27512   0.01921   0.00000   0.01473   0.01473   2.28985
   R13        1.75784   0.16567   0.00000   0.19958   0.19958   1.95742
    A1        2.17527   0.00979   0.00000   0.02498   0.02498   2.20025
    A2        2.06272  -0.00255   0.00000  -0.00651  -0.00651   2.05621
    A3        2.04520  -0.00724   0.00000  -0.01847  -0.01847   2.02673
    A4        2.10800   0.00680   0.00000   0.01684   0.01684   2.12485
    A5        2.18824  -0.00223   0.00000  -0.00618  -0.00618   2.18206
    A6        1.98693  -0.00457   0.00000  -0.01066  -0.01066   1.97627
    A7        1.81235   0.00585   0.00000   0.01529   0.01531   1.82767
    A8        1.93874  -0.00354   0.00000  -0.01057  -0.01057   1.92817
    A9        2.17223   0.00739   0.00000   0.02491   0.02491   2.19714
   A10        2.17222  -0.00386   0.00000  -0.01434  -0.01434   2.15788
   A11        2.20684  -0.00313   0.00000  -0.00777  -0.00777   2.19907
   A12        1.89377   0.00260   0.00000   0.00621   0.00619   1.89997
   A13        2.18202   0.00053   0.00000   0.00157   0.00157   2.18359
   A14        2.01795  -0.00183   0.00000  -0.00456  -0.00464   2.01331
   A15        1.99753   0.00343   0.00000   0.00885   0.00877   2.00630
   A16        2.26753  -0.00156   0.00000  -0.00389  -0.00397   2.26356
   A17        1.79295  -0.00034   0.00000  -0.00025  -0.00027   1.79268
   A18        2.24432   0.00914   0.00000   0.03141   0.03142   2.27574
   A19        2.24592  -0.00880   0.00000  -0.03117  -0.03116   2.21476
    D1        0.00785   0.00010   0.00000   0.00091   0.00092   0.00877
    D2       -3.12806  -0.00000   0.00000  -0.00004  -0.00005  -3.12811
    D3       -3.13398   0.00001   0.00000   0.00008   0.00009  -3.13389
    D4        0.01329  -0.00010   0.00000  -0.00087  -0.00088   0.01241
    D5        3.13910   0.00005   0.00000   0.00033   0.00032   3.13942
    D6       -0.00756   0.00015   0.00000   0.00118   0.00119  -0.00637
    D7        3.14087   0.00026   0.00000   0.00193   0.00194  -3.14038
    D8       -0.00158   0.00010   0.00000   0.00062   0.00059  -0.00098
    D9        0.00461   0.00012   0.00000   0.00096   0.00096   0.00557
   D10       -3.13783  -0.00004   0.00000  -0.00035  -0.00038  -3.13822
   D11        0.00725  -0.00035   0.00000  -0.00291  -0.00290   0.00435
   D12       -3.13494  -0.00004   0.00000  -0.00051  -0.00048  -3.13541
   D13        3.10214   0.00053   0.00000   0.00394   0.00391   3.10605
   D14       -0.00488   0.00050   0.00000   0.00377   0.00376  -0.00112
   D15       -0.03886   0.00021   0.00000   0.00153   0.00154  -0.03733
   D16        3.13731   0.00018   0.00000   0.00136   0.00138   3.13869
   D17       -2.96530  -0.00234   0.00000  -0.02099  -0.02099  -2.98629
   D18        0.15870   0.00003   0.00000   0.00036   0.00036   0.15906
   D19        0.13625  -0.00229   0.00000  -0.02076  -0.02077   0.11549
   D20       -3.02294   0.00008   0.00000   0.00059   0.00058  -3.02235
   D21        0.00005  -0.00034   0.00000  -0.00270  -0.00270  -0.00266
   D22       -3.14069  -0.00019   0.00000  -0.00143  -0.00147   3.14103
   D23       -3.10758  -0.00028   0.00000  -0.00263  -0.00263  -3.11021
   D24        0.03486  -0.00013   0.00000  -0.00136  -0.00139   0.03347
         Item               Value     Threshold  Converged?
 Maximum Force            0.167600     0.000450     NO 
 RMS     Force            0.032569     0.000300     NO 
 Maximum Displacement     0.209366     0.001800     NO 
 RMS     Displacement     0.045000     0.001200     NO 
 Predicted change in Energy=-4.534058D-02
 Lowest energy point so far.  Saving SCF results.
 GradGradGradGradGradGradGradGradGradGradGradGradGradGradGradGradGradGrad

 Leave Link  103 at Fri Aug 20 15:33:41 2021, MaxMem= 24159191040 cpu:        10.3
 (Enter /public/home/users/caep010/software/Gaussian09/g09/l202.exe)
                          Input orientation:                          
 ---------------------------------------------------------------------
 Center     Atomic      Atomic             Coordinates (Angstroms)
 Number     Number       Type             X           Y           Z
 ---------------------------------------------------------------------
      1          7           0        1.790233    4.051395    4.800695
      2          8           0        2.872829    4.428137    4.361874
      3          8           0        1.285110    2.945172    4.627460
      4          6           0        1.024921    4.982762    5.599301
      5          7           0        1.477190    6.255880    5.858525
      6          6           0        0.543383    6.796506    6.590741
      7          7           0       -0.482745    5.898269    6.805351
      8          1           0        0.549314    7.762892    6.967653
      9          7           0       -1.652118    6.130687    7.596286
     10          8           0       -2.346382    5.158963    7.792921
     11          8           0       -1.800206    7.275186    7.965742
     12          6           0       -0.179866    4.715840    6.167930
     13          1           0       -0.755761    3.855112    6.147520
 ---------------------------------------------------------------------
                    Distance matrix (angstroms):
                    1          2          3          4          5
     1  N    0.000000
     2  O    1.227401   0.000000
     3  O    1.228369   2.188737   0.000000
     4  C    1.446001   2.292073   2.272432   0.000000
     5  N    2.465107   2.743796   3.537401   1.375709   0.000000
     6  C    3.506355   4.000417   4.386046   2.122380   1.303998
     7  N    3.549087   4.403606   4.072997   2.136765   2.205836
     8  H    4.473343   4.827981   5.406323   3.134918   2.088589
     9  N    4.897813   5.816807   5.252499   3.531603   3.581628
    10  O    5.224146   6.288589   5.301769   4.026003   4.423214
    11  O    5.770754   6.552161   6.277923   4.340114   4.027490
    12  C    2.488395   3.558590   2.766671   1.358712   2.283264
    13  H    2.886962   4.084551   2.702542   2.177835   3.291395
                    6          7          8          9         10
     6  C    0.000000
     7  N    1.380517   0.000000
     8  H    1.037304   2.137360   0.000000
     9  N    2.504928   1.430745   2.811685   0.000000
    10  O    3.532354   2.234952   3.980774   1.210337   0.000000
    11  O    2.759017   2.231168   2.598900   1.211736   2.192390
    12  C    2.242996   1.377018   3.233541   2.491891   2.744220
    13  H    3.245923   2.163739   4.200783   2.842643   2.633903
                   11         12         13
    11  O    0.000000
    12  C    3.522482   0.000000
    13  H    4.011695   1.035820   0.000000
 Stoichiometry    C3H2N4O4
 Framework group  C1[X(C3H2N4O4)]
 Deg. of freedom    33
 Full point group                 C1      NOp   1
 RotChk:  IX=0 Diff= 2.74D-03
 Largest Abelian subgroup         C1      NOp   1
 Largest concise Abelian subgroup C1      NOp   1
                         Standard orientation:                         
 ---------------------------------------------------------------------
 Center     Atomic      Atomic             Coordinates (Angstroms)
 Number     Number       Type             X           Y           Z
 ---------------------------------------------------------------------
      1          7           0       -2.459210    0.245194   -0.008861
      2          8           0       -3.304483   -0.643522    0.038151
      3          8           0       -2.681113    1.452265   -0.060123
      4          6           0       -1.067305   -0.146574   -0.002830
      5          7           0       -0.687499   -1.468016    0.043174
      6          6           0        0.616117   -1.438628    0.031607
      7          7           0        1.069398   -0.135474   -0.014787
      8          1           0        1.243149   -2.264712    0.052039
      9          7           0        2.438469    0.279741    0.001624
     10          8           0        2.617473    1.470635    0.122642
     11          8           0        3.245897   -0.616590   -0.112197
     12          6           0       -0.015256    0.712635   -0.035223
     13          1           0        0.005217    1.747695   -0.069202
 ---------------------------------------------------------------------
 Rotational constants (GHZ):      3.2942205      0.6490050      0.5428713
 Leave Link  202 at Fri Aug 20 15:33:41 2021, MaxMem= 24159191040 cpu:         0.2
 (Enter /public/home/users/caep010/software/Gaussian09/g09/l301.exe)
 Standard basis: 6-31G(d,p) (6D, 7F)
 Ernie: Thresh=  0.10000D-02 Tol=  0.10000D-05 Strict=F.
 There are   175 symmetry adapted cartesian basis functions of A   symmetry.
 There are   175 symmetry adapted basis functions of A   symmetry.
   175 basis functions,   322 primitive gaussians,   175 cartesian basis functions
    40 alpha electrons       40 beta electrons
       nuclear repulsion energy       604.9401886206 Hartrees.
 IExCor=  402 DFT=T Ex+Corr=B3LYP ExCW=0 ScaHFX=  0.200000
 ScaDFX=  0.800000  0.720000  1.000000  0.810000 ScalE2=  1.000000  1.000000
 IRadAn=      0 IRanWt=     -1 IRanGd=            0 ICorTp=0 IEmpDi=  4
 NAtoms=   13 NActive=   13 NUniq=   13 SFac= 1.00D+00 NAtFMM=   60 NAOKFM=F Big=F
 Integral buffers will be    131072 words long.
 Raffenetti 2 integral format.
 Two-electron integral symmetry is turned on.
 Leave Link  301 at Fri Aug 20 15:33:41 2021, MaxMem= 24159191040 cpu:         1.6
 (Enter /public/home/users/caep010/software/Gaussian09/g09/l302.exe)
 NPDir=0 NMtPBC=     1 NCelOv=     1 NCel=       1 NClECP=     1 NCelD=      1
         NCelK=      1 NCelE2=     1 NClLst=     1 CellRange=     0.0.
 One-electron integrals computed using PRISM.
 NBasis=   175 RedAO= T EigKep=  1.10D-03  NBF=   175
 NBsUse=   175 1.00D-06 EigRej= -1.00D+00 NBFU=   175
 Precomputing XC quadrature grid using
 IXCGrd= 4 IRadAn=           0 IRanWt=          -1 IRanGd=           0 AccXCQ= 0.00D+00.
 Generated NRdTot=       0 NPtTot=           0 NUsed=           0 NTot=          32
 NSgBfM=   175   175   175   175   175 MxSgAt=    13 MxSgA2=    13.
 Leave Link  302 at Fri Aug 20 15:33:42 2021, MaxMem= 24159191040 cpu:        11.9
 (Enter /public/home/users/caep010/software/Gaussian09/g09/l303.exe)
 DipDrv:  MaxL=1.
 Leave Link  303 at Fri Aug 20 15:33:42 2021, MaxMem= 24159191040 cpu:         0.7
 (Enter /public/home/users/caep010/software/Gaussian09/g09/l401.exe)
 Initial guess from the checkpoint file:  "/public/home/users/caep010/.cache/gau_scr/Gau-24922.chk"
 B after Tr=    -0.000000    0.000000    0.000000
         Rot=    1.000000   -0.000234    0.000044   -0.000206 Ang=  -0.04 deg.
 Guess basis will be translated and rotated to current coordinates.
 JPrj=2 DoOrth=T DoCkMO=T.
 Generating alternative initial guess.
 ExpMin= 1.61D-01 ExpMax= 5.48D+03 ExpMxC= 8.25D+02 IAcc=1 IRadAn=         1 AccDes= 0.00D+00
 Harris functional with IExCor=  402 and IRadAn=       1 diagonalized for initial guess.
 HarFok:  IExCor=  402 AccDes= 0.00D+00 IRadAn=         1 IDoV= 1 UseB2=F ITyADJ=14
 ICtDFT=  3500011 ScaDFX=  1.000000  1.000000  1.000000  1.000000
 FoFCou: FMM=F IPFlag=           0 FMFlag=      100000 FMFlg1=           0
         NFxFlg=           0 DoJE=T BraDBF=F KetDBF=T FulRan=T
         wScrn=  0.000000 ICntrl=     500 IOpCl=  0 I1Cent=   200000004 NGrid=           0
         NMat0=    1 NMatS0=      1 NMatT0=    0 NMatD0=    1 NMtDS0=    0 NMtDT0=    0
 Petite list used in FoFCou.
 Harris En= -635.210614916898    
 Leave Link  401 at Fri Aug 20 15:33:42 2021, MaxMem= 24159191040 cpu:        12.4
 (Enter /public/home/users/caep010/software/Gaussian09/g09/l502.exe)
 Closed shell SCF:
 Using DIIS extrapolation, IDIIS=  1040.
 Integral symmetry usage will be decided dynamically.
 Keep R1 ints in memory in canonical form, NReq=121430826.
 IVT=      117326 IEndB=      117326 NGot= 24159191040 MDV= 24040486015
 LenX= 24040486015 LenY= 24040454949
 Requested convergence on RMS density matrix=1.00D-08 within 128 cycles.
 Requested convergence on MAX density matrix=1.00D-06.
 Requested convergence on             energy=1.00D-06.
 No special actions if energy rises.
 FoFCou: FMM=F IPFlag=           0 FMFlag=           0 FMFlg1=           0
         NFxFlg=           0 DoJE=F BraDBF=F KetDBF=F FulRan=T
         wScrn=  0.000000 ICntrl=     600 IOpCl=  0 I1Cent=           0 NGrid=           0
         NMat0=    1 NMatS0=  15400 NMatT0=    0 NMatD0=    1 NMtDS0=    0 NMtDT0=    0
 Symmetry not used in FoFCou.
 Integral accuracy reduced to 1.0D-05 until final iterations.

 Cycle   1  Pass 0  IDiag  1:
 E= -635.167775670537    
 DIIS: error= 3.74D-03 at cycle   1 NSaved=   1.
 NSaved= 1 IEnMin= 1 EnMin= -635.167775670537     IErMin= 1 ErrMin= 3.74D-03
 ErrMax= 3.74D-03  0.00D+00 EMaxC= 1.00D-01 BMatC= 4.06D-03 BMatP= 4.06D-03
 IDIUse=3 WtCom= 9.63D-01 WtEn= 3.74D-02
 Coeff-Com:  0.100D+01
 Coeff-En:   0.100D+01
 Coeff:      0.100D+01
 Gap=     1.581 Goal=   None    Shift=    0.000
 GapD=    1.581 DampG=2.000 DampE=1.000 DampFc=2.0000 IDamp=-1.
 RMSDP=7.83D-04 MaxDP=1.78D-02              OVMax= 2.24D-02

 Cycle   2  Pass 0  IDiag  1:
 E= -635.171913292578     Delta-E=       -0.004137622041 Rises=F Damp=F
 DIIS: error= 2.33D-03 at cycle   2 NSaved=   2.
 NSaved= 2 IEnMin= 2 EnMin= -635.171913292578     IErMin= 2 ErrMin= 2.33D-03
 ErrMax= 2.33D-03  0.00D+00 EMaxC= 1.00D-01 BMatC= 9.69D-04 BMatP= 4.06D-03
 IDIUse=3 WtCom= 9.77D-01 WtEn= 2.33D-02
 Coeff-Com:  0.267D+00 0.733D+00
 Coeff-En:   0.000D+00 0.100D+01
 Coeff:      0.261D+00 0.739D+00
 Gap=     0.175 Goal=   None    Shift=    0.000
 RMSDP=3.32D-04 MaxDP=1.38D-02 DE=-4.14D-03 OVMax= 2.39D-02

 Cycle   3  Pass 0  IDiag  1:
 E= -635.171834769299     Delta-E=        0.000078523278 Rises=F Damp=F
 DIIS: error= 2.53D-03 at cycle   3 NSaved=   3.
 NSaved= 3 IEnMin= 2 EnMin= -635.171913292578     IErMin= 2 ErrMin= 2.33D-03
 ErrMax= 2.53D-03  0.00D+00 EMaxC= 1.00D-01 BMatC= 1.15D-03 BMatP= 9.69D-04
 IDIUse=3 WtCom= 1.66D-01 WtEn= 8.34D-01
 Coeff-Com:  0.620D-01 0.512D+00 0.426D+00
 Coeff-En:   0.000D+00 0.516D+00 0.484D+00
 Coeff:      0.103D-01 0.516D+00 0.474D+00
 Gap=     0.176 Goal=   None    Shift=    0.000
 RMSDP=2.23D-04 MaxDP=7.14D-03 DE= 7.85D-05 OVMax= 1.46D-02

 Cycle   4  Pass 0  IDiag  1:
 E= -635.172684439025     Delta-E=       -0.000849669726 Rises=F Damp=F
 DIIS: error= 1.51D-03 at cycle   4 NSaved=   4.
 NSaved= 4 IEnMin= 4 EnMin= -635.172684439025     IErMin= 4 ErrMin= 1.51D-03
 ErrMax= 1.51D-03  0.00D+00 EMaxC= 1.00D-01 BMatC= 2.52D-04 BMatP= 9.69D-04
 IDIUse=3 WtCom= 9.85D-01 WtEn= 1.51D-02
 Coeff-Com:  0.189D-01 0.313D+00 0.333D+00 0.336D+00
 Coeff-En:   0.000D+00 0.000D+00 0.162D+00 0.838D+00
 Coeff:      0.186D-01 0.308D+00 0.330D+00 0.344D+00
 Gap=     0.172 Goal=   None    Shift=    0.000
 RMSDP=8.78D-05 MaxDP=3.78D-03 DE=-8.50D-04 OVMax= 8.08D-03

 Cycle   5  Pass 0  IDiag  1:
 E= -635.172876787384     Delta-E=       -0.000192348359 Rises=F Damp=F
 DIIS: error= 5.02D-04 at cycle   5 NSaved=   5.
 NSaved= 5 IEnMin= 5 EnMin= -635.172876787384     IErMin= 5 ErrMin= 5.02D-04
 ErrMax= 5.02D-04  0.00D+00 EMaxC= 1.00D-01 BMatC= 2.31D-05 BMatP= 2.52D-04
 IDIUse=3 WtCom= 9.95D-01 WtEn= 5.02D-03
 Coeff-Com:  0.177D-03 0.116D+00 0.144D+00 0.243D+00 0.497D+00
 Coeff-En:   0.000D+00 0.000D+00 0.000D+00 0.820D-01 0.918D+00
 Coeff:      0.176D-03 0.115D+00 0.143D+00 0.242D+00 0.499D+00
 Gap=     0.172 Goal=   None    Shift=    0.000
 RMSDP=2.99D-05 MaxDP=1.43D-03 DE=-1.92D-04 OVMax= 2.66D-03

 Cycle   6  Pass 0  IDiag  1:
 E= -635.172890793634     Delta-E=       -0.000014006249 Rises=F Damp=F
 DIIS: error= 1.57D-04 at cycle   6 NSaved=   6.
 NSaved= 6 IEnMin= 6 EnMin= -635.172890793634     IErMin= 6 ErrMin= 1.57D-04
 ErrMax= 1.57D-04  0.00D+00 EMaxC= 1.00D-01 BMatC= 5.22D-06 BMatP= 2.31D-05
 IDIUse=3 WtCom= 9.98D-01 WtEn= 1.57D-03
 Coeff-Com: -0.282D-02 0.347D-01 0.517D-01 0.120D+00 0.367D+00 0.430D+00
 Coeff-En:   0.000D+00 0.000D+00 0.000D+00 0.000D+00 0.224D+00 0.776D+00
 Coeff:     -0.282D-02 0.346D-01 0.516D-01 0.120D+00 0.367D+00 0.430D+00
 Gap=     0.172 Goal=   None    Shift=    0.000
 RMSDP=1.18D-05 MaxDP=4.06D-04 DE=-1.40D-05 OVMax= 6.81D-04

 Cycle   7  Pass 0  IDiag  1:
 E= -635.172895066094     Delta-E=       -0.000004272460 Rises=F Damp=F
 DIIS: error= 2.60D-05 at cycle   7 NSaved=   7.
 NSaved= 7 IEnMin= 7 EnMin= -635.172895066094     IErMin= 7 ErrMin= 2.60D-05
 ErrMax= 2.60D-05  0.00D+00 EMaxC= 1.00D-01 BMatC= 1.56D-07 BMatP= 5.22D-06
 IDIUse=1 WtCom= 1.00D+00 WtEn= 0.00D+00
 Coeff-Com: -0.150D-02 0.113D-01 0.188D-01 0.481D-01 0.164D+00 0.233D+00
 Coeff-Com:  0.527D+00
 Coeff:     -0.150D-02 0.113D-01 0.188D-01 0.481D-01 0.164D+00 0.233D+00
 Coeff:      0.527D+00
 Gap=     0.172 Goal=   None    Shift=    0.000
 RMSDP=2.48D-06 MaxDP=6.13D-05 DE=-4.27D-06 OVMax= 9.95D-05

 Initial convergence to 1.0D-05 achieved.  Increase integral accuracy.
 Cycle   8  Pass 1  IDiag  1:
 E= -635.172907537165     Delta-E=       -0.000012471071 Rises=F Damp=F
 DIIS: error= 9.73D-06 at cycle   1 NSaved=   1.
 NSaved= 1 IEnMin= 1 EnMin= -635.172907537165     IErMin= 1 ErrMin= 9.73D-06
 ErrMax= 9.73D-06  0.00D+00 EMaxC= 1.00D-01 BMatC= 7.42D-08 BMatP= 7.42D-08
 IDIUse=1 WtCom= 1.00D+00 WtEn= 0.00D+00
 Coeff-Com:  0.100D+01
 Coeff:      0.100D+01
 Gap=     0.172 Goal=   None    Shift=    0.000
 RMSDP=2.48D-06 MaxDP=6.13D-05 DE=-1.25D-05 OVMax= 9.84D-05

 Cycle   9  Pass 1  IDiag  1:
 E= -635.172907511798     Delta-E=        0.000000025368 Rises=F Damp=F
 DIIS: error= 1.88D-05 at cycle   2 NSaved=   2.
 NSaved= 2 IEnMin= 1 EnMin= -635.172907537165     IErMin= 1 ErrMin= 9.73D-06
 ErrMax= 1.88D-05  0.00D+00 EMaxC= 1.00D-01 BMatC= 1.24D-07 BMatP= 7.42D-08
 IDIUse=1 WtCom= 1.00D+00 WtEn= 0.00D+00
 Coeff-Com:  0.578D+00 0.422D+00
 Coeff:      0.578D+00 0.422D+00
 Gap=     0.172 Goal=   None    Shift=    0.000
 RMSDP=2.08D-06 MaxDP=6.92D-05 DE= 2.54D-08 OVMax= 1.05D-04

 Cycle  10  Pass 1  IDiag  1:
 E= -635.172907591191     Delta-E=       -0.000000079393 Rises=F Damp=F
 DIIS: error= 1.10D-05 at cycle   3 NSaved=   3.
 NSaved= 3 IEnMin= 3 EnMin= -635.172907591191     IErMin= 1 ErrMin= 9.73D-06
 ErrMax= 1.10D-05  0.00D+00 EMaxC= 1.00D-01 BMatC= 1.95D-08 BMatP= 7.42D-08
 IDIUse=1 WtCom= 1.00D+00 WtEn= 0.00D+00
 Coeff-Com:  0.100D+00 0.276D+00 0.623D+00
 Coeff:      0.100D+00 0.276D+00 0.623D+00
 Gap=     0.172 Goal=   None    Shift=    0.000
 RMSDP=1.02D-06 MaxDP=4.84D-05 DE=-7.94D-08 OVMax= 9.48D-05

 Cycle  11  Pass 1  IDiag  1:
 E= -635.172907595034     Delta-E=       -0.000000003843 Rises=F Damp=F
 DIIS: error= 1.11D-05 at cycle   4 NSaved=   4.
 NSaved= 4 IEnMin= 4 EnMin= -635.172907595034     IErMin= 1 ErrMin= 9.73D-06
 ErrMax= 1.11D-05  0.00D+00 EMaxC= 1.00D-01 BMatC= 1.43D-08 BMatP= 1.95D-08
 IDIUse=1 WtCom= 1.00D+00 WtEn= 0.00D+00
 Coeff-Com: -0.128D-01 0.158D+00 0.519D+00 0.336D+00
 Coeff:     -0.128D-01 0.158D+00 0.519D+00 0.336D+00
 Gap=     0.172 Goal=   None    Shift=    0.000
 RMSDP=5.41D-07 MaxDP=2.66D-05 DE=-3.84D-09 OVMax= 5.05D-05

 Cycle  12  Pass 1  IDiag  1:
 E= -635.172907606255     Delta-E=       -0.000000011222 Rises=F Damp=F
 DIIS: error= 8.32D-07 at cycle   5 NSaved=   5.
 NSaved= 5 IEnMin= 5 EnMin= -635.172907606255     IErMin= 5 ErrMin= 8.32D-07
 ErrMax= 8.32D-07  0.00D+00 EMaxC= 1.00D-01 BMatC= 2.16D-10 BMatP= 1.43D-08
 IDIUse=1 WtCom= 1.00D+00 WtEn= 0.00D+00
 Coeff-Com: -0.128D-01 0.843D-01 0.292D+00 0.200D+00 0.436D+00
 Coeff:     -0.128D-01 0.843D-01 0.292D+00 0.200D+00 0.436D+00
 Gap=     0.172 Goal=   None    Shift=    0.000
 RMSDP=9.10D-08 MaxDP=2.40D-06 DE=-1.12D-08 OVMax= 3.84D-06

 Cycle  13  Pass 1  IDiag  1:
 E= -635.172907606400     Delta-E=       -0.000000000145 Rises=F Damp=F
 DIIS: error= 4.37D-07 at cycle   6 NSaved=   6.
 NSaved= 6 IEnMin= 6 EnMin= -635.172907606400     IErMin= 6 ErrMin= 4.37D-07
 ErrMax= 4.37D-07  0.00D+00 EMaxC= 1.00D-01 BMatC= 2.76D-11 BMatP= 2.16D-10
 IDIUse=1 WtCom= 1.00D+00 WtEn= 0.00D+00
 Coeff-Com: -0.613D-02 0.366D-01 0.130D+00 0.884D-01 0.290D+00 0.460D+00
 Coeff:     -0.613D-02 0.366D-01 0.130D+00 0.884D-01 0.290D+00 0.460D+00
 Gap=     0.172 Goal=   None    Shift=    0.000
 RMSDP=3.70D-08 MaxDP=1.25D-06 DE=-1.45D-10 OVMax= 2.61D-06

 Cycle  14  Pass 1  IDiag  1:
 E= -635.172907606432     Delta-E=       -0.000000000032 Rises=F Damp=F
 DIIS: error= 2.67D-07 at cycle   7 NSaved=   7.
 NSaved= 7 IEnMin= 7 EnMin= -635.172907606432     IErMin= 7 ErrMin= 2.67D-07
 ErrMax= 2.67D-07  0.00D+00 EMaxC= 1.00D-01 BMatC= 8.37D-12 BMatP= 2.76D-11
 IDIUse=1 WtCom= 1.00D+00 WtEn= 0.00D+00
 Coeff-Com: -0.193D-02 0.805D-02 0.312D-01 0.202D-01 0.122D+00 0.365D+00
 Coeff-Com:  0.455D+00
 Coeff:     -0.193D-02 0.805D-02 0.312D-01 0.202D-01 0.122D+00 0.365D+00
 Coeff:      0.455D+00
 Gap=     0.172 Goal=   None    Shift=    0.000
 RMSDP=1.48D-08 MaxDP=6.37D-07 DE=-3.18D-11 OVMax= 1.31D-06

 Cycle  15  Pass 1  IDiag  1:
 E= -635.172907606442     Delta-E=       -0.000000000010 Rises=F Damp=F
 DIIS: error= 6.48D-08 at cycle   8 NSaved=   8.
 NSaved= 8 IEnMin= 8 EnMin= -635.172907606442     IErMin= 8 ErrMin= 6.48D-08
 ErrMax= 6.48D-08  0.00D+00 EMaxC= 1.00D-01 BMatC= 7.41D-13 BMatP= 8.37D-12
 IDIUse=1 WtCom= 1.00D+00 WtEn= 0.00D+00
 Coeff-Com: -0.453D-03 0.831D-03 0.442D-02 0.278D-02 0.433D-01 0.191D+00
 Coeff-Com:  0.285D+00 0.473D+00
 Coeff:     -0.453D-03 0.831D-03 0.442D-02 0.278D-02 0.433D-01 0.191D+00
 Coeff:      0.285D+00 0.473D+00
 Gap=     0.172 Goal=   None    Shift=    0.000
 RMSDP=6.12D-09 MaxDP=2.13D-07 DE=-1.00D-11 OVMax= 3.60D-07

 SCF Done:  E(RB3LYP) =  -635.172907606     A.U. after   15 cycles
            NFock= 15  Conv=0.61D-08     -V/T= 2.0084
 KE= 6.299118548074D+02 PE=-2.695399052220D+03 EE= 8.253741011860D+02
 Leave Link  502 at Fri Aug 20 15:33:47 2021, MaxMem= 24159191040 cpu:        66.8
 (Enter /public/home/users/caep010/software/Gaussian09/g09/l701.exe)
 Compute integral first derivatives.
 ... and contract with generalized density number  0.
 Leave Link  701 at Fri Aug 20 15:33:48 2021, MaxMem= 24159191040 cpu:        11.5
 (Enter /public/home/users/caep010/software/Gaussian09/g09/l702.exe)
 L702 exits ... SP integral derivatives will be done elsewhere.
 Leave Link  702 at Fri Aug 20 15:33:48 2021, MaxMem= 24159191040 cpu:         0.5
 (Enter /public/home/users/caep010/software/Gaussian09/g09/l703.exe)
 Compute integral first derivatives, UseDBF=F ICtDFT=           0.
 Integral derivatives from FoFJK, PRISM(SPDF).
 Calling FoFJK, ICntrl=      2127 FMM=F ISym2X=0 I1Cent= 0 IOpClX= 0 NMat=1 NMatS=1 NMatT=0.
 FoFJK:  IHMeth= 1 ICntrl=    2127 DoSepK=F KAlg= 0 I1Cent=   0 FoldK=F
 IRaf=         0 NMat=   1 IRICut=       1 DoRegI=T DoRafI=F ISym2E= 0.
 FoFCou: FMM=F IPFlag=           0 FMFlag=      100000 FMFlg1=         800
         NFxFlg=           0 DoJE=F BraDBF=F KetDBF=F FulRan=T
         wScrn=  0.000000 ICntrl=    2127 IOpCl=  0 I1Cent=           0 NGrid=           0
         NMat0=    1 NMatS0=      1 NMatT0=    0 NMatD0=    1 NMtDS0=    0 NMtDT0=    0
 Symmetry not used in FoFCou.
 Leave Link  703 at Fri Aug 20 15:33:48 2021, MaxMem= 24159191040 cpu:        16.0
 (Enter /public/home/users/caep010/software/Gaussian09/g09/l716.exe)
 Dipole        = 1.37800305D+00-4.46774191D-02-1.84354012D-02
 ***** Axes restored to original set *****
 -------------------------------------------------------------------
 Center     Atomic                   Forces (Hartrees/Bohr)
 Number     Number              X              Y              Z
 -------------------------------------------------------------------
      1        7           0.008222161    0.004729802   -0.002733767
      2        8          -0.003548700   -0.000835561    0.001594707
      3        8          -0.003782126   -0.005853266   -0.000306014
      4        6           0.007976309    0.006976537   -0.001367331
      5        7          -0.001170245   -0.002689797   -0.001083080
      6        6           0.007033854   -0.024725961   -0.014358666
      7        7          -0.004481707   -0.004797902    0.000839552
      8        1          -0.002766023    0.030923707    0.013964123
      9        7           0.002012552    0.000434356   -0.002361268
     10        8          -0.003726955   -0.003854907    0.000519115
     11        8          -0.000424888    0.004653802    0.002867968
     12        6           0.016973245    0.020018075   -0.000359039
     13        1          -0.022317478   -0.024978884    0.002783701
 -------------------------------------------------------------------
 Cartesian Forces:  Max     0.030923707 RMS     0.010430774
 Leave Link  716 at Fri Aug 20 15:33:48 2021, MaxMem= 24159191040 cpu:         0.8
 (Enter /public/home/users/caep010/software/Gaussian09/g09/l103.exe)

 GradGradGradGradGradGradGradGradGradGradGradGradGradGradGradGradGradGrad
 Berny optimization.
 Using GEDIIS/GDIIS optimizer.
 FormGI is forming the generalized inverse of G from B-inverse, IUseBI=4.
 Internal  Forces:  Max     0.033867654 RMS     0.006811238
 Search for a local minimum.
 Step number   2 out of a maximum of   66
 All quantities printed in internal units (Hartrees-Bohrs-Radians)
 RMS Force = .68112D-02 SwitMx=.10000D-02 MixMth= 1
 Mixed Optimization -- RFO/linear search
 Update second derivatives using D2CorX and points    1    2
 DE= -4.11D-02 DEPred=-4.53D-02 R= 9.07D-01
 TightC=F SS=  1.41D+00  RLast= 3.02D-01 DXNew= 5.0454D-01 9.0465D-01
 Trust test= 9.07D-01 RLast= 3.02D-01 DXMaxT set to 5.05D-01
 ITU=  1  0
 Use linear search instead of GDIIS.
     Eigenvalues ---    0.00986   0.00988   0.01180   0.01180   0.01743
     Eigenvalues ---    0.02040   0.02324   0.02384   0.02564   0.02637
     Eigenvalues ---    0.15910   0.16000   0.23384   0.24088   0.24973
     Eigenvalues ---    0.24991   0.25000   0.25000   0.25000   0.25078
     Eigenvalues ---    0.39758   0.41957   0.45032   0.48433   0.51148
     Eigenvalues ---    0.55523   0.62383   0.65392   0.67687   0.91936
     Eigenvalues ---    0.95457   1.02726   1.02906
 RFO step:  Lambda=-2.26952798D-03 EMin= 9.85824939D-03
 Quartic linear search produced a step of  0.40420.
 Iteration  1 RMS(Cart)=  0.06337896 RMS(Int)=  0.00371531
 Iteration  2 RMS(Cart)=  0.00387237 RMS(Int)=  0.00012762
 Iteration  3 RMS(Cart)=  0.00001189 RMS(Int)=  0.00012724
 Iteration  4 RMS(Cart)=  0.00000000 RMS(Int)=  0.00012724
 ITry= 1 IFail=0 DXMaxC= 2.58D-01 DCOld= 1.00D+10 DXMaxT= 5.05D-01 DXLimC= 3.00D+00 Rises=F
 Variable       Old X    -DE/DX   Delta X   Delta X   Delta X     New X
                                 (Linear)    (Quad)   (Total)
    R1        2.31945  -0.00396  -0.00055  -0.00547  -0.00602   2.31343
    R2        2.32128   0.00687   0.00675   0.00313   0.00987   2.33115
    R3        2.73255   0.00253   0.00558   0.00416   0.00975   2.74229
    R4        2.59971  -0.00057   0.00369  -0.00516  -0.00145   2.59827
    R5        2.56759   0.00870   0.01791   0.00430   0.02222   2.58981
    R6        2.46420   0.00189   0.00930  -0.00570   0.00360   2.46780
    R7        2.60880   0.00597   0.01056   0.00635   0.01690   2.62570
    R8        1.96022   0.03387   0.08166  -0.00235   0.07931   2.03953
    R9        2.70372   0.00252   0.00566   0.00349   0.00915   2.71287
   R10        2.60219   0.00067   0.00648  -0.00365   0.00282   2.60501
   R11        2.28721   0.00532   0.00498   0.00207   0.00705   2.29425
   R12        2.28985   0.00532   0.00595   0.00107   0.00702   2.29687
   R13        1.95742   0.03311   0.08067  -0.00317   0.07750   2.03492
    A1        2.20025   0.00126   0.01010   0.00034   0.01044   2.21069
    A2        2.05621   0.00028  -0.00263   0.00331   0.00068   2.05689
    A3        2.02673  -0.00155  -0.00747  -0.00366  -0.01113   2.01560
    A4        2.12485   0.00174   0.00681   0.00481   0.01163   2.13647
    A5        2.18206  -0.00157  -0.00250  -0.00742  -0.00992   2.17214
    A6        1.97627  -0.00016  -0.00431   0.00264  -0.00170   1.97457
    A7        1.82767   0.00121   0.00619   0.00091   0.00706   1.83473
    A8        1.92817  -0.00038  -0.00427  -0.00089  -0.00524   1.92293
    A9        2.19714   0.00356   0.01007   0.02655   0.03660   2.23374
   A10        2.15788  -0.00319  -0.00580  -0.02568  -0.03148   2.12639
   A11        2.19907  -0.00102  -0.00314  -0.00406  -0.00717   2.19190
   A12        1.89997   0.00025   0.00250   0.00077   0.00320   1.90317
   A13        2.18359   0.00077   0.00064   0.00340   0.00407   2.18766
   A14        2.01331   0.00035  -0.00188   0.00320   0.00116   2.01447
   A15        2.00630   0.00038   0.00354  -0.00022   0.00316   2.00947
   A16        2.26356  -0.00074  -0.00160  -0.00304  -0.00480   2.25876
   A17        1.79268  -0.00092  -0.00011  -0.00340  -0.00356   1.78912
   A18        2.27574   0.00612   0.01270   0.04577   0.05848   2.33422
   A19        2.21476  -0.00520  -0.01259  -0.04239  -0.05496   2.15980
    D1        0.00877   0.00004   0.00037   0.00427   0.00471   0.01348
    D2       -3.12811  -0.00005  -0.00002  -0.00254  -0.00263  -3.13074
    D3       -3.13389   0.00005   0.00004   0.00201   0.00211  -3.13179
    D4        0.01241  -0.00005  -0.00036  -0.00481  -0.00523   0.00718
    D5        3.13942   0.00002   0.00013   0.00140   0.00143   3.14085
    D6       -0.00637   0.00010   0.00048   0.00744   0.00798   0.00162
    D7       -3.14038   0.00017   0.00078   0.01185   0.01266  -3.12772
    D8       -0.00098   0.00007   0.00024   0.00424   0.00422   0.00323
    D9        0.00557   0.00008   0.00039   0.00554   0.00589   0.01146
   D10       -3.13822  -0.00003  -0.00016  -0.00207  -0.00255  -3.14077
   D11        0.00435  -0.00024  -0.00117  -0.01761  -0.01873  -0.01438
   D12       -3.13541  -0.00005  -0.00019  -0.00390  -0.00367  -3.13909
   D13        3.10605   0.00035   0.00158   0.02558   0.02697   3.13302
   D14       -0.00112   0.00031   0.00152   0.02213   0.02358   0.02245
   D15       -0.03733   0.00017   0.00062   0.01230   0.01309  -0.02423
   D16        3.13869   0.00013   0.00056   0.00885   0.00969  -3.13481
   D17       -2.98629  -0.00076  -0.00848  -0.16551  -0.17393   3.12297
   D18        0.15906  -0.00129   0.00015  -0.14763  -0.14742   0.01164
   D19        0.11549  -0.00073  -0.00839  -0.16161  -0.17006  -0.05458
   D20       -3.02235  -0.00126   0.00024  -0.14373  -0.14356   3.11728
   D21       -0.00266  -0.00022  -0.00109  -0.01595  -0.01698  -0.01964
   D22        3.14103  -0.00014  -0.00059  -0.00885  -0.00983   3.13120
   D23       -3.11021  -0.00022  -0.00106  -0.01918  -0.02009  -3.13030
   D24        0.03347  -0.00014  -0.00056  -0.01208  -0.01294   0.02053
         Item               Value     Threshold  Converged?
 Maximum Force            0.033868     0.000450     NO 
 RMS     Force            0.006811     0.000300     NO 
 Maximum Displacement     0.258033     0.001800     NO 
 RMS     Displacement     0.063568     0.001200     NO 
 Predicted change in Energy=-1.717906D-03
 Lowest energy point so far.  Saving SCF results.
 GradGradGradGradGradGradGradGradGradGradGradGradGradGradGradGradGradGrad

 Leave Link  103 at Fri Aug 20 15:33:49 2021, MaxMem= 24159191040 cpu:         1.4
 (Enter /public/home/users/caep010/software/Gaussian09/g09/l202.exe)
                          Input orientation:                          
 ---------------------------------------------------------------------
 Center     Atomic      Atomic             Coordinates (Angstroms)
 Number     Number       Type             X           Y           Z
 ---------------------------------------------------------------------
      1          7           0        1.806303    4.046720    4.789358
      2          8           0        2.872289    4.427163    4.322836
      3          8           0        1.298854    2.930675    4.652639
      4          6           0        1.044827    4.984639    5.593301
      5          7           0        1.471960    6.270265    5.828233
      6          6           0        0.545109    6.805866    6.576209
      7          7           0       -0.473818    5.889670    6.806354
      8          1           0        0.509550    7.808605    6.973805
      9          7           0       -1.649862    6.128547    7.594243
     10          8           0       -2.432505    5.202498    7.656376
     11          8           0       -1.731727    7.241805    8.075159
     12          6           0       -0.155763    4.698782    6.189165
     13          1           0       -0.779318    3.821564    6.224323
 ---------------------------------------------------------------------
                    Distance matrix (angstroms):
                    1          2          3          4          5
     1  N    0.000000
     2  O    1.224216   0.000000
     3  O    1.233594   2.196347   0.000000
     4  C    1.451158   2.294444   2.273355   0.000000
     5  N    2.476933   2.761189   3.544693   1.374944   0.000000
     6  C    3.520842   4.018915   4.391509   2.129012   1.305905
     7  N    3.558608   4.416245   4.066510   2.144030   2.210798
     8  H    4.539290   4.903500   5.459396   3.188588   2.145940
     9  N    4.913904   5.834951   5.251128   3.545934   3.589520
    10  O    5.246247   6.313040   5.301571   4.049146   4.441518
    11  O    5.789880   6.572601   6.283622   4.354729   4.031895
    12  C    2.496867   3.567360   2.757358   1.370469   2.291138
    13  H    2.965679   4.161326   2.753665   2.253539   3.349817
                    6          7          8          9         10
     6  C    0.000000
     7  N    1.389458   0.000000
     8  H    1.079274   2.162721   0.000000
     9  N    2.512579   1.435587   2.805458   0.000000
    10  O    3.550174   2.243033   3.989158   1.214067   0.000000
    11  O    2.760594   2.240640   2.560774   1.215453   2.196644
    12  C    2.254069   1.378512   3.275560   2.500161   2.754994
    13  H    3.283898   2.170058   4.256688   2.820762   2.586655
                   11         12         13
    11  O    0.000000
    12  C    3.536608   0.000000
    13  H    4.003839   1.076833   0.000000
 Stoichiometry    C3H2N4O4
 Framework group  C1[X(C3H2N4O4)]
 Deg. of freedom    33
 Full point group                 C1      NOp   1
 RotChk:  IX=2 Diff= 2.33D-02
 Largest Abelian subgroup         C1      NOp   1
 Largest concise Abelian subgroup C1      NOp   1
                         Standard orientation:                         
 ---------------------------------------------------------------------
[...]
   A15        2.00868  -0.00001   0.00000  -0.00003  -0.00003   2.00866
   A16        2.25913   0.00002   0.00000   0.00009   0.00009   2.25922
   A17        1.78871  -0.00000   0.00000  -0.00002  -0.00002   1.78870
   A18        2.33639  -0.00001   0.00000  -0.00015  -0.00015   2.33624
   A19        2.15808   0.00001   0.00000   0.00016   0.00016   2.15825
    D1        0.00002   0.00001   0.00000  -0.00002  -0.00002   0.00000
    D2       -3.14135  -0.00000   0.00000  -0.00025  -0.00025  -3.14159
    D3       -3.14146  -0.00000   0.00000  -0.00013  -0.00013  -3.14159
    D4        0.00035  -0.00001   0.00000  -0.00035  -0.00035   0.00000
    D5        3.14124   0.00002   0.00000   0.00035   0.00035   3.14159
    D6       -0.00055   0.00003   0.00000   0.00055   0.00055   0.00000
    D7       -3.14125  -0.00002   0.00000  -0.00034  -0.00034  -3.14159
    D8       -0.00035   0.00000   0.00000   0.00035   0.00035   0.00000
    D9        0.00054  -0.00002   0.00000  -0.00054  -0.00054   0.00000
   D10        3.14145  -0.00000   0.00000   0.00015   0.00015  -3.14159
   D11        0.00030  -0.00002   0.00000  -0.00030  -0.00030  -0.00000
   D12       -3.14149  -0.00001   0.00000  -0.00011  -0.00011   3.14159
   D13        3.14108   0.00001   0.00000   0.00051   0.00051   3.14159
   D14        0.00002   0.00000   0.00000  -0.00002  -0.00002   0.00000
   D15       -0.00033  -0.00000   0.00000   0.00033   0.00033   0.00000
   D16       -3.14139  -0.00000   0.00000  -0.00020  -0.00020  -3.14159
   D17       -3.14131  -0.00001   0.00000  -0.00028  -0.00028  -3.14159
   D18        0.00023   0.00001   0.00000  -0.00023  -0.00023   0.00000
   D19       -0.00033  -0.00000   0.00000   0.00033   0.00033  -0.00000
   D20        3.14120   0.00001   0.00000   0.00039   0.00039   3.14159
   D21       -0.00033   0.00001   0.00000   0.00033   0.00033  -0.00000
   D22       -3.14133  -0.00000   0.00000  -0.00027  -0.00027   3.14159
   D23       -3.14140   0.00001   0.00000  -0.00020  -0.00020  -3.14159
   D24        0.00079  -0.00001   0.00000  -0.00079  -0.00079  -0.00000
         Item               Value     Threshold  Converged?
 Maximum Force            0.000073     0.000450     YES
 RMS     Force            0.000023     0.000300     YES
 Maximum Displacement     0.000550     0.001800     YES
 RMS     Displacement     0.000175     0.001200     YES
 Predicted change in Energy=-6.928567D-08
 Optimization completed.
    -- Stationary point found.
                           ----------------------------
                           !   Optimized Parameters   !
                           ! (Angstroms and Degrees)  !
 --------------------------                            --------------------------
 ! Name  Definition              Value          Derivative Info.                !
 --------------------------------------------------------------------------------
 ! R1    R(1,2)                  1.2232         -DE/DX =    0.0                 !
 ! R2    R(1,3)                  1.2338         -DE/DX =    0.0                 !
 ! R3    R(1,4)                  1.4504         -DE/DX =    0.0                 !
 ! R4    R(4,5)                  1.373          -DE/DX =   -0.0001              !
 ! R5    R(4,12)                 1.3674         -DE/DX =    0.0                 !
 ! R6    R(5,6)                  1.3031         -DE/DX =    0.0                 !
 ! R7    R(6,7)                  1.3895         -DE/DX =    0.0                 !
 ! R8    R(6,8)                  1.0787         -DE/DX =    0.0                 !
 ! R9    R(7,9)                  1.4323         -DE/DX =    0.0                 !
 ! R10   R(7,12)                 1.3789         -DE/DX =   -0.0001              !
 ! R11   R(9,10)                 1.214          -DE/DX =    0.0                 !
 ! R12   R(9,11)                 1.2152         -DE/DX =    0.0                 !
 ! R13   R(12,13)                1.0757         -DE/DX =    0.0001              !
 ! A1    A(2,1,3)              126.3384         -DE/DX =    0.0                 !
 ! A2    A(2,1,4)              117.9863         -DE/DX =    0.0                 !
 ! A3    A(3,1,4)              115.6753         -DE/DX =    0.0                 !
 ! A4    A(1,4,5)              122.1381         -DE/DX =    0.0                 !
 ! A5    A(1,4,12)             124.6169         -DE/DX =    0.0                 !
 ! A6    A(5,4,12)             113.245          -DE/DX =    0.0                 !
 ! A7    A(4,5,6)              105.1329         -DE/DX =    0.0                 !
 ! A8    A(5,6,7)              110.2074         -DE/DX =    0.0                 !
 ! A9    A(5,6,8)              127.8439         -DE/DX =    0.0                 !
 ! A10   A(7,6,8)              121.9488         -DE/DX =    0.0                 !
 ! A11   A(6,7,9)              125.7353         -DE/DX =    0.0                 !
 ! A12   A(6,7,12)             108.9291         -DE/DX =    0.0                 !
 ! A13   A(9,7,12)             125.3356         -DE/DX =    0.0                 !
 ! A14   A(7,9,10)             115.4723         -DE/DX =    0.0                 !
 ! A15   A(7,9,11)             115.0891         -DE/DX =    0.0                 !
 ! A16   A(10,9,11)            129.4386         -DE/DX =    0.0                 !
 ! A17   A(4,12,7)             102.4856         -DE/DX =    0.0                 !
 ! A18   A(4,12,13)            133.8652         -DE/DX =    0.0                 !
 ! A19   A(7,12,13)            123.6492         -DE/DX =    0.0                 !
 ! D1    D(2,1,4,5)              0.0014         -DE/DX =    0.0                 !
 ! D2    D(2,1,4,12)          -179.9859         -DE/DX =    0.0                 !
 ! D3    D(3,1,4,5)           -179.9925         -DE/DX =    0.0                 !
 ! D4    D(3,1,4,12)             0.0202         -DE/DX =    0.0                 !
 ! D5    D(1,4,5,6)            179.9799         -DE/DX =    0.0                 !
 ! D6    D(12,4,5,6)            -0.0314         -DE/DX =    0.0                 !
 ! D7    D(1,4,12,7)          -179.9805         -DE/DX =    0.0                 !
 ! D8    D(1,4,12,13)           -0.0201         -DE/DX =    0.0                 !
 ! D9    D(5,4,12,7)             0.0312         -DE/DX =    0.0                 !
 ! D10   D(5,4,12,13)         -180.0084         -DE/DX =    0.0                 !
 ! D11   D(4,5,6,7)              0.0174         -DE/DX =    0.0                 !
 ! D12   D(4,5,6,8)            180.0062         -DE/DX =    0.0                 !
 ! D13   D(5,6,7,9)            179.9707         -DE/DX =    0.0                 !
 ! D14   D(5,6,7,12)             0.0012         -DE/DX =    0.0                 !
 ! D15   D(8,6,7,9)             -0.0188         -DE/DX =    0.0                 !
 ! D16   D(8,6,7,12)          -179.9883         -DE/DX =    0.0                 !
 ! D17   D(6,7,9,10)          -179.9837         -DE/DX =    0.0                 !
 ! D18   D(6,7,9,11)             0.013          -DE/DX =    0.0                 !
 ! D19   D(12,7,9,10)           -0.0191         -DE/DX =    0.0                 !
 ! D20   D(12,7,9,11)          179.9776         -DE/DX =    0.0                 !
 ! D21   D(6,7,12,4)            -0.0191         -DE/DX =    0.0                 !
 ! D22   D(6,7,12,13)          180.0152         -DE/DX =    0.0                 !
 ! D23   D(9,7,12,4)          -179.9888         -DE/DX =    0.0                 !
 ! D24   D(9,7,12,13)            0.0455         -DE/DX =    0.0                 !
 --------------------------------------------------------------------------------
 GradGradGradGradGradGradGradGradGradGradGradGradGradGradGradGradGradGrad

 Leave Link  103 at Fri Aug 20 15:35:04 2021, MaxMem= 24159191040 cpu:         1.9
 (Enter /public/home/users/caep010/software/Gaussian09/g09/l9999.exe)
 1\1\GINC-B1751\Freq\RB3LYP\6-31G(d,p)\C3H2N4O4\ROOT\20-Aug-2021\0\\#P 
 Geom=AllCheck Guess=TCheck SCRF=Check GenChk RB3LYP/6-31G(d,p) Freq\\K
 AVFUI01\\0,1\N,1.8063940863,4.0488344495,4.7933982911\O,2.8694281585,4
 .431107564,4.3242702012\O,1.3066361665,2.9292646784,4.6549901009\C,1.0
 400445845,4.9845173771,5.5940277263\N,1.4718760646,6.265709759,5.83326
 32264\C,0.5452152233,6.8042067672,6.5744884355\N,-0.4715419781,5.88765
 01075,6.8130460006\H,0.5159146362,7.8059431616,6.9735722528\N,-1.65122
 81694,6.1299095553,7.5883777131\O,-2.419577447,5.1941451944,7.67619610
 41\O,-1.7358468524,7.2453672501,8.0629655172\C,-0.1617643763,4.7015211
 942,6.1816883621\H,-0.7896500966,3.8286229417,6.2117160688\\Version=ES
 64L-G09RevE.01\State=1-A\HF=-635.1763699\RMSD=8.916e-09\RMSF=4.149e-05
 \ZeroPoint=0.0756368\Thermal=0.0842089\Dipole=-0.9271578,0.6418175,0.7
 812711\DipoleDeriv=1.3444988,0.0874657,-0.5740249,-0.1050607,1.3824873
 ,0.4762257,-0.6477011,0.3648773,0.8086261,-0.8453158,-0.139481,0.30238
 22,0.0130333,-0.4869942,-0.105473,0.360713,-0.0172339,-0.4458392,-0.52
 26273,-0.0913471,0.1142132,-0.0721288,-0.9470663,-0.2187289,0.1215667,
 -0.2076579,-0.4145525,-0.2633802,0.1826992,0.2774889,0.0271318,0.20072
 74,0.0243552,0.2181087,-0.0657124,-0.0556407,-0.4688779,0.0179045,0.14
 43739,0.0915493,-0.337951,-0.0936983,0.1724802,-0.051131,-0.3504689,0.
 568082,0.0893227,-0.2523919,0.3161606,0.106394,-0.1700479,-0.1659859,-
 0.0387802,0.1538421,-1.0390663,0.2013942,0.6657091,0.2598579,-0.241425
 9,-0.2344554,0.6877889,-0.2004596,-0.4958763,0.1099889,0.0191936,0.029
 766,0.0047719,0.1306841,-0.009672,0.0242718,-0.0180797,0.1278689,2.052
 2766,-0.0736885,-1.0018041,0.0301752,1.4742649,0.4037722,-0.9621624,0.
 4638766,1.1039441,-0.8121009,-0.2174285,0.267916,-0.3441155,-0.6310385
 ,0.0369533,0.2196795,-0.0363303,-0.3468547,-0.5332431,0.0930309,0.2253
 893,0.1891816,-0.8504841,-0.3556712,0.2620668,-0.3000519,-0.4712858,0.
 2540254,-0.1680177,-0.2148387,-0.4374973,0.0306507,0.267355,-0.3171643
 ,0.1115092,0.2195464,0.1557398,-0.001048,0.0158208,0.0269407,0.1697517
 ,-0.0209148,0.0263383,-0.0048263,0.1666904\Polar=81.8101026,0.0537744,
 78.3365374,-30.9538872,19.0684438,53.4721801\PG=C01 [X(C3H2N4O4)]\NIma
 g=0\\0.74766471,0.22032232,0.76315451,-0.21982712,0.07904088,0.3797190
 2,-0.45933961,-0.11682287,0.17831021,0.54333502,-0.10764296,-0.1570442
 1,0.03060418,0.17323582,0.16819023,0.18182071,0.03591531,-0.16556803,-
 0.23256186,-0.04635335,0.14394573,-0.16981109,-0.13594745,0.00298327,-
 0.03640370,-0.08399590,0.00384784,0.18823795,-0.14930977,-0.47207067,-
 0.06527490,-0.05842934,-0.02504776,0.01443183,0.21053218,0.56396247,-0
 .00211836,-0.07301365,-0.10158100,0.01361330,0.02922796,0.02896921,-0.
 01202289,0.08267220,0.06703049,-0.10648179,0.01918338,0.02700747,-0.05
 239373,0.01135690,0.04550753,0.01858568,-0.00549738,-0.00263530,0.6187
 0736,0.02343644,-0.11389452,-0.02938599,-0.00196493,0.01684105,0.00040
 702,0.00399012,-0.06027409,-0.03206661,0.06409666,0.57560971,0.0286344
 5,-0.02691384,-0.09930155,0.04042542,-0.00730454,-0.00741752,0.0009891
 4,-0.02658427,0.00694209,-0.25395071,0.13007934,0.33417966,0.00614760,
 0.01708562,-0.00346855,0.00302652,0.00292702,0.00026144,0.00037355,0.0
 0522219,0.00435100,-0.11617161,-0.06293270,0.00497578,0.46725193,0.008
 91171,-0.02849348,-0.01178374,-0.00368457,-0.00185010,0.00083355,0.000
 75660,-0.00035275,-0.00227110,-0.08037036,-0.22932569,-0.01582222,-0.0
 1052509,0.45624146,-0.00658986,-0.01651197,-0.01361206,-0.00226218,-0.
 00299235,0.00171550,0.00264653,-0.00485382,0.00106138,-0.00168893,-0.0
 2589966,-0.07497896,-0.21679286,0.14223932,0.27896990,0.00586539,-0.00
 733148,-0.00257682,-0.00318272,-0.00056650,0.00143808,0.00044545,0.000
 66094,-0.00049515,0.00381089,0.04975965,0.02142406,-0.26607577,0.11187
 028,0.15458068,0.47957409,-0.00886016,-0.00506530,0.00081039,0.0010974
 3,0.00166499,0.00012454,0.00215670,-0.00237926,-0.00183456,0.00946262,
 -0.07185824,-0.03594362,0.10116319,-0.16355687,-0.09322312,-0.02650018
 ,0.80808599,-0.00315770,-0.00007802,0.00804504,0.00207206,0.00108667,-
 0.00110879,0.00007593,-0.00096747,-0.00125832,0.00605620,-0.05926487,-
 0.01807461,0.15051440,-0.09941600,-0.19747824,-0.21016054,0.27256500,0
 .35920822,-0.00344436,-0.00932151,0.00180187,-0.00165750,0.00403590,0.
 00195811,0.00067266,0.00215223,0.00068525,-0.05033795,-0.00089473,0.03
 385864,-0.07815135,0.02791295,0.06837082,-0.13054148,-0.08000204,0.013
 45863,0.50113015,-0.00944948,0.00763540,0.00616070,0.00242522,-0.00019
 096,-0.00111901,-0.00018043,-0.00404886,-0.00160811,0.05728595,-0.0085
 9697,-0.03977489,-0.02565031,0.00542147,0.00866332,-0.08273551,-0.2028
 3153,-0.00873318,0.08089441,0.63868572,0.00176285,0.00607868,0.0071328
 4,0.00134334,-0.00204881,-0.00249758,-0.00020565,-0.00295520,-0.000573
 80,0.05605834,-0.00613300,-0.02595917,0.04792517,-0.02230780,-0.014620
 17,0.01243696,-0.01030144,-0.06563961,-0.20866626,0.16352902,0.2702957
 3,0.00139355,0.00032326,0.00040208,-0.00007574,0.00001464,-0.00004414,
 -0.00029381,0.00072294,0.00001582,-0.00066935,0.00054816,0.00524279,0.
 00165462,0.02361147,0.00526765,-0.04821138,0.00258500,0.01283513,0.000
 66615,-0.02389002,-0.00970453,0.04806088,-0.00022587,0.00021705,-0.000
 50207,-0.00002108,-0.00002187,0.00006558,0.00015849,-0.00001090,0.0001
 8789,0.00005313,0.00223723,-0.00224203,0.00390465,-0.00371319,-0.00183
 863,-0.00239509,-0.32179650,-0.11079761,0.00062855,-0.01275657,-0.0050
 9331,-0.00151718,0.33577728,0.00019362,-0.00081958,0.00145200,-0.00005
 762,0.00004485,-0.00011140,-0.00020028,-0.00013794,-0.00068103,0.00505
 294,-0.00253193,0.00414892,-0.00225347,-0.01322971,-0.00856108,0.01094
 077,-0.11368458,-0.07741029,-0.00035212,0.00909037,0.00331225,-0.01576
 695,0.12065288,0.07694298,-0.00320127,0.00836363,0.00735832,0.00258508
 ,-0.00203013,-0.00300043,0.00063587,-0.00463695,-0.00240691,0.01406415
 ,0.00279828,-0.00570270,0.01037098,-0.01520963,-0.00638025,-0.04092024
 ,-0.00564746,0.01275412,-0.07700870,-0.01571012,0.00951437,0.00210467,
 0.00038918,-0.00145352,0.52776913,0.00092942,0.00098519,-0.00168342,0.
 00007439,-0.00011720,0.00039246,-0.00062148,-0.00021308,0.00045510,-0.
 00120308,-0.01080605,-0.00432481,-0.01449644,-0.00259347,0.00381696,0.
 00262357,0.02608953,0.01422354,-0.02250823,-0.12673020,-0.01614818,-0.
 00333131,-0.00330126,0.00091982,0.21231119,1.00998791,0.00451604,-0.00
 598771,-0.00090988,-0.00219645,0.00161134,0.00062687,-0.00087305,0.002
 77922,0.00110333,-0.00722626,-0.00663790,0.00400634,-0.00611825,0.0042
 2469,0.01452660,0.01590210,0.01900996,-0.01710600,0.00694575,-0.020082
 76,-0.06189140,-0.00287230,-0.00123216,0.00052983,-0.09045655,0.174057
 14,0.35036501,0.00092163,-0.00272349,-0.00182995,-0.00056682,0.0009680
 6,0.00080193,-0.00005577,0.00181679,0.00079564,-0.00362161,-0.00468950
 ,0.00067947,-0.00811070,0.00197157,0.00397824,0.00757621,0.01268297,0.
 00370178,-0.06553001,-0.04866193,0.02956152,-0.00022899,-0.00026826,-0
 .00007706,-0.30331009,-0.23536465,0.03762450,0.34958215,-0.00023179,-0
 .00159024,-0.00030459,0.00015912,0.00067992,0.00009888,0.00030821,0.00
 109875,0.00019536,-0.00379130,-0.00187541,0.00123043,-0.00046775,0.004
 22640,0.00284960,0.00299508,0.00432966,-0.00221857,-0.03301130,0.00288
 436,0.01349794,0.00116271,0.00049170,-0.00041450,-0.22067556,-0.392669
 84,0.00969087,0.30544814,0.47116193,-0.00087781,0.00113889,0.00050026,
 0.00049295,-0.00036987,-0.00024641,0.00021923,-0.00067842,-0.00026592,
 0.00102250,0.00175347,0.00072101,0.00305546,0.00143794,-0.00374760,-0.
 00000093,-0.00783007,0.00261427,0.03552972,0.02255635,0.00564025,0.000
 46938,0.00041338,-0.00029845,0.04323035,0.01819944,-0.10129684,-0.0670
 2914,-0.00947725,0.06769368,0.00081415,-0.00206918,-0.00198115,-0.0009
 4979,0.00050483,0.00093968,-0.00015406,0.00117117,0.00061042,-0.002359
 53,0.00271514,0.00228711,-0.00059336,0.00218939,0.00093500,0.00050467,
 0.00031615,0.00070383,-0.00633509,0.04913346,0.03186488,-0.00133273,0.
 00178742,0.00121435,-0.12211313,0.03174882,0.03478395,0.02371345,-0.05
 456312,-0.01770125,0.11188733,-0.00090147,0.00188866,0.00171828,0.0010
 2962,-0.00058470,-0.00094923,0.00044503,-0.00057511,-0.00052607,0.0035
 5316,0.00128890,-0.00148761,0.00334597,-0.00219636,-0.00261385,-0.0080
 0961,-0.00668995,0.00150653,0.03571627,-0.03042310,-0.03851502,0.00190
 750,0.00173055,-0.00028633,0.01554866,-0.50229616,-0.16899488,-0.02689
 120,-0.08706320,-0.02875152,-0.02661923,0.61638333,-0.00153358,0.00239
 183,0.00056002,0.00113947,-0.00064526,-0.00056549,0.00033289,-0.000945
 90,-0.00042624,0.00260508,-0.00100466,-0.00208785,0.00137777,-0.001941
 97,-0.00195974,-0.00247115,-0.00331144,0.00167693,0.02674614,-0.046289
 13,-0.01680108,0.00126037,-0.00021685,-0.00122426,0.02860330,-0.178377
 26,-0.16757139,-0.00714360,-0.01272910,0.02837398,-0.05600826,0.238114
 10,0.15595130,-0.01904203,0.01060333,0.01295979,0.00506276,0.00066406,
 -0.00091807,-0.00311958,-0.00562294,-0.00008035,-0.32260932,-0.0615068
 7,0.12535610,-0.01757610,-0.06463569,-0.00542948,-0.00685202,-0.011126
 88,0.00785163,-0.09950064,0.00402692,0.03023437,-0.00420524,-0.0024768
 9,0.00231699,-0.01240566,0.02967173,0.01130620,0.00194423,0.00227900,0
 .00039988,-0.00277061,0.00155401,0.00515172,0.64303065,0.02370460,0.00
 374584,-0.01089845,0.00294484,-0.00227308,-0.00373152,0.00137265,0.001
 15549,-0.00052427,-0.07452999,-0.10324656,0.02871908,-0.02034279,-0.03
 649496,-0.00811420,-0.04271923,-0.06470824,-0.00531735,0.00731974,-0.2
 5310620,-0.08171248,-0.00125816,0.00110462,0.00060194,0.02704134,0.004
 08860,-0.00936249,-0.00465033,-0.00376996,0.00082148,-0.00673976,0.007
 83881,0.00494736,0.25177399,0.70621519,0.01794112,-0.00330460,-0.01530
 717,-0.00004927,-0.00241425,0.00214803,0.00259242,0.00351858,0.0002970
 0,0.12038791,0.02118718,-0.12708475,0.01144353,0.01749945,0.01570351,-
 0.00418209,-0.02360184,0.00748043,0.03148534,-0.07980743,-0.09854214,0
 .00278010,0.00130639,0.00032053,0.01031114,-0.01088518,-0.02252026,-0.
 00224327,-0.00319174,0.00121381,0.00199063,0.00013744,0.00400352,-0.20
 860178,0.07932915,0.26743660,-0.00148688,-0.00166556,-0.00113942,0.000
 56022,0.00052823,-0.00005082,0.00088685,0.00121795,-0.00031248,-0.0005
 2318,-0.01535572,-0.00421955,-0.00214629,-0.00279862,0.00336463,-0.001
 99310,0.00267267,0.00329454,0.01003813,0.01251182,-0.00212536,0.001137
 38,-0.00001704,0.00044235,0.00142920,0.00016607,-0.00133569,-0.0023136
 9,0.00038855,0.00118966,-0.00031129,-0.00067871,-0.00006014,-0.1619564
 2,-0.16391689,0.01614423,0.15667908,-0.00068299,0.00053179,0.00149873,
 -0.00004365,-0.00024630,-0.00011606,0.00102530,-0.00124424,-0.00089414
 ,0.00040031,0.00390065,0.00036899,0.00076643,0.00268754,-0.00152160,0.
 00234808,-0.00128429,-0.00258866,-0.01292223,-0.01594257,0.00210959,-0
 .00087902,0.00004187,-0.00020528,-0.00254244,-0.00242396,0.00092468,0.
 00036183,0.00209594,0.00078619,0.00042488,0.00069835,0.00000826,-0.155
 20376,-0.26054954,0.00022685,0.16694726,0.27173477,-0.00076437,0.00206
 378,-0.00112948,-0.00026936,-0.00044657,0.00010988,-0.00038537,-0.0010
 0391,-0.00061719,0.00180322,0.00949761,0.00490640,0.00472859,0.0005375
 9,0.00298095,0.00316403,-0.00277922,-0.00094903,-0.01182189,-0.0125852
 6,0.00014390,0.00011460,-0.00070346,0.00157999,-0.00237123,-0.00064560
 ,0.00013780,0.00117995,0.00077268,-0.00090203,0.00036080,0.00064817,0.
 00007031,0.01945300,0.00524175,-0.03514912,-0.01519197,-0.00059756,0.0
 2881761\\0.00005266,0.00000667,-0.00002471,0.00000117,0.00001326,0.000
 00073,-0.00003511,-0.00002458,0.00000480,-0.00003071,-0.00004130,-0.00
 006645,0.00006116,0.00003246,0.00004823,0.00000296,0.00009960,0.000000
 66,-0.00006533,0.00004489,0.00002928,-0.00000322,-0.00004213,-0.000017
 52,0.00003624,-0.00000742,-0.00003588,-0.00002734,-0.00001578,0.000014
 71,-0.00000971,0.00001180,0.00001850,-0.00000912,-0.00013688,0.0000286
 6,0.00002634,0.00005941,-0.00000101\\\@


 MAN IS THE MEASURE OF ALL THINGS.
  -- PROTAGORAS (5TH CENTURY B.C.)
 Job cpu time:       0 days  0 hours  7 minutes 58.6 seconds.
 File lengths (MBytes):  RWF=     55 Int=      0 D2E=      0 Chk=      3 Scr=      1
 Normal termination of Gaussian 09 at Fri Aug 20 15:35:04 2021.
