 Entering Gaussian System, Link 0=g09
 Input=B3LYP6-31G.NIMFOE.gjf
 Output=B3LYP6-31G.NIMFOE.log
 Initial command:
 /public/home/users/caep010/software/Gaussian09/g09/l1.exe "/public/home/users/caep010/.cache/gau_scr/Gau-195697.inp" -scrdir="/public/home/users/caep010/.cache/gau_scr/"
 Entering Link 1 = /public/home/users/caep010/software/Gaussian09/g09/l1.exe PID=    195698.
  
 Copyright (c) 1988,1990,1992,1993,1995,1998,2003,2009,2015,
            Gaussian, Inc.  All Rights Reserved.
  
 This is part of the Gaussian(R) 09 program.  It is based on
 the Gaussian(R) 03 system (copyright 2003, Gaussian, Inc.),
 the Gaussian(R) 98 system (copyright 1998, Gaussian, Inc.),
 the Gaussian(R) 94 system (copyright 1995, Gaussian, Inc.),
 the Gaussian 92(TM) system (copyright 1992, Gaussian, Inc.),
 the Gaussian 90(TM) system (copyright 1990, Gaussian, Inc.),
 the Gaussian 88(TM) system (copyright 1988, Gaussian, Inc.),
 the Gaussian 86(TM) system (copyright 1986, Carnegie Mellon
 University), and the Gaussian 82(TM) system (copyright 1983,
 Carnegie Mellon University). Gaussian is a federally registered
 trademark of Gaussian, Inc.
  
 This software contains proprietary and confidential information,
 including trade secrets, belonging to Gaussian, Inc.
  
 This software is provided under written license and may be
 used, copied, transmitted, or stored only in accord with that
 written license.
  
 The following legend is applicable only to US Government
 contracts under FAR:
  
                    RESTRICTED RIGHTS LEGEND
  
 Use, reproduction and disclosure by the US Government is
 subject to restrictions as set forth in subparagraphs (a)
 and (c) of the Commercial Computer Software - Restricted
 Rights clause in FAR 52.227-19.
  
 Gaussian, Inc.
 340 Quinnipiac St., Bldg. 40, Wallingford CT 06492
  
  
 ---------------------------------------------------------------
 Warning -- This program may not be used in any manner that
 competes with the business of Gaussian, Inc. or will provide
 assistance to any competitor of Gaussian, Inc.  The licensee
 of this program is prohibited from giving any competitor of
 Gaussian, Inc. access to this program.  By using this program,
 the user acknowledges that Gaussian, Inc. is engaged in the
 business of creating and licensing software in the field of
 computational chemistry and represents and warrants to the
 licensee that it is not a competitor of Gaussian, Inc. and that
 it will not use this program in any manner prohibited above.
 ---------------------------------------------------------------
  

 Cite this work as:
 Gaussian 09, Revision E.01,
 M. J. Frisch, G. W. Trucks, H. B. Schlegel, G. E. Scuseria, 
 M. A. Robb, J. R. Cheeseman, G. Scalmani, V. Barone, B. Mennucci, 
 G. A. Petersson, H. Nakatsuji, M. Caricato, X. Li, H. P. Hratchian, 
 A. F. Izmaylov, J. Bloino, G. Zheng, J. L. Sonnenberg, M. Hada, 
 M. Ehara, K. Toyota, R. Fukuda, J. Hasegawa, M. Ishida, T. Nakajima, 
 Y. Honda, O. Kitao, H. Nakai, T. Vreven, J. A. Montgomery, Jr., 
 J. E. Peralta, F. Ogliaro, M. Bearpark, J. J. Heyd, E. Brothers, 
 K. N. Kudin, V. N. Staroverov, T. Keith, R. Kobayashi, J. Normand, 
 K. Raghavachari, A. Rendell, J. C. Burant, S. S. Iyengar, J. Tomasi, 
 M. Cossi, N. Rega, J. M. Millam, M. Klene, J. E. Knox, J. B. Cross, 
 V. Bakken, C. Adamo, J. Jaramillo, R. Gomperts, R. E. Stratmann, 
 O. Yazyev, A. J. Austin, R. Cammi, C. Pomelli, J. W. Ochterski, 
 R. L. Martin, K. Morokuma, V. G. Zakrzewski, G. A. Voth, 
 P. Salvador, J. J. Dannenberg, S. Dapprich, A. D. Daniels, 
 O. Farkas, J. B. Foresman, J. V. Ortiz, J. Cioslowski, 
 and D. J. Fox, Gaussian, Inc., Wallingford CT, 2013.
 
 ******************************************
 Gaussian 09:  ES64L-G09RevE.01 30-Nov-2015
                20-Aug-2021 
 ******************************************
 %nproc=32
 Will use up to   32 processors via shared memory.
 %mem=180GB
 -------------------------
 #P OPT Freq B3LYP/6-31G**
 -------------------------
 1/14=-1,18=20,19=15,26=3,38=1/1,3;
 2/9=110,12=2,17=6,18=5,40=1/2;
 3/5=1,6=6,7=101,11=2,16=1,25=1,30=1,71=1,74=-5/1,2,3;
 4//1;
 5/5=2,38=5/2;
 6/7=2,8=2,9=2,10=2,28=1/1;
 7//1,2,3,16;
 1/14=-1,18=20,19=15,26=3/3(2);
 2/9=110/2;
 99//99;
 2/9=110/2;
 3/5=1,6=6,7=101,11=2,16=1,25=1,30=1,71=1,74=-5/1,2,3;
 4/5=5,16=3,69=1/1;
 5/5=2,38=5/2;
 7//1,2,3,16;
 1/14=-1,18=20,19=15,26=3/3(-5);
 2/9=110/2;
 6/7=2,8=2,9=2,10=2,19=2,28=1/1;
 99/9=1/99;
 Leave Link    1 at Fri Aug 20 15:43:15 2021, MaxMem= 24159191040 cpu:         2.4
 (Enter /public/home/users/caep010/software/Gaussian09/g09/l101.exe)
 ------
 NIMFOE
 ------
 Symbolic Z-matrix:
 Charge =  0 Multiplicity = 1
 O                     4.0658    0.9305   -1.3667 
 C                     4.648     0.9489   -0.2939 
 N                     4.0903    0.3141    0.8078 
 C                     5.9184    1.5712    0.0098 
 C                     6.4317    1.5131    1.2603 
 N                     5.8039    0.8685    2.2458 
 H                     6.1696    0.8045    3.044 
 H                     7.2349    1.9386    1.5013 
 N                     6.6937    2.2459   -0.998 
 O                     6.3286    2.2061   -2.1633 
 O                     7.7249    2.8032   -0.6468 
 C                     4.607     0.2113    2.0711 
 O                     4.0641   -0.4149    2.963 
 H                     3.3098   -0.0872    0.6448 
 
 NAtoms=     14 NQM=       14 NQMF=       0 NMMI=      0 NMMIF=      0
                NMic=       0 NMicF=      0.
                    Isotopes and Nuclear Properties:
 (Nuclear quadrupole moments (NQMom) in fm**2, nuclear magnetic moments (NMagM)
  in nuclear magnetons)

  Atom         1           2           3           4           5           6           7           8           9          10
 IAtWgt=          16          12          14          12          12          14           1           1          14          16
 AtmWgt=  15.9949146  12.0000000  14.0030740  12.0000000  12.0000000  14.0030740   1.0078250   1.0078250  14.0030740  15.9949146
 NucSpn=           0           0           2           0           0           2           1           1           2           0
 AtZEff=   0.0000000   0.0000000   0.0000000   0.0000000   0.0000000   0.0000000   0.0000000   0.0000000   0.0000000   0.0000000
 NQMom=    0.0000000   0.0000000   2.0440000   0.0000000   0.0000000   2.0440000   0.0000000   0.0000000   2.0440000   0.0000000
 NMagM=    0.0000000   0.0000000   0.4037610   0.0000000   0.0000000   0.4037610   2.7928460   2.7928460   0.4037610   0.0000000
 AtZNuc=   8.0000000   6.0000000   7.0000000   6.0000000   6.0000000   7.0000000   1.0000000   1.0000000   7.0000000   8.0000000

  Atom        11          12          13          14
 IAtWgt=          16          12          16           1
 AtmWgt=  15.9949146  12.0000000  15.9949146   1.0078250
 NucSpn=           0           0           0           1
 AtZEff=   0.0000000   0.0000000   0.0000000   0.0000000
 NQMom=    0.0000000   0.0000000   0.0000000   0.0000000
 NMagM=    0.0000000   0.0000000   0.0000000   2.7928460
 AtZNuc=   8.0000000   6.0000000   8.0000000   1.0000000
 Leave Link  101 at Fri Aug 20 15:43:15 2021, MaxMem= 24159191040 cpu:        10.5
 (Enter /public/home/users/caep010/software/Gaussian09/g09/l103.exe)

 GradGradGradGradGradGradGradGradGradGradGradGradGradGradGradGradGradGrad
 Berny optimization.
 Initialization pass.
                           ----------------------------
                           !    Initial Parameters    !
                           ! (Angstroms and Degrees)  !
 --------------------------                            --------------------------
 ! Name  Definition              Value          Derivative Info.                !
 --------------------------------------------------------------------------------
 ! R1    R(1,2)                  1.2207         estimate D2E/DX2                !
 ! R2    R(2,3)                  1.3884         estimate D2E/DX2                !
 ! R3    R(2,4)                  1.4469         estimate D2E/DX2                !
 ! R4    R(3,12)                 1.3687         estimate D2E/DX2                !
 ! R5    R(3,14)                 0.8926         estimate D2E/DX2                !
 ! R6    R(4,5)                  1.353          estimate D2E/DX2                !
 ! R7    R(4,9)                  1.4394         estimate D2E/DX2                !
 ! R8    R(5,6)                  1.3345         estimate D2E/DX2                !
 ! R9    R(5,8)                  0.9404         estimate D2E/DX2                !
 ! R10   R(6,7)                  0.8803         estimate D2E/DX2                !
 ! R11   R(6,12)                 1.3766         estimate D2E/DX2                !
 ! R12   R(9,10)                 1.2218         estimate D2E/DX2                !
 ! R13   R(9,11)                 1.2236         estimate D2E/DX2                !
 ! R14   R(12,13)                1.2175         estimate D2E/DX2                !
 ! A1    A(1,2,3)              119.9249         estimate D2E/DX2                !
 ! A2    A(1,2,4)              127.5684         estimate D2E/DX2                !
 ! A3    A(3,2,4)              112.5059         estimate D2E/DX2                !
 ! A4    A(2,3,12)             127.9564         estimate D2E/DX2                !
 ! A5    A(2,3,14)             114.3223         estimate D2E/DX2                !
 ! A6    A(12,3,14)            117.7005         estimate D2E/DX2                !
 ! A7    A(2,4,5)              120.5734         estimate D2E/DX2                !
 ! A8    A(2,4,9)              121.841          estimate D2E/DX2                !
 ! A9    A(5,4,9)              117.5734         estimate D2E/DX2                !
 ! A10   A(4,5,6)              121.6553         estimate D2E/DX2                !
 ! A11   A(4,5,8)              122.785          estimate D2E/DX2                !
 ! A12   A(6,5,8)              115.5394         estimate D2E/DX2                !
 ! A13   A(5,6,7)              120.6163         estimate D2E/DX2                !
 ! A14   A(5,6,12)             123.0876         estimate D2E/DX2                !
 ! A15   A(7,6,12)             116.2031         estimate D2E/DX2                !
 ! A16   A(4,9,10)             119.4418         estimate D2E/DX2                !
 ! A17   A(4,9,11)             117.8033         estimate D2E/DX2                !
 ! A18   A(10,9,11)            122.7109         estimate D2E/DX2                !
 ! A19   A(3,12,6)             114.1732         estimate D2E/DX2                !
 ! A20   A(3,12,13)            123.1216         estimate D2E/DX2                !
 ! A21   A(6,12,13)            122.7026         estimate D2E/DX2                !
 ! D1    D(1,2,3,12)           178.7036         estimate D2E/DX2                !
 ! D2    D(1,2,3,14)             0.4178         estimate D2E/DX2                !
 ! D3    D(4,2,3,12)            -0.9954         estimate D2E/DX2                !
 ! D4    D(4,2,3,14)          -179.2812         estimate D2E/DX2                !
 ! D5    D(1,2,4,5)            179.4693         estimate D2E/DX2                !
 ! D6    D(1,2,4,9)             -1.8274         estimate D2E/DX2                !
 ! D7    D(3,2,4,5)             -0.8599         estimate D2E/DX2                !
 ! D8    D(3,2,4,9)            177.8435         estimate D2E/DX2                !
 ! D9    D(2,3,12,6)             2.4414         estimate D2E/DX2                !
 ! D10   D(2,3,12,13)         -176.9957         estimate D2E/DX2                !
 ! D11   D(14,3,12,6)         -179.3229         estimate D2E/DX2                !
 ! D12   D(14,3,12,13)           1.24           estimate D2E/DX2                !
 ! D13   D(2,4,5,6)              1.0891         estimate D2E/DX2                !
 ! D14   D(2,4,5,8)           -177.1956         estimate D2E/DX2                !
 ! D15   D(9,4,5,6)           -177.6683         estimate D2E/DX2                !
 ! D16   D(9,4,5,8)              4.047          estimate D2E/DX2                !
 ! D17   D(2,4,9,10)            -5.8889         estimate D2E/DX2                !
 ! D18   D(2,4,9,11)           176.4582         estimate D2E/DX2                !
 ! D19   D(5,4,9,10)           172.8517         estimate D2E/DX2                !
 ! D20   D(5,4,9,11)            -4.8012         estimate D2E/DX2                !
 ! D21   D(4,5,6,7)            176.8864         estimate D2E/DX2                !
 ! D22   D(4,5,6,12)             0.5273         estimate D2E/DX2                !
 ! D23   D(8,5,6,7)             -4.7118         estimate D2E/DX2                !
 ! D24   D(8,5,6,12)           178.9291         estimate D2E/DX2                !
 ! D25   D(5,6,12,3)            -2.1449         estimate D2E/DX2                !
 ! D26   D(5,6,12,13)          177.2949         estimate D2E/DX2                !
 ! D27   D(7,6,12,3)          -178.6529         estimate D2E/DX2                !
 ! D28   D(7,6,12,13)            0.7869         estimate D2E/DX2                !
 --------------------------------------------------------------------------------
 Trust Radius=3.00D-01 FncErr=1.00D-07 GrdErr=1.00D-06
 Number of steps in this run=     73 maximum allowed number of steps=    100.
 GradGradGradGradGradGradGradGradGradGradGradGradGradGradGradGradGradGrad

 Leave Link  103 at Fri Aug 20 15:43:15 2021, MaxMem= 24159191040 cpu:         0.3
 (Enter /public/home/users/caep010/software/Gaussian09/g09/l202.exe)
                          Input orientation:                          
 ---------------------------------------------------------------------
 Center     Atomic      Atomic             Coordinates (Angstroms)
 Number     Number       Type             X           Y           Z
 ---------------------------------------------------------------------
      1          8           0        4.065800    0.930500   -1.366700
      2          6           0        4.648000    0.948900   -0.293900
      3          7           0        4.090300    0.314100    0.807800
      4          6           0        5.918400    1.571200    0.009800
      5          6           0        6.431700    1.513100    1.260300
      6          7           0        5.803900    0.868500    2.245800
      7          1           0        6.169600    0.804500    3.044000
      8          1           0        7.234900    1.938600    1.501300
      9          7           0        6.693700    2.245900   -0.998000
     10          8           0        6.328600    2.206100   -2.163300
     11          8           0        7.724900    2.803200   -0.646800
     12          6           0        4.607000    0.211300    2.071100
     13          8           0        4.064100   -0.414900    2.963000
     14          1           0        3.309800   -0.087200    0.644800
 ---------------------------------------------------------------------
                    Distance matrix (angstroms):
                    1          2          3          4          5
     1  O    0.000000
     2  C    1.220736   0.000000
     3  N    2.260310   1.388432   0.000000
     4  C    2.395282   1.446861   2.357765   0.000000
     5  C    3.583020   2.432169   2.669178   1.352998   0.000000
     6  N    4.009363   2.791531   2.304697   2.346613   1.334486
     7  H    4.888366   3.671198   3.092664   3.139634   1.937110
     8  H    4.391456   3.300652   3.606723   2.023049   0.940352
     9  N    2.961769   2.522470   3.710857   1.439434   2.388631
    10  O    2.716982   2.810627   4.173378   2.300810   3.494555
    11  O    4.173041   3.609748   4.639159   2.283066   2.640787
    12  C    3.553676   2.477692   1.368749   2.796079   2.383613
    13  O    4.533917   3.578867   2.275305   4.013030   3.495984
    14  H    2.377684   1.935314   0.892631   3.155679   3.561750
                    6          7          8          9         10
     6  N    0.000000
     7  H    0.880316   0.000000
     8  H    1.935757   2.191112   0.000000
     9  N    3.634723   4.323202   2.575622   0.000000
    10  O    4.637310   5.394973   3.784472   1.221804   0.000000
    11  O    3.974977   4.476133   2.366847   1.223641   2.146149
    12  C    1.376591   1.933944   3.195950   4.232409   4.987312
    13  O    2.277805   2.434467   4.210641   5.448318   6.186805
    14  H    3.114016   3.837935   4.499319   4.426390   4.717818
                   11         12         13         14
    11  O    0.000000
    12  C    4.881212   0.000000
    13  O    6.065334   1.217519   0.000000
    14  H    5.432840   1.950939   2.459758   0.000000
 Stoichiometry    C4H3N3O4
 Framework group  C1[X(C4H3N3O4)]
 Deg. of freedom    36
 Full point group                 C1      NOp   1
 Largest Abelian subgroup         C1      NOp   1
 Largest concise Abelian subgroup C1      NOp   1
                         Standard orientation:                         
 ---------------------------------------------------------------------
 Center     Atomic      Atomic             Coordinates (Angstroms)
 Number     Number       Type             X           Y           Z
 ---------------------------------------------------------------------
      1          8           0       -0.483898    2.201175   -0.058540
      2          6           0        0.036353    1.096954   -0.043412
      3          7           0        1.420070    0.983338   -0.030657
      4          6           0       -0.625142   -0.189762   -0.029435
      5          6           0        0.096228   -1.334401   -0.024020
      6          7           0        1.430572   -1.321240   -0.009686
      7          1           0        1.885893   -2.073342    0.034823
      8          1           0       -0.300508   -2.186447   -0.053667
      9          7           0       -2.059423   -0.305919    0.006866
     10          8           0       -2.740377    0.700318    0.135683
     11          8           0       -2.542748   -1.428611   -0.050217
     12          6           0        2.170489   -0.160599    0.011215
     13          8           0        3.386456   -0.156701    0.072546
     14          1           0        1.853045    1.763927   -0.028678
 ---------------------------------------------------------------------
 Rotational constants (GHZ):      2.4413611      0.8480335      0.6302437
 Leave Link  202 at Fri Aug 20 15:43:15 2021, MaxMem= 24159191040 cpu:         0.3
 (Enter /public/home/users/caep010/software/Gaussian09/g09/l301.exe)
 Standard basis: 6-31G(d,p) (6D, 7F)
 Ernie: Thresh=  0.10000D-02 Tol=  0.10000D-05 Strict=F.
 There are   180 symmetry adapted cartesian basis functions of A   symmetry.
 There are   180 symmetry adapted basis functions of A   symmetry.
   180 basis functions,   329 primitive gaussians,   180 cartesian basis functions
    40 alpha electrons       40 beta electrons
       nuclear repulsion energy       616.2156663712 Hartrees.
 IExCor=  402 DFT=T Ex+Corr=B3LYP ExCW=0 ScaHFX=  0.200000
 ScaDFX=  0.800000  0.720000  1.000000  0.810000 ScalE2=  1.000000  1.000000
 IRadAn=      0 IRanWt=     -1 IRanGd=            0 ICorTp=0 IEmpDi=  4
 NAtoms=   14 NActive=   14 NUniq=   14 SFac= 1.00D+00 NAtFMM=   60 NAOKFM=F Big=F
 Integral buffers will be    131072 words long.
 Raffenetti 2 integral format.
 Two-electron integral symmetry is turned on.
 Leave Link  301 at Fri Aug 20 15:43:15 2021, MaxMem= 24159191040 cpu:         1.9
 (Enter /public/home/users/caep010/software/Gaussian09/g09/l302.exe)
 NPDir=0 NMtPBC=     1 NCelOv=     1 NCel=       1 NClECP=     1 NCelD=      1
         NCelK=      1 NCelE2=     1 NClLst=     1 CellRange=     0.0.
 One-electron integrals computed using PRISM.
 NBasis=   180 RedAO= T EigKep=  8.78D-04  NBF=   180
 NBsUse=   180 1.00D-06 EigRej= -1.00D+00 NBFU=   180
 Precomputing XC quadrature grid using
 IXCGrd= 4 IRadAn=           0 IRanWt=          -1 IRanGd=           0 AccXCQ= 0.00D+00.
 Generated NRdTot=       0 NPtTot=           0 NUsed=           0 NTot=          32
 NSgBfM=   179   179   179   179   179 MxSgAt=    14 MxSgA2=    14.
 Leave Link  302 at Fri Aug 20 15:43:16 2021, MaxMem= 24159191040 cpu:        11.8
 (Enter /public/home/users/caep010/software/Gaussian09/g09/l303.exe)
 DipDrv:  MaxL=1.
 Leave Link  303 at Fri Aug 20 15:43:16 2021, MaxMem= 24159191040 cpu:         0.9
 (Enter /public/home/users/caep010/software/Gaussian09/g09/l401.exe)
 ExpMin= 1.61D-01 ExpMax= 5.48D+03 ExpMxC= 8.25D+02 IAcc=1 IRadAn=         1 AccDes= 0.00D+00
 Harris functional with IExCor=  402 and IRadAn=       1 diagonalized for initial guess.
 HarFok:  IExCor=  402 AccDes= 0.00D+00 IRadAn=         1 IDoV= 1 UseB2=F ITyADJ=14
 ICtDFT=  3500011 ScaDFX=  1.000000  1.000000  1.000000  1.000000
 FoFCou: FMM=F IPFlag=           0 FMFlag=      100000 FMFlg1=           0
         NFxFlg=           0 DoJE=T BraDBF=F KetDBF=T FulRan=T
         wScrn=  0.000000 ICntrl=     500 IOpCl=  0 I1Cent=   200000004 NGrid=           0
         NMat0=    1 NMatS0=      1 NMatT0=    0 NMatD0=    1 NMtDS0=    0 NMtDT0=    0
 Petite list used in FoFCou.
 Harris En= -619.296261465549    
 JPrj=0 DoOrth=F DoCkMO=F.
 Leave Link  401 at Fri Aug 20 15:43:16 2021, MaxMem= 24159191040 cpu:        10.5
 (Enter /public/home/users/caep010/software/Gaussian09/g09/l502.exe)
 Closed shell SCF:
 Using DIIS extrapolation, IDIIS=  1040.
 Integral symmetry usage will be decided dynamically.
 Keep R1 ints in memory in canonical form, NReq=135777826.
 IVT=      122851 IEndB=      122851 NGot= 24159191040 MDV= 24026377995
 LenX= 24026377995 LenY= 24026345154
 Requested convergence on RMS density matrix=1.00D-08 within 128 cycles.
 Requested convergence on MAX density matrix=1.00D-06.
 Requested convergence on             energy=1.00D-06.
 No special actions if energy rises.
 FoFCou: FMM=F IPFlag=           0 FMFlag=           0 FMFlg1=           0
         NFxFlg=           0 DoJE=F BraDBF=F KetDBF=F FulRan=T
         wScrn=  0.000000 ICntrl=     600 IOpCl=  0 I1Cent=           0 NGrid=           0
         NMat0=    1 NMatS0=  16290 NMatT0=    0 NMatD0=    1 NMtDS0=    0 NMtDT0=    0
 Symmetry not used in FoFCou.
 Integral accuracy reduced to 1.0D-05 until final iterations.

 Cycle   1  Pass 0  IDiag  1:
 E= -618.889689302985    
 DIIS: error= 4.10D-02 at cycle   1 NSaved=   1.
 NSaved= 1 IEnMin= 1 EnMin= -618.889689302985     IErMin= 1 ErrMin= 4.10D-02
 ErrMax= 4.10D-02  0.00D+00 EMaxC= 1.00D-01 BMatC= 4.93D-01 BMatP= 4.93D-01
 IDIUse=3 WtCom= 5.90D-01 WtEn= 4.10D-01
 Coeff-Com:  0.100D+01
 Coeff-En:   0.100D+01
 Coeff:      0.100D+01
 Gap=     0.162 Goal=   None    Shift=    0.000
 GapD=    0.162 DampG=1.000 DampE=0.500 DampFc=0.5000 IDamp=-1.
 Damping current iteration by 5.00D-01
 RMSDP=1.20D-02 MaxDP=3.65D-01              OVMax= 3.87D-01

 Cycle   2  Pass 0  IDiag  1:
 E= -618.846686126703     Delta-E=        0.043003176282 Rises=F Damp=T
 DIIS: error= 2.15D-02 at cycle   2 NSaved=   2.
 NSaved= 2 IEnMin= 1 EnMin= -618.889689302985     IErMin= 2 ErrMin= 2.15D-02
 ErrMax= 2.15D-02  0.00D+00 EMaxC= 1.00D-01 BMatC= 1.80D-01 BMatP= 4.93D-01
 IDIUse=3 WtCom= 7.85D-01 WtEn= 2.15D-01
 Coeff-Com:  0.355D+00 0.645D+00
 Coeff-En:   0.538D+00 0.462D+00
 Coeff:      0.394D+00 0.606D+00
 Gap=     0.169 Goal=   None    Shift=    0.000
 RMSDP=3.77D-03 MaxDP=1.40D-01 DE= 4.30D-02 OVMax= 3.07D-01

 Cycle   3  Pass 0  IDiag  1:
 E= -619.201860006602     Delta-E=       -0.355173879899 Rises=F Damp=F
 DIIS: error= 1.54D-02 at cycle   3 NSaved=   3.
 NSaved= 3 IEnMin= 3 EnMin= -619.201860006602     IErMin= 3 ErrMin= 1.54D-02
 ErrMax= 1.54D-02  0.00D+00 EMaxC= 1.00D-01 BMatC= 6.15D-02 BMatP= 1.80D-01
 IDIUse=3 WtCom= 8.46D-01 WtEn= 1.54D-01
 Coeff-Com:  0.185D+00 0.363D+00 0.452D+00
 Coeff-En:   0.000D+00 0.000D+00 0.100D+01
 Coeff:      0.157D+00 0.307D+00 0.537D+00
 Gap=     0.195 Goal=   None    Shift=    0.000
 RMSDP=1.96D-03 MaxDP=5.88D-02 DE=-3.55D-01 OVMax= 9.72D-02

 Cycle   4  Pass 0  IDiag  1:
 E= -619.230250350721     Delta-E=       -0.028390344119 Rises=F Damp=F
 DIIS: error= 1.35D-02 at cycle   4 NSaved=   4.
 NSaved= 4 IEnMin= 4 EnMin= -619.230250350721     IErMin= 4 ErrMin= 1.35D-02
 ErrMax= 1.35D-02  0.00D+00 EMaxC= 1.00D-01 BMatC= 3.06D-02 BMatP= 6.15D-02
 IDIUse=3 WtCom= 8.65D-01 WtEn= 1.35D-01
 Coeff-Com:  0.697D-01 0.122D+00 0.386D+00 0.422D+00
 Coeff-En:   0.000D+00 0.000D+00 0.349D+00 0.651D+00
 Coeff:      0.603D-01 0.106D+00 0.381D+00 0.453D+00
 Gap=     0.175 Goal=   None    Shift=    0.000
 RMSDP=1.06D-03 MaxDP=4.48D-02 DE=-2.84D-02 OVMax= 7.24D-02

 Cycle   5  Pass 0  IDiag  1:
 E= -619.250177856406     Delta-E=       -0.019927505685 Rises=F Damp=F
 DIIS: error= 6.50D-03 at cycle   5 NSaved=   5.
 NSaved= 5 IEnMin= 5 EnMin= -619.250177856406     IErMin= 5 ErrMin= 6.50D-03
 ErrMax= 6.50D-03  0.00D+00 EMaxC= 1.00D-01 BMatC= 5.26D-03 BMatP= 3.06D-02
 IDIUse=3 WtCom= 9.35D-01 WtEn= 6.50D-02
 Coeff-Com:  0.222D-01 0.272D-01 0.213D+00 0.344D+00 0.394D+00
 Coeff-En:   0.000D+00 0.000D+00 0.000D+00 0.168D+00 0.832D+00
 Coeff:      0.207D-01 0.255D-01 0.199D+00 0.332D+00 0.422D+00
 Gap=     0.172 Goal=   None    Shift=    0.000
 RMSDP=4.34D-04 MaxDP=1.92D-02 DE=-1.99D-02 OVMax= 3.21D-02

 Cycle   6  Pass 0  IDiag  1:
 E= -619.253909486289     Delta-E=       -0.003731629884 Rises=F Damp=F
 DIIS: error= 2.10D-03 at cycle   6 NSaved=   6.
 NSaved= 6 IEnMin= 6 EnMin= -619.253909486289     IErMin= 6 ErrMin= 2.10D-03
 ErrMax= 2.10D-03  0.00D+00 EMaxC= 1.00D-01 BMatC= 7.39D-04 BMatP= 5.26D-03
 IDIUse=3 WtCom= 9.79D-01 WtEn= 2.10D-02
 Coeff-Com:  0.420D-02-0.156D-02 0.823D-01 0.166D+00 0.309D+00 0.440D+00
 Coeff-En:   0.000D+00 0.000D+00 0.000D+00 0.000D+00 0.149D+00 0.851D+00
 Coeff:      0.411D-02-0.152D-02 0.806D-01 0.162D+00 0.306D+00 0.448D+00
 Gap=     0.173 Goal=   None    Shift=    0.000
 RMSDP=1.44D-04 MaxDP=6.48D-03 DE=-3.73D-03 OVMax= 9.30D-03

 Cycle   7  Pass 0  IDiag  1:
 E= -619.254449324176     Delta-E=       -0.000539837886 Rises=F Damp=F
 DIIS: error= 3.47D-04 at cycle   7 NSaved=   7.
 NSaved= 7 IEnMin= 7 EnMin= -619.254449324176     IErMin= 7 ErrMin= 3.47D-04
 ErrMax= 3.47D-04  0.00D+00 EMaxC= 1.00D-01 BMatC= 4.82D-05 BMatP= 7.39D-04
 IDIUse=3 WtCom= 9.97D-01 WtEn= 3.47D-03
 Coeff-Com:  0.503D-03-0.310D-02 0.259D-01 0.559D-01 0.134D+00 0.278D+00
 Coeff-Com:  0.509D+00
 Coeff-En:   0.000D+00 0.000D+00 0.000D+00 0.000D+00 0.000D+00 0.282D-01
 Coeff-En:   0.972D+00
 Coeff:      0.501D-03-0.309D-02 0.258D-01 0.557D-01 0.133D+00 0.277D+00
 Coeff:      0.510D+00
 Gap=     0.173 Goal=   None    Shift=    0.000
 RMSDP=3.65D-05 MaxDP=1.24D-03 DE=-5.40D-04 OVMax= 1.93D-03

 Cycle   8  Pass 0  IDiag  1:
 E= -619.254485898463     Delta-E=       -0.000036574287 Rises=F Damp=F
 DIIS: error= 6.90D-05 at cycle   8 NSaved=   8.
 NSaved= 8 IEnMin= 8 EnMin= -619.254485898463     IErMin= 8 ErrMin= 6.90D-05
 ErrMax= 6.90D-05  0.00D+00 EMaxC= 1.00D-01 BMatC= 1.88D-06 BMatP= 4.82D-05
 IDIUse=1 WtCom= 1.00D+00 WtEn= 0.00D+00
 Coeff-Com: -0.547D-04-0.140D-02 0.564D-02 0.117D-01 0.362D-01 0.974D-01
 Coeff-Com:  0.241D+00 0.610D+00
 Coeff:     -0.547D-04-0.140D-02 0.564D-02 0.117D-01 0.362D-01 0.974D-01
 Coeff:      0.241D+00 0.610D+00
 Gap=     0.173 Goal=   None    Shift=    0.000
 RMSDP=9.34D-06 MaxDP=3.04D-04 DE=-3.66D-05 OVMax= 7.47D-04

 Initial convergence to 1.0D-05 achieved.  Increase integral accuracy.
 Cycle   9  Pass 1  IDiag  1:
 E= -619.254424864809     Delta-E=        0.000061033654 Rises=F Damp=F
 DIIS: error= 3.42D-05 at cycle   1 NSaved=   1.
 NSaved= 1 IEnMin= 1 EnMin= -619.254424864809     IErMin= 1 ErrMin= 3.42D-05
 ErrMax= 3.42D-05  0.00D+00 EMaxC= 1.00D-01 BMatC= 4.22D-07 BMatP= 4.22D-07
 IDIUse=1 WtCom= 1.00D+00 WtEn= 0.00D+00
 Coeff-Com:  0.100D+01
 Coeff:      0.100D+01
 Gap=     0.173 Goal=   None    Shift=    0.000
 RMSDP=9.34D-06 MaxDP=3.04D-04 DE= 6.10D-05 OVMax= 7.87D-04

 Cycle  10  Pass 1  IDiag  1:
 E= -619.254424232463     Delta-E=        0.000000632346 Rises=F Damp=F
 DIIS: error= 6.09D-05 at cycle   2 NSaved=   2.
 NSaved= 2 IEnMin= 1 EnMin= -619.254424864809     IErMin= 1 ErrMin= 3.42D-05
 ErrMax= 6.09D-05  0.00D+00 EMaxC= 1.00D-01 BMatC= 1.08D-06 BMatP= 4.22D-07
 IDIUse=1 WtCom= 1.00D+00 WtEn= 0.00D+00
 Coeff-Com:  0.625D+00 0.375D+00
 Coeff:      0.625D+00 0.375D+00
 Gap=     0.173 Goal=   None    Shift=    0.000
 RMSDP=6.86D-06 MaxDP=2.39D-04 DE= 6.32D-07 OVMax= 5.94D-04

 Cycle  11  Pass 1  IDiag  1:
 E= -619.254425254095     Delta-E=       -0.000001021632 Rises=F Damp=F
 DIIS: error= 8.48D-06 at cycle   3 NSaved=   3.
 NSaved= 3 IEnMin= 3 EnMin= -619.254425254095     IErMin= 3 ErrMin= 8.48D-06
 ErrMax= 8.48D-06  0.00D+00 EMaxC= 1.00D-01 BMatC= 2.62D-08 BMatP= 4.22D-07
 IDIUse=1 WtCom= 1.00D+00 WtEn= 0.00D+00
 Coeff-Com:  0.133D+00 0.154D+00 0.713D+00
 Coeff:      0.133D+00 0.154D+00 0.713D+00
 Gap=     0.173 Goal=   None    Shift=    0.000
 RMSDP=1.44D-06 MaxDP=5.72D-05 DE=-1.02D-06 OVMax= 7.01D-05

 Cycle  12  Pass 1  IDiag  1:
 E= -619.254425260878     Delta-E=       -0.000000006783 Rises=F Damp=F
 DIIS: error= 9.62D-06 at cycle   4 NSaved=   4.
 NSaved= 4 IEnMin= 4 EnMin= -619.254425260878     IErMin= 3 ErrMin= 8.48D-06
 ErrMax= 9.62D-06  0.00D+00 EMaxC= 1.00D-01 BMatC= 2.08D-08 BMatP= 2.62D-08
 IDIUse=1 WtCom= 1.00D+00 WtEn= 0.00D+00
 Coeff-Com:  0.213D-02 0.577D-01 0.526D+00 0.414D+00
 Coeff:      0.213D-02 0.577D-01 0.526D+00 0.414D+00
 Gap=     0.173 Goal=   None    Shift=    0.000
 RMSDP=8.28D-07 MaxDP=2.80D-05 DE=-6.78D-09 OVMax= 4.16D-05

 Cycle  13  Pass 1  IDiag  1:
 E= -619.254425275897     Delta-E=       -0.000000015019 Rises=F Damp=F
 DIIS: error= 3.02D-06 at cycle   5 NSaved=   5.
 NSaved= 5 IEnMin= 5 EnMin= -619.254425275897     IErMin= 5 ErrMin= 3.02D-06
 ErrMax= 3.02D-06  0.00D+00 EMaxC= 1.00D-01 BMatC= 1.44D-09 BMatP= 2.08D-08
 IDIUse=1 WtCom= 1.00D+00 WtEn= 0.00D+00
 Coeff-Com: -0.701D-02 0.290D-01 0.307D+00 0.282D+00 0.388D+00
 Coeff:     -0.701D-02 0.290D-01 0.307D+00 0.282D+00 0.388D+00
 Gap=     0.173 Goal=   None    Shift=    0.000
 RMSDP=2.20D-07 MaxDP=9.71D-06 DE=-1.50D-08 OVMax= 1.43D-05

 Cycle  14  Pass 1  IDiag  1:
 E= -619.254425276936     Delta-E=       -0.000000001039 Rises=F Damp=F
 DIIS: error= 1.12D-06 at cycle   6 NSaved=   6.
 NSaved= 6 IEnMin= 6 EnMin= -619.254425276936     IErMin= 6 ErrMin= 1.12D-06
 ErrMax= 1.12D-06  0.00D+00 EMaxC= 1.00D-01 BMatC= 1.88D-10 BMatP= 1.44D-09
 IDIUse=1 WtCom= 1.00D+00 WtEn= 0.00D+00
 Coeff-Com: -0.532D-02 0.142D-01 0.158D+00 0.156D+00 0.280D+00 0.397D+00
 Coeff:     -0.532D-02 0.142D-01 0.158D+00 0.156D+00 0.280D+00 0.397D+00
 Gap=     0.173 Goal=   None    Shift=    0.000
 RMSDP=7.62D-08 MaxDP=3.81D-06 DE=-1.04D-09 OVMax= 5.71D-06

 Cycle  15  Pass 1  IDiag  1:
 E= -619.254425277076     Delta-E=       -0.000000000140 Rises=F Damp=F
 DIIS: error= 2.78D-07 at cycle   7 NSaved=   7.
 NSaved= 7 IEnMin= 7 EnMin= -619.254425277076     IErMin= 7 ErrMin= 2.78D-07
 ErrMax= 2.78D-07  0.00D+00 EMaxC= 1.00D-01 BMatC= 1.71D-11 BMatP= 1.88D-10
 IDIUse=1 WtCom= 1.00D+00 WtEn= 0.00D+00
 Coeff-Com: -0.230D-02 0.500D-02 0.556D-01 0.590D-01 0.117D+00 0.256D+00
 Coeff-Com:  0.510D+00
 Coeff:     -0.230D-02 0.500D-02 0.556D-01 0.590D-01 0.117D+00 0.256D+00
 Coeff:      0.510D+00
 Gap=     0.173 Goal=   None    Shift=    0.000
 RMSDP=2.48D-08 MaxDP=1.01D-06 DE=-1.40D-10 OVMax= 1.48D-06

 Cycle  16  Pass 1  IDiag  1:
 E= -619.254425277083     Delta-E=       -0.000000000008 Rises=F Damp=F
 DIIS: error= 9.02D-08 at cycle   8 NSaved=   8.
 NSaved= 8 IEnMin= 8 EnMin= -619.254425277083     IErMin= 8 ErrMin= 9.02D-08
 ErrMax= 9.02D-08  0.00D+00 EMaxC= 1.00D-01 BMatC= 2.05D-12 BMatP= 1.71D-11
 IDIUse=1 WtCom= 1.00D+00 WtEn= 0.00D+00
 Coeff-Com: -0.881D-03 0.184D-02 0.193D-01 0.220D-01 0.430D-01 0.117D+00
 Coeff-Com:  0.325D+00 0.473D+00
 Coeff:     -0.881D-03 0.184D-02 0.193D-01 0.220D-01 0.430D-01 0.117D+00
 Coeff:      0.325D+00 0.473D+00
 Gap=     0.173 Goal=   None    Shift=    0.000
 RMSDP=8.72D-09 MaxDP=2.43D-07 DE=-7.73D-12 OVMax= 2.80D-07

 SCF Done:  E(RB3LYP) =  -619.254425277     A.U. after   16 cycles
            NFock= 16  Conv=0.87D-08     -V/T= 2.0069
 KE= 6.150275253749D+02 PE=-2.681717920496D+03 EE= 8.312203034731D+02
 Leave Link  502 at Fri Aug 20 15:43:22 2021, MaxMem= 24159191040 cpu:        75.0
 (Enter /public/home/users/caep010/software/Gaussian09/g09/l601.exe)
 Copying SCF densities to generalized density rwf, IOpCl= 0 IROHF=0.

 **********************************************************************

            Population analysis using the SCF density.

 **********************************************************************

 Orbital symmetries:
       Occupied  (A) (A) (A) (A) (A) (A) (A) (A) (A) (A) (A) (A)
                 (A) (A) (A) (A) (A) (A) (A) (A) (A) (A) (A) (A)
                 (A) (A) (A) (A) (A) (A) (A) (A) (A) (A) (A) (A)
                 (A) (A) (A) (A)
       Virtual   (A) (A) (A) (A) (A) (A) (A) (A) (A) (A) (A) (A)
                 (A) (A) (A) (A) (A) (A) (A) (A) (A) (A) (A) (A)
                 (A) (A) (A) (A) (A) (A) (A) (A) (A) (A) (A) (A)
                 (A) (A) (A) (A) (A) (A) (A) (A) (A) (A) (A) (A)
                 (A) (A) (A) (A) (A) (A) (A) (A) (A) (A) (A) (A)
                 (A) (A) (A) (A) (A) (A) (A) (A) (A) (A) (A) (A)
                 (A) (A) (A) (A) (A) (A) (A) (A) (A) (A) (A) (A)
                 (A) (A) (A) (A) (A) (A) (A) (A) (A) (A) (A) (A)
                 (A) (A) (A) (A) (A) (A) (A) (A) (A) (A) (A) (A)
                 (A) (A) (A) (A) (A) (A) (A) (A) (A) (A) (A) (A)
                 (A) (A) (A) (A) (A) (A) (A) (A) (A) (A) (A) (A)
                 (A) (A) (A) (A) (A) (A) (A) (A)
 The electronic state is 1-A.
 Alpha  occ. eigenvalues --  -19.18538 -19.18399 -19.16374 -19.15215 -14.58631
 Alpha  occ. eigenvalues --  -14.44276 -14.41190 -10.37405 -10.33858 -10.30384
 Alpha  occ. eigenvalues --  -10.27768  -1.24291  -1.12361  -1.07497  -1.06048
 Alpha  occ. eigenvalues --   -1.03849  -0.98186  -0.88209  -0.77170  -0.73911
 Alpha  occ. eigenvalues --   -0.71827  -0.61799  -0.61206  -0.58831  -0.55351
 Alpha  occ. eigenvalues --   -0.55222  -0.52756  -0.51930  -0.50020  -0.46609
 Alpha  occ. eigenvalues --   -0.44624  -0.43915  -0.40988  -0.32961  -0.32205
 Alpha  occ. eigenvalues --   -0.31707  -0.31226  -0.29901  -0.29263  -0.27878
 Alpha virt. eigenvalues --   -0.10583  -0.05340  -0.01022   0.05770   0.10316
 Alpha virt. eigenvalues --    0.11544   0.12716   0.15996   0.18338   0.19118
 Alpha virt. eigenvalues --    0.22959   0.25504   0.28071   0.29837   0.31681
 Alpha virt. eigenvalues --    0.33711   0.38082   0.42470   0.43920   0.48395
 Alpha virt. eigenvalues --    0.51194   0.53007   0.53660   0.54735   0.57356
 Alpha virt. eigenvalues --    0.57986   0.60512   0.62921   0.64505   0.68201
 Alpha virt. eigenvalues --    0.69662   0.73411   0.74714   0.76865   0.77255
 Alpha virt. eigenvalues --    0.79123   0.82403   0.83169   0.84015   0.87674
 Alpha virt. eigenvalues --    0.89609   0.92124   0.93013   0.93837   0.96591
 Alpha virt. eigenvalues --    0.97209   0.99147   1.00309   1.00735   1.02136
 Alpha virt. eigenvalues --    1.03183   1.07457   1.14296   1.15308   1.19534
 Alpha virt. eigenvalues --    1.20956   1.22214   1.25028   1.27318   1.32666
 Alpha virt. eigenvalues --    1.32946   1.34817   1.35121   1.38457   1.39721
 Alpha virt. eigenvalues --    1.41184   1.42372   1.51607   1.55584   1.60633
 Alpha virt. eigenvalues --    1.65773   1.67963   1.72407   1.74570   1.74883
 Alpha virt. eigenvalues --    1.75823   1.77152   1.78622   1.80826   1.81770
 Alpha virt. eigenvalues --    1.82922   1.84148   1.85741   1.89697   1.89737
 Alpha virt. eigenvalues --    1.92648   1.95225   1.96303   2.04968   2.07664
 Alpha virt. eigenvalues --    2.09043   2.13227   2.13537   2.18546   2.22677
 Alpha virt. eigenvalues --    2.23682   2.26925   2.29944   2.34140   2.42255
 Alpha virt. eigenvalues --    2.43516   2.44584   2.46326   2.47628   2.48079
 Alpha virt. eigenvalues --    2.53978   2.56566   2.58026   2.61711   2.63462
 Alpha virt. eigenvalues --    2.66343   2.68865   2.72829   2.73813   2.83828
 Alpha virt. eigenvalues --    2.87238   2.88990   2.89583   2.91471   2.94150
 Alpha virt. eigenvalues --    3.00682   3.04752   3.18530   3.26925   3.32364
 Alpha virt. eigenvalues --    3.48789   3.63907   3.70267   3.71787   3.86844
 Alpha virt. eigenvalues --    3.93880   3.97666   3.99509   4.04448   4.16331
 Alpha virt. eigenvalues --    4.22517   4.25645   4.53669   4.70097   4.85346
          Condensed to atoms (all electrons):
               1          2          3          4          5          6
     1  O    8.019865   0.615801  -0.096431  -0.089124   0.004745  -0.000010
     2  C    0.615801   4.528060   0.209883   0.171838  -0.069745  -0.008393
     3  N   -0.096431   0.209883   7.149168  -0.091507  -0.015075  -0.108113
     4  C   -0.089124   0.171838  -0.091507   5.469018   0.442901  -0.009988
     5  C    0.004745  -0.069745  -0.015075   0.442901   4.866343   0.271943
     6  N   -0.000010  -0.008393  -0.108113  -0.009988   0.271943   6.880961
     7  H    0.000006  -0.000451   0.007215   0.004428  -0.028497   0.377179
     8  H   -0.000050   0.006703  -0.000828  -0.025273   0.363800  -0.041781
     9  N   -0.003616  -0.025848   0.002664   0.174852  -0.043889   0.002558
    10  O   -0.007259  -0.005612   0.000061  -0.082506   0.008531  -0.000017
    11  O   -0.000018   0.004567  -0.000034  -0.115577   0.002356   0.000902
    12  C    0.001363  -0.008517   0.238304  -0.014641  -0.028383   0.225189
    13  O   -0.000023   0.000841  -0.094153   0.000011   0.001889  -0.091678
    14  H    0.007369  -0.011282   0.345916   0.011082  -0.000792   0.005751
               7          8          9         10         11         12
     1  O    0.000006  -0.000050  -0.003616  -0.007259  -0.000018   0.001363
     2  C   -0.000451   0.006703  -0.025848  -0.005612   0.004567  -0.008517
     3  N    0.007215  -0.000828   0.002664   0.000061  -0.000034   0.238304
     4  C    0.004428  -0.025273   0.174852  -0.082506  -0.115577  -0.014641
     5  C   -0.028497   0.363800  -0.043889   0.008531   0.002356  -0.028383
     6  N    0.377179  -0.041781   0.002558  -0.000017   0.000902   0.225189
     7  H    0.395147  -0.008040  -0.000020   0.000002   0.000010  -0.015132
     8  H   -0.008040   0.535092  -0.014745   0.000350   0.027892   0.003697
     9  N   -0.000020  -0.014745   5.922849   0.307680   0.310275   0.000214
    10  O    0.000002   0.000350   0.307680   8.244515  -0.109960  -0.000009
    11  O    0.000010   0.027892   0.310275  -0.109960   8.297493  -0.000009
    12  C   -0.015132   0.003697   0.000214  -0.000009  -0.000009   4.234850
    13  O    0.006301  -0.000145   0.000000  -0.000000  -0.000000   0.649977
    14  H   -0.000142   0.000041  -0.000048   0.000015   0.000001  -0.018240
              13         14
     1  O   -0.000023   0.007369
     2  C    0.000841  -0.011282
     3  N   -0.094153   0.345916
     4  C    0.000011   0.011082
     5  C    0.001889  -0.000792
     6  N   -0.091678   0.005751
     7  H    0.006301  -0.000142
     8  H   -0.000145   0.000041
     9  N    0.000000  -0.000048
    10  O   -0.000000   0.000015
    11  O   -0.000000   0.000001
    12  C    0.649977  -0.018240
    13  O    7.998773   0.002418
    14  H    0.002418   0.390033
 Mulliken charges:
               1
     1  O   -0.452618
     2  C    0.592156
     3  N   -0.547069
     4  C    0.154487
     5  C    0.223872
     6  N   -0.504504
     7  H    0.261994
     8  H    0.153287
     9  N    0.367074
    10  O   -0.355790
    11  O   -0.417897
    12  C    0.731339
    13  O   -0.474210
    14  H    0.267878
 Sum of Mulliken charges =  -0.00000
 Mulliken charges with hydrogens summed into heavy atoms:
               1
     1  O   -0.452618
     2  C    0.592156
     3  N   -0.279190
     4  C    0.154487
     5  C    0.377160
     6  N   -0.242510
     9  N    0.367074
    10  O   -0.355790
    11  O   -0.417897
    12  C    0.731339
    13  O   -0.474210
 Electronic spatial extent (au):  <R**2>=           1613.3001
 Charge=             -0.0000 electrons
 Dipole moment (field-independent basis, Debye):
    X=              3.4938    Y=             -3.6810    Z=             -0.1298  Tot=              5.0767
 Quadrupole moment (field-independent basis, Debye-Ang):
   XX=            -80.5137   YY=            -58.0587   ZZ=            -57.7683
   XY=             -0.0538   XZ=             -0.0871   YZ=             -0.2193
 Traceless Quadrupole moment (field-independent basis, Debye-Ang):
   XX=            -15.0668   YY=              7.3882   ZZ=              7.6786
   XY=             -0.0538   XZ=             -0.0871   YZ=             -0.2193
 Octapole moment (field-independent basis, Debye-Ang**2):
  XXX=            -19.8881  YYY=            -25.2471  ZZZ=              0.4918  XYY=             27.7696
  XXY=              6.2689  XXZ=             -2.3744  XZZ=             -3.5697  YZZ=              1.1565
  YYZ=              0.7908  XYZ=              0.3761
 Hexadecapole moment (field-independent basis, Debye-Ang**3):
 XXXX=          -1620.8267 YYYY=           -492.1037 ZZZZ=            -48.3801 XXXY=             -6.7292
 XXXZ=             -2.5855 YYYX=             -8.4825 YYYZ=              0.4914 ZZZX=             -0.0972
 ZZZY=             -0.0759 XXYY=           -294.9540 XXZZ=           -219.7527 YYZZ=            -91.8137
 XXYZ=             -2.2555 YYXZ=             -0.2051 ZZXY=              0.0105
 N-N= 6.162156663712D+02 E-N=-2.681717915493D+03  KE= 6.150275253749D+02
 No NMR shielding tensors so no spin-rotation constants.
 Leave Link  601 at Fri Aug 20 15:43:22 2021, MaxMem= 24159191040 cpu:        10.6
 (Enter /public/home/users/caep010/software/Gaussian09/g09/l701.exe)
 Compute integral first derivatives.
 ... and contract with generalized density number  0.
 Leave Link  701 at Fri Aug 20 15:43:23 2021, MaxMem= 24159191040 cpu:        10.9
 (Enter /public/home/users/caep010/software/Gaussian09/g09/l702.exe)
 L702 exits ... SP integral derivatives will be done elsewhere.
 Leave Link  702 at Fri Aug 20 15:43:23 2021, MaxMem= 24159191040 cpu:         0.5
 (Enter /public/home/users/caep010/software/Gaussian09/g09/l703.exe)
 Compute integral first derivatives, UseDBF=F ICtDFT=           0.
 Integral derivatives from FoFJK, PRISM(SPDF).
 Calling FoFJK, ICntrl=      2127 FMM=F ISym2X=0 I1Cent= 0 IOpClX= 0 NMat=1 NMatS=1 NMatT=0.
 FoFJK:  IHMeth= 1 ICntrl=    2127 DoSepK=F KAlg= 0 I1Cent=   0 FoldK=F
 IRaf=         0 NMat=   1 IRICut=       1 DoRegI=T DoRafI=F ISym2E= 0.
 FoFCou: FMM=F IPFlag=           0 FMFlag=      100000 FMFlg1=         800
         NFxFlg=           0 DoJE=F BraDBF=F KetDBF=F FulRan=T
         wScrn=  0.000000 ICntrl=    2127 IOpCl=  0 I1Cent=           0 NGrid=           0
         NMat0=    1 NMatS0=      1 NMatT0=    0 NMatD0=    1 NMtDS0=    0 NMtDT0=    0
 Symmetry not used in FoFCou.
 Leave Link  703 at Fri Aug 20 15:43:24 2021, MaxMem= 24159191040 cpu:        22.2
 (Enter /public/home/users/caep010/software/Gaussian09/g09/l716.exe)
 Dipole        = 1.37456777D+00-1.44820301D+00-5.10481889D-02
 ***** Axes restored to original set *****
 -------------------------------------------------------------------
 Center     Atomic                   Forces (Hartrees/Bohr)
 Number     Number              X              Y              Z
 -------------------------------------------------------------------
      1        8           0.001472890   -0.000312561    0.008631790
      2        6          -0.010219644    0.000436434   -0.029099867
      3        7           0.132559663    0.069153461    0.028379805
      4        6           0.006970382    0.004108621    0.001388950
      5        6          -0.115004237   -0.054443880   -0.044713454
      6        7          -0.071539521    0.009163411   -0.146234474
      7        1           0.073517467   -0.012759159    0.164492093
      8        1           0.133164773    0.069144994    0.033292456
      9        7           0.001151861   -0.000464789   -0.017106111
     10        8          -0.009744615   -0.003337877   -0.004574568
     11        8           0.016076352    0.008955301    0.016694101
     12        6          -0.022911195   -0.019734042    0.012096257
     13        8           0.003476175    0.003006370    0.001602317
     14        1          -0.138970351   -0.072916282   -0.024849295
 -------------------------------------------------------------------
 Cartesian Forces:  Max     0.164492093 RMS     0.060286723
 Leave Link  716 at Fri Aug 20 15:43:24 2021, MaxMem= 24159191040 cpu:         0.8
 (Enter /public/home/users/caep010/software/Gaussian09/g09/l103.exe)

 GradGradGradGradGradGradGradGradGradGradGradGradGradGradGradGradGradGrad
 Berny optimization.
 FormGI is forming the generalized inverse of G from B-inverse, IUseBI=4.
 Internal  Forces:  Max     0.180616665 RMS     0.036743628
 Search for a local minimum.
 Step number   1 out of a maximum of   73
 All quantities printed in internal units (Hartrees-Bohrs-Radians)
 RMS Force = .36744D-01 SwitMx=.10000D-02 MixMth= 1
 Mixed Optimization -- RFO/linear search
 Second derivative matrix not updated -- first step.
 ITU=  0
     Eigenvalues ---    0.01170   0.01181   0.01623   0.01786   0.01840
     Eigenvalues ---    0.01970   0.02055   0.02093   0.02309   0.02471
     Eigenvalues ---    0.02643   0.15973   0.15995   0.15995   0.22343
     Eigenvalues ---    0.23445   0.24553   0.24994   0.24998   0.25000
     Eigenvalues ---    0.25000   0.25000   0.37563   0.39663   0.44968
     Eigenvalues ---    0.47787   0.49782   0.53347   0.56988   0.59924
     Eigenvalues ---    0.72907   0.76858   0.93788   0.94588   0.95058
     Eigenvalues ---    0.96491
 RFO step:  Lambda=-1.07325248D-01 EMin= 1.17014050D-02
 Linear search not attempted -- first point.
 Maximum step size (   0.300) exceeded in Quadratic search.
    -- Step size scaled by   0.806
 Iteration  1 RMS(Cart)=  0.04339819 RMS(Int)=  0.00043495
 Iteration  2 RMS(Cart)=  0.00049301 RMS(Int)=  0.00002226
 Iteration  3 RMS(Cart)=  0.00000029 RMS(Int)=  0.00002226
 ITry= 1 IFail=0 DXMaxC= 1.67D-01 DCOld= 1.00D+10 DXMaxT= 3.00D-01 DXLimC= 3.00D+00 Rises=F
 Variable       Old X    -DE/DX   Delta X   Delta X   Delta X     New X
                                 (Linear)    (Quad)   (Total)
    R1        2.30686  -0.00828   0.00000  -0.00631  -0.00631   2.30054
    R2        2.62376   0.02163   0.00000   0.02937   0.02938   2.65313
    R3        2.73417   0.02019   0.00000   0.03235   0.03235   2.76652
    R4        2.58656   0.01218   0.00000   0.01580   0.01581   2.60237
    R5        1.68683   0.15883   0.00000   0.15306   0.15306   1.83989
    R6        2.55680   0.00749   0.00000   0.00930   0.00929   2.56609
    R7        2.72014   0.00994   0.00000   0.01589   0.01589   2.73603
    R8        2.52181   0.02754   0.00000   0.03253   0.03253   2.55434
    R9        1.77701   0.15356   0.00000   0.17517   0.17517   1.95218
   R10        1.66356   0.18062   0.00000   0.16620   0.16620   1.82976
   R11        2.60138   0.01998   0.00000   0.02716   0.02716   2.62854
   R12        2.30888   0.00738   0.00000   0.00565   0.00565   2.31453
   R13        2.31235   0.02242   0.00000   0.01729   0.01729   2.32963
   R14        2.30078  -0.00192   0.00000  -0.00145  -0.00145   2.29933
    A1        2.09309  -0.00288   0.00000  -0.00546  -0.00547   2.08761
    A2        2.22649   0.00317   0.00000   0.00818   0.00817   2.23466
    A3        1.96360  -0.00028   0.00000  -0.00269  -0.00269   1.96091
    A4        2.23326   0.00425   0.00000   0.00929   0.00930   2.24256
    A5        1.99530   0.00161   0.00000   0.00662   0.00661   2.00191
    A6        2.05426  -0.00585   0.00000  -0.01586  -0.01587   2.03839
    A7        2.10440  -0.00028   0.00000  -0.00164  -0.00164   2.10276
    A8        2.12653   0.00650   0.00000   0.01518   0.01518   2.14171
    A9        2.05204  -0.00621   0.00000  -0.01349  -0.01349   2.03856
   A10        2.12329  -0.00041   0.00000  -0.00025  -0.00026   2.12303
   A11        2.14300  -0.00492   0.00000  -0.01531  -0.01531   2.12769
   A12        2.01654   0.00534   0.00000   0.01565   0.01566   2.03220
   A13        2.10515  -0.00001   0.00000  -0.00023  -0.00023   2.10492
   A14        2.14828   0.00211   0.00000   0.00683   0.00683   2.15511
   A15        2.02813  -0.00207   0.00000  -0.00643  -0.00643   2.02169
   A16        2.08465  -0.00467   0.00000  -0.01034  -0.01042   2.07424
   A17        2.05606  -0.00975   0.00000  -0.02180  -0.02188   2.03418
   A18        2.14171   0.01454   0.00000   0.03299   0.03292   2.17462
   A19        1.99270  -0.00539   0.00000  -0.01152  -0.01152   1.98118
   A20        2.14888   0.00766   0.00000   0.01697   0.01697   2.16585
   A21        2.14156  -0.00226   0.00000  -0.00541  -0.00542   2.13615
    D1        3.11897   0.00064   0.00000   0.00449   0.00448   3.12344
    D2        0.00729   0.00048   0.00000   0.00320   0.00317   0.01046
    D3       -0.01737  -0.00026   0.00000  -0.00141  -0.00141  -0.01878
    D4       -3.12905  -0.00042   0.00000  -0.00270  -0.00272  -3.13176
    D5        3.13233  -0.00074   0.00000  -0.00470  -0.00473   3.12760
    D6       -0.03189  -0.00032   0.00000  -0.00175  -0.00175  -0.03365
    D7       -0.01501   0.00022   0.00000   0.00170   0.00171  -0.01330
    D8        3.10395   0.00064   0.00000   0.00465   0.00469   3.10864
    D9        0.04261  -0.00000   0.00000   0.00018   0.00018   0.04279
   D10       -3.08916  -0.00070   0.00000  -0.00443  -0.00446  -3.09361
   D11       -3.12977   0.00028   0.00000   0.00186   0.00185  -3.12792
   D12        0.02164  -0.00042   0.00000  -0.00275  -0.00278   0.01886
   D13        0.01901  -0.00025   0.00000  -0.00144  -0.00145   0.01756
   D14       -3.09265  -0.00096   0.00000  -0.00565  -0.00563  -3.09828
   D15       -3.10090  -0.00081   0.00000  -0.00462  -0.00462  -3.10551
   D16        0.07063  -0.00152   0.00000  -0.00883  -0.00879   0.06184
   D17       -0.10278   0.00134   0.00000   0.00919   0.00918  -0.09360
   D18        3.07978  -0.00214   0.00000  -0.01435  -0.01435   3.06543
   D19        3.01683   0.00182   0.00000   0.01218   0.01219   3.02902
   D20       -0.08380  -0.00166   0.00000  -0.01135  -0.01134  -0.09514
   D21        3.08725   0.00059   0.00000   0.00345   0.00344   3.09069
   D22        0.00920   0.00011   0.00000   0.00041   0.00041   0.00961
   D23       -0.08224   0.00109   0.00000   0.00689   0.00692  -0.07532
   D24        3.12290   0.00061   0.00000   0.00385   0.00388   3.12679
   D25       -0.03743   0.00009   0.00000   0.00037   0.00039  -0.03705
   D26        3.09438   0.00084   0.00000   0.00511   0.00508   3.09945
   D27       -3.11808  -0.00044   0.00000  -0.00273  -0.00270  -3.12078
   D28        0.01373   0.00031   0.00000   0.00201   0.00199   0.01573
         Item               Value     Threshold  Converged?
 Maximum Force            0.180617     0.000450     NO 
 RMS     Force            0.036744     0.000300     NO 
 Maximum Displacement     0.166895     0.001800     NO 
 RMS     Displacement     0.043422     0.001200     NO 
 Predicted change in Energy=-5.652206D-02
 Lowest energy point so far.  Saving SCF results.
 GradGradGradGradGradGradGradGradGradGradGradGradGradGradGradGradGradGrad

 Leave Link  103 at Fri Aug 20 15:43:24 2021, MaxMem= 24159191040 cpu:         2.8
 (Enter /public/home/users/caep010/software/Gaussian09/g09/l202.exe)
                          Input orientation:                          
 ---------------------------------------------------------------------
 Center     Atomic      Atomic             Coordinates (Angstroms)
 Number     Number       Type             X           Y           Z
 ---------------------------------------------------------------------
      1          8           0        4.042912    0.918910   -1.379030
      2          6           0        4.634905    0.941378   -0.315502
      3          7           0        4.074790    0.305320    0.803807
      4          6           0        5.920941    1.571699   -0.012109
      5          6           0        6.436550    1.515395    1.242847
      6          7           0        5.799646    0.865901    2.242648
      7          1           0        6.200845    0.799266    3.121362
      8          1           0        7.323217    1.984148    1.490399
      9          7           0        6.712638    2.255452   -1.013084
     10          8           0        6.342840    2.226033   -2.180348
     11          8           0        7.736328    2.816698   -0.617067
     12          6           0        4.589270    0.200843    2.076927
     13          8           0        4.054249   -0.413884    2.980450
     14          1           0        3.221570   -0.133358    0.637901
 ---------------------------------------------------------------------
                    Distance matrix (angstroms):
                    1          2          3          4          5
     1  O    0.000000
     2  C    1.217396   0.000000
     3  N    2.267661   1.403977   0.000000
     4  C    2.412799   1.463981   2.382794   0.000000
     5  C    3.599935   2.450279   2.689785   1.357916   0.000000
     6  N    4.025603   2.811841   2.315091   2.365754   1.351700
     7  H    4.992446   3.779470   3.183575   3.239388   2.024158
     8  H    4.486508   3.402304   3.720504   2.096192   1.033049
     9  N    3.007939   2.555462   3.749979   1.447844   2.390216
    10  O    2.764118   2.836376   4.211694   2.303783   3.497435
    11  O    4.221790   3.636838   4.661841   2.282899   2.615740
    12  C    3.571802   2.504834   1.377113   2.831371   2.415819
    13  O    4.558677   3.610706   2.292478   4.047529   3.523740
    14  H    2.418653   2.015329   0.973626   3.258272   3.663392
                    6          7          8          9         10
     6  N    0.000000
     7  H    0.968265   0.000000
     8  H    2.034115   2.307315   0.000000
     9  N    3.655707   4.413168   2.591108   0.000000
    10  O    4.659176   5.492172   3.807104   1.224795   0.000000
    11  O    3.966651   4.517034   2.303306   1.232789   2.175901
    12  C    1.390962   2.011499   3.316423   4.275310   5.029990
    13  O    2.286616   2.469709   4.319371   5.490055   6.232227
    14  H    3.196906   3.989165   4.694049   4.540894   4.821989
                   11         12         13         14
    11  O    0.000000
    12  C    4.899417   0.000000
    13  O    6.077541   1.216754   0.000000
    14  H    5.537221   2.013228   2.501916   0.000000
 Stoichiometry    C4H3N3O4
 Framework group  C1[X(C4H3N3O4)]
 Deg. of freedom    36
 Full point group                 C1      NOp   1
 RotChk:  IX=0 Diff= 8.77D-03
 Largest Abelian subgroup         C1      NOp   1
 Largest concise Abelian subgroup C1      NOp   1
                         Standard orientation:                         
 ---------------------------------------------------------------------
 Center     Atomic      Atomic             Coordinates (Angstroms)
 Number     Number       Type             X           Y           Z
 ---------------------------------------------------------------------
      1          8           0       -0.461174    2.227972   -0.057791
      2          6           0        0.038840    1.118171   -0.038318
      3          7           0        1.436660    0.987116   -0.029734
      4          6           0       -0.641960   -0.177784   -0.022370
      5          6           0        0.073738   -1.331771   -0.017453
      6          7           0        1.425390   -1.327833   -0.006775
      7          1           0        1.920396   -2.158742    0.039008
      8          1           0       -0.383286   -2.257840   -0.044239
      9          7           0       -2.083888   -0.303730    0.012781
     10          8           0       -2.762791    0.708904    0.130191
     11          8           0       -2.539104   -1.447039   -0.060641
     12          6           0        2.189186   -0.165478    0.011151
     13          8           0        3.404645   -0.184950    0.063801
     14          1           0        1.924331    1.829803   -0.031195
 ---------------------------------------------------------------------
 Rotational constants (GHZ):      2.3865804      0.8384707      0.6212376
 Leave Link  202 at Fri Aug 20 15:43:24 2021, MaxMem= 24159191040 cpu:         0.3
 (Enter /public/home/users/caep010/software/Gaussian09/g09/l301.exe)
 Standard basis: 6-31G(d,p) (6D, 7F)
 Ernie: Thresh=  0.10000D-02 Tol=  0.10000D-05 Strict=F.
 There are   180 symmetry adapted cartesian basis functions of A   symmetry.
 There are   180 symmetry adapted basis functions of A   symmetry.
   180 basis functions,   329 primitive gaussians,   180 cartesian basis functions
    40 alpha electrons       40 beta electrons
       nuclear repulsion energy       610.6159435237 Hartrees.
 IExCor=  402 DFT=T Ex+Corr=B3LYP ExCW=0 ScaHFX=  0.200000
 ScaDFX=  0.800000  0.720000  1.000000  0.810000 ScalE2=  1.000000  1.000000
 IRadAn=      0 IRanWt=     -1 IRanGd=            0 ICorTp=0 IEmpDi=  4
 NAtoms=   14 NActive=   14 NUniq=   14 SFac= 1.00D+00 NAtFMM=   60 NAOKFM=F Big=F
 Integral buffers will be    131072 words long.
 Raffenetti 2 integral format.
 Two-electron integral symmetry is turned on.
 Leave Link  301 at Fri Aug 20 15:43:24 2021, MaxMem= 24159191040 cpu:         1.8
 (Enter /public/home/users/caep010/software/Gaussian09/g09/l302.exe)
 NPDir=0 NMtPBC=     1 NCelOv=     1 NCel=       1 NClECP=     1 NCelD=      1
         NCelK=      1 NCelE2=     1 NClLst=     1 CellRange=     0.0.
 One-electron integrals computed using PRISM.
 NBasis=   180 RedAO= T EigKep=  9.23D-04  NBF=   180
 NBsUse=   180 1.00D-06 EigRej= -1.00D+00 NBFU=   180
 Precomputing XC quadrature grid using
 IXCGrd= 4 IRadAn=           0 IRanWt=          -1 IRanGd=           0 AccXCQ= 0.00D+00.
 Generated NRdTot=       0 NPtTot=           0 NUsed=           0 NTot=          32
 NSgBfM=   179   179   179   179   179 MxSgAt=    14 MxSgA2=    14.
 Leave Link  302 at Fri Aug 20 15:43:24 2021, MaxMem= 24159191040 cpu:        11.6
 (Enter /public/home/users/caep010/software/Gaussian09/g09/l303.exe)
 DipDrv:  MaxL=1.
 Leave Link  303 at Fri Aug 20 15:43:24 2021, MaxMem= 24159191040 cpu:         0.7
 (Enter /public/home/users/caep010/software/Gaussian09/g09/l401.exe)
 Initial guess from the checkpoint file:  "/public/home/users/caep010/.cache/gau_scr/Gau-195698.chk"
 B after Tr=    -0.000000   -0.000000   -0.000000
         Rot=    0.999998   -0.000182    0.000072    0.002078 Ang=  -0.24 deg.
 Guess basis will be translated and rotated to current coordinates.
 JPrj=2 DoOrth=T DoCkMO=T.
 Generating alternative initial guess.
 ExpMin= 1.61D-01 ExpMax= 5.48D+03 ExpMxC= 8.25D+02 IAcc=1 IRadAn=         1 AccDes= 0.00D+00
 Harris functional with IExCor=  402 and IRadAn=       1 diagonalized for initial guess.
 HarFok:  IExCor=  402 AccDes= 0.00D+00 IRadAn=         1 IDoV= 1 UseB2=F ITyADJ=14
 ICtDFT=  3500011 ScaDFX=  1.000000  1.000000  1.000000  1.000000
 FoFCou: FMM=F IPFlag=           0 FMFlag=      100000 FMFlg1=           0
         NFxFlg=           0 DoJE=T BraDBF=F KetDBF=T FulRan=T
         wScrn=  0.000000 ICntrl=     500 IOpCl=  0 I1Cent=   200000004 NGrid=           0
         NMat0=    1 NMatS0=      1 NMatT0=    0 NMatD0=    1 NMtDS0=    0 NMtDT0=    0
 Petite list used in FoFCou.
 Harris En= -619.333057791322    
 Leave Link  401 at Fri Aug 20 15:43:25 2021, MaxMem= 24159191040 cpu:        12.6
 (Enter /public/home/users/caep010/software/Gaussian09/g09/l502.exe)
 Closed shell SCF:
 Using DIIS extrapolation, IDIIS=  1040.
 Integral symmetry usage will be decided dynamically.
 Keep R1 ints in memory in canonical form, NReq=135777826.
 IVT=      122851 IEndB=      122851 NGot= 24159191040 MDV= 24026377995
 LenX= 24026377995 LenY= 24026345154
 Requested convergence on RMS density matrix=1.00D-08 within 128 cycles.
 Requested convergence on MAX density matrix=1.00D-06.
 Requested convergence on             energy=1.00D-06.
 No special actions if energy rises.
 FoFCou: FMM=F IPFlag=           0 FMFlag=           0 FMFlg1=           0
         NFxFlg=           0 DoJE=F BraDBF=F KetDBF=F FulRan=T
         wScrn=  0.000000 ICntrl=     600 IOpCl=  0 I1Cent=           0 NGrid=           0
         NMat0=    1 NMatS0=  16290 NMatT0=    0 NMatD0=    1 NMtDS0=    0 NMtDT0=    0
 Symmetry not used in FoFCou.
 Integral accuracy reduced to 1.0D-05 until final iterations.

 Cycle   1  Pass 0  IDiag  1:
 E= -619.299465755104    
 DIIS: error= 4.08D-03 at cycle   1 NSaved=   1.
 NSaved= 1 IEnMin= 1 EnMin= -619.299465755104     IErMin= 1 ErrMin= 4.08D-03
 ErrMax= 4.08D-03  0.00D+00 EMaxC= 1.00D-01 BMatC= 5.80D-03 BMatP= 5.80D-03
 IDIUse=3 WtCom= 9.59D-01 WtEn= 4.08D-02
 Coeff-Com:  0.100D+01
 Coeff-En:   0.100D+01
 Coeff:      0.100D+01
 Gap=     1.671 Goal=   None    Shift=    0.000
 GapD=    1.671 DampG=2.000 DampE=1.000 DampFc=2.0000 IDamp=-1.
 RMSDP=8.25D-04 MaxDP=1.55D-02              OVMax= 2.29D-02

 Cycle   2  Pass 0  IDiag  1:
 E= -619.303908644595     Delta-E=       -0.004442889491 Rises=F Damp=F
 DIIS: error= 3.68D-03 at cycle   2 NSaved=   2.
 NSaved= 2 IEnMin= 2 EnMin= -619.303908644595     IErMin= 2 ErrMin= 3.68D-03
 ErrMax= 3.68D-03  0.00D+00 EMaxC= 1.00D-01 BMatC= 2.49D-03 BMatP= 5.80D-03
 IDIUse=3 WtCom= 9.63D-01 WtEn= 3.68D-02
 Coeff-Com:  0.352D+00 0.648D+00
 Coeff-En:   0.000D+00 0.100D+01
 Coeff:      0.339D+00 0.661D+00
 Gap=     0.171 Goal=   None    Shift=    0.000
 RMSDP=5.41D-04 MaxDP=1.67D-02 DE=-4.44D-03 OVMax= 3.62D-02

 Cycle   3  Pass 0  IDiag  1:
 E= -619.303476435685     Delta-E=        0.000432208910 Rises=F Damp=F
 DIIS: error= 4.22D-03 at cycle   3 NSaved=   3.
 NSaved= 3 IEnMin= 2 EnMin= -619.303908644595     IErMin= 2 ErrMin= 3.68D-03
 ErrMax= 4.22D-03  0.00D+00 EMaxC= 1.00D-01 BMatC= 3.17D-03 BMatP= 2.49D-03
 IDIUse=3 WtCom= 1.33D-01 WtEn= 8.67D-01
 Coeff-Com:  0.533D-01 0.516D+00 0.430D+00
 Coeff-En:   0.000D+00 0.533D+00 0.467D+00
 Coeff:      0.711D-02 0.531D+00 0.462D+00
 Gap=     0.179 Goal=   None    Shift=    0.000
 RMSDP=3.35D-04 MaxDP=1.08D-02 DE= 4.32D-04 OVMax= 1.81D-02

 Cycle   4  Pass 0  IDiag  1:
 E= -619.306006399668     Delta-E=       -0.002529963983 Rises=F Damp=F
 DIIS: error= 7.28D-04 at cycle   4 NSaved=   4.
 NSaved= 4 IEnMin= 4 EnMin= -619.306006399668     IErMin= 4 ErrMin= 7.28D-04
 ErrMax= 7.28D-04  0.00D+00 EMaxC= 1.00D-01 BMatC= 1.92D-04 BMatP= 2.49D-03
 IDIUse=3 WtCom= 9.93D-01 WtEn= 7.28D-03
 Coeff-Com:  0.884D-02 0.296D+00 0.277D+00 0.418D+00
 Coeff-En:   0.000D+00 0.000D+00 0.000D+00 0.100D+01
 Coeff:      0.877D-02 0.294D+00 0.275D+00 0.422D+00
 Gap=     0.177 Goal=   None    Shift=    0.000
 RMSDP=8.53D-05 MaxDP=2.99D-03 DE=-2.53D-03 OVMax= 5.34D-03

 Cycle   5  Pass 0  IDiag  1:
 E= -619.306128142980     Delta-E=       -0.000121743312 Rises=F Damp=F
 DIIS: error= 5.17D-04 at cycle   5 NSaved=   5.
 NSaved= 5 IEnMin= 5 EnMin= -619.306128142980     IErMin= 5 ErrMin= 5.17D-04
 ErrMax= 5.17D-04  0.00D+00 EMaxC= 1.00D-01 BMatC= 3.16D-05 BMatP= 1.92D-04
 IDIUse=3 WtCom= 9.95D-01 WtEn= 5.17D-03
 Coeff-Com: -0.175D-02 0.128D+00 0.126D+00 0.297D+00 0.450D+00
 Coeff-En:   0.000D+00 0.000D+00 0.000D+00 0.158D+00 0.842D+00
 Coeff:     -0.174D-02 0.128D+00 0.126D+00 0.296D+00 0.452D+00
 Gap=     0.177 Goal=   None    Shift=    0.000
 RMSDP=3.51D-05 MaxDP=1.71D-03 DE=-1.22D-04 OVMax= 3.33D-03

 Cycle   6  Pass 0  IDiag  1:
 E= -619.306146729781     Delta-E=       -0.000018586801 Rises=F Damp=F
 DIIS: error= 2.90D-04 at cycle   6 NSaved=   6.
 NSaved= 6 IEnMin= 6 EnMin= -619.306146729781     IErMin= 6 ErrMin= 2.90D-04
 ErrMax= 2.90D-04  0.00D+00 EMaxC= 1.00D-01 BMatC= 8.43D-06 BMatP= 3.16D-05
 IDIUse=3 WtCom= 9.97D-01 WtEn= 2.90D-03
 Coeff-Com: -0.285D-02 0.422D-01 0.444D-01 0.149D+00 0.358D+00 0.409D+00
 Coeff-En:   0.000D+00 0.000D+00 0.000D+00 0.000D+00 0.249D+00 0.751D+00
 Coeff:     -0.284D-02 0.421D-01 0.442D-01 0.149D+00 0.357D+00 0.410D+00
 Gap=     0.177 Goal=   None    Shift=    0.000
 RMSDP=1.43D-05 MaxDP=6.91D-04 DE=-1.86D-05 OVMax= 1.23D-03

 Cycle   7  Pass 0  IDiag  1:
 E= -619.306153099776     Delta-E=       -0.000006369994 Rises=F Damp=F
 DIIS: error= 3.48D-05 at cycle   7 NSaved=   7.
 NSaved= 7 IEnMin= 7 EnMin= -619.306153099776     IErMin= 7 ErrMin= 3.48D-05
 ErrMax= 3.48D-05  0.00D+00 EMaxC= 1.00D-01 BMatC= 3.28D-07 BMatP= 8.43D-06
 IDIUse=1 WtCom= 1.00D+00 WtEn= 0.00D+00
 Coeff-Com: -0.150D-02 0.133D-01 0.152D-01 0.594D-01 0.166D+00 0.240D+00
 Coeff-Com:  0.507D+00
 Coeff:     -0.150D-02 0.133D-01 0.152D-01 0.594D-01 0.166D+00 0.240D+00
 Coeff:      0.507D+00
 Gap=     0.177 Goal=   None    Shift=    0.000
 RMSDP=3.82D-06 MaxDP=1.46D-04 DE=-6.37D-06 OVMax= 2.69D-04

 Initial convergence to 1.0D-05 achieved.  Increase integral accuracy.
 Cycle   8  Pass 1  IDiag  1:
 E= -619.306084563252     Delta-E=        0.000068536524 Rises=F Damp=F
 DIIS: error= 3.03D-05 at cycle   1 NSaved=   1.
 NSaved= 1 IEnMin= 1 EnMin= -619.306084563252     IErMin= 1 ErrMin= 3.03D-05
 ErrMax= 3.03D-05  0.00D+00 EMaxC= 1.00D-01 BMatC= 1.41D-07 BMatP= 1.41D-07
 IDIUse=1 WtCom= 1.00D+00 WtEn= 0.00D+00
 Coeff-Com:  0.100D+01
 Coeff:      0.100D+01
 Gap=     0.177 Goal=   None    Shift=    0.000
 RMSDP=3.82D-06 MaxDP=1.46D-04 DE= 6.85D-05 OVMax= 2.22D-04

 Cycle   9  Pass 1  IDiag  1:
 E= -619.306084571512     Delta-E=       -0.000000008261 Rises=F Damp=F
 DIIS: error= 2.22D-05 at cycle   2 NSaved=   2.
 NSaved= 2 IEnMin= 2 EnMin= -619.306084571512     IErMin= 2 ErrMin= 2.22D-05
 ErrMax= 2.22D-05  0.00D+00 EMaxC= 1.00D-01 BMatC= 1.42D-07 BMatP= 1.41D-07
 IDIUse=1 WtCom= 1.00D+00 WtEn= 0.00D+00
 Coeff-Com:  0.501D+00 0.499D+00
 Coeff:      0.501D+00 0.499D+00
 Gap=     0.177 Goal=   None    Shift=    0.000
 RMSDP=2.99D-06 MaxDP=9.95D-05 DE=-8.26D-09 OVMax= 2.24D-04

 Cycle  10  Pass 1  IDiag  1:
 E= -619.306084661232     Delta-E=       -0.000000089719 Rises=F Damp=F
 DIIS: error= 1.50D-05 at cycle   3 NSaved=   3.
 NSaved= 3 IEnMin= 3 EnMin= -619.306084661232     IErMin= 3 ErrMin= 1.50D-05
 ErrMax= 1.50D-05  0.00D+00 EMaxC= 1.00D-01 BMatC= 4.90D-08 BMatP= 1.41D-07
 IDIUse=1 WtCom= 1.00D+00 WtEn= 0.00D+00
 Coeff-Com:  0.530D-01 0.361D+00 0.586D+00
 Coeff:      0.530D-01 0.361D+00 0.586D+00
 Gap=     0.177 Goal=   None    Shift=    0.000
 RMSDP=1.36D-06 MaxDP=5.44D-05 DE=-8.97D-08 OVMax= 1.10D-04

 Cycle  11  Pass 1  IDiag  1:
 E= -619.306084691645     Delta-E=       -0.000000030414 Rises=F Damp=F
 DIIS: error= 1.27D-05 at cycle   4 NSaved=   4.
 NSaved= 4 IEnMin= 4 EnMin= -619.306084691645     IErMin= 4 ErrMin= 1.27D-05
 ErrMax= 1.27D-05  0.00D+00 EMaxC= 1.00D-01 BMatC= 1.62D-08 BMatP= 4.90D-08
 IDIUse=1 WtCom= 1.00D+00 WtEn= 0.00D+00
 Coeff-Com: -0.460D-02 0.234D+00 0.449D+00 0.322D+00
 Coeff:     -0.460D-02 0.234D+00 0.449D+00 0.322D+00
 Gap=     0.177 Goal=   None    Shift=    0.000
 RMSDP=6.27D-07 MaxDP=3.00D-05 DE=-3.04D-08 OVMax= 5.98D-05

 Cycle  12  Pass 1  IDiag  1:
 E= -619.306084704034     Delta-E=       -0.000000012389 Rises=F Damp=F
 DIIS: error= 1.77D-06 at cycle   5 NSaved=   5.
 NSaved= 5 IEnMin= 5 EnMin= -619.306084704034     IErMin= 5 ErrMin= 1.77D-06
 ErrMax= 1.77D-06  0.00D+00 EMaxC= 1.00D-01 BMatC= 6.21D-10 BMatP= 1.62D-08
 IDIUse=1 WtCom= 1.00D+00 WtEn= 0.00D+00
 Coeff-Com: -0.816D-02 0.117D+00 0.232D+00 0.207D+00 0.452D+00
 Coeff:     -0.816D-02 0.117D+00 0.232D+00 0.207D+00 0.452D+00
 Gap=     0.177 Goal=   None    Shift=    0.000
 RMSDP=1.36D-07 MaxDP=5.07D-06 DE=-1.24D-08 OVMax= 8.03D-06

 Cycle  13  Pass 1  IDiag  1:
 E= -619.306084704459     Delta-E=       -0.000000000425 Rises=F Damp=F
 DIIS: error= 4.15D-07 at cycle   6 NSaved=   6.
 NSaved= 6 IEnMin= 6 EnMin= -619.306084704459     IErMin= 6 ErrMin= 4.15D-07
 ErrMax= 4.15D-07  0.00D+00 EMaxC= 1.00D-01 BMatC= 4.80D-11 BMatP= 6.21D-10
 IDIUse=1 WtCom= 1.00D+00 WtEn= 0.00D+00
 Coeff-Com: -0.374D-02 0.417D-01 0.824D-01 0.833D-01 0.270D+00 0.527D+00
 Coeff:     -0.374D-02 0.417D-01 0.824D-01 0.833D-01 0.270D+00 0.527D+00
 Gap=     0.177 Goal=   None    Shift=    0.000
 RMSDP=4.39D-08 MaxDP=1.45D-06 DE=-4.25D-10 OVMax= 1.96D-06

 Cycle  14  Pass 1  IDiag  1:
 E= -619.306084704512     Delta-E=       -0.000000000053 Rises=F Damp=F
 DIIS: error= 1.58D-07 at cycle   7 NSaved=   7.
 NSaved= 7 IEnMin= 7 EnMin= -619.306084704512     IErMin= 7 ErrMin= 1.58D-07
 ErrMax= 1.58D-07  0.00D+00 EMaxC= 1.00D-01 BMatC= 5.83D-12 BMatP= 4.80D-11
 IDIUse=1 WtCom= 1.00D+00 WtEn= 0.00D+00
 Coeff-Com: -0.164D-02 0.156D-01 0.301D-01 0.330D-01 0.127D+00 0.320D+00
 Coeff-Com:  0.476D+00
 Coeff:     -0.164D-02 0.156D-01 0.301D-01 0.330D-01 0.127D+00 0.320D+00
 Coeff:      0.476D+00
 Gap=     0.177 Goal=   None    Shift=    0.000
 RMSDP=1.56D-08 MaxDP=5.06D-07 DE=-5.28D-11 OVMax= 1.03D-06

 Cycle  15  Pass 1  IDiag  1:
 E= -619.306084704515     Delta-E=       -0.000000000003 Rises=F Damp=F
 DIIS: error= 6.30D-08 at cycle   8 NSaved=   8.
 NSaved= 8 IEnMin= 8 EnMin= -619.306084704515     IErMin= 8 ErrMin= 6.30D-08
 ErrMax= 6.30D-08  0.00D+00 EMaxC= 1.00D-01 BMatC= 5.51D-13 BMatP= 5.83D-12
 IDIUse=1 WtCom= 1.00D+00 WtEn= 0.00D+00
 Coeff-Com: -0.125D-03 0.132D-03-0.458D-03 0.934D-03 0.139D-01 0.609D-01
 Coeff-Com:  0.250D+00 0.675D+00
 Coeff:     -0.125D-03 0.132D-03-0.458D-03 0.934D-03 0.139D-01 0.609D-01
 Coeff:      0.250D+00 0.675D+00
 Gap=     0.177 Goal=   None    Shift=    0.000
 RMSDP=6.53D-09 MaxDP=1.99D-07 DE=-2.96D-12 OVMax= 3.33D-07

 SCF Done:  E(RB3LYP) =  -619.306084705     A.U. after   15 cycles
            NFock= 15  Conv=0.65D-08     -V/T= 2.0082
 KE= 6.142452738143D+02 PE=-2.670275680855D+03 EE= 8.261083788130D+02
 Leave Link  502 at Fri Aug 20 15:43:30 2021, MaxMem= 24159191040 cpu:        66.6
 (Enter /public/home/users/caep010/software/Gaussian09/g09/l701.exe)
 Compute integral first derivatives.
 ... and contract with generalized density number  0.
 Leave Link  701 at Fri Aug 20 15:43:31 2021, MaxMem= 24159191040 cpu:        12.5
 (Enter /public/home/users/caep010/software/Gaussian09/g09/l702.exe)
 L702 exits ... SP integral derivatives will be done elsewhere.
 Leave Link  702 at Fri Aug 20 15:43:31 2021, MaxMem= 24159191040 cpu:         0.5
 (Enter /public/home/users/caep010/software/Gaussian09/g09/l703.exe)
 Compute integral first derivatives, UseDBF=F ICtDFT=           0.
 Integral derivatives from FoFJK, PRISM(SPDF).
 Calling FoFJK, ICntrl=      2127 FMM=F ISym2X=0 I1Cent= 0 IOpClX= 0 NMat=1 NMatS=1 NMatT=0.
 FoFJK:  IHMeth= 1 ICntrl=    2127 DoSepK=F KAlg= 0 I1Cent=   0 FoldK=F
 IRaf=         0 NMat=   1 IRICut=       1 DoRegI=T DoRafI=F ISym2E= 0.
 FoFCou: FMM=F IPFlag=           0 FMFlag=      100000 FMFlg1=         800
         NFxFlg=           0 DoJE=F BraDBF=F KetDBF=F FulRan=T
         wScrn=  0.000000 ICntrl=    2127 IOpCl=  0 I1Cent=           0 NGrid=           0
         NMat0=    1 NMatS0=      1 NMatT0=    0 NMatD0=    1 NMtDS0=    0 NMtDT0=    0
 Symmetry not used in FoFCou.
 Leave Link  703 at Fri Aug 20 15:43:31 2021, MaxMem= 24159191040 cpu:        17.5
 (Enter /public/home/users/caep010/software/Gaussian09/g09/l716.exe)
 Dipole        = 1.35202689D+00-1.42051603D+00-2.79935085D-02
 ***** Axes restored to original set *****
 -------------------------------------------------------------------
 Center     Atomic                   Forces (Hartrees/Bohr)
 Number     Number              X              Y              Z
 -------------------------------------------------------------------
      1        8           0.002587297    0.000530456    0.005877628
      2        6          -0.006082764   -0.000094555   -0.016836519
      3        7           0.035952506    0.018657429    0.008212012
      4        6           0.002725164    0.000101149    0.003485983
      5        6          -0.032465975   -0.014732146   -0.007661123
      6        7          -0.013584816    0.004303352   -0.037180812
      7        1           0.016811036   -0.002939176    0.040357922
      8        1           0.035843226    0.017549607    0.006333703
      9        7          -0.001080041    0.000430884   -0.007455789
     10        8          -0.001563923   -0.000646872    0.001173816
     11        8           0.005980511    0.003890852    0.002716548
     12        6          -0.013089312   -0.011568688    0.007248607
     13        8           0.002746364    0.003130023   -0.001250544
     14        1          -0.034779273   -0.018612315   -0.005021434
 -------------------------------------------------------------------
 Cartesian Forces:  Max     0.040357922 RMS     0.015912796
 Leave Link  716 at Fri Aug 20 15:43:31 2021, MaxMem= 24159191040 cpu:         0.6
 (Enter /public/home/users/caep010/software/Gaussian09/g09/l103.exe)

 GradGradGradGradGradGradGradGradGradGradGradGradGradGradGradGradGradGrad
 Berny optimization.
 Using GEDIIS/GDIIS optimizer.
 FormGI is forming the generalized inverse of G from B-inverse, IUseBI=4.
 Internal  Forces:  Max     0.043793438 RMS     0.009450897
 Search for a local minimum.
 Step number   2 out of a maximum of   73
 All quantities printed in internal units (Hartrees-Bohrs-Radians)
 RMS Force = .94509D-02 SwitMx=.10000D-02 MixMth= 1
 Mixed Optimization -- RFO/linear search
 Update second derivatives using D2CorX and points    1    2
 DE= -5.17D-02 DEPred=-5.65D-02 R= 9.14D-01
 TightC=F SS=  1.41D+00  RLast= 3.02D-01 DXNew= 5.0454D-01 9.0461D-01
 Trust test= 9.14D-01 RLast= 3.02D-01 DXMaxT set to 5.05D-01
 ITU=  1  0
 Use linear search instead of GDIIS.
     Eigenvalues ---    0.01170   0.01174   0.01621   0.01780   0.01840
     Eigenvalues ---    0.01968   0.02056   0.02093   0.02308   0.02469
     Eigenvalues ---    0.02641   0.15970   0.15993   0.15997   0.22344
     Eigenvalues ---    0.23391   0.24552   0.24967   0.24997   0.25000
     Eigenvalues ---    0.25000   0.25251   0.37600   0.39601   0.44959
     Eigenvalues ---    0.47765   0.49727   0.53345   0.57047   0.61259
     Eigenvalues ---    0.73771   0.79422   0.93700   0.94661   0.95133
     Eigenvalues ---    0.96560
 RFO step:  Lambda=-2.56866466D-03 EMin= 1.17014727D-02
 Quartic linear search produced a step of  0.52251.
 Iteration  1 RMS(Cart)=  0.05645556 RMS(Int)=  0.00353524
 Iteration  2 RMS(Cart)=  0.00364018 RMS(Int)=  0.00152005
 Iteration  3 RMS(Cart)=  0.00001575 RMS(Int)=  0.00151999
 Iteration  4 RMS(Cart)=  0.00000004 RMS(Int)=  0.00151999
 ITry= 1 IFail=0 DXMaxC= 1.98D-01 DCOld= 1.00D+10 DXMaxT= 5.05D-01 DXLimC= 3.00D+00 Rises=F
 Variable       Old X    -DE/DX   Delta X   Delta X   Delta X     New X
                                 (Linear)    (Quad)   (Total)
    R1        2.30054  -0.00640  -0.00330  -0.00653  -0.00983   2.29072
    R2        2.65313   0.00868   0.01535   0.01199   0.02742   2.68055
    R3        2.76652   0.00661   0.01690   0.00932   0.02625   2.79278
    R4        2.60237   0.00358   0.00826   0.00228   0.01059   2.61296
    R5        1.83989   0.03972   0.07997  -0.00407   0.07591   1.91579
    R6        2.56609   0.00257   0.00486   0.00203   0.00684   2.57293
    R7        2.73603   0.00602   0.00830   0.01504   0.02334   2.75937
    R8        2.55434   0.00688   0.01700   0.00027   0.01719   2.57153
    R9        1.95218   0.04025   0.09153   0.00562   0.09715   2.04933
   R10        1.82976   0.04379   0.08684  -0.00839   0.07845   1.90821
   R11        2.62854   0.00859   0.01419   0.01220   0.02635   2.65488
   R12        2.31453  -0.00063   0.00295  -0.00432  -0.00136   2.31316
   R13        2.32963   0.00761   0.00903   0.00221   0.01125   2.34088
   R14        2.29933  -0.00372  -0.00076  -0.00500  -0.00576   2.29358
    A1        2.08761   0.00047  -0.00286   0.00615   0.00251   2.09013
    A2        2.23466   0.00113   0.00427   0.00452   0.00796   2.24262
    A3        1.96091  -0.00160  -0.00140  -0.01071  -0.01242   1.94849
    A4        2.24256   0.00333   0.00486   0.01811   0.02326   2.26581
    A5        2.00191   0.00007   0.00345   0.00414   0.00740   2.00932
    A6        2.03839  -0.00340  -0.00829  -0.02192  -0.03041   2.00798
    A7        2.10276   0.00011  -0.00086  -0.00037  -0.00118   2.10157
    A8        2.14171  -0.00126   0.00793  -0.01276  -0.00507   2.13664
    A9        2.03856   0.00115  -0.00705   0.01363   0.00633   2.04489
   A10        2.12303   0.00057  -0.00013   0.00346   0.00327   2.12630
   A11        2.12769  -0.00322  -0.00800  -0.02453  -0.03270   2.09498
   A12        2.03220   0.00266   0.00818   0.02169   0.02969   2.06189
   A13        2.10492   0.00047  -0.00012   0.00669   0.00642   2.11134
   A14        2.15511   0.00130   0.00357   0.00707   0.01059   2.16571
   A15        2.02169  -0.00175  -0.00336  -0.01241  -0.01594   2.00576
   A16        2.07424  -0.00279  -0.00544  -0.01137  -0.02359   2.05065
   A17        2.03418   0.00118  -0.01143   0.01727  -0.00095   2.03323
   A18        2.17462   0.00162   0.01720  -0.00268   0.00759   2.18222
   A19        1.98118  -0.00370  -0.00602  -0.01724  -0.02334   1.95784
   A20        2.16585   0.00424   0.00887   0.01845   0.02688   2.19273
   A21        2.13615  -0.00053  -0.00283  -0.00102  -0.00425   2.13190
    D1        3.12344   0.00047   0.00234   0.04606   0.04819  -3.11155
    D2        0.01046   0.00031   0.00166   0.03205   0.03339   0.04385
    D3       -0.01878  -0.00012  -0.00074  -0.01176  -0.01263  -0.03141
    D4       -3.13176  -0.00028  -0.00142  -0.02577  -0.02743   3.12399
    D5        3.12760  -0.00043  -0.00247  -0.04420  -0.04690   3.08070
    D6       -0.03365  -0.00007  -0.00092  -0.01232  -0.01344  -0.04709
    D7       -0.01330   0.00023   0.00089   0.01962   0.02057   0.00727
    D8        3.10864   0.00058   0.00245   0.05150   0.05403  -3.12052
    D9        0.04279  -0.00010   0.00009  -0.00047  -0.00033   0.04246
   D10       -3.09361  -0.00057  -0.00233  -0.04315  -0.04572  -3.13933
   D11       -3.12792   0.00012   0.00097   0.01416   0.01499  -3.11293
   D12        0.01886  -0.00035  -0.00145  -0.02852  -0.03040  -0.01154
   D13        0.01756  -0.00029  -0.00076  -0.01688  -0.01774  -0.00018
   D14       -3.09828  -0.00082  -0.00294  -0.04708  -0.04954   3.13537
   D15       -3.10551  -0.00060  -0.00241  -0.04665  -0.04936   3.12832
   D16        0.06184  -0.00114  -0.00460  -0.07686  -0.08116  -0.01932
   D17       -0.09360   0.00029   0.00480   0.07093   0.07504  -0.01856
   D18        3.06543  -0.00076  -0.00750  -0.12289  -0.12983   2.93559
   D19        3.02902   0.00063   0.00637   0.10158   0.10739   3.13642
   D20       -0.09514  -0.00042  -0.00593  -0.09224  -0.09748  -0.19262
   D21        3.09069   0.00046   0.00180   0.03106   0.03273   3.12342
   D22        0.00961   0.00016   0.00021   0.00354   0.00360   0.01321
   D23       -0.07532   0.00089   0.00361   0.05906   0.06308  -0.01224
   D24        3.12679   0.00058   0.00203   0.03154   0.03395  -3.12245
   D25       -0.03705   0.00010   0.00020   0.00563   0.00603  -0.03102
   D26        3.09945   0.00057   0.00265   0.04756   0.04970  -3.13403
   D27       -3.12078  -0.00026  -0.00141  -0.02126  -0.02217   3.14024
   D28        0.01573   0.00022   0.00104   0.02067   0.02151   0.03723
         Item               Value     Threshold  Converged?
 Maximum Force            0.043793     0.000450     NO 
 RMS     Force            0.009451     0.000300     NO 
 Maximum Displacement     0.197891     0.001800     NO 
 RMS     Displacement     0.056261     0.001200     NO 
 Predicted change in Energy=-2.911302D-03
 Lowest energy point so far.  Saving SCF results.
 GradGradGradGradGradGradGradGradGradGradGradGradGradGradGradGradGradGrad

 Leave Link  103 at Fri Aug 20 15:43:32 2021, MaxMem= 24159191040 cpu:         2.1
 (Enter /public/home/users/caep010/software/Gaussian09/g09/l202.exe)
                          Input orientation:                          
 ---------------------------------------------------------------------
 Center     Atomic      Atomic             Coordinates (Angstroms)
 Number     Number       Type             X           Y           Z
 ---------------------------------------------------------------------
[...]
 Maximum Displacement     0.000482     0.001800     YES
 RMS     Displacement     0.000107     0.001200     YES
 Predicted change in Energy=-1.978180D-09
 Optimization completed.
    -- Stationary point found.
                           ----------------------------
                           !   Optimized Parameters   !
                           ! (Angstroms and Degrees)  !
 --------------------------                            --------------------------
 ! Name  Definition              Value          Derivative Info.                !
 --------------------------------------------------------------------------------
 ! R1    R(1,2)                  1.2105         -DE/DX =    0.0                 !
 ! R2    R(2,3)                  1.4196         -DE/DX =    0.0                 !
 ! R3    R(2,4)                  1.474          -DE/DX =    0.0                 !
 ! R4    R(3,12)                 1.3795         -DE/DX =    0.0                 !
 ! R5    R(3,14)                 1.0137         -DE/DX =    0.0                 !
 ! R6    R(4,5)                  1.3602         -DE/DX =    0.0                 !
 ! R7    R(4,9)                  1.4575         -DE/DX =    0.0                 !
 ! R8    R(5,6)                  1.3538         -DE/DX =    0.0                 !
 ! R9    R(5,8)                  1.0832         -DE/DX =    0.0                 !
 ! R10   R(6,7)                  1.0111         -DE/DX =    0.0                 !
 ! R11   R(6,12)                 1.4067         -DE/DX =    0.0                 !
 ! R12   R(9,10)                 1.2234         -DE/DX =    0.0                 !
 ! R13   R(9,11)                 1.2379         -DE/DX =    0.0                 !
 ! R14   R(12,13)                1.2123         -DE/DX =    0.0                 !
 ! A1    A(1,2,3)              119.6512         -DE/DX =    0.0                 !
 ! A2    A(1,2,4)              128.9727         -DE/DX =    0.0                 !
 ! A3    A(3,2,4)              111.3761         -DE/DX =    0.0                 !
 ! A4    A(2,3,12)             129.772          -DE/DX =    0.0                 !
 ! A5    A(2,3,14)             114.6956         -DE/DX =    0.0                 !
 ! A6    A(12,3,14)            115.5324         -DE/DX =    0.0                 !
 ! A7    A(2,4,5)              120.6466         -DE/DX =    0.0                 !
 ! A8    A(2,4,9)              122.2526         -DE/DX =    0.0                 !
 ! A9    A(5,4,9)              117.1008         -DE/DX =    0.0                 !
 ! A10   A(4,5,6)              122.0461         -DE/DX =    0.0                 !
 ! A11   A(4,5,8)              120.0381         -DE/DX =    0.0                 !
 ! A12   A(6,5,8)              117.9158         -DE/DX =    0.0                 !
 ! A13   A(5,6,7)              121.1584         -DE/DX =    0.0                 !
 ! A14   A(5,6,12)             123.7161         -DE/DX =    0.0                 !
 ! A15   A(7,6,12)             115.1256         -DE/DX =    0.0                 !
 ! A16   A(4,9,10)             118.2661         -DE/DX =    0.0                 !
 ! A17   A(4,9,11)             116.8064         -DE/DX =    0.0                 !
 ! A18   A(10,9,11)            124.9275         -DE/DX =    0.0                 !
 ! A19   A(3,12,6)             112.4431         -DE/DX =    0.0                 !
 ! A20   A(3,12,13)            125.3968         -DE/DX =    0.0                 !
 ! A21   A(6,12,13)            122.1601         -DE/DX =    0.0                 !
 ! D1    D(1,2,3,12)           180.0159         -DE/DX =    0.0                 !
 ! D2    D(1,2,3,14)            -0.0007         -DE/DX =    0.0                 !
 ! D3    D(4,2,3,12)             0.0155         -DE/DX =    0.0                 !
 ! D4    D(4,2,3,14)          -180.0011         -DE/DX =    0.0                 !
 ! D5    D(1,2,4,5)           -180.0113         -DE/DX =    0.0                 !
 ! D6    D(1,2,4,9)             -0.0107         -DE/DX =    0.0                 !
 ! D7    D(3,2,4,5)             -0.0109         -DE/DX =    0.0                 !
 ! D8    D(3,2,4,9)           -180.0103         -DE/DX =    0.0                 !
 ! D9    D(2,3,12,6)            -0.0079         -DE/DX =    0.0                 !
 ! D10   D(2,3,12,13)         -180.0075         -DE/DX =    0.0                 !
 ! D11   D(14,3,12,6)          180.0088         -DE/DX =    0.0                 !
 ! D12   D(14,3,12,13)           0.0092         -DE/DX =    0.0                 !
 ! D13   D(2,4,5,6)              0.0003         -DE/DX =    0.0                 !
 ! D14   D(2,4,5,8)            180.0027         -DE/DX =    0.0                 !
 ! D15   D(9,4,5,6)            179.9997         -DE/DX =    0.0                 !
 ! D16   D(9,4,5,8)              0.0021         -DE/DX =    0.0                 !
 ! D17   D(2,4,9,10)            -0.0116         -DE/DX =    0.0                 !
 ! D18   D(2,4,9,11)          -180.0101         -DE/DX =    0.0                 !
 ! D19   D(5,4,9,10)          -180.0111         -DE/DX =    0.0                 !
 ! D20   D(5,4,9,11)            -0.0096         -DE/DX =    0.0                 !
 ! D21   D(4,5,6,7)           -180.01           -DE/DX =    0.0                 !
 ! D22   D(4,5,6,12)             0.0088         -DE/DX =    0.0                 !
 ! D23   D(8,5,6,7)             -0.0123         -DE/DX =    0.0                 !
 ! D24   D(8,5,6,12)          -179.9935         -DE/DX =    0.0                 !
 ! D25   D(5,6,12,3)            -0.0053         -DE/DX =    0.0                 !
 ! D26   D(5,6,12,13)         -180.0057         -DE/DX =    0.0                 !
 ! D27   D(7,6,12,3)           180.0125         -DE/DX =    0.0                 !
 ! D28   D(7,6,12,13)            0.0121         -DE/DX =    0.0                 !
 --------------------------------------------------------------------------------
 GradGradGradGradGradGradGradGradGradGradGradGradGradGradGradGradGradGrad

 Leave Link  103 at Fri Aug 20 15:45:30 2021, MaxMem= 24159191040 cpu:         1.9
 (Enter /public/home/users/caep010/software/Gaussian09/g09/l9999.exe)
 1\1\GINC-B1011\Freq\RB3LYP\6-31G(d,p)\C4H3N3O4\ROOT\20-Aug-2021\0\\#P 
 Geom=AllCheck Guess=TCheck SCRF=Check GenChk RB3LYP/6-31G(d,p) Freq\\N
 IMFOE\\0,1\O,4.0590025126,0.8767807046,-1.3996300368\C,4.6459394344,0.
 9174397088,-0.3416712305\N,4.0847092151,0.2832648139,0.7976444303\C,5.
 932998239,1.5595517462,-0.0196379628\C,6.4414480837,1.4999353516,1.240
 4990535\N,5.7994267436,0.8575639401,2.2445275068\H,6.1898574161,0.8214
 636879,3.1765228431\H,7.3881373937,1.9753649203,1.4662470249\N,6.71430
 04314,2.2793490881,-1.0174990233\O,6.2769063716,2.3460288022,-2.158095
 8059\O,7.7805135292,2.7800381239,-0.6369076149\C,4.5658244582,0.199880
 8959,2.0878247795\O,4.0154755684,-0.3671239137,3.0072239012\H,3.196160
 603,-0.1757378698,0.632152135\\Version=ES64L-G09RevE.01\State=1-A\HF=-
 619.3119883\RMSD=7.763e-09\RMSF=2.966e-06\ZeroPoint=0.0896225\Thermal=
 0.0983799\Dipole=0.3719095,-0.3109079,1.8878379\DipoleDeriv=-0.6656242
 ,-0.0707432,-0.4088742,-0.1152589,-0.3902295,-0.0622358,-0.2479706,0.0
 291828,-0.9564467,1.0828072,0.3466301,0.2651327,0.3633937,0.5922585,-0
 .1526141,0.2045398,-0.1870607,1.4391056,-0.4309097,-0.0600722,0.061280
 5,-0.0556563,-0.4636685,0.2782057,0.0453336,0.269179,-1.234909,-0.4522
 879,-0.1839288,-0.2255266,-0.2926201,-0.2194388,0.1245293,0.1675267,0.
 3478396,-0.9323986,0.1285301,0.0649757,-0.1911855,0.0581515,0.2677577,
 -0.4610636,-0.1665095,-0.4471264,1.3820239,-0.8035299,-0.4789746,0.710
 7514,-0.291865,-0.6294689,0.5681379,0.0338858,0.1837171,-0.9013514,0.2
 093624,-0.0838123,0.0878691,-0.067346,0.2617529,0.0509095,0.0284588,0.
 0170813,0.3108142,0.1127404,-0.0123695,-0.0058308,-0.0119982,0.1314391
 ,-0.00325,-0.007152,-0.0039724,0.1370507,1.2848603,0.6294045,-0.222898
 2,0.6031774,0.7631051,-0.4867483,-0.1280323,-0.4328272,1.5886644,-0.41
 9275,-0.1051281,-0.0176253,-0.0802392,-0.324246,0.1914036,-0.1077088,0
 .1402152,-0.9545229,-0.9369816,-0.3820348,0.0246007,-0.369659,-0.50875
 32,0.0795016,-0.0200935,0.0540975,-0.5138054,1.3032923,0.6399269,-0.48
 82916,0.526494,0.8789985,-0.5968979,-0.0780476,-0.3638215,1.5699183,-0
 .6893665,-0.2855823,0.4060741,-0.2501604,-0.6434806,0.4228233,0.277940
 7,0.350023,-1.0789109,0.2763821,-0.0182914,0.0045237,-0.0164135,0.2839
 736,0.0472989,-0.0021711,0.0434726,0.1447677\Polar=69.8465594,23.10459
 19,47.6936702,0.2552542,-19.9182127,101.6042103\PG=C01 [X(C4H3N3O4)]\N
 Imag=0\\0.25292344,0.03592295,0.05195813,0.32336002,0.00223705,0.68789
 474,-0.25362664,-0.02569016,-0.27844817,0.58160325,-0.02587389,-0.0821
 8041,-0.01909437,0.14838317,0.28034331,-0.27779114,-0.01872164,-0.5753
 7872,0.26930937,-0.02455062,0.83085010,0.03116816,0.01224073,-0.019878
 20,-0.15278253,-0.07040157,0.03905324,0.64914241,0.00610053,0.01682573
 ,0.02149685,-0.05959808,-0.09477810,0.04700216,0.30312306,0.25600850,0
 .00231664,0.03410842,-0.09917923,0.00000815,0.02482380,-0.13757867,0.1
 1924547,-0.09477346,0.64510396,-0.02403378,-0.01340768,-0.03858080,-0.
 16416151,-0.05233667,-0.01360252,-0.01580315,-0.01955780,0.02285921,0.
 49540249,-0.01106495,0.01578339,-0.01342470,-0.05343758,-0.09729515,0.
 00551078,-0.02114250,-0.00695646,0.00880688,0.18463938,0.23017493,-0.0
 4704325,-0.01823466,-0.01232921,-0.00962259,0.00777645,-0.11329587,0.0
 2857925,0.01205532,0.02261295,0.14112031,-0.08520621,0.69973798,-0.006
 43914,-0.00618654,0.00212384,-0.00209186,0.00920120,-0.03801926,0.0000
 0943,-0.00218890,0.00635064,-0.16663297,-0.02484631,-0.13793131,0.6318
 5365,-0.00877198,-0.00202738,0.00166622,0.01259082,0.01397709,-0.02386
 994,0.00085414,-0.00230463,0.01287027,-0.03050654,-0.07488960,0.006490
 53,0.24691926,0.31488873,0.01147308,0.00697878,0.00175368,-0.05027664,
 -0.03083837,0.00843352,-0.00465115,0.00661958,-0.03272348,-0.11746404,
 0.01811831,-0.36258350,0.10895570,-0.10993723,0.76557484,0.00635787,0.
 00521732,-0.00571504,-0.03001988,-0.02012964,0.01558470,-0.02629741,-0
 .00689633,-0.04566810,0.03082111,0.00693694,0.02107542,-0.17298125,-0.
 08604651,0.04163697,0.52885928,0.00483945,0.00338646,-0.00244832,-0.02
 060381,-0.01627169,0.00862654,-0.00758230,0.01049315,-0.02436590,0.010
 32889,0.00550777,0.03150052,-0.09787172,-0.12125331,0.08633360,0.23808
 503,0.24195931,-0.00435576,-0.00167433,-0.00293459,0.01730957,0.009607
 10,-0.00135529,-0.04318055,-0.02295252,0.00233812,0.00879911,0.0245284
 9,-0.06227872,0.08437582,0.11060003,-0.26839349,0.09936551,-0.16366605
 ,0.85710316,0.00060126,0.00045741,0.00004189,-0.00203492,-0.00107146,0
 .00088366,-0.00511551,-0.00466102,0.00043720,-0.00081404,-0.00397567,0
 .00320600,0.01048157,0.00408168,0.01970226,-0.11871910,-0.02102850,-0.
 14700005,0.11733915,0.00029320,-0.00000451,-0.00019137,-0.00049412,-0.
 00097977,0.00043318,-0.00465008,0.00001222,0.00079654,-0.00405819,0.00
 169356,0.00225902,0.01174180,-0.00369440,0.01469291,-0.02082555,-0.027
 97281,0.02180880,0.01650606,0.02907006,0.00063675,0.00014595,0.0005561
 2,-0.00120651,-0.00075385,-0.00033156,0.00039092,0.00076998,0.00089518
 ,0.00350879,0.00243117,0.00304506,-0.00798584,-0.00102692,-0.01898254,
 -0.14770891,0.02138894,-0.39066245,0.15291930,-0.02128439,0.40467396,-
 0.00065078,0.00069028,0.00028637,0.00194361,-0.00299610,-0.00218293,0.
 00034149,0.00043325,-0.00010270,-0.00322879,-0.00689934,-0.00349525,-0
 .27893746,-0.11513550,-0.06310372,-0.00813909,-0.00706859,-0.00090638,
 -0.00015123,0.00130471,0.00042309,0.28991993,0.00131188,-0.00118969,-0
 .00025356,-0.00385982,0.00539560,0.00249972,0.00027827,-0.00008151,-0.
 00047558,-0.00080682,0.01000019,0.00056808,-0.11401206,-0.10251938,-0.
 02829253,-0.01502125,-0.00347537,-0.00114314,0.00125690,-0.00172921,-0
 .00076064,0.13099215,0.09589472,-0.00196277,-0.00153068,-0.00050106,0.
 00094001,0.00427354,-0.00524280,0.00045745,-0.00015735,0.00113770,-0.0
 2551951,-0.01194534,0.00138220,-0.06717250,-0.03060461,-0.07290741,0.0
 2786140,0.01520087,0.00701615,0.00059483,-0.00066209,0.00096327,0.0640
 0032,0.02434809,0.07165156,0.00424172,0.00363941,-0.00271330,-0.013224
 04,-0.01122099,0.02657552,-0.00264167,-0.00266403,-0.00234206,-0.11799
 239,-0.02981581,0.00508667,0.01605393,0.00582101,0.02457574,0.00451480
 ,0.00242023,-0.01704803,0.00277243,-0.00012188,-0.00027325,-0.00260138
 ,0.00330927,-0.00435680,0.68192742,0.00431010,0.00067982,0.00334218,-0
 .00994664,-0.01317027,0.00400188,-0.00134206,0.00235171,0.00027008,-0.
 03063695,-0.08930755,0.01416805,0.00713638,-0.00915545,0.02552700,0.00
 150409,0.01184135,-0.00880754,-0.00007739,0.00279836,0.00100787,0.0021
 3082,-0.00396291,-0.00410015,0.20259438,0.35385095,-0.00513710,0.00196
 960,-0.01851353,0.02197433,0.00138270,0.03372330,-0.00712766,-0.002448
 07,-0.00260419,0.00806482,0.01586119,-0.10876009,0.01980932,0.02281657
 ,-0.04796753,-0.01373833,-0.00692647,0.00537586,-0.00043414,0.00091601
 ,-0.00108543,-0.00009274,-0.00167610,-0.00043441,0.20442937,-0.0461431
 7,0.81322258,-0.00508415,-0.00591977,0.00711065,-0.00366294,-0.0002248
 8,-0.00627760,0.00046194,-0.00008989,0.00183312,0.02219606,0.00091325,
 0.00530674,-0.00177828,-0.00285348,-0.00048385,0.00052561,0.00030003,0
 .00232766,-0.00057222,0.00013244,0.00023810,0.00003760,-0.00087972,0.0
 0138318,-0.16121599,-0.01202459,-0.13182171,0.17986031,-0.00505539,-0.
 00165386,0.00238445,0.00057445,0.00032885,-0.00075931,0.00005295,-0.00
 031544,0.00026451,0.00339090,0.01254453,0.02672775,-0.00469805,0.00100
 295,-0.00069342,0.00016895,-0.00166835,0.00227376,-0.00003131,-0.00090
 049,-0.00014024,-0.00041832,0.00051150,0.00058951,-0.00768472,-0.09382
 436,0.04889366,0.02950687,0.05651556,0.00398996,0.00060980,0.00786320,
 -0.00917997,-0.00240632,-0.01036074,0.00131803,-0.00002815,0.00253628,
 -0.00365779,0.02163312,-0.06778430,0.00619142,0.00309926,0.00499068,0.
 00280108,0.00254380,-0.00457547,0.00083033,0.00019649,0.00007448,-0.00
 028469,-0.00035976,0.00162450,-0.14751733,0.03997465,-0.52389160,0.207
 90151,-0.04679954,0.62361036,-0.00180805,-0.00085072,0.00069610,0.0041
 2322,-0.00126691,0.00361746,-0.00282049,-0.00145249,0.00117315,-0.0431
 3685,-0.03783407,0.01279791,-0.00351863,0.00075503,-0.01442967,-0.0021
 4370,-0.00268472,0.00623282,-0.00079351,-0.00014086,-0.00037621,-0.001
 11843,-0.00165615,0.00423781,-0.40551527,-0.15907879,-0.10047108,-0.03
 102451,-0.01674289,-0.05891252,0.48645802,-0.00101812,-0.00090718,-0.0
 0115471,0.00117275,0.00366081,0.00576943,-0.00167339,-0.00185409,0.000
 24600,-0.03981094,-0.00735176,0.00704588,-0.00355976,0.00137581,-0.004
 42704,-0.00199018,-0.00229442,0.00258081,-0.00020819,-0.00038030,-0.00
 036536,-0.00161414,-0.00186376,0.00245958,-0.16325056,-0.15952787,-0.0
 3597643,-0.00902073,0.02670046,-0.01714017,0.22010190,0.14224156,0.001
 29683,-0.00081449,0.00496022,-0.00519905,0.00076244,-0.00884199,0.0019
 7262,0.00069933,0.00068773,0.01994260,0.01110507,0.01803518,0.00117648
 ,0.00444082,-0.01146502,0.00371843,0.00115242,0.00302230,-0.00013191,-
 0.00022655,0.00018535,0.00408644,0.00237401,-0.00045337,-0.08537696,-0
 .02739951,-0.15310455,-0.08684493,-0.03301305,-0.03202318,0.14540219,0
 .04067696,0.18017886,-0.00505053,-0.01116753,0.01468275,0.04931116,0.0
 4208278,-0.01736734,-0.15736048,-0.04787928,-0.04120272,-0.01533602,-0
 .00155903,-0.02675668,-0.02470808,-0.02861133,0.05788451,-0.17323087,-
 0.05016291,-0.05257461,-0.00546353,-0.00200715,-0.00181607,0.00334941,
 -0.00053145,-0.00241232,-0.00847495,-0.00673024,0.00822377,0.00027808,
 0.00144408,-0.00535505,0.00215915,0.00159492,-0.00102455,0.56834414,-0
 .00631934,0.00216305,0.00613233,0.02834166,-0.00002581,-0.00057827,-0.
 03664842,-0.08194715,0.02920917,-0.00582173,0.00018921,-0.01108014,-0.
 01854216,-0.01887356,0.02100882,-0.05902287,-0.09181501,-0.00390625,0.
 00694965,0.00340297,-0.00184798,-0.00158556,0.00422165,0.00120710,-0.0
 0441596,-0.00434264,0.00435972,0.00035977,0.00125837,-0.00257406,0.001
 97021,0.00114099,-0.00062161,0.24070835,0.40377813,-0.00283581,-0.0038
 2872,0.01546033,0.03231366,0.02764965,-0.04987448,-0.08183184,0.006138
 00,-0.24336272,-0.01134584,-0.00232449,-0.01447042,0.02149212,0.000334
 59,0.04043182,-0.02059268,0.01426623,-0.15324548,-0.03416403,-0.020231
 97,0.00189588,0.00140504,0.00337632,-0.00386770,-0.00015017,-0.0003975
 5,0.00050305,-0.00143282,-0.00034534,-0.00135259,-0.00238120,-0.001392
 21,-0.00000936,-0.11056330,-0.24748402,0.86623877,0.00111176,0.0020043
 6,-0.00126164,-0.00584321,-0.00797625,0.00112904,0.02875496,0.00596871
 ,-0.00401377,0.00181781,-0.00004990,0.00600592,-0.00168277,0.00053991,
 -0.01463081,-0.04212386,-0.04858052,0.04860589,0.00232925,0.00282045,0
 .00126116,-0.00062678,-0.00043112,0.00185757,0.00252453,0.00254454,-0.
 00311896,-0.00022005,-0.00067555,0.00191178,-0.00088444,-0.00083391,0.
 00089840,-0.22589618,-0.14270806,0.21233224,0.24095968,0.00146964,-0.0
 0136885,0.00145554,-0.00310441,0.00622866,-0.00125949,-0.00151131,0.01
 218785,0.02589870,0.00017272,-0.00168203,0.00275572,-0.00350587,0.0040
 8042,-0.00573805,-0.04174481,-0.01199228,0.02885132,0.00188088,-0.0022
 4236,0.00023445,0.00009539,-0.00097872,0.00094607,0.00217997,0.0015032
 7,-0.00253634,-0.00038962,-0.00052580,0.00124098,-0.00109959,-0.000690
 87,0.00076755,-0.14224741,-0.22161732,0.22665501,0.18667697,0.22040520
 ,0.00066970,0.00255651,-0.00966120,-0.01648675,-0.01127330,0.01452134,
 0.02303041,0.04126462,-0.08168744,0.00520142,0.00229882,0.00135651,-0.
 00000031,0.00257490,-0.00482825,0.02389151,0.01481033,0.01526071,0.004
 65240,0.00216024,-0.00150437,-0.00004766,-0.00013689,-0.00037490,-0.00
 179932,-0.00178632,0.00232620,0.00087717,0.00065293,-0.00052054,0.0018
 5898,0.00131320,-0.00078272,0.21067339,0.22571158,-0.46137031,-0.25548
 262,-0.28035592,0.52557871,0.00028884,0.00304993,-0.00170448,-0.009533
 71,-0.00616879,-0.00091221,-0.34705715,-0.17063773,-0.06089425,0.00090
 204,-0.00186439,0.00167085,0.00037185,0.00036351,0.00081161,0.00257649
 ,-0.00039056,-0.00195100,0.00014040,-0.00050083,-0.00001131,-0.0001380
 9,0.00004993,0.00009134,-0.00036913,-0.00038364,-0.00055990,0.00019855
 ,0.00016801,-0.00003675,0.00002348,0.00011035,0.00008341,-0.00792130,-
 0.00326554,-0.00224537,-0.00022069,0.00112747,0.00296167,0.36073841,0.
 00385593,-0.00146471,-0.00214759,-0.01432823,-0.00523311,-0.00410441,-
 0.17159750,-0.10964178,-0.01767942,-0.00158857,0.00158897,0.00317369,0
 .00041272,-0.00060731,0.00064765,-0.00023518,0.00355520,0.00189953,-0.
 00007904,0.00092669,0.00020103,0.00007096,-0.00022310,-0.00002452,-0.0
 0079032,0.00026561,-0.00049288,0.00019032,0.00002608,0.00000989,-0.000
 01995,-0.00024937,0.00009661,0.00506620,0.00246712,-0.00241552,0.00070
 038,-0.00330718,0.00020930,0.17834227,0.11189688,-0.00461715,-0.003801
 59,0.00000925,0.02856458,0.01264116,0.01473188,-0.05737798,-0.01568629
 ,-0.07817619,0.00067422,0.00260691,-0.00466776,0.00063387,0.00054551,-
 0.00133332,-0.00251197,0.00158349,-0.00667080,-0.00153774,-0.00066681,
 0.00027703,0.00001481,-0.00006801,0.00000625,0.00090993,0.00034254,0.0
 0121033,-0.00011723,-0.00003569,-0.00019109,0.00055426,0.00036407,-0.0
 0038945,-0.03239178,-0.01953638,0.00302321,0.00450580,0.00108446,0.001
 68625,0.06269639,0.02062664,0.07048440\\0.00000129,0.00000179,0.000001
 81,-0.00000156,0.00000142,-0.00000567,0.00000140,-0.00000549,-0.000001
 64,-0.00000119,-0.00000086,-0.00000102,0.00000416,-0.00000128,0.000002
 66,0.00000153,0.00000922,0.00000401,0.00000301,-0.00000249,-0.00000042
 ,-0.00000332,-0.00000056,-0.00000253,-0.00000206,-0.00000053,-0.000000
 90,-0.00000417,-0.00000222,-0.00000093,0.00000149,0.00000092,-0.000001
 98,-0.00000555,-0.00000316,0.00000289,0.00000410,0.00000253,-0.0000001
 8,0.00000088,0.00000070,0.00000390\\\@


 WHEN IT COMES TO CASH FLOW, IT SEEMS LIKE THE TIDE IS ALWAYS GOING OUT.
 Job cpu time:       0 days  0 hours  8 minutes 37.7 seconds.
 File lengths (MBytes):  RWF=     62 Int=      0 D2E=      0 Chk=      4 Scr=      1
 Normal termination of Gaussian 09 at Fri Aug 20 15:45:30 2021.
