 Entering Gaussian System, Link 0=g09
 Input=B3LYP6-31G.RAMVUW.gjf
 Output=B3LYP6-31G.RAMVUW.log
 Initial command:
 /public/home/users/caep010/software/Gaussian09/g09/l1.exe "/public/home/users/caep010/.cache/gau_scr/Gau-180598.inp" -scrdir="/public/home/users/caep010/.cache/gau_scr/"
 Entering Link 1 = /public/home/users/caep010/software/Gaussian09/g09/l1.exe PID=    180599.
  
 Copyright (c) 1988,1990,1992,1993,1995,1998,2003,2009,2015,
            Gaussian, Inc.  All Rights Reserved.
  
 This is part of the Gaussian(R) 09 program.  It is based on
 the Gaussian(R) 03 system (copyright 2003, Gaussian, Inc.),
 the Gaussian(R) 98 system (copyright 1998, Gaussian, Inc.),
 the Gaussian(R) 94 system (copyright 1995, Gaussian, Inc.),
 the Gaussian 92(TM) system (copyright 1992, Gaussian, Inc.),
 the Gaussian 90(TM) system (copyright 1990, Gaussian, Inc.),
 the Gaussian 88(TM) system (copyright 1988, Gaussian, Inc.),
 the Gaussian 86(TM) system (copyright 1986, Carnegie Mellon
 University), and the Gaussian 82(TM) system (copyright 1983,
 Carnegie Mellon University). Gaussian is a federally registered
 trademark of Gaussian, Inc.
  
 This software contains proprietary and confidential information,
 including trade secrets, belonging to Gaussian, Inc.
  
 This software is provided under written license and may be
 used, copied, transmitted, or stored only in accord with that
 written license.
  
 The following legend is applicable only to US Government
 contracts under FAR:
  
                    RESTRICTED RIGHTS LEGEND
  
 Use, reproduction and disclosure by the US Government is
 subject to restrictions as set forth in subparagraphs (a)
 and (c) of the Commercial Computer Software - Restricted
 Rights clause in FAR 52.227-19.
  
 Gaussian, Inc.
 340 Quinnipiac St., Bldg. 40, Wallingford CT 06492
  
  
 ---------------------------------------------------------------
 Warning -- This program may not be used in any manner that
 competes with the business of Gaussian, Inc. or will provide
 assistance to any competitor of Gaussian, Inc.  The licensee
 of this program is prohibited from giving any competitor of
 Gaussian, Inc. access to this program.  By using this program,
 the user acknowledges that Gaussian, Inc. is engaged in the
 business of creating and licensing software in the field of
 computational chemistry and represents and warrants to the
 licensee that it is not a competitor of Gaussian, Inc. and that
 it will not use this program in any manner prohibited above.
 ---------------------------------------------------------------
  

 Cite this work as:
 Gaussian 09, Revision E.01,
 M. J. Frisch, G. W. Trucks, H. B. Schlegel, G. E. Scuseria, 
 M. A. Robb, J. R. Cheeseman, G. Scalmani, V. Barone, B. Mennucci, 
 G. A. Petersson, H. Nakatsuji, M. Caricato, X. Li, H. P. Hratchian, 
 A. F. Izmaylov, J. Bloino, G. Zheng, J. L. Sonnenberg, M. Hada, 
 M. Ehara, K. Toyota, R. Fukuda, J. Hasegawa, M. Ishida, T. Nakajima, 
 Y. Honda, O. Kitao, H. Nakai, T. Vreven, J. A. Montgomery, Jr., 
 J. E. Peralta, F. Ogliaro, M. Bearpark, J. J. Heyd, E. Brothers, 
 K. N. Kudin, V. N. Staroverov, T. Keith, R. Kobayashi, J. Normand, 
 K. Raghavachari, A. Rendell, J. C. Burant, S. S. Iyengar, J. Tomasi, 
 M. Cossi, N. Rega, J. M. Millam, M. Klene, J. E. Knox, J. B. Cross, 
 V. Bakken, C. Adamo, J. Jaramillo, R. Gomperts, R. E. Stratmann, 
 O. Yazyev, A. J. Austin, R. Cammi, C. Pomelli, J. W. Ochterski, 
 R. L. Martin, K. Morokuma, V. G. Zakrzewski, G. A. Voth, 
 P. Salvador, J. J. Dannenberg, S. Dapprich, A. D. Daniels, 
 O. Farkas, J. B. Foresman, J. V. Ortiz, J. Cioslowski, 
 and D. J. Fox, Gaussian, Inc., Wallingford CT, 2013.
 
 ******************************************
 Gaussian 09:  ES64L-G09RevE.01 30-Nov-2015
                20-Aug-2021 
 ******************************************
 %nproc=32
 Will use up to   32 processors via shared memory.
 %mem=180GB
 -------------------------
 #P OPT Freq B3LYP/6-31G**
 -------------------------
 1/14=-1,18=20,19=15,26=3,38=1/1,3;
 2/9=110,12=2,17=6,18=5,40=1/2;
 3/5=1,6=6,7=101,11=2,16=1,25=1,30=1,71=1,74=-5/1,2,3;
 4//1;
 5/5=2,38=5/2;
 6/7=2,8=2,9=2,10=2,28=1/1;
 7//1,2,3,16;
 1/14=-1,18=20,19=15,26=3/3(2);
 2/9=110/2;
 99//99;
 2/9=110/2;
 3/5=1,6=6,7=101,11=2,16=1,25=1,30=1,71=1,74=-5/1,2,3;
 4/5=5,16=3,69=1/1;
 5/5=2,38=5/2;
 7//1,2,3,16;
 1/14=-1,18=20,19=15,26=3/3(-5);
 2/9=110/2;
 6/7=2,8=2,9=2,10=2,19=2,28=1/1;
 99/9=1/99;
 Leave Link    1 at Fri Aug 20 15:50:28 2021, MaxMem= 24159191040 cpu:         2.0
 (Enter /public/home/users/caep010/software/Gaussian09/g09/l101.exe)
 ------
 RAMVUW
 ------
 Symbolic Z-matrix:
 Charge =  0 Multiplicity = 1
 N                     2.6257    1.2434    4.5532 
 C                     1.8767    2.3333    4.5364 
 C                     1.909     2.7041    3.2251 
 N                     1.265     3.8204    2.6196 
 N                     2.6567    1.8507    2.5103 
 N                     3.0983    0.9406    3.3308 
 O                     1.419     3.9943    1.4225 
 O                     0.5862    4.5326    3.3462 
 H                     2.829     0.7497    5.1811 
 H                     1.5053    2.7       5.2961 
 
 NAtoms=     10 NQM=       10 NQMF=       0 NMMI=      0 NMMIF=      0
                NMic=       0 NMicF=      0.
                    Isotopes and Nuclear Properties:
 (Nuclear quadrupole moments (NQMom) in fm**2, nuclear magnetic moments (NMagM)
  in nuclear magnetons)

  Atom         1           2           3           4           5           6           7           8           9          10
 IAtWgt=          14          12          12          14          14          14          16          16           1           1
 AtmWgt=  14.0030740  12.0000000  12.0000000  14.0030740  14.0030740  14.0030740  15.9949146  15.9949146   1.0078250   1.0078250
 NucSpn=           2           0           0           2           2           2           0           0           1           1
 AtZEff=   0.0000000   0.0000000   0.0000000   0.0000000   0.0000000   0.0000000   0.0000000   0.0000000   0.0000000   0.0000000
 NQMom=    2.0440000   0.0000000   0.0000000   2.0440000   2.0440000   2.0440000   0.0000000   0.0000000   0.0000000   0.0000000
 NMagM=    0.4037610   0.0000000   0.0000000   0.4037610   0.4037610   0.4037610   0.0000000   0.0000000   2.7928460   2.7928460
 AtZNuc=   7.0000000   6.0000000   6.0000000   7.0000000   7.0000000   7.0000000   8.0000000   8.0000000   1.0000000   1.0000000
 Leave Link  101 at Fri Aug 20 15:50:29 2021, MaxMem= 24159191040 cpu:         9.6
 (Enter /public/home/users/caep010/software/Gaussian09/g09/l103.exe)

 GradGradGradGradGradGradGradGradGradGradGradGradGradGradGradGradGradGrad
 Berny optimization.
 Initialization pass.
                           ----------------------------
                           !    Initial Parameters    !
                           ! (Angstroms and Degrees)  !
 --------------------------                            --------------------------
 ! Name  Definition              Value          Derivative Info.                !
 --------------------------------------------------------------------------------
 ! R1    R(1,2)                  1.3226         estimate D2E/DX2                !
 ! R2    R(1,6)                  1.3451         estimate D2E/DX2                !
 ! R3    R(1,9)                  0.8242         estimate D2E/DX2                !
 ! R4    R(2,3)                  1.3631         estimate D2E/DX2                !
 ! R5    R(2,10)                 0.9217         estimate D2E/DX2                !
 ! R6    R(3,4)                  1.4239         estimate D2E/DX2                !
 ! R7    R(3,5)                  1.341          estimate D2E/DX2                !
 ! R8    R(4,7)                  1.2194         estimate D2E/DX2                !
 ! R9    R(4,8)                  1.2231         estimate D2E/DX2                !
 ! R10   R(5,6)                  1.3025         estimate D2E/DX2                !
 ! A1    A(2,1,6)              111.8974         estimate D2E/DX2                !
 ! A2    A(2,1,9)              130.015          estimate D2E/DX2                !
 ! A3    A(6,1,9)              118.0874         estimate D2E/DX2                !
 ! A4    A(1,2,3)              102.8837         estimate D2E/DX2                !
 ! A5    A(1,2,10)             123.0649         estimate D2E/DX2                !
 ! A6    A(3,2,10)             133.9658         estimate D2E/DX2                !
 ! A7    A(2,3,4)              127.7071         estimate D2E/DX2                !
 ! A8    A(2,3,5)              110.6633         estimate D2E/DX2                !
 ! A9    A(4,3,5)              121.6293         estimate D2E/DX2                !
 ! A10   A(3,4,7)              118.1731         estimate D2E/DX2                !
 ! A11   A(3,4,8)              117.058          estimate D2E/DX2                !
 ! A12   A(7,4,8)              124.767          estimate D2E/DX2                !
 ! A13   A(3,5,6)              107.3329         estimate D2E/DX2                !
 ! A14   A(1,6,5)              107.2212         estimate D2E/DX2                !
 ! D1    D(6,1,2,3)             -0.1986         estimate D2E/DX2                !
 ! D2    D(6,1,2,10)          -177.2594         estimate D2E/DX2                !
 ! D3    D(9,1,2,3)            179.9682         estimate D2E/DX2                !
 ! D4    D(9,1,2,10)             2.9074         estimate D2E/DX2                !
 ! D5    D(2,1,6,5)              0.3729         estimate D2E/DX2                !
 ! D6    D(9,1,6,5)           -179.772          estimate D2E/DX2                !
 ! D7    D(1,2,3,4)            179.7433         estimate D2E/DX2                !
 ! D8    D(1,2,3,5)             -0.0421         estimate D2E/DX2                !
 ! D9    D(10,2,3,4)            -3.6796         estimate D2E/DX2                !
 ! D10   D(10,2,3,5)           176.5351         estimate D2E/DX2                !
 ! D11   D(2,3,4,7)            179.5807         estimate D2E/DX2                !
 ! D12   D(2,3,4,8)             -0.896          estimate D2E/DX2                !
 ! D13   D(5,3,4,7)             -0.6552         estimate D2E/DX2                !
 ! D14   D(5,3,4,8)            178.8682         estimate D2E/DX2                !
 ! D15   D(2,3,5,6)              0.2689         estimate D2E/DX2                !
 ! D16   D(4,3,5,6)           -179.5316         estimate D2E/DX2                !
 ! D17   D(3,5,6,1)             -0.3778         estimate D2E/DX2                !
 --------------------------------------------------------------------------------
 Trust Radius=3.00D-01 FncErr=1.00D-07 GrdErr=1.00D-06
 Number of steps in this run=     51 maximum allowed number of steps=    100.
 GradGradGradGradGradGradGradGradGradGradGradGradGradGradGradGradGradGrad

 Leave Link  103 at Fri Aug 20 15:50:29 2021, MaxMem= 24159191040 cpu:         0.6
 (Enter /public/home/users/caep010/software/Gaussian09/g09/l202.exe)
                          Input orientation:                          
 ---------------------------------------------------------------------
 Center     Atomic      Atomic             Coordinates (Angstroms)
 Number     Number       Type             X           Y           Z
 ---------------------------------------------------------------------
      1          7           0        2.625700    1.243400    4.553200
      2          6           0        1.876700    2.333300    4.536400
      3          6           0        1.909000    2.704100    3.225100
      4          7           0        1.265000    3.820400    2.619600
      5          7           0        2.656700    1.850700    2.510300
      6          7           0        3.098300    0.940600    3.330800
      7          8           0        1.419000    3.994300    1.422500
      8          8           0        0.586200    4.532600    3.346200
      9          1           0        2.829000    0.749700    5.181100
     10          1           0        1.505300    2.700000    5.296100
 ---------------------------------------------------------------------
                    Distance matrix (angstroms):
                    1          2          3          4          5
     1  N    0.000000
     2  C    1.322560   0.000000
     3  C    2.100275   1.363101   0.000000
     4  N    3.497319   2.501952   1.423900   0.000000
     5  N    2.131482   2.224047   1.341002   2.414227   0.000000
     6  N    1.345102   2.210292   2.129681   3.487125   1.302503
     7  O    4.338762   3.558762   2.270261   1.219428   2.703744
     8  O    4.054041   2.814052   2.260061   1.223089   3.489740
     9  H    0.824214   1.957116   2.914106   4.293783   2.893970
    10  H    1.982140   0.921711   2.109984   2.911476   3.131727
                    6          7          8          9         10
     6  N    0.000000
     7  O    3.973253   0.000000
     8  O    4.383303   2.164242   0.000000
     9  H    1.879515   5.161647   4.765222   0.000000
    10  H    3.081484   4.085026   2.829360   2.359889   0.000000
 Stoichiometry    C2H2N4O2
 Framework group  C1[X(C2H2N4O2)]
 Deg. of freedom    24
 Full point group                 C1      NOp   1
 Largest Abelian subgroup         C1      NOp   1
 Largest concise Abelian subgroup C1      NOp   1
                         Standard orientation:                         
 ---------------------------------------------------------------------
 Center     Atomic      Atomic             Coordinates (Angstroms)
 Number     Number       Type             X           Y           Z
 ---------------------------------------------------------------------
      1          7           0       -2.039478    0.539844    0.000209
      2          6           0       -0.837520    1.091600    0.005418
      3          6           0       -0.006934    0.010782    0.003569
      4          7           0        1.416960    0.006668    0.002240
      5          7           0       -0.713485   -1.128974   -0.001611
      6          7           0       -1.974688   -0.803666   -0.008954
      7          8           0        1.989595   -1.069926    0.008502
      8          8           0        1.976462    1.094157   -0.014228
      9          1           0       -2.784467    0.892433   -0.000080
     10          1           0       -0.702443    2.002328    0.048775
 ---------------------------------------------------------------------
 Rotational constants (GHZ):      5.7800106      1.7390775      1.3369085
 Leave Link  202 at Fri Aug 20 15:50:29 2021, MaxMem= 24159191040 cpu:         0.9
 (Enter /public/home/users/caep010/software/Gaussian09/g09/l301.exe)
 Standard basis: 6-31G(d,p) (6D, 7F)
 Ernie: Thresh=  0.10000D-02 Tol=  0.10000D-05 Strict=F.
 There are   130 symmetry adapted cartesian basis functions of A   symmetry.
 There are   130 symmetry adapted basis functions of A   symmetry.
   130 basis functions,   238 primitive gaussians,   130 cartesian basis functions
    29 alpha electrons       29 beta electrons
       nuclear repulsion energy       366.6947408241 Hartrees.
 IExCor=  402 DFT=T Ex+Corr=B3LYP ExCW=0 ScaHFX=  0.200000
 ScaDFX=  0.800000  0.720000  1.000000  0.810000 ScalE2=  1.000000  1.000000
 IRadAn=      0 IRanWt=     -1 IRanGd=            0 ICorTp=0 IEmpDi=  4
 NAtoms=   10 NActive=   10 NUniq=   10 SFac= 1.00D+00 NAtFMM=   60 NAOKFM=F Big=F
 Integral buffers will be    131072 words long.
 Raffenetti 2 integral format.
 Two-electron integral symmetry is turned on.
 Leave Link  301 at Fri Aug 20 15:50:29 2021, MaxMem= 24159191040 cpu:         2.7
 (Enter /public/home/users/caep010/software/Gaussian09/g09/l302.exe)
 NPDir=0 NMtPBC=     1 NCelOv=     1 NCel=       1 NClECP=     1 NCelD=      1
         NCelK=      1 NCelE2=     1 NClLst=     1 CellRange=     0.0.
 One-electron integrals computed using PRISM.
 NBasis=   130 RedAO= T EigKep=  1.10D-03  NBF=   130
 NBsUse=   130 1.00D-06 EigRej= -1.00D+00 NBFU=   130
 Precomputing XC quadrature grid using
 IXCGrd= 4 IRadAn=           0 IRanWt=          -1 IRanGd=           0 AccXCQ= 0.00D+00.
 Generated NRdTot=       0 NPtTot=           0 NUsed=           0 NTot=          32
 NSgBfM=   130   130   130   130   130 MxSgAt=    10 MxSgA2=    10.
 Leave Link  302 at Fri Aug 20 15:50:29 2021, MaxMem= 24159191040 cpu:        11.7
 (Enter /public/home/users/caep010/software/Gaussian09/g09/l303.exe)
 DipDrv:  MaxL=1.
 Leave Link  303 at Fri Aug 20 15:50:29 2021, MaxMem= 24159191040 cpu:         1.3
 (Enter /public/home/users/caep010/software/Gaussian09/g09/l401.exe)
 ExpMin= 1.61D-01 ExpMax= 5.48D+03 ExpMxC= 8.25D+02 IAcc=1 IRadAn=         1 AccDes= 0.00D+00
 Harris functional with IExCor=  402 and IRadAn=       1 diagonalized for initial guess.
 HarFok:  IExCor=  402 AccDes= 0.00D+00 IRadAn=         1 IDoV= 1 UseB2=F ITyADJ=14
 ICtDFT=  3500011 ScaDFX=  1.000000  1.000000  1.000000  1.000000
 FoFCou: FMM=F IPFlag=           0 FMFlag=      100000 FMFlg1=           0
         NFxFlg=           0 DoJE=T BraDBF=F KetDBF=T FulRan=T
         wScrn=  0.000000 ICntrl=     500 IOpCl=  0 I1Cent=   200000004 NGrid=           0
         NMat0=    1 NMatS0=      1 NMatT0=    0 NMatD0=    1 NMtDS0=    0 NMtDT0=    0
 Petite list used in FoFCou.
 Harris En= -446.643119091136    
 JPrj=0 DoOrth=F DoCkMO=F.
 Leave Link  401 at Fri Aug 20 15:50:30 2021, MaxMem= 24159191040 cpu:        11.0
 (Enter /public/home/users/caep010/software/Gaussian09/g09/l502.exe)
 Closed shell SCF:
 Using DIIS extrapolation, IDIIS=  1040.
 Integral symmetry usage will be decided dynamically.
 Keep R1 ints in memory in canonical form, NReq=37455228.
 IVT=       74378 IEndB=       74378 NGot= 24159191040 MDV= 24122859793
 LenX= 24122859793 LenY= 24122842452
 Requested convergence on RMS density matrix=1.00D-08 within 128 cycles.
 Requested convergence on MAX density matrix=1.00D-06.
 Requested convergence on             energy=1.00D-06.
 No special actions if energy rises.
 FoFCou: FMM=F IPFlag=           0 FMFlag=           0 FMFlg1=           0
         NFxFlg=           0 DoJE=F BraDBF=F KetDBF=F FulRan=T
         wScrn=  0.000000 ICntrl=     600 IOpCl=  0 I1Cent=           0 NGrid=           0
         NMat0=    1 NMatS0=   8515 NMatT0=    0 NMatD0=    1 NMtDS0=    0 NMtDT0=    0
 Symmetry not used in FoFCou.
 Integral accuracy reduced to 1.0D-05 until final iterations.

 Cycle   1  Pass 0  IDiag  1:
 E= -446.453825847897    
 DIIS: error= 6.10D-02 at cycle   1 NSaved=   1.
 NSaved= 1 IEnMin= 1 EnMin= -446.453825847897     IErMin= 1 ErrMin= 6.10D-02
 ErrMax= 6.10D-02  0.00D+00 EMaxC= 1.00D-01 BMatC= 2.63D-01 BMatP= 2.63D-01
 IDIUse=3 WtCom= 3.90D-01 WtEn= 6.10D-01
 Coeff-Com:  0.100D+01
 Coeff-En:   0.100D+01
 Coeff:      0.100D+01
 Gap=     0.197 Goal=   None    Shift=    0.000
 GapD=    0.197 DampG=1.000 DampE=0.500 DampFc=0.5000 IDamp=-1.
 Damping current iteration by 5.00D-01
 RMSDP=7.63D-03 MaxDP=2.45D-01              OVMax= 3.30D-01

 Cycle   2  Pass 0  IDiag  1:
 E= -446.489632482433     Delta-E=       -0.035806634536 Rises=F Damp=T
 DIIS: error= 2.14D-02 at cycle   2 NSaved=   2.
 NSaved= 2 IEnMin= 2 EnMin= -446.489632482433     IErMin= 2 ErrMin= 2.14D-02
 ErrMax= 2.14D-02  0.00D+00 EMaxC= 1.00D-01 BMatC= 5.38D-02 BMatP= 2.63D-01
 IDIUse=3 WtCom= 7.86D-01 WtEn= 2.14D-01
 Coeff-Com:  0.275D+00 0.725D+00
 Coeff-En:   0.416D+00 0.584D+00
 Coeff:      0.305D+00 0.695D+00
 Gap=     0.193 Goal=   None    Shift=    0.000
 RMSDP=1.96D-03 MaxDP=5.49D-02 DE=-3.58D-02 OVMax= 1.97D-01

 Cycle   3  Pass 0  IDiag  1:
 E= -446.644225490623     Delta-E=       -0.154593008190 Rises=F Damp=F
 DIIS: error= 4.93D-03 at cycle   3 NSaved=   3.
 NSaved= 3 IEnMin= 3 EnMin= -446.644225490623     IErMin= 3 ErrMin= 4.93D-03
 ErrMax= 4.93D-03  0.00D+00 EMaxC= 1.00D-01 BMatC= 3.92D-03 BMatP= 5.38D-02
 IDIUse=3 WtCom= 9.51D-01 WtEn= 4.93D-02
 Coeff-Com:  0.771D-01 0.194D+00 0.729D+00
 Coeff-En:   0.000D+00 0.000D+00 0.100D+01
 Coeff:      0.733D-01 0.185D+00 0.742D+00
 Gap=     0.211 Goal=   None    Shift=    0.000
 RMSDP=8.36D-04 MaxDP=1.75D-02 DE=-1.55D-01 OVMax= 3.71D-02

 Cycle   4  Pass 0  IDiag  1:
 E= -446.644777207155     Delta-E=       -0.000551716532 Rises=F Damp=F
 DIIS: error= 7.95D-03 at cycle   4 NSaved=   4.
 NSaved= 4 IEnMin= 4 EnMin= -446.644777207155     IErMin= 3 ErrMin= 4.93D-03
 ErrMax= 7.95D-03  0.00D+00 EMaxC= 1.00D-01 BMatC= 3.66D-03 BMatP= 3.92D-03
 IDIUse=3 WtCom= 9.20D-01 WtEn= 7.95D-02
 Coeff-Com:  0.370D-01 0.773D-01 0.489D+00 0.396D+00
 Coeff-En:   0.000D+00 0.000D+00 0.459D+00 0.541D+00
 Coeff:      0.340D-01 0.712D-01 0.487D+00 0.408D+00
 Gap=     0.210 Goal=   None    Shift=    0.000
 RMSDP=5.43D-04 MaxDP=1.94D-02 DE=-5.52D-04 OVMax= 3.61D-02

 Cycle   5  Pass 0  IDiag  1:
 E= -446.646907333152     Delta-E=       -0.002130125997 Rises=F Damp=F
 DIIS: error= 5.02D-03 at cycle   5 NSaved=   5.
 NSaved= 5 IEnMin= 5 EnMin= -446.646907333152     IErMin= 3 ErrMin= 4.93D-03
 ErrMax= 5.02D-03  0.00D+00 EMaxC= 1.00D-01 BMatC= 1.13D-03 BMatP= 3.66D-03
 IDIUse=3 WtCom= 9.50D-01 WtEn= 5.02D-02
 Coeff-Com:  0.115D-01 0.103D-01 0.205D+00 0.339D+00 0.434D+00
 Coeff-En:   0.000D+00 0.000D+00 0.000D+00 0.282D+00 0.718D+00
 Coeff:      0.110D-01 0.983D-02 0.194D+00 0.337D+00 0.448D+00
 Gap=     0.208 Goal=   None    Shift=    0.000
 RMSDP=2.39D-04 MaxDP=8.26D-03 DE=-2.13D-03 OVMax= 1.68D-02

 Cycle   6  Pass 0  IDiag  1:
 E= -446.647771540582     Delta-E=       -0.000864207430 Rises=F Damp=F
 DIIS: error= 7.07D-04 at cycle   6 NSaved=   6.
 NSaved= 6 IEnMin= 6 EnMin= -446.647771540582     IErMin= 6 ErrMin= 7.07D-04
 ErrMax= 7.07D-04  0.00D+00 EMaxC= 1.00D-01 BMatC= 6.33D-05 BMatP= 1.13D-03
 IDIUse=3 WtCom= 9.93D-01 WtEn= 7.07D-03
 Coeff-Com:  0.319D-02-0.122D-02 0.781D-01 0.170D+00 0.278D+00 0.472D+00
 Coeff-En:   0.000D+00 0.000D+00 0.000D+00 0.000D+00 0.139D-01 0.986D+00
 Coeff:      0.316D-02-0.121D-02 0.776D-01 0.169D+00 0.276D+00 0.475D+00
 Gap=     0.207 Goal=   None    Shift=    0.000
 RMSDP=6.42D-05 MaxDP=1.49D-03 DE=-8.64D-04 OVMax= 2.64D-03

 Cycle   7  Pass 0  IDiag  1:
 E= -446.647819713440     Delta-E=       -0.000048172857 Rises=F Damp=F
 DIIS: error= 2.61D-04 at cycle   7 NSaved=   7.
 NSaved= 7 IEnMin= 7 EnMin= -446.647819713440     IErMin= 7 ErrMin= 2.61D-04
 ErrMax= 2.61D-04  0.00D+00 EMaxC= 1.00D-01 BMatC= 6.99D-06 BMatP= 6.33D-05
 IDIUse=3 WtCom= 9.97D-01 WtEn= 2.61D-03
 Coeff-Com:  0.917D-03-0.199D-02 0.297D-01 0.770D-01 0.136D+00 0.307D+00
 Coeff-Com:  0.451D+00
 Coeff-En:   0.000D+00 0.000D+00 0.000D+00 0.000D+00 0.000D+00 0.674D-01
 Coeff-En:   0.933D+00
 Coeff:      0.915D-03-0.198D-02 0.297D-01 0.768D-01 0.136D+00 0.306D+00
 Coeff:      0.452D+00
 Gap=     0.207 Goal=   None    Shift=    0.000
 RMSDP=2.02D-05 MaxDP=7.32D-04 DE=-4.82D-05 OVMax= 9.46D-04

 Cycle   8  Pass 0  IDiag  1:
 E= -446.647825427258     Delta-E=       -0.000005713818 Rises=F Damp=F
 DIIS: error= 7.63D-05 at cycle   8 NSaved=   8.
 NSaved= 8 IEnMin= 8 EnMin= -446.647825427258     IErMin= 8 ErrMin= 7.63D-05
 ErrMax= 7.63D-05  0.00D+00 EMaxC= 1.00D-01 BMatC= 4.85D-07 BMatP= 6.99D-06
 IDIUse=1 WtCom= 1.00D+00 WtEn= 0.00D+00
 Coeff-Com:  0.225D-03-0.113D-02 0.102D-01 0.292D-01 0.536D-01 0.133D+00
 Coeff-Com:  0.269D+00 0.506D+00
 Coeff:      0.225D-03-0.113D-02 0.102D-01 0.292D-01 0.536D-01 0.133D+00
 Coeff:      0.269D+00 0.506D+00
 Gap=     0.207 Goal=   None    Shift=    0.000
 RMSDP=5.20D-06 MaxDP=1.47D-04 DE=-5.71D-06 OVMax= 1.98D-04

 Initial convergence to 1.0D-05 achieved.  Increase integral accuracy.
 Cycle   9  Pass 1  IDiag  1:
 E= -446.647801861606     Delta-E=        0.000023565652 Rises=F Damp=F
 DIIS: error= 1.33D-05 at cycle   1 NSaved=   1.
 NSaved= 1 IEnMin= 1 EnMin= -446.647801861606     IErMin= 1 ErrMin= 1.33D-05
 ErrMax= 1.33D-05  0.00D+00 EMaxC= 1.00D-01 BMatC= 5.86D-08 BMatP= 5.86D-08
 IDIUse=1 WtCom= 1.00D+00 WtEn= 0.00D+00
 Coeff-Com:  0.100D+01
 Coeff:      0.100D+01
 Gap=     0.207 Goal=   None    Shift=    0.000
 RMSDP=5.20D-06 MaxDP=1.47D-04 DE= 2.36D-05 OVMax= 1.39D-04

 Cycle  10  Pass 1  IDiag  1:
 E= -446.647801861924     Delta-E=       -0.000000000318 Rises=F Damp=F
 DIIS: error= 2.22D-05 at cycle   2 NSaved=   2.
 NSaved= 2 IEnMin= 2 EnMin= -446.647801861924     IErMin= 1 ErrMin= 1.33D-05
 ErrMax= 2.22D-05  0.00D+00 EMaxC= 1.00D-01 BMatC= 6.69D-08 BMatP= 5.86D-08
 IDIUse=1 WtCom= 1.00D+00 WtEn= 0.00D+00
 Coeff-Com:  0.521D+00 0.479D+00
 Coeff:      0.521D+00 0.479D+00
 Gap=     0.207 Goal=   None    Shift=    0.000
 RMSDP=2.60D-06 MaxDP=8.21D-05 DE=-3.18D-10 OVMax= 1.25D-04

 Cycle  11  Pass 1  IDiag  1:
 E= -446.647801910342     Delta-E=       -0.000000048418 Rises=F Damp=F
 DIIS: error= 1.05D-05 at cycle   3 NSaved=   3.
 NSaved= 3 IEnMin= 3 EnMin= -446.647801910342     IErMin= 3 ErrMin= 1.05D-05
 ErrMax= 1.05D-05  0.00D+00 EMaxC= 1.00D-01 BMatC= 9.12D-09 BMatP= 5.86D-08
 IDIUse=1 WtCom= 1.00D+00 WtEn= 0.00D+00
 Coeff-Com:  0.365D-01 0.266D+00 0.697D+00
 Coeff:      0.365D-01 0.266D+00 0.697D+00
 Gap=     0.207 Goal=   None    Shift=    0.000
 RMSDP=9.04D-07 MaxDP=2.51D-05 DE=-4.84D-08 OVMax= 4.58D-05

 Cycle  12  Pass 1  IDiag  1:
 E= -446.647801916043     Delta-E=       -0.000000005701 Rises=F Damp=F
 DIIS: error= 4.64D-06 at cycle   4 NSaved=   4.
 NSaved= 4 IEnMin= 4 EnMin= -446.647801916043     IErMin= 4 ErrMin= 4.64D-06
 ErrMax= 4.64D-06  0.00D+00 EMaxC= 1.00D-01 BMatC= 2.38D-09 BMatP= 9.12D-09
 IDIUse=1 WtCom= 1.00D+00 WtEn= 0.00D+00
 Coeff-Com: -0.132D-01 0.142D+00 0.470D+00 0.401D+00
 Coeff:     -0.132D-01 0.142D+00 0.470D+00 0.401D+00
 Gap=     0.207 Goal=   None    Shift=    0.000
 RMSDP=3.55D-07 MaxDP=1.15D-05 DE=-5.70D-09 OVMax= 1.81D-05

 Cycle  13  Pass 1  IDiag  1:
 E= -446.647801918111     Delta-E=       -0.000000002068 Rises=F Damp=F
 DIIS: error= 7.20D-07 at cycle   5 NSaved=   5.
 NSaved= 5 IEnMin= 5 EnMin= -446.647801918111     IErMin= 5 ErrMin= 7.20D-07
 ErrMax= 7.20D-07  0.00D+00 EMaxC= 1.00D-01 BMatC= 6.57D-11 BMatP= 2.38D-09
 IDIUse=1 WtCom= 1.00D+00 WtEn= 0.00D+00
 Coeff-Com: -0.932D-02 0.656D-01 0.226D+00 0.221D+00 0.497D+00
 Coeff:     -0.932D-02 0.656D-01 0.226D+00 0.221D+00 0.497D+00
 Gap=     0.207 Goal=   None    Shift=    0.000
 RMSDP=8.02D-08 MaxDP=2.12D-06 DE=-2.07D-09 OVMax= 4.40D-06

 Cycle  14  Pass 1  IDiag  1:
 E= -446.647801918138     Delta-E=       -0.000000000026 Rises=F Damp=F
 DIIS: error= 6.95D-07 at cycle   6 NSaved=   6.
 NSaved= 6 IEnMin= 6 EnMin= -446.647801918138     IErMin= 6 ErrMin= 6.95D-07
 ErrMax= 6.95D-07  0.00D+00 EMaxC= 1.00D-01 BMatC= 2.52D-11 BMatP= 6.57D-11
 IDIUse=1 WtCom= 1.00D+00 WtEn= 0.00D+00
 Coeff-Com: -0.572D-02 0.347D-01 0.123D+00 0.123D+00 0.376D+00 0.349D+00
 Coeff:     -0.572D-02 0.347D-01 0.123D+00 0.123D+00 0.376D+00 0.349D+00
 Gap=     0.207 Goal=   None    Shift=    0.000
 RMSDP=3.58D-08 MaxDP=1.35D-06 DE=-2.63D-11 OVMax= 2.65D-06

 Cycle  15  Pass 1  IDiag  1:
 E= -446.647801918170     Delta-E=       -0.000000000032 Rises=F Damp=F
 DIIS: error= 1.59D-07 at cycle   7 NSaved=   7.
 NSaved= 7 IEnMin= 7 EnMin= -446.647801918170     IErMin= 7 ErrMin= 1.59D-07
 ErrMax= 1.59D-07  0.00D+00 EMaxC= 1.00D-01 BMatC= 1.67D-12 BMatP= 2.52D-11
 IDIUse=1 WtCom= 1.00D+00 WtEn= 0.00D+00
 Coeff-Com: -0.184D-02 0.893D-02 0.334D-01 0.324D-01 0.141D+00 0.225D+00
 Coeff-Com:  0.561D+00
 Coeff:     -0.184D-02 0.893D-02 0.334D-01 0.324D-01 0.141D+00 0.225D+00
 Coeff:      0.561D+00
 Gap=     0.207 Goal=   None    Shift=    0.000
 RMSDP=1.14D-08 MaxDP=3.46D-07 DE=-3.21D-11 OVMax= 5.78D-07

 Cycle  16  Pass 1  IDiag  1:
 E= -446.647801918170     Delta-E=       -0.000000000001 Rises=F Damp=F
 DIIS: error= 4.46D-08 at cycle   8 NSaved=   8.
 NSaved= 8 IEnMin= 8 EnMin= -446.647801918170     IErMin= 8 ErrMin= 4.46D-08
 ErrMax= 4.46D-08  0.00D+00 EMaxC= 1.00D-01 BMatC= 4.14D-13 BMatP= 1.67D-12
 IDIUse=1 WtCom= 1.00D+00 WtEn= 0.00D+00
 Coeff-Com: -0.373D-03 0.831D-03 0.421D-02 0.300D-02 0.400D-01 0.104D+00
 Coeff-Com:  0.393D+00 0.455D+00
 Coeff:     -0.373D-03 0.831D-03 0.421D-02 0.300D-02 0.400D-01 0.104D+00
 Coeff:      0.393D+00 0.455D+00
 Gap=     0.207 Goal=   None    Shift=    0.000
 RMSDP=4.87D-09 MaxDP=1.54D-07 DE=-7.96D-13 OVMax= 2.71D-07

 SCF Done:  E(RB3LYP) =  -446.647801918     A.U. after   16 cycles
            NFock= 16  Conv=0.49D-08     -V/T= 2.0063
 KE= 4.438508551781D+02 PE=-1.777955956804D+03 EE= 5.207625588832D+02
 Leave Link  502 at Fri Aug 20 15:50:33 2021, MaxMem= 24159191040 cpu:        50.0
 (Enter /public/home/users/caep010/software/Gaussian09/g09/l601.exe)
 Copying SCF densities to generalized density rwf, IOpCl= 0 IROHF=0.

 **********************************************************************

            Population analysis using the SCF density.

 **********************************************************************

 Orbital symmetries:
       Occupied  (A) (A) (A) (A) (A) (A) (A) (A) (A) (A) (A) (A)
                 (A) (A) (A) (A) (A) (A) (A) (A) (A) (A) (A) (A)
                 (A) (A) (A) (A) (A)
       Virtual   (A) (A) (A) (A) (A) (A) (A) (A) (A) (A) (A) (A)
                 (A) (A) (A) (A) (A) (A) (A) (A) (A) (A) (A) (A)
                 (A) (A) (A) (A) (A) (A) (A) (A) (A) (A) (A) (A)
                 (A) (A) (A) (A) (A) (A) (A) (A) (A) (A) (A) (A)
                 (A) (A) (A) (A) (A) (A) (A) (A) (A) (A) (A) (A)
                 (A) (A) (A) (A) (A) (A) (A) (A) (A) (A) (A) (A)
                 (A) (A) (A) (A) (A) (A) (A) (A) (A) (A) (A) (A)
                 (A) (A) (A) (A) (A) (A) (A) (A) (A) (A) (A) (A)
                 (A) (A) (A) (A) (A)
 The electronic state is 1-A.
 Alpha  occ. eigenvalues --  -19.18843 -19.18839 -14.58645 -14.45758 -14.43296
 Alpha  occ. eigenvalues --  -14.39790 -10.28689 -10.27442  -1.24543  -1.15730
 Alpha  occ. eigenvalues --   -1.06682  -0.97950  -0.88183  -0.78123  -0.72505
 Alpha  occ. eigenvalues --   -0.65855  -0.60594  -0.55653  -0.55342  -0.54332
 Alpha  occ. eigenvalues --   -0.50954  -0.50375  -0.38107  -0.35522  -0.32466
 Alpha  occ. eigenvalues --   -0.31747  -0.31108  -0.30810  -0.29893
 Alpha virt. eigenvalues --   -0.09229  -0.04446   0.04833   0.08168   0.13625
 Alpha virt. eigenvalues --    0.15149   0.17900   0.21338   0.25539   0.27968
 Alpha virt. eigenvalues --    0.34614   0.38436   0.41880   0.48760   0.49224
 Alpha virt. eigenvalues --    0.53028   0.56471   0.57064   0.57821   0.63556
 Alpha virt. eigenvalues --    0.64127   0.65382   0.70300   0.72507   0.75196
 Alpha virt. eigenvalues --    0.76279   0.76800   0.79729   0.80790   0.83465
 Alpha virt. eigenvalues --    0.88342   0.88533   0.91413   0.94333   0.95277
 Alpha virt. eigenvalues --    0.96463   0.99143   1.03774   1.08073   1.13124
 Alpha virt. eigenvalues --    1.16540   1.20028   1.26092   1.27910   1.28701
 Alpha virt. eigenvalues --    1.32688   1.37552   1.40491   1.42230   1.46575
 Alpha virt. eigenvalues --    1.48364   1.57407   1.65533   1.69462   1.70405
 Alpha virt. eigenvalues --    1.78315   1.80117   1.82606   1.89743   1.90450
 Alpha virt. eigenvalues --    1.93324   1.96451   2.02892   2.04824   2.08572
 Alpha virt. eigenvalues --    2.12592   2.14770   2.17655   2.19748   2.20060
 Alpha virt. eigenvalues --    2.29571   2.34003   2.35341   2.45805   2.46467
 Alpha virt. eigenvalues --    2.49399   2.53348   2.59211   2.64764   2.66292
 Alpha virt. eigenvalues --    2.66696   2.71062   2.81821   2.88475   2.89586
 Alpha virt. eigenvalues --    2.91379   2.92532   3.07586   3.13174   3.19680
 Alpha virt. eigenvalues --    3.45483   3.53089   3.72731   3.76830   3.84962
 Alpha virt. eigenvalues --    3.94025   4.02686   4.07718   4.21313   4.38322
 Alpha virt. eigenvalues --    4.85908
          Condensed to atoms (all electrons):
               1          2          3          4          5          6
     1  N    6.527452   0.294522  -0.057482   0.002196  -0.082075   0.182941
     2  C    0.294522   4.988506   0.427926  -0.071435  -0.098559  -0.093035
     3  C   -0.057482   0.427926   4.968291   0.148794   0.356530  -0.073009
     4  N    0.002196  -0.071435   0.148794   5.991030  -0.051002   0.006076
     5  N   -0.082075  -0.098559   0.356530  -0.051002   6.832797   0.314943
     6  N    0.182941  -0.093035  -0.073009   0.006076   0.314943   6.735541
     7  O   -0.000058   0.006544  -0.083970   0.297663   0.000133   0.000272
     8  O    0.000491   0.007045  -0.100753   0.316861   0.002908  -0.000087
     9  H    0.400795  -0.040554   0.009092  -0.000052   0.006406  -0.024706
    10  H   -0.046909   0.388054  -0.022967  -0.005757   0.006537   0.004257
               7          8          9         10
     1  N   -0.000058   0.000491   0.400795  -0.046909
     2  C    0.006544   0.007045  -0.040554   0.388054
     3  C   -0.083970  -0.100753   0.009092  -0.022967
     4  N    0.297663   0.316861  -0.000052  -0.005757
     5  N    0.000133   0.002908   0.006406   0.006537
     6  N    0.000272  -0.000087  -0.024706   0.004257
     7  O    8.243686  -0.095884   0.000003  -0.000047
     8  O   -0.095884   8.271165   0.000009   0.005664
     9  H    0.000003   0.000009   0.422496  -0.002060
    10  H   -0.000047   0.005664  -0.002060   0.546515
 Mulliken charges:
               1
     1  N   -0.221872
     2  C    0.190988
     3  C    0.427548
     4  N    0.365625
     5  N   -0.288619
     6  N   -0.053192
     7  O   -0.368343
     8  O   -0.407419
     9  H    0.228571
    10  H    0.126713
 Sum of Mulliken charges =   0.00000
 Mulliken charges with hydrogens summed into heavy atoms:
               1
     1  N    0.006699
     2  C    0.317701
     3  C    0.427548
     4  N    0.365625
     5  N   -0.288619
     6  N   -0.053192
     7  O   -0.368343
     8  O   -0.407419
 Electronic spatial extent (au):  <R**2>=            796.8922
 Charge=             -0.0000 electrons
 Dipole moment (field-independent basis, Debye):
    X=             -4.4666    Y=              4.1445    Z=              0.0644  Tot=              6.0936
 Quadrupole moment (field-independent basis, Debye-Ang):
   XX=            -44.3797   YY=            -45.8424   ZZ=            -42.1904
   XY=             -7.4773   XZ=             -0.0252   YZ=              0.1210
 Traceless Quadrupole moment (field-independent basis, Debye-Ang):
   XX=             -0.2421   YY=             -1.7049   ZZ=              1.9471
   XY=             -7.4773   XZ=             -0.0252   YZ=              0.1210
 Octapole moment (field-independent basis, Debye-Ang**2):
  XXX=            -26.6938  YYY=             14.0423  ZZZ=              0.0167  XYY=             -5.4138
  XXY=             16.0932  XXZ=              0.1417  XZZ=              4.6602  YZZ=              0.0175
  YYZ=              0.2554  XYZ=              0.0644
 Hexadecapole moment (field-independent basis, Debye-Ang**3):
 XXXX=           -642.4227 YYYY=           -232.3104 ZZZZ=            -34.8889 XXXY=            -51.3354
 XXXZ=             -0.1100 YYYX=            -18.0338 YYYZ=              0.4643 ZZZX=             -0.0557
 ZZZY=             -0.0092 XXYY=           -158.3968 XXZZ=           -114.4732 YYZZ=            -45.4538
 XXYZ=              0.0962 YYXZ=             -0.2069 ZZXY=             -1.2214
 N-N= 3.666947408241D+02 E-N=-1.777955958210D+03  KE= 4.438508551781D+02
 No NMR shielding tensors so no spin-rotation constants.
 Leave Link  601 at Fri Aug 20 15:50:33 2021, MaxMem= 24159191040 cpu:        10.9
 (Enter /public/home/users/caep010/software/Gaussian09/g09/l701.exe)
 Compute integral first derivatives.
 ... and contract with generalized density number  0.
 Leave Link  701 at Fri Aug 20 15:50:33 2021, MaxMem= 24159191040 cpu:        10.4
 (Enter /public/home/users/caep010/software/Gaussian09/g09/l702.exe)
 L702 exits ... SP integral derivatives will be done elsewhere.
 Leave Link  702 at Fri Aug 20 15:50:33 2021, MaxMem= 24159191040 cpu:         0.5
 (Enter /public/home/users/caep010/software/Gaussian09/g09/l703.exe)
 Compute integral first derivatives, UseDBF=F ICtDFT=           0.
 Integral derivatives from FoFJK, PRISM(SPDF).
 Calling FoFJK, ICntrl=      2127 FMM=F ISym2X=0 I1Cent= 0 IOpClX= 0 NMat=1 NMatS=1 NMatT=0.
 FoFJK:  IHMeth= 1 ICntrl=    2127 DoSepK=F KAlg= 0 I1Cent=   0 FoldK=F
 IRaf=         0 NMat=   1 IRICut=       1 DoRegI=T DoRafI=F ISym2E= 0.
 FoFCou: FMM=F IPFlag=           0 FMFlag=      100000 FMFlg1=         800
         NFxFlg=           0 DoJE=F BraDBF=F KetDBF=F FulRan=T
         wScrn=  0.000000 ICntrl=    2127 IOpCl=  0 I1Cent=           0 NGrid=           0
         NMat0=    1 NMatS0=      1 NMatT0=    0 NMatD0=    1 NMtDS0=    0 NMtDT0=    0
 Symmetry not used in FoFCou.
 Leave Link  703 at Fri Aug 20 15:50:34 2021, MaxMem= 24159191040 cpu:        10.8
 (Enter /public/home/users/caep010/software/Gaussian09/g09/l716.exe)
 Dipole        =-1.75731010D+00 1.63055996D+00 2.53509174D-02
 ***** Axes restored to original set *****
 -------------------------------------------------------------------
 Center     Atomic                   Forces (Hartrees/Bohr)
 Number     Number              X              Y              Z
 -------------------------------------------------------------------
      1        7          -0.065788634    0.168946657   -0.234601649
      2        6           0.059662832   -0.053976908   -0.126329382
      3        6          -0.000954841    0.004155988   -0.007071668
      4        7          -0.002957670    0.006188369   -0.010270857
      5        7           0.008096892   -0.013732342   -0.001422606
      6        7           0.005991862   -0.003105880   -0.015022680
      7        8           0.003889410   -0.001252597   -0.010599855
      8        8          -0.008143941    0.006925399    0.016570367
      9        1           0.076879916   -0.188112129    0.242558293
     10        1          -0.076675826    0.073963443    0.146190037
 -------------------------------------------------------------------
 Cartesian Forces:  Max     0.242558293 RMS     0.090269943
 Leave Link  716 at Fri Aug 20 15:50:34 2021, MaxMem= 24159191040 cpu:         0.8
 (Enter /public/home/users/caep010/software/Gaussian09/g09/l103.exe)

 GradGradGradGradGradGradGradGradGradGradGradGradGradGradGradGradGradGrad
 Berny optimization.
 FormGI is forming the generalized inverse of G from B-inverse, IUseBI=4.
 Internal  Forces:  Max     0.316427362 RMS     0.057428513
 Search for a local minimum.
 Step number   1 out of a maximum of   51
 All quantities printed in internal units (Hartrees-Bohrs-Radians)
 RMS Force = .57429D-01 SwitMx=.10000D-02 MixMth= 1
 Mixed Optimization -- RFO/linear search
 Second derivative matrix not updated -- first step.
 ITU=  0
     Eigenvalues ---    0.01376   0.01376   0.02057   0.02357   0.02539
     Eigenvalues ---    0.02566   0.02646   0.15956   0.16000   0.22695
     Eigenvalues ---    0.24711   0.25000   0.25000   0.25000   0.41878
     Eigenvalues ---    0.47729   0.51269   0.55739   0.58936   0.64428
     Eigenvalues ---    0.64597   0.94028   0.95637   0.98970
 RFO step:  Lambda=-1.34601042D-01 EMin= 1.37562573D-02
 Linear search not attempted -- first point.
 Maximum step size (   0.300) exceeded in Quadratic search.
    -- Step size scaled by   0.805
 Iteration  1 RMS(Cart)=  0.04509776 RMS(Int)=  0.00414468
 Iteration  2 RMS(Cart)=  0.00392783 RMS(Int)=  0.00001490
 Iteration  3 RMS(Cart)=  0.00000076 RMS(Int)=  0.00001489
 ITry= 1 IFail=0 DXMaxC= 1.45D-01 DCOld= 1.00D+10 DXMaxT= 3.00D-01 DXLimC= 3.00D+00 Rises=F
 Variable       Old X    -DE/DX   Delta X   Delta X   Delta X     New X
                                 (Linear)    (Quad)   (Total)
    R1        2.49928   0.02657   0.00000   0.02967   0.02968   2.52895
    R2        2.54188   0.01371   0.00000   0.01582   0.01581   2.55768
    R3        1.55754   0.31643   0.00000   0.22647   0.22647   1.78401
    R4        2.57589   0.01498   0.00000   0.01912   0.01914   2.59503
    R5        1.74178   0.18082   0.00000   0.18640   0.18640   1.92818
    R6        2.69078   0.01439   0.00000   0.02092   0.02092   2.71170
    R7        2.53413   0.01648   0.00000   0.01816   0.01816   2.55229
    R8        2.30439   0.01072   0.00000   0.00791   0.00791   2.31229
    R9        2.31130   0.01839   0.00000   0.01377   0.01377   2.32507
   R10        2.46137  -0.00046   0.00000  -0.00152  -0.00154   2.45983
    A1        1.95298  -0.00007   0.00000   0.00228   0.00228   1.95526
    A2        2.26919  -0.00182   0.00000  -0.00620  -0.00620   2.26299
    A3        2.06101   0.00189   0.00000   0.00392   0.00392   2.06493
    A4        1.79566  -0.00480   0.00000  -0.00677  -0.00674   1.78892
    A5        2.14789   0.00634   0.00000   0.01421   0.01419   2.16208
    A6        2.33814  -0.00150   0.00000  -0.00723  -0.00725   2.33089
    A7        2.22891  -0.00565   0.00000  -0.01213  -0.01215   2.21676
    A8        1.93144  -0.00187   0.00000  -0.00328  -0.00325   1.92819
    A9        2.12283   0.00752   0.00000   0.01541   0.01539   2.13823
   A10        2.06251  -0.00030   0.00000  -0.00061  -0.00062   2.06189
   A11        2.04305  -0.00802   0.00000  -0.01677  -0.01678   2.02627
   A12        2.17760   0.00833   0.00000   0.01743   0.01742   2.19502
   A13        1.87331   0.00673   0.00000   0.01018   0.01016   1.88347
   A14        1.87136   0.00001   0.00000  -0.00240  -0.00244   1.86893
    D1       -0.00347  -0.00000   0.00000   0.00003   0.00002  -0.00344
    D2       -3.09376  -0.00052   0.00000  -0.00308  -0.00312  -3.09688
    D3        3.14104   0.00007   0.00000   0.00054   0.00055   3.14159
    D4        0.05074  -0.00045   0.00000  -0.00257  -0.00259   0.04815
    D5        0.00651  -0.00022   0.00000  -0.00117  -0.00117   0.00534
    D6       -3.13761  -0.00029   0.00000  -0.00164  -0.00165  -3.13926
    D7        3.13711   0.00005   0.00000   0.00016   0.00017   3.13728
    D8       -0.00073   0.00024   0.00000   0.00114   0.00113   0.00040
    D9       -0.06422   0.00099   0.00000   0.00475   0.00474  -0.05948
   D10        3.08112   0.00118   0.00000   0.00573   0.00570   3.08682
   D11        3.13427  -0.00031   0.00000  -0.00177  -0.00177   3.13251
   D12       -0.01564   0.00070   0.00000   0.00372   0.00372  -0.01192
   D13       -0.01144  -0.00055   0.00000  -0.00289  -0.00289  -0.01432
   D14        3.12184   0.00046   0.00000   0.00260   0.00260   3.12444
   D15        0.00469  -0.00036   0.00000  -0.00187  -0.00188   0.00282
   D16       -3.13342  -0.00015   0.00000  -0.00089  -0.00090  -3.13431
   D17       -0.00659   0.00034   0.00000   0.00180   0.00180  -0.00479
         Item               Value     Threshold  Converged?
 Maximum Force            0.316427     0.000450     NO 
 RMS     Force            0.057429     0.000300     NO 
 Maximum Displacement     0.145218     0.001800     NO 
 RMS     Displacement     0.047914     0.001200     NO 
 Predicted change in Energy=-7.079721D-02
 Lowest energy point so far.  Saving SCF results.
 GradGradGradGradGradGradGradGradGradGradGradGradGradGradGradGradGradGrad

 Leave Link  103 at Fri Aug 20 15:50:34 2021, MaxMem= 24159191040 cpu:         2.3
 (Enter /public/home/users/caep010/software/Gaussian09/g09/l202.exe)
                          Input orientation:                          
 ---------------------------------------------------------------------
 Center     Atomic      Atomic             Coordinates (Angstroms)
 Number     Number       Type             X           Y           Z
 ---------------------------------------------------------------------
      1          7           0        2.634674    1.236381    4.536128
      2          6           0        1.875579    2.338441    4.522344
      3          6           0        1.911358    2.707401    3.200093
      4          7           0        1.257527    3.834985    2.599926
      5          7           0        2.665675    1.842176    2.488372
      6          7           0        3.110345    0.932200    3.306052
      7          8           0        1.408327    4.017834    1.399487
      8          8           0        0.584739    4.535598    3.355122
      9          1           0        2.865672    0.672854    5.257459
     10          1           0        1.457003    2.751231    5.356317
 ---------------------------------------------------------------------
                    Distance matrix (angstroms):
                    1          2          3          4          5
     1  N    0.000000
     2  C    1.338264   0.000000
     3  C    2.114728   1.373230   0.000000
     4  N    3.521102   2.513428   1.434971   0.000000
     5  N    2.135709   2.237760   1.350612   2.442665   0.000000
     6  N    1.353468   2.231933   2.144792   3.515353   1.301687
     7  O    4.367943   3.576440   2.283081   1.223613   2.738628
     8  O    4.059783   2.802887   2.264124   1.230375   3.512274
     9  H    0.944055   2.072403   3.046777   4.432570   3.012500
    10  H    2.086717   1.020349   2.204010   2.968502   3.242279
                    6          7          8          9         10
     6  N    0.000000
     7  O    4.006619   0.000000
     8  O    4.400632   2.184236   0.000000
     9  H    1.983712   5.310056   4.872610   0.000000
    10  H    3.200937   4.154895   2.819502   2.512721   0.000000
 Stoichiometry    C2H2N4O2
 Framework group  C1[X(C2H2N4O2)]
 Deg. of freedom    24
 Full point group                 C1      NOp   1
 RotChk:  IX=0 Diff= 4.91D-03
 Largest Abelian subgroup         C1      NOp   1
 Largest concise Abelian subgroup C1      NOp   1
                         Standard orientation:                         
 ---------------------------------------------------------------------
 Center     Atomic      Atomic             Coordinates (Angstroms)
 Number     Number       Type             X           Y           Z
 ---------------------------------------------------------------------
      1          7           0       -2.047682    0.538235    0.000576
      2          6           0       -0.830965    1.095493    0.004462
      3          6           0       -0.002515    0.000309    0.002839
      4          7           0        1.432452    0.002675    0.000586
      5          7           0       -0.726555   -1.139820   -0.002321
      6          7           0       -1.986751   -0.813836   -0.007544
      7          8           0        2.011290   -1.075334    0.009164
      8          8           0        1.971837    1.108432   -0.013104
      9          1           0       -2.898117    0.948114    0.000177
     10          1           0       -0.666271    2.101501    0.048462
 ---------------------------------------------------------------------
 Rotational constants (GHZ):      5.6612489      1.7178551      1.3179903
 Leave Link  202 at Fri Aug 20 15:50:34 2021, MaxMem= 24159191040 cpu:         0.8
 (Enter /public/home/users/caep010/software/Gaussian09/g09/l301.exe)
 Standard basis: 6-31G(d,p) (6D, 7F)
 Ernie: Thresh=  0.10000D-02 Tol=  0.10000D-05 Strict=F.
 There are   130 symmetry adapted cartesian basis functions of A   symmetry.
 There are   130 symmetry adapted basis functions of A   symmetry.
   130 basis functions,   238 primitive gaussians,   130 cartesian basis functions
    29 alpha electrons       29 beta electrons
       nuclear repulsion energy       363.0964994764 Hartrees.
 IExCor=  402 DFT=T Ex+Corr=B3LYP ExCW=0 ScaHFX=  0.200000
 ScaDFX=  0.800000  0.720000  1.000000  0.810000 ScalE2=  1.000000  1.000000
 IRadAn=      0 IRanWt=     -1 IRanGd=            0 ICorTp=0 IEmpDi=  4
 NAtoms=   10 NActive=   10 NUniq=   10 SFac= 1.00D+00 NAtFMM=   60 NAOKFM=F Big=F
 Integral buffers will be    131072 words long.
 Raffenetti 2 integral format.
 Two-electron integral symmetry is turned on.
 Leave Link  301 at Fri Aug 20 15:50:34 2021, MaxMem= 24159191040 cpu:         1.7
 (Enter /public/home/users/caep010/software/Gaussian09/g09/l302.exe)
 NPDir=0 NMtPBC=     1 NCelOv=     1 NCel=       1 NClECP=     1 NCelD=      1
         NCelK=      1 NCelE2=     1 NClLst=     1 CellRange=     0.0.
 One-electron integrals computed using PRISM.
 NBasis=   130 RedAO= T EigKep=  1.20D-03  NBF=   130
 NBsUse=   130 1.00D-06 EigRej= -1.00D+00 NBFU=   130
 Precomputing XC quadrature grid using
 IXCGrd= 4 IRadAn=           0 IRanWt=          -1 IRanGd=           0 AccXCQ= 0.00D+00.
 Generated NRdTot=       0 NPtTot=           0 NUsed=           0 NTot=          32
 NSgBfM=   130   130   130   130   130 MxSgAt=    10 MxSgA2=    10.
 Leave Link  302 at Fri Aug 20 15:50:35 2021, MaxMem= 24159191040 cpu:        10.9
 (Enter /public/home/users/caep010/software/Gaussian09/g09/l303.exe)
 DipDrv:  MaxL=1.
 Leave Link  303 at Fri Aug 20 15:50:35 2021, MaxMem= 24159191040 cpu:         0.6
 (Enter /public/home/users/caep010/software/Gaussian09/g09/l401.exe)
 Initial guess from the checkpoint file:  "/public/home/users/caep010/.cache/gau_scr/Gau-180599.chk"
 B after Tr=     0.000000   -0.000000   -0.000000
         Rot=    1.000000    0.000075   -0.000034   -0.000368 Ang=   0.04 deg.
 Guess basis will be translated and rotated to current coordinates.
 JPrj=2 DoOrth=T DoCkMO=T.
 Generating alternative initial guess.
 ExpMin= 1.61D-01 ExpMax= 5.48D+03 ExpMxC= 8.25D+02 IAcc=1 IRadAn=         1 AccDes= 0.00D+00
 Harris functional with IExCor=  402 and IRadAn=       1 diagonalized for initial guess.
 HarFok:  IExCor=  402 AccDes= 0.00D+00 IRadAn=         1 IDoV= 1 UseB2=F ITyADJ=14
 ICtDFT=  3500011 ScaDFX=  1.000000  1.000000  1.000000  1.000000
 FoFCou: FMM=F IPFlag=           0 FMFlag=      100000 FMFlg1=           0
         NFxFlg=           0 DoJE=T BraDBF=F KetDBF=T FulRan=T
         wScrn=  0.000000 ICntrl=     500 IOpCl=  0 I1Cent=   200000004 NGrid=           0
         NMat0=    1 NMatS0=      1 NMatT0=    0 NMatD0=    1 NMtDS0=    0 NMtDT0=    0
 Petite list used in FoFCou.
 Harris En= -446.694073482684    
 Leave Link  401 at Fri Aug 20 15:50:35 2021, MaxMem= 24159191040 cpu:        12.1
 (Enter /public/home/users/caep010/software/Gaussian09/g09/l502.exe)
 Closed shell SCF:
 Using DIIS extrapolation, IDIIS=  1040.
 Integral symmetry usage will be decided dynamically.
 Keep R1 ints in memory in canonical form, NReq=37455228.
 IVT=       74378 IEndB=       74378 NGot= 24159191040 MDV= 24122859793
 LenX= 24122859793 LenY= 24122842452
 Requested convergence on RMS density matrix=1.00D-08 within 128 cycles.
 Requested convergence on MAX density matrix=1.00D-06.
 Requested convergence on             energy=1.00D-06.
 No special actions if energy rises.
 FoFCou: FMM=F IPFlag=           0 FMFlag=           0 FMFlg1=           0
         NFxFlg=           0 DoJE=F BraDBF=F KetDBF=F FulRan=T
         wScrn=  0.000000 ICntrl=     600 IOpCl=  0 I1Cent=           0 NGrid=           0
         NMat0=    1 NMatS0=   8515 NMatT0=    0 NMatD0=    1 NMtDS0=    0 NMtDT0=    0
 Symmetry not used in FoFCou.
 Integral accuracy reduced to 1.0D-05 until final iterations.

 Cycle   1  Pass 0  IDiag  1:
 E= -446.704983936126    
 DIIS: error= 6.26D-03 at cycle   1 NSaved=   1.
 NSaved= 1 IEnMin= 1 EnMin= -446.704983936126     IErMin= 1 ErrMin= 6.26D-03
 ErrMax= 6.26D-03  0.00D+00 EMaxC= 1.00D-01 BMatC= 5.64D-03 BMatP= 5.64D-03
 IDIUse=3 WtCom= 9.37D-01 WtEn= 6.26D-02
 Coeff-Com:  0.100D+01
 Coeff-En:   0.100D+01
 Coeff:      0.100D+01
 Gap=     1.812 Goal=   None    Shift=    0.000
 GapD=    1.812 DampG=2.000 DampE=1.000 DampFc=2.0000 IDamp=-1.
 RMSDP=9.76D-04 MaxDP=2.28D-02              OVMax= 2.13D-02

 Cycle   2  Pass 0  IDiag  1:
 E= -446.709408058580     Delta-E=       -0.004424122454 Rises=F Damp=F
 DIIS: error= 3.23D-03 at cycle   2 NSaved=   2.
 NSaved= 2 IEnMin= 2 EnMin= -446.709408058580     IErMin= 2 ErrMin= 3.23D-03
 ErrMax= 3.23D-03  0.00D+00 EMaxC= 1.00D-01 BMatC= 1.85D-03 BMatP= 5.64D-03
 IDIUse=3 WtCom= 9.68D-01 WtEn= 3.23D-02
 Coeff-Com:  0.311D+00 0.689D+00
 Coeff-En:   0.000D+00 0.100D+01
 Coeff:      0.301D+00 0.699D+00
 Gap=     0.206 Goal=   None    Shift=    0.000
 RMSDP=6.28D-04 MaxDP=2.01D-02 DE=-4.42D-03 OVMax= 2.98D-02

 Cycle   3  Pass 0  IDiag  1:
 E= -446.709104150511     Delta-E=        0.000303908069 Rises=F Damp=F
 DIIS: error= 3.76D-03 at cycle   3 NSaved=   3.
 NSaved= 3 IEnMin= 2 EnMin= -446.709408058580     IErMin= 2 ErrMin= 3.23D-03
 ErrMax= 3.76D-03  0.00D+00 EMaxC= 1.00D-01 BMatC= 2.21D-03 BMatP= 1.85D-03
 IDIUse=3 WtCom= 1.40D-01 WtEn= 8.60D-01
 Coeff-Com:  0.496D-01 0.512D+00 0.438D+00
 Coeff-En:   0.000D+00 0.532D+00 0.468D+00
 Coeff:      0.696D-02 0.529D+00 0.464D+00
 Gap=     0.207 Goal=   None    Shift=    0.000
 RMSDP=3.69D-04 MaxDP=8.91D-03 DE= 3.04D-04 OVMax= 1.50D-02

 Cycle   4  Pass 0  IDiag  1:
 E= -446.711028430742     Delta-E=       -0.001924280231 Rises=F Damp=F
 DIIS: error= 1.35D-03 at cycle   4 NSaved=   4.
 NSaved= 4 IEnMin= 4 EnMin= -446.711028430742     IErMin= 4 ErrMin= 1.35D-03
 ErrMax= 1.35D-03  0.00D+00 EMaxC= 1.00D-01 BMatC= 1.03D-04 BMatP= 1.85D-03
 IDIUse=3 WtCom= 9.87D-01 WtEn= 1.35D-02
 Coeff-Com:  0.166D-01 0.297D+00 0.272D+00 0.414D+00
 Coeff-En:   0.000D+00 0.000D+00 0.000D+00 0.100D+01
 Coeff:      0.163D-01 0.293D+00 0.268D+00 0.422D+00
 Gap=     0.208 Goal=   None    Shift=    0.000
 RMSDP=9.89D-05 MaxDP=3.53D-03 DE=-1.92D-03 OVMax= 6.82D-03

 Cycle   5  Pass 0  IDiag  1:
 E= -446.711077708079     Delta-E=       -0.000049277337 Rises=F Damp=F
 DIIS: error= 9.98D-04 at cycle   5 NSaved=   5.
 NSaved= 5 IEnMin= 5 EnMin= -446.711077708079     IErMin= 5 ErrMin= 9.98D-04
 ErrMax= 9.98D-04  0.00D+00 EMaxC= 1.00D-01 BMatC= 4.52D-05 BMatP= 1.03D-04
 IDIUse=3 WtCom= 9.90D-01 WtEn= 9.98D-03
 Coeff-Com: -0.705D-03 0.100D+00 0.994D-01 0.364D+00 0.437D+00
 Coeff-En:   0.000D+00 0.000D+00 0.000D+00 0.344D+00 0.656D+00
 Coeff:     -0.698D-03 0.992D-01 0.984D-01 0.364D+00 0.439D+00
 Gap=     0.207 Goal=   None    Shift=    0.000
 RMSDP=4.48D-05 MaxDP=1.67D-03 DE=-4.93D-05 OVMax= 3.57D-03

 Cycle   6  Pass 0  IDiag  1:
 E= -446.711111322503     Delta-E=       -0.000033614424 Rises=F Damp=F
 DIIS: error= 1.46D-04 at cycle   6 NSaved=   6.
 NSaved= 6 IEnMin= 6 EnMin= -446.711111322503     IErMin= 6 ErrMin= 1.46D-04
 ErrMax= 1.46D-04  0.00D+00 EMaxC= 1.00D-01 BMatC= 2.61D-06 BMatP= 4.52D-05
 IDIUse=3 WtCom= 9.99D-01 WtEn= 1.46D-03
 Coeff-Com: -0.187D-02 0.382D-01 0.402D-01 0.195D+00 0.282D+00 0.446D+00
 Coeff-En:   0.000D+00 0.000D+00 0.000D+00 0.000D+00 0.172D-01 0.983D+00
 Coeff:     -0.187D-02 0.381D-01 0.401D-01 0.195D+00 0.282D+00 0.447D+00
 Gap=     0.207 Goal=   None    Shift=    0.000
 RMSDP=1.30D-05 MaxDP=3.63D-04 DE=-3.36D-05 OVMax= 5.79D-04

 Cycle   7  Pass 0  IDiag  1:
 E= -446.711113401227     Delta-E=       -0.000002078724 Rises=F Damp=F
 DIIS: error= 3.72D-05 at cycle   7 NSaved=   7.
 NSaved= 7 IEnMin= 7 EnMin= -446.711113401227     IErMin= 7 ErrMin= 3.72D-05
 ErrMax= 3.72D-05  0.00D+00 EMaxC= 1.00D-01 BMatC= 1.13D-07 BMatP= 2.61D-06
 IDIUse=1 WtCom= 1.00D+00 WtEn= 0.00D+00
 Coeff-Com: -0.865D-03 0.822D-02 0.988D-02 0.587D-01 0.950D-01 0.226D+00
 Coeff-Com:  0.603D+00
 Coeff:     -0.865D-03 0.822D-02 0.988D-02 0.587D-01 0.950D-01 0.226D+00
 Coeff:      0.603D+00
 Gap=     0.207 Goal=   None    Shift=    0.000
 RMSDP=2.83D-06 MaxDP=9.87D-05 DE=-2.08D-06 OVMax= 1.22D-04

 Initial convergence to 1.0D-05 achieved.  Increase integral accuracy.
 Cycle   8  Pass 1  IDiag  1:
 E= -446.711088980562     Delta-E=        0.000024420665 Rises=F Damp=F
 DIIS: error= 1.46D-05 at cycle   1 NSaved=   1.
 NSaved= 1 IEnMin= 1 EnMin= -446.711088980562     IErMin= 1 ErrMin= 1.46D-05
 ErrMax= 1.46D-05  0.00D+00 EMaxC= 1.00D-01 BMatC= 6.39D-08 BMatP= 6.39D-08
 IDIUse=1 WtCom= 1.00D+00 WtEn= 0.00D+00
 Coeff-Com:  0.100D+01
 Coeff:      0.100D+01
 Gap=     0.207 Goal=   None    Shift=    0.000
 RMSDP=2.83D-06 MaxDP=9.87D-05 DE= 2.44D-05 OVMax= 1.86D-04

 Cycle   9  Pass 1  IDiag  1:
 E= -446.711088935370     Delta-E=        0.000000045192 Rises=F Damp=F
 DIIS: error= 3.30D-05 at cycle   2 NSaved=   2.
 NSaved= 2 IEnMin= 1 EnMin= -446.711088980562     IErMin= 1 ErrMin= 1.46D-05
 ErrMax= 3.30D-05  0.00D+00 EMaxC= 1.00D-01 BMatC= 1.21D-07 BMatP= 6.39D-08
 IDIUse=1 WtCom= 1.00D+00 WtEn= 0.00D+00
 Coeff-Com:  0.597D+00 0.403D+00
 Coeff:      0.597D+00 0.403D+00
 Gap=     0.207 Goal=   None    Shift=    0.000
 RMSDP=2.93D-06 MaxDP=1.10D-04 DE= 4.52D-08 OVMax= 1.66D-04

 Cycle  10  Pass 1  IDiag  1:
 E= -446.711089034711     Delta-E=       -0.000000099341 Rises=F Damp=F
 DIIS: error= 1.12D-05 at cycle   3 NSaved=   3.
 NSaved= 3 IEnMin= 3 EnMin= -446.711089034711     IErMin= 3 ErrMin= 1.12D-05
 ErrMax= 1.12D-05  0.00D+00 EMaxC= 1.00D-01 BMatC= 1.16D-08 BMatP= 6.39D-08
 IDIUse=1 WtCom= 1.00D+00 WtEn= 0.00D+00
 Coeff-Com:  0.445D-01 0.233D+00 0.722D+00
 Coeff:      0.445D-01 0.233D+00 0.722D+00
 Gap=     0.207 Goal=   None    Shift=    0.000
 RMSDP=9.25D-07 MaxDP=2.26D-05 DE=-9.93D-08 OVMax= 3.66D-05

 Cycle  11  Pass 1  IDiag  1:
 E= -446.711089042945     Delta-E=       -0.000000008234 Rises=F Damp=F
 DIIS: error= 3.82D-06 at cycle   4 NSaved=   4.
 NSaved= 4 IEnMin= 4 EnMin= -446.711089042945     IErMin= 4 ErrMin= 3.82D-06
 ErrMax= 3.82D-06  0.00D+00 EMaxC= 1.00D-01 BMatC= 2.16D-09 BMatP= 1.16D-08
 IDIUse=1 WtCom= 1.00D+00 WtEn= 0.00D+00
 Coeff-Com: -0.132D-01 0.122D+00 0.459D+00 0.432D+00
 Coeff:     -0.132D-01 0.122D+00 0.459D+00 0.432D+00
 Gap=     0.207 Goal=   None    Shift=    0.000
 RMSDP=4.01D-07 MaxDP=1.30D-05 DE=-8.23D-09 OVMax= 2.38D-05

 Cycle  12  Pass 1  IDiag  1:
 E= -446.711089044542     Delta-E=       -0.000000001596 Rises=F Damp=F
 DIIS: error= 2.70D-06 at cycle   5 NSaved=   5.
 NSaved= 5 IEnMin= 5 EnMin= -446.711089044542     IErMin= 5 ErrMin= 2.70D-06
 ErrMax= 2.70D-06  0.00D+00 EMaxC= 1.00D-01 BMatC= 3.35D-10 BMatP= 2.16D-09
 IDIUse=1 WtCom= 1.00D+00 WtEn= 0.00D+00
 Coeff-Com: -0.125D-01 0.768D-01 0.297D+00 0.320D+00 0.319D+00
 Coeff:     -0.125D-01 0.768D-01 0.297D+00 0.320D+00 0.319D+00
 Gap=     0.207 Goal=   None    Shift=    0.000
 RMSDP=1.27D-07 MaxDP=4.74D-06 DE=-1.60D-09 OVMax= 9.23D-06

 Cycle  13  Pass 1  IDiag  1:
 E= -446.711089044793     Delta-E=       -0.000000000251 Rises=F Damp=F
 DIIS: error= 4.67D-07 at cycle   6 NSaved=   6.
 NSaved= 6 IEnMin= 6 EnMin= -446.711089044793     IErMin= 6 ErrMin= 4.67D-07
 ErrMax= 4.67D-07  0.00D+00 EMaxC= 1.00D-01 BMatC= 1.56D-11 BMatP= 3.35D-10
 IDIUse=1 WtCom= 1.00D+00 WtEn= 0.00D+00
 Coeff-Com: -0.579D-02 0.308D-01 0.119D+00 0.136D+00 0.202D+00 0.519D+00
 Coeff:     -0.579D-02 0.308D-01 0.119D+00 0.136D+00 0.202D+00 0.519D+00
 Gap=     0.207 Goal=   None    Shift=    0.000
 RMSDP=3.43D-08 MaxDP=9.48D-07 DE=-2.51D-10 OVMax= 1.62D-06

 Cycle  14  Pass 1  IDiag  1:
 E= -446.711089044815     Delta-E=       -0.000000000022 Rises=F Damp=F
 DIIS: error= 1.33D-07 at cycle   7 NSaved=   7.
 NSaved= 7 IEnMin= 7 EnMin= -446.711089044815     IErMin= 7 ErrMin= 1.33D-07
 ErrMax= 1.33D-07  0.00D+00 EMaxC= 1.00D-01 BMatC= 2.78D-12 BMatP= 1.56D-11
 IDIUse=1 WtCom= 1.00D+00 WtEn= 0.00D+00
 Coeff-Com: -0.210D-02 0.936D-02 0.352D-01 0.425D-01 0.845D-01 0.341D+00
 Coeff-Com:  0.489D+00
 Coeff:     -0.210D-02 0.936D-02 0.352D-01 0.425D-01 0.845D-01 0.341D+00
 Coeff:      0.489D+00
 Gap=     0.207 Goal=   None    Shift=    0.000
 RMSDP=1.47D-08 MaxDP=2.88D-07 DE=-2.17D-11 OVMax= 6.25D-07

 Cycle  15  Pass 1  IDiag  1:
 E= -446.711089044811     Delta-E=        0.000000000004 Rises=F Damp=F
 DIIS: error= 2.95D-08 at cycle   8 NSaved=   8.
 NSaved= 8 IEnMin= 7 EnMin= -446.711089044815     IErMin= 8 ErrMin= 2.95D-08
 ErrMax= 2.95D-08  0.00D+00 EMaxC= 1.00D-01 BMatC= 1.60D-13 BMatP= 2.78D-12
 IDIUse=1 WtCom= 1.00D+00 WtEn= 0.00D+00
 Coeff-Com: -0.274D-03 0.684D-03 0.179D-02 0.321D-02 0.157D-01 0.105D+00
 Coeff-Com:  0.249D+00 0.625D+00
 Coeff:     -0.274D-03 0.684D-03 0.179D-02 0.321D-02 0.157D-01 0.105D+00
 Coeff:      0.249D+00 0.625D+00
 Gap=     0.207 Goal=   None    Shift=    0.000
 RMSDP=4.28D-09 MaxDP=8.00D-08 DE= 3.98D-12 OVMax= 2.00D-07

 SCF Done:  E(RB3LYP) =  -446.711089045     A.U. after   15 cycles
            NFock= 15  Conv=0.43D-08     -V/T= 2.0080
 KE= 4.431695235376D+02 PE=-1.770556101100D+03 EE= 5.175789890413D+02
 Leave Link  502 at Fri Aug 20 15:50:37 2021, MaxMem= 24159191040 cpu:        42.5
 (Enter /public/home/users/caep010/software/Gaussian09/g09/l701.exe)
 Compute integral first derivatives.
 ... and contract with generalized density number  0.
 Leave Link  701 at Fri Aug 20 15:50:38 2021, MaxMem= 24159191040 cpu:        11.5
 (Enter /public/home/users/caep010/software/Gaussian09/g09/l702.exe)
 L702 exits ... SP integral derivatives will be done elsewhere.
 Leave Link  702 at Fri Aug 20 15:50:38 2021, MaxMem= 24159191040 cpu:         0.5
 (Enter /public/home/users/caep010/software/Gaussian09/g09/l703.exe)
 Compute integral first derivatives, UseDBF=F ICtDFT=           0.
 Integral derivatives from FoFJK, PRISM(SPDF).
 Calling FoFJK, ICntrl=      2127 FMM=F ISym2X=0 I1Cent= 0 IOpClX= 0 NMat=1 NMatS=1 NMatT=0.
 FoFJK:  IHMeth= 1 ICntrl=    2127 DoSepK=F KAlg= 0 I1Cent=   0 FoldK=F
 IRaf=         0 NMat=   1 IRICut=       1 DoRegI=T DoRafI=F ISym2E= 0.
 FoFCou: FMM=F IPFlag=           0 FMFlag=      100000 FMFlg1=         800
         NFxFlg=           0 DoJE=F BraDBF=F KetDBF=F FulRan=T
         wScrn=  0.000000 ICntrl=    2127 IOpCl=  0 I1Cent=           0 NGrid=           0
         NMat0=    1 NMatS0=      1 NMatT0=    0 NMatD0=    1 NMtDS0=    0 NMtDT0=    0
 Symmetry not used in FoFCou.
 Leave Link  703 at Fri Aug 20 15:50:38 2021, MaxMem= 24159191040 cpu:        11.4
 (Enter /public/home/users/caep010/software/Gaussian09/g09/l716.exe)
 Dipole        =-1.78961353D+00 1.66582658D+00 2.30264780D-02
 ***** Axes restored to original set *****
 -------------------------------------------------------------------
 Center     Atomic                   Forces (Hartrees/Bohr)
 Number     Number              X              Y              Z
 -------------------------------------------------------------------
      1        7          -0.013665151    0.036578507   -0.054160640
      2        6           0.016789264   -0.013083653   -0.031203427
      3        6           0.000517033   -0.000093413   -0.002331858
      4        7          -0.000857771    0.002828158   -0.005369502
      5        7           0.003141845   -0.006445766    0.000097586
      6        7           0.001458246    0.000804358   -0.007729208
      7        8           0.000780790   -0.000317645   -0.001729612
      8        8          -0.002956274    0.002703918    0.005787843
      9        1           0.017358990   -0.043457090    0.058183101
     10        1          -0.022566971    0.020482625    0.038455716
 -------------------------------------------------------------------
 Cartesian Forces:  Max     0.058183101 RMS     0.021662612
 Leave Link  716 at Fri Aug 20 15:50:38 2021, MaxMem= 24159191040 cpu:         0.6
 (Enter /public/home/users/caep010/software/Gaussian09/g09/l103.exe)

 GradGradGradGradGradGradGradGradGradGradGradGradGradGradGradGradGradGrad
 Berny optimization.
 Using GEDIIS/GDIIS optimizer.
 FormGI is forming the generalized inverse of G from B-inverse, IUseBI=4.
 Internal  Forces:  Max     0.074645892 RMS     0.014226056
 Search for a local minimum.
 Step number   2 out of a maximum of   51
 All quantities printed in internal units (Hartrees-Bohrs-Radians)
 RMS Force = .14226D-01 SwitMx=.10000D-02 MixMth= 1
 Mixed Optimization -- RFO/linear search
 Update second derivatives using D2CorX and points    1    2
 DE= -6.33D-02 DEPred=-7.08D-02 R= 8.94D-01
 TightC=F SS=  1.41D+00  RLast= 3.00D-01 DXNew= 5.0454D-01 9.0058D-01
 Trust test= 8.94D-01 RLast= 3.00D-01 DXMaxT set to 5.05D-01
 ITU=  1  0
 Use linear search instead of GDIIS.
     Eigenvalues ---    0.01376   0.01376   0.02054   0.02357   0.02537
     Eigenvalues ---    0.02565   0.02646   0.15961   0.15997   0.22703
     Eigenvalues ---    0.24720   0.24992   0.25000   0.25029   0.41862
     Eigenvalues ---    0.47804   0.51276   0.55703   0.58904   0.64428
     Eigenvalues ---    0.66430   0.93958   0.95640   1.04363
 RFO step:  Lambda=-2.20476468D-03 EMin= 1.37562535D-02
 Quartic linear search produced a step of  0.62592.
 Iteration  1 RMS(Cart)=  0.04523126 RMS(Int)=  0.00210559
 Iteration  2 RMS(Cart)=  0.00179150 RMS(Int)=  0.00062777
 Iteration  3 RMS(Cart)=  0.00000540 RMS(Int)=  0.00062775
 Iteration  4 RMS(Cart)=  0.00000001 RMS(Int)=  0.00062775
 ITry= 1 IFail=0 DXMaxC= 1.62D-01 DCOld= 1.00D+10 DXMaxT= 5.05D-01 DXLimC= 3.00D+00 Rises=F
 Variable       Old X    -DE/DX   Delta X   Delta X   Delta X     New X
                                 (Linear)    (Quad)   (Total)
    R1        2.52895   0.00898   0.01858   0.01009   0.02879   2.55775
    R2        2.55768   0.00624   0.00989   0.01031   0.02016   2.57785
    R3        1.78401   0.07465   0.14175  -0.01731   0.12444   1.90845
    R4        2.59503   0.00493   0.01198   0.00732   0.01943   2.61446
    R5        1.92818   0.04898   0.11667   0.02384   0.14051   2.06869
    R6        2.71170   0.00603   0.01309   0.01494   0.02804   2.73974
    R7        2.55229   0.00580   0.01137   0.00625   0.01756   2.56984
    R8        2.31229   0.00175   0.00495  -0.00186   0.00309   2.31538
    R9        2.32507   0.00670   0.00862   0.00319   0.01181   2.33688
   R10        2.45983  -0.00189  -0.00096  -0.00537  -0.00649   2.45334
    A1        1.95526  -0.00066   0.00143   0.00039   0.00192   1.95718
    A2        2.26299  -0.00131  -0.00388  -0.01768  -0.02165   2.24134
    A3        2.06493   0.00197   0.00245   0.01725   0.01960   2.08453
    A4        1.78892  -0.00184  -0.00422  -0.00425  -0.00874   1.78018
    A5        2.16208   0.00315   0.00888   0.02811   0.03623   2.19831
    A6        2.33089  -0.00128  -0.00454  -0.02096  -0.02622   2.30467
    A7        2.21676  -0.00326  -0.00760  -0.01960  -0.02731   2.18945
    A8        1.92819  -0.00002  -0.00204   0.00097  -0.00096   1.92722
    A9        2.13823   0.00328   0.00964   0.01857   0.02811   2.16633
   A10        2.06189   0.00039  -0.00039   0.00270   0.00084   2.06274
   A11        2.02627  -0.00265  -0.01050  -0.01458  -0.02654   1.99973
   A12        2.19502   0.00226   0.01091   0.01213   0.02157   2.21659
   A13        1.88347   0.00197   0.00636   0.00332   0.00946   1.89293
   A14        1.86893   0.00055  -0.00153  -0.00030  -0.00203   1.86689
    D1       -0.00344  -0.00003   0.00002  -0.00081  -0.00082  -0.00426
    D2       -3.09688  -0.00055  -0.00195  -0.05368  -0.05720   3.12911
    D3        3.14159   0.00009   0.00034   0.01260   0.01336  -3.12824
    D4        0.04815  -0.00042  -0.00162  -0.04026  -0.04302   0.00513
    D5        0.00534  -0.00013  -0.00073  -0.01633  -0.01714  -0.01181
    D6       -3.13926  -0.00025  -0.00103  -0.02814  -0.02998   3.11394
    D7        3.13728   0.00006   0.00011   0.00267   0.00325   3.14053
    D8        0.00040   0.00019   0.00071   0.01741   0.01806   0.01846
    D9       -0.05948   0.00083   0.00297   0.06540   0.06738   0.00790
   D10        3.08682   0.00097   0.00357   0.08014   0.08220  -3.11417
   D11        3.13251  -0.00004  -0.00111  -0.02584  -0.02701   3.10550
   D12       -0.01192   0.00034   0.00233   0.06446   0.06659   0.05468
   D13       -0.01432  -0.00020  -0.00181  -0.04227  -0.04388  -0.05820
   D14        3.12444   0.00019   0.00163   0.04803   0.04972  -3.10902
   D15        0.00282  -0.00027  -0.00118  -0.02831  -0.02977  -0.02696
   D16       -3.13431  -0.00013  -0.00056  -0.01424  -0.01502   3.13385
   D17       -0.00479   0.00024   0.00113   0.02652   0.02784   0.02305
         Item               Value     Threshold  Converged?
 Maximum Force            0.074646     0.000450     NO 
 RMS     Force            0.014226     0.000300     NO 
 Maximum Displacement     0.162123     0.001800     NO 
 RMS     Displacement     0.045576     0.001200     NO 
 Predicted change in Energy=-8.603950D-04
 Lowest energy point so far.  Saving SCF results.
 GradGradGradGradGradGradGradGradGradGradGradGradGradGradGradGradGradGrad

 Leave Link  103 at Fri Aug 20 15:50:38 2021, MaxMem= 24159191040 cpu:         1.7
 (Enter /public/home/users/caep010/software/Gaussian09/g09/l202.exe)
                          Input orientation:                          
 ---------------------------------------------------------------------
 Center     Atomic      Atomic             Coordinates (Angstroms)
 Number     Number       Type             X           Y           Z
 ---------------------------------------------------------------------
      1          7           0        2.657618    1.235590    4.527849
      2          6           0        1.878782    2.342403    4.509181
      3          6           0        1.914698    2.696789    3.172311
      4          7           0        1.234193    3.834551    2.585496
      5          7           0        2.664707    1.809066    2.466075
      6          7           0        3.137129    0.923483    3.289491
      7          8           0        1.388883    4.047324    1.388823
      8          8           0        0.631179    4.547432    3.396305
      9          1           0        2.892501    0.646686    5.313935
     10          1           0        1.371212    2.785775    5.371834
 ---------------------------------------------------------------------
                    Distance matrix (angstroms):
                    1          2          3          4          5
     1  N    0.000000
     2  C    1.353502   0.000000
     3  C    2.127090   1.383511   0.000000
     4  N    3.543088   2.518445   1.449808   0.000000
     5  N    2.140055   2.253089   1.359902   2.482583   0.000000
     6  N    1.364137   2.254865   2.157008   3.548393   1.298251
     7  O    4.401025   3.589345   2.298099   1.225246   2.792489
     8  O    4.044149   2.767158   2.263289   1.236623   3.535422
     9  H    1.009906   2.133239   3.121790   4.511857   3.084368
    10  H    2.184085   1.094704   2.267421   2.980333   3.327240
                    6          7          8          9         10
     6  N    0.000000
     7  O    4.053059   0.000000
     8  O    4.407290   2.203226   0.000000
     9  H    2.057871   5.406636   4.899664   0.000000
    10  H    3.304958   4.178061   2.748417   2.625524   0.000000
 Stoichiometry    C2H2N4O2
 Framework group  C1[X(C2H2N4O2)]
 Deg. of freedom    24
 Full point group                 C1      NOp   1
 RotChk:  IX=2 Diff= 2.02D-02
 Largest Abelian subgroup         C1      NOp   1
 Largest concise Abelian subgroup C1      NOp   1
                         Standard orientation:                         
 ---------------------------------------------------------------------
 Center     Atomic      Atomic             Coordinates (Angstroms)
 Number     Number       Type             X           Y           Z
 ---------------------------------------------------------------------
      1          7           0       -2.050781    0.545738    0.009703
      2          6           0       -0.815109    1.097760   -0.009077
      3          6           0       -0.000540   -0.020533   -0.009247
      4          7           0        1.449070   -0.004840   -0.027333
      5          7           0       -0.751279   -1.154417   -0.014789
      6          7           0       -2.004725   -0.817611    0.015023
      7          8           0        2.040001   -1.077377    0.013837
      8          8           0        1.951792    1.124079    0.017900
      9          1           0       -2.946575    1.012051    0.005613
     10          1           0       -0.589881    2.168880   -0.027783
 ---------------------------------------------------------------------
 Rotational constants (GHZ):      5.5500025      1.7012573      1.3023106
 Leave Link  202 at Fri Aug 20 15:50:38 2021, MaxMem= 24159191040 cpu:         0.2
 (Enter /public/home/users/caep010/software/Gaussian09/g09/l301.exe)
 Standard basis: 6-31G(d,p) (6D, 7F)
 Ernie: Thresh=  0.10000D-02 Tol=  0.10000D-05 Strict=F.
 There are   130 symmetry adapted cartesian basis functions of A   symmetry.
 There are   130 symmetry adapted basis functions of A   symmetry.
   130 basis functions,   238 primitive gaussians,   130 cartesian basis functions
    29 alpha electrons       29 beta electrons
       nuclear repulsion energy       360.3446541521 Hartrees.
 IExCor=  402 DFT=T Ex+Corr=B3LYP ExCW=0 ScaHFX=  0.200000
 ScaDFX=  0.800000  0.720000  1.000000  0.810000 ScalE2=  1.000000  1.000000
 IRadAn=      0 IRanWt=     -1 IRanGd=            0 ICorTp=0 IEmpDi=  4
 NAtoms=   10 NActive=   10 NUniq=   10 SFac= 1.00D+00 NAtFMM=   60 NAOKFM=F Big=F
 Integral buffers will be    131072 words long.
 Raffenetti 2 integral format.
 Two-electron integral symmetry is turned on.
 Leave Link  301 at Fri Aug 20 15:50:39 2021, MaxMem= 24159191040 cpu:         1.7
 (Enter /public/home/users/caep010/software/Gaussian09/g09/l302.exe)
 NPDir=0 NMtPBC=     1 NCelOv=     1 NCel=       1 NClECP=     1 NCelD=      1
         NCelK=      1 NCelE2=     1 NClLst=     1 CellRange=     0.0.
 One-electron integrals computed using PRISM.
 NBasis=   130 RedAO= T EigKep=  1.33D-03  NBF=   130
 NBsUse=   130 1.00D-06 EigRej= -1.00D+00 NBFU=   130
 Precomputing XC quadrature grid using
 IXCGrd= 4 IRadAn=           0 IRanWt=          -1 IRanGd=           0 AccXCQ= 0.00D+00.
 Generated NRdTot=       0 NPtTot=           0 NUsed=           0 NTot=          32
 NSgBfM=   130   130   130   130   130 MxSgAt=    10 MxSgA2=    10.
 Leave Link  302 at Fri Aug 20 15:50:39 2021, MaxMem= 24159191040 cpu:        10.6
 (Enter /public/home/users/caep010/software/Gaussian09/g09/l303.exe)
 DipDrv:  MaxL=1.
 Leave Link  303 at Fri Aug 20 15:50:39 2021, MaxMem= 24159191040 cpu:         0.6
 (Enter /public/home/users/caep010/software/Gaussian09/g09/l401.exe)
 Initial guess from the checkpoint file:  "/public/home/users/caep010/.cache/gau_scr/Gau-180599.chk"
 B after Tr=    -0.000000    0.000000    0.000000
         Rot=    1.000000    0.000065   -0.000013    0.000414 Ang=   0.05 deg.
 Guess basis will be translated and rotated to current coordinates.
 JPrj=2 DoOrth=T DoCkMO=T.
 Generating alternative initial guess.
 ExpMin= 1.61D-01 ExpMax= 5.48D+03 ExpMxC= 8.25D+02 IAcc=1 IRadAn=         1 AccDes= 0.00D+00
 Harris functional with IExCor=  402 and IRadAn=       1 diagonalized for initial guess.
 HarFok:  IExCor=  402 AccDes= 0.00D+00 IRadAn=         1 IDoV= 1 UseB2=F ITyADJ=14
 ICtDFT=  3500011 ScaDFX=  1.000000  1.000000  1.000000  1.000000
 FoFCou: FMM=F IPFlag=           0 FMFlag=      100000 FMFlg1=           0
         NFxFlg=           0 DoJE=T BraDBF=F KetDBF=T FulRan=T
         wScrn=  0.000000 ICntrl=     500 IOpCl=  0 I1Cent=   200000004 NGrid=           0
         NMat0=    1 NMatS0=      1 NMatT0=    0 NMatD0=    1 NMtDS0=    0 NMtDT0=    0
 Petite list used in FoFCou.
 Harris En= -446.696253919765    
 Leave Link  401 at Fri Aug 20 15:50:39 2021, MaxMem= 24159191040 cpu:        12.1
 (Enter /public/home/users/caep010/software/Gaussian09/g09/l502.exe)
 Closed shell SCF:
 Using DIIS extrapolation, IDIIS=  1040.
 Integral symmetry usage will be decided dynamically.
 Keep R1 ints in memory in canonical form, NReq=37455228.
 IVT=       74378 IEndB=       74378 NGot= 24159191040 MDV= 24122859793
 LenX= 24122859793 LenY= 24122842452
 Requested convergence on RMS density matrix=1.00D-08 within 128 cycles.
 Requested convergence on MAX density matrix=1.00D-06.
 Requested convergence on             energy=1.00D-06.
 No special actions if energy rises.
 FoFCou: FMM=F IPFlag=           0 FMFlag=           0 FMFlg1=           0
         NFxFlg=           0 DoJE=F BraDBF=F KetDBF=F FulRan=T
         wScrn=  0.000000 ICntrl=     600 IOpCl=  0 I1Cent=           0 NGrid=           0
         NMat0=    1 NMatS0=   8515 NMatT0=    0 NMatD0=    1 NMtDS0=    0 NMtDT0=    0
 Symmetry not used in FoFCou.
 Integral accuracy reduced to 1.0D-05 until final iterations.

 Cycle   1  Pass 0  IDiag  1:
 E= -446.710782728330    
 DIIS: error= 3.69D-03 at cycle   1 NSaved=   1.
 NSaved= 1 IEnMin= 1 EnMin= -446.710782728330     IErMin= 1 ErrMin= 3.69D-03
 ErrMax= 3.69D-03  0.00D+00 EMaxC= 1.00D-01 BMatC= 4.21D-03 BMatP= 4.21D-03
 IDIUse=3 WtCom= 9.63D-01 WtEn= 3.69D-02
 Coeff-Com:  0.100D+01
 Coeff-En:   0.100D+01
 Coeff:      0.100D+01
 Gap=     1.817 Goal=   None    Shift=    0.000
 GapD=    1.817 DampG=2.000 DampE=1.000 DampFc=2.0000 IDamp=-1.
 RMSDP=1.08D-03 MaxDP=1.88D-02              OVMax= 2.02D-02

 Cycle   2  Pass 0  IDiag  1:
 E= -446.716584429283     Delta-E=       -0.005801700953 Rises=F Damp=F
 DIIS: error= 2.29D-03 at cycle   2 NSaved=   2.
 NSaved= 2 IEnMin= 2 EnMin= -446.716584429283     IErMin= 2 ErrMin= 2.29D-03
 ErrMax= 2.29D-03  0.00D+00 EMaxC= 1.00D-01 BMatC= 8.71D-04 BMatP= 4.21D-03
 IDIUse=3 WtCom= 9.77D-01 WtEn= 2.29D-02
 Coeff-Com:  0.209D+00 0.791D+00
 Coeff-En:   0.000D+00 0.100D+01
 Coeff:      0.204D+00 0.796D+00
 Gap=     0.206 Goal=   None    Shift=    0.000
 RMSDP=5.09D-04 MaxDP=1.27D-02 DE=-5.80D-03 OVMax= 2.68D-02

 Cycle   3  Pass 0  IDiag  1:
 E= -446.715854732495     Delta-E=        0.000729696788 Rises=F Damp=F
 DIIS: error= 3.33D-03 at cycle   3 NSaved=   3.
 NSaved= 3 IEnMin= 2 EnMin= -446.716584429283     IErMin= 2 ErrMin= 2.29D-03
 ErrMax= 3.33D-03  0.00D+00 EMaxC= 1.00D-01 BMatC= 1.71D-03 BMatP= 8.71D-04
 IDIUse=3 WtCom= 1.48D-01 WtEn= 8.52D-01
 Coeff-Com: -0.113D-01 0.591D+00 0.420D+00
 Coeff-En:   0.000D+00 0.621D+00 0.379D+00
 Coeff:     -0.167D-02 0.617D+00 0.385D+00
 Gap=     0.208 Goal=   None    Shift=    0.000
 RMSDP=2.93D-04 MaxDP=6.15D-03 DE= 7.30D-04 OVMax= 1.43D-02

 Cycle   4  Pass 0  IDiag  1:
 E= -446.717397821283     Delta-E=       -0.001543088787 Rises=F Damp=F
 DIIS: error= 8.54D-04 at cycle   4 NSaved=   4.
 NSaved= 4 IEnMin= 4 EnMin= -446.717397821283     IErMin= 4 ErrMin= 8.54D-04
 ErrMax= 8.54D-04  0.00D+00 EMaxC= 1.00D-01 BMatC= 4.59D-05 BMatP= 8.71D-04
 IDIUse=3 WtCom= 9.91D-01 WtEn= 8.54D-03
 Coeff-Com: -0.150D-01 0.310D+00 0.197D+00 0.508D+00
 Coeff-En:   0.000D+00 0.000D+00 0.000D+00 0.100D+01
 Coeff:     -0.149D-01 0.307D+00 0.195D+00 0.512D+00
 Gap=     0.208 Goal=   None    Shift=    0.000
 RMSDP=7.62D-05 MaxDP=2.81D-03 DE=-1.54D-03 OVMax= 5.19D-03

 Cycle   5  Pass 0  IDiag  1:
 E= -446.717408719020     Delta-E=       -0.000010897738 Rises=F Damp=F
 DIIS: error= 9.06D-04 at cycle   5 NSaved=   5.
 NSaved= 5 IEnMin= 5 EnMin= -446.717408719020     IErMin= 4 ErrMin= 8.54D-04
 ErrMax= 9.06D-04  0.00D+00 EMaxC= 1.00D-01 BMatC= 3.76D-05 BMatP= 4.59D-05
 IDIUse=3 WtCom= 9.91D-01 WtEn= 9.06D-03
 Coeff-Com: -0.953D-02 0.105D+00 0.547D-01 0.448D+00 0.401D+00
 Coeff-En:   0.000D+00 0.000D+00 0.000D+00 0.440D+00 0.560D+00
 Coeff:     -0.944D-02 0.105D+00 0.542D-01 0.448D+00 0.403D+00
 Gap=     0.208 Goal=   None    Shift=    0.000
 RMSDP=3.92D-05 MaxDP=1.50D-03 DE=-1.09D-05 OVMax= 2.95D-03

 Cycle   6  Pass 0  IDiag  1:
 E= -446.717437694156     Delta-E=       -0.000028975135 Rises=F Damp=F
 DIIS: error= 8.33D-05 at cycle   6 NSaved=   6.
 NSaved= 6 IEnMin= 6 EnMin= -446.717437694156     IErMin= 6 ErrMin= 8.33D-05
 ErrMax= 8.33D-05  0.00D+00 EMaxC= 1.00D-01 BMatC= 1.11D-06 BMatP= 3.76D-05
 IDIUse=1 WtCom= 1.00D+00 WtEn= 0.00D+00
 Coeff-Com: -0.402D-02 0.312D-01 0.140D-01 0.206D+00 0.227D+00 0.525D+00
 Coeff:     -0.402D-02 0.312D-01 0.140D-01 0.206D+00 0.227D+00 0.525D+00
 Gap=     0.208 Goal=   None    Shift=    0.000
 RMSDP=1.01D-05 MaxDP=2.27D-04 DE=-2.90D-05 OVMax= 4.27D-04

 Cycle   7  Pass 0  IDiag  1:
 E= -446.717438682364     Delta-E=       -0.000000988208 Rises=F Damp=F
 DIIS: error= 2.18D-05 at cycle   7 NSaved=   7.
 NSaved= 7 IEnMin= 7 EnMin= -446.717438682364     IErMin= 7 ErrMin= 2.18D-05
 ErrMax= 2.18D-05  0.00D+00 EMaxC= 1.00D-01 BMatC= 8.41D-08 BMatP= 1.11D-06
 IDIUse=1 WtCom= 1.00D+00 WtEn= 0.00D+00
 Coeff-Com: -0.716D-03 0.509D-03-0.507D-03 0.433D-01 0.577D-01 0.251D+00
 Coeff-Com:  0.649D+00
 Coeff:     -0.716D-03 0.509D-03-0.507D-03 0.433D-01 0.577D-01 0.251D+00
 Coeff:      0.649D+00
 Gap=     0.208 Goal=   None    Shift=    0.000
 RMSDP=2.90D-06 MaxDP=6.90D-05 DE=-9.88D-07 OVMax= 1.25D-04

 Initial convergence to 1.0D-05 achieved.  Increase integral accuracy.
 Cycle   8  Pass 1  IDiag  1:
[...]
     18 -0.114546D-01  0.429033D-02 -0.761250D-01  0.139378D+00 -0.186680D+00
     19  0.200964D-01  0.368458D-01  0.328017D-03  0.214135D-02 -0.701963D-03
     20 -0.130839D+00  0.957223D-01  0.224034D-03  0.917971D-03  0.131295D-02
     21  0.853887D-01 -0.555600D+00  0.547525D-02 -0.763359D-02  0.681561D-03
     22  0.155846D+00  0.140244D+00  0.408966D-02  0.240178D-02 -0.433073D-02
     23 -0.260591D+00 -0.143778D+00  0.984614D-03  0.112887D-02  0.738279D-02
     24 -0.130151D+00 -0.266642D+00  0.278894D-03  0.714205D-03  0.120789D-02
     25  0.884569D-03 -0.104577D-03  0.508600D-02  0.271411D-02  0.709760D-02
     26  0.716246D-03  0.921891D-03  0.357481D-02  0.494562D-02 -0.541256D-02
     27  0.155776D-02 -0.282232D-04  0.434172D-02 -0.140900D-02 -0.735542D-02
     28 -0.152496D-02  0.221253D-04  0.390300D-02  0.249631D-02 -0.161022D-02
     29  0.973069D-03 -0.638329D-04  0.119238D-02  0.191304D-02  0.529928D-02
     30 -0.166871D-02 -0.165071D-02  0.263115D-02 -0.852068D-03 -0.429880D-02
               16            17            18            19            20 
     16  0.272081D+00
     17 -0.226360D+00  0.462734D+00
     18 -0.108657D-01 -0.684499D-01  0.386172D+00
     19  0.321615D-03 -0.934876D-03 -0.679703D-03  0.657633D-01
     20 -0.498102D-03 -0.426733D-03  0.219359D-02 -0.322864D-01  0.104857D+00
     21 -0.208793D-02  0.422938D-02 -0.437748D-02 -0.732557D-01 -0.977104D-01
     22 -0.338119D-02  0.155301D-02 -0.196700D-02  0.145572D-01  0.496771D-02
     23  0.155032D-02 -0.541664D-02  0.140701D-02 -0.464505D-03  0.331141D-01
     24 -0.197176D-02  0.141211D-02  0.194390D-02  0.545392D-01 -0.463885D-01
     25 -0.818993D-03 -0.172044D-01  0.386371D-02 -0.587676D-03 -0.144318D-03
     26 -0.116144D-01  0.669223D-02 -0.546567D-02 -0.287238D-03 -0.443652D-03
     27 -0.141825D-01  0.207619D-01 -0.124459D-01 -0.182474D-04 -0.440526D-03
     28  0.357977D-02  0.512304D-02 -0.216068D-03 -0.953821D-04  0.152609D-03
     29  0.560551D-02 -0.190707D-02  0.279144D-02  0.306815D-03 -0.275828D-03
     30 -0.176105D-02  0.505043D-02 -0.104501D-02 -0.336267D-03  0.327327D-03
               21            22            23            24            25 
     21  0.684584D+00
     22  0.370431D-01  0.212405D+00
     23 -0.210317D-01 -0.207605D+00  0.271702D+00
     24 -0.791830D-01 -0.191712D+00  0.183753D+00  0.330811D+00
     25 -0.476917D-03 -0.130459D-03 -0.187121D-03 -0.469544D-04  0.549523D-01
     26  0.222858D-03 -0.261511D-03  0.123550D-03 -0.485428D-04 -0.791957D-01
     27  0.717575D-03  0.197613D-03 -0.402322D-03  0.104139D-03  0.697883D-01
     28  0.165123D-03 -0.828207D-03  0.597983D-03 -0.287253D-03 -0.985065D-03
     29 -0.394801D-03  0.702368D-03 -0.142668D-02 -0.220209D-03 -0.861352D-03
     30  0.558967D-03 -0.630456D-03  0.275556D-03  0.158845D-02  0.116409D-03
               26            27            28            29            30 
     26  0.189425D+00
     27 -0.191181D+00  0.305307D+00
     28 -0.694876D-03 -0.419042D-03  0.984287D-01
     29 -0.359524D-03  0.172646D-03 -0.725418D-01  0.939154D-01
     30 -0.597541D-03 -0.158432D-03 -0.124974D+00  0.106992D+00  0.262166D+00
 FormGI is forming the generalized inverse of G from B-inverse, IUseBI=4.
 Leave Link  716 at Fri Aug 20 15:51:21 2021, MaxMem= 24159191040 cpu:         1.1
 (Enter /public/home/users/caep010/software/Gaussian09/g09/l103.exe)

 GradGradGradGradGradGradGradGradGradGradGradGradGradGradGradGradGradGrad
 Berny optimization.
 Red2BG is reusing G-inverse.
 Internal  Forces:  Max     0.000140670 RMS     0.000036773
 Search for a local minimum.
 Step number   1 out of a maximum of    2
 All quantities printed in internal units (Hartrees-Bohrs-Radians)
 Second derivative matrix not updated -- analytic derivatives used.
 ITU=  0
     Eigenvalues ---    0.00425   0.00936   0.01352   0.01909   0.05827
     Eigenvalues ---    0.06608   0.09238   0.11038   0.11608   0.17203
     Eigenvalues ---    0.19674   0.24610   0.25263   0.28346   0.32797
     Eigenvalues ---    0.38342   0.39772   0.42281   0.43166   0.47265
     Eigenvalues ---    0.53611   0.58853   0.62268   0.78465
 Angle between quadratic step and forces=  72.89 degrees.
 Linear search not attempted -- first point.
 Iteration  1 RMS(Cart)=  0.00039646 RMS(Int)=  0.00000019
 Iteration  2 RMS(Cart)=  0.00000015 RMS(Int)=  0.00000013
 ITry= 1 IFail=0 DXMaxC= 1.11D-03 DCOld= 1.00D+10 DXMaxT= 3.00D-01 DXLimC= 3.00D+00 Rises=F
 Variable       Old X    -DE/DX   Delta X   Delta X   Delta X     New X
                                 (Linear)    (Quad)   (Total)
    R1        2.54459  -0.00004   0.00000  -0.00009  -0.00009   2.54451
    R2        2.57488  -0.00002   0.00000   0.00001   0.00001   2.57488
    R3        1.91049  -0.00001   0.00000  -0.00002  -0.00002   1.91048
    R4        2.60404  -0.00014   0.00000  -0.00024  -0.00024   2.60381
    R5        2.03545  -0.00003   0.00000  -0.00007  -0.00007   2.03538
    R6        2.72891  -0.00006   0.00000  -0.00015  -0.00015   2.72876
    R7        2.56277  -0.00004   0.00000  -0.00009  -0.00009   2.56268
    R8        2.31209  -0.00004   0.00000  -0.00004  -0.00004   2.31206
    R9        2.33390   0.00001   0.00000   0.00002   0.00002   2.33391
   R10        2.45239  -0.00006   0.00000  -0.00010  -0.00010   2.45229
    A1        1.95259   0.00005   0.00000   0.00008   0.00008   1.95267
    A2        2.24950  -0.00001   0.00000   0.00000   0.00000   2.24951
    A3        2.08109  -0.00003   0.00000  -0.00008  -0.00008   2.08101
    A4        1.78625  -0.00002   0.00000  -0.00002  -0.00002   1.78623
    A5        2.18498   0.00002   0.00000   0.00008   0.00008   2.18506
    A6        2.31196  -0.00000   0.00000  -0.00005  -0.00005   2.31190
    A7        2.20154  -0.00001   0.00000  -0.00003  -0.00003   2.20150
    A8        1.92780   0.00001   0.00000   0.00001   0.00001   1.92780
    A9        2.15385   0.00001   0.00000   0.00002   0.00002   2.15388
   A10        2.06434  -0.00006   0.00000  -0.00016  -0.00017   2.06417
   A11        2.01665   0.00001   0.00000   0.00005   0.00005   2.01670
   A12        2.20219   0.00005   0.00000   0.00012   0.00012   2.20231
   A13        1.88885   0.00005   0.00000   0.00010   0.00010   1.88896
   A14        1.86929  -0.00008   0.00000  -0.00017  -0.00017   1.86912
    D1       -0.00064   0.00002   0.00000   0.00064   0.00064   0.00000
    D2       -3.14129   0.00000   0.00000  -0.00030  -0.00030   3.14159
    D3       -3.14053  -0.00000   0.00000  -0.00106  -0.00106  -3.14159
    D4        0.00201  -0.00002   0.00000  -0.00200  -0.00200   0.00000
    D5        0.00053  -0.00002   0.00000  -0.00053  -0.00053  -0.00000
    D6        3.14060   0.00000   0.00000   0.00099   0.00099   3.14159
    D7       -3.14139  -0.00001   0.00000  -0.00020  -0.00020  -3.14159
    D8        0.00053  -0.00002   0.00000  -0.00053  -0.00053  -0.00000
    D9       -0.00084   0.00001   0.00000   0.00084   0.00084   0.00000
   D10        3.14108   0.00000   0.00000   0.00051   0.00051  -3.14159
   D11        3.14083   0.00002   0.00000   0.00077   0.00077  -3.14159
   D12       -0.00035  -0.00002   0.00000   0.00036   0.00036   0.00001
   D13       -0.00113   0.00003   0.00000   0.00114   0.00114   0.00001
   D14        3.14087  -0.00001   0.00000   0.00073   0.00073  -3.14159
   D15       -0.00025   0.00001   0.00000   0.00025   0.00025   0.00000
   D16       -3.14152   0.00000   0.00000  -0.00007  -0.00007   3.14159
   D17       -0.00016   0.00000   0.00000   0.00016   0.00016  -0.00000
         Item               Value     Threshold  Converged?
 Maximum Force            0.000141     0.000450     YES
 RMS     Force            0.000037     0.000300     YES
 Maximum Displacement     0.001109     0.001800     YES
 RMS     Displacement     0.000396     0.001200     YES
 Predicted change in Energy=-1.152316D-07
 Optimization completed.
    -- Stationary point found.
                           ----------------------------
                           !   Optimized Parameters   !
                           ! (Angstroms and Degrees)  !
 --------------------------                            --------------------------
 ! Name  Definition              Value          Derivative Info.                !
 --------------------------------------------------------------------------------
 ! R1    R(1,2)                  1.3465         -DE/DX =    0.0                 !
 ! R2    R(1,6)                  1.3626         -DE/DX =    0.0                 !
 ! R3    R(1,9)                  1.011          -DE/DX =    0.0                 !
 ! R4    R(2,3)                  1.378          -DE/DX =   -0.0001              !
 ! R5    R(2,10)                 1.0771         -DE/DX =    0.0                 !
 ! R6    R(3,4)                  1.4441         -DE/DX =   -0.0001              !
 ! R7    R(3,5)                  1.3562         -DE/DX =    0.0                 !
 ! R8    R(4,7)                  1.2235         -DE/DX =    0.0                 !
 ! R9    R(4,8)                  1.235          -DE/DX =    0.0                 !
 ! R10   R(5,6)                  1.2977         -DE/DX =   -0.0001              !
 ! A1    A(2,1,6)              111.875          -DE/DX =    0.0                 !
 ! A2    A(2,1,9)              128.8871         -DE/DX =    0.0                 !
 ! A3    A(6,1,9)              119.2379         -DE/DX =    0.0                 !
 ! A4    A(1,2,3)              102.3445         -DE/DX =    0.0                 !
 ! A5    A(1,2,10)             125.1901         -DE/DX =    0.0                 !
 ! A6    A(3,2,10)             132.4654         -DE/DX =    0.0                 !
 ! A7    A(2,3,4)              126.1387         -DE/DX =    0.0                 !
 ! A8    A(2,3,5)              110.4546         -DE/DX =    0.0                 !
 ! A9    A(4,3,5)              123.4067         -DE/DX =    0.0                 !
 ! A10   A(3,4,7)              118.2778         -DE/DX =   -0.0001              !
 ! A11   A(3,4,8)              115.5458         -DE/DX =    0.0                 !
 ! A12   A(7,4,8)              126.1764         -DE/DX =    0.0                 !
 ! A13   A(3,5,6)              108.2232         -DE/DX =    0.0                 !
 ! A14   A(1,6,5)              107.1027         -DE/DX =   -0.0001              !
 ! D1    D(6,1,2,3)             -0.0366         -DE/DX =    0.0                 !
 ! D2    D(6,1,2,10)           180.0173         -DE/DX =    0.0                 !
 ! D3    D(9,1,2,3)           -179.939          -DE/DX =    0.0                 !
 ! D4    D(9,1,2,10)             0.1149         -DE/DX =    0.0                 !
 ! D5    D(2,1,6,5)              0.0301         -DE/DX =    0.0                 !
 ! D6    D(9,1,6,5)            179.943          -DE/DX =    0.0                 !
 ! D7    D(1,2,3,4)           -179.9883         -DE/DX =    0.0                 !
 ! D8    D(1,2,3,5)              0.0306         -DE/DX =    0.0                 !
 ! D9    D(10,2,3,4)            -0.048          -DE/DX =    0.0                 !
 ! D10   D(10,2,3,5)          -180.0291         -DE/DX =    0.0                 !
 ! D11   D(2,3,4,7)           -180.0437         -DE/DX =    0.0                 !
 ! D12   D(2,3,4,8)             -0.0203         -DE/DX =    0.0                 !
 ! D13   D(5,3,4,7)             -0.0648         -DE/DX =    0.0                 !
 ! D14   D(5,3,4,8)           -180.0415         -DE/DX =    0.0                 !
 ! D15   D(2,3,5,6)             -0.0141         -DE/DX =    0.0                 !
 ! D16   D(4,3,5,6)            180.0042         -DE/DX =    0.0                 !
 ! D17   D(3,5,6,1)             -0.009          -DE/DX =    0.0                 !
 --------------------------------------------------------------------------------
 GradGradGradGradGradGradGradGradGradGradGradGradGradGradGradGradGradGrad

 Leave Link  103 at Fri Aug 20 15:51:21 2021, MaxMem= 24159191040 cpu:         1.5
 (Enter /public/home/users/caep010/software/Gaussian09/g09/l9999.exe)
 1\1\GINC-B1164\Freq\RB3LYP\6-31G(d,p)\C2H2N4O2\ROOT\20-Aug-2021\0\\#P 
 Geom=AllCheck Guess=TCheck SCRF=Check GenChk RB3LYP/6-31G(d,p) Freq\\R
 AMVUW\\0,1\N,2.6456881285,1.2327228378,4.5279172236\C,1.8828364918,2.3
 422103868,4.5116226882\C,1.9170023256,2.703725195,3.1823273861\N,1.255
 6471051,3.8439830987,2.5925965795\N,2.6719936713,1.8288955469,2.472518
 5397\N,3.1215065115,0.9255439305,3.288632962\O,1.3842869916,4.03085793
 71,1.3903075618\O,0.6045371831,4.5448377199,3.3737454714\H,2.887035578
 ,0.6398654508,5.3104590029\H,1.4003660135,2.7764578966,5.3711725849\\V
 ersion=ES64L-G09RevE.01\State=1-A\HF=-446.7184542\RMSD=2.639e-09\RMSF=
 4.596e-05\ZeroPoint=0.0617866\Thermal=0.0677189\Dipole=0.1961662,-0.97
 81873,2.2443049\DipoleDeriv=-0.1528906,0.0555953,-0.1300099,0.028121,-
 0.2588416,0.2454869,-0.0425048,0.1196921,-0.3325306,0.0546709,-0.09520
 12,0.1667095,-0.0671062,0.2119454,-0.2927084,0.0748661,-0.160589,0.193
 8793,0.0112548,0.1483626,-0.0668541,0.141631,-0.1528649,0.1517223,-0.0
 452377,0.1202674,-0.0779035,0.7464714,-0.603362,-0.0508348,-0.5854732,
 1.2568896,-0.2920438,-0.1087718,-0.2081572,1.4976145,-0.0363298,-0.131
 2569,-0.0241924,-0.1402127,0.0412718,0.0977182,0.0054379,0.0546929,-0.
 3349063,-0.2243874,0.1145246,-0.0814322,0.1352939,-0.3551012,-0.011643
 3,-0.1479163,0.0851484,0.2577577,-0.3269937,0.1370311,-0.0158919,0.110
 9269,-0.471085,0.2410172,0.0680348,0.1192158,-0.9382021,-0.5231324,0.3
 084157,0.1571191,0.3160295,-0.6987857,-0.1133179,0.1332255,-0.0784979,
 -0.6449161,0.2932793,0.0390019,0.0379843,0.0350773,0.2870753,-0.031166
 ,0.0511659,-0.050882,0.2529149,0.1580576,0.026889,0.0074022,0.0257127,
 0.1394963,0.0049348,0.0117005,-0.0008906,0.1262921\Polar=35.6974803,-1
 9.4708252,52.4470885,-2.6893502,-8.2742315,61.0136081\PG=C01 [X(C2H2N4
 O2)]\NImag=0\\0.30419507,-0.31451633,0.63108333,0.04169874,-0.25555440
 ,0.72618125,-0.15409591,0.14184870,-0.00303341,0.34848888,0.13697049,-
 0.26338564,0.02636389,-0.26821307,0.49546090,0.01261801,0.00373600,-0.
 12789527,-0.18617409,0.05462141,0.82050453,-0.00149166,0.01603126,-0.0
 0058337,-0.07663044,0.01289970,0.00763901,0.31078404,0.03367317,-0.042
 56985,0.01022500,0.00679025,-0.09928692,0.07559074,-0.24670684,0.52366
 853,-0.05787041,0.09317894,-0.02108688,0.02742131,0.04693195,-0.346412
 85,-0.04368667,-0.11344892,0.70308184,0.00774243,-0.00446409,0.0022857
 1,-0.00428743,0.00047273,-0.00872063,-0.09237846,0.03565843,-0.0142427
 2,0.41375957,-0.00482992,0.01153111,0.00192225,0.00305936,-0.01449192,
 0.01375826,0.03485735,-0.13131592,0.03252567,-0.22577273,0.54998083,0.
 00346600,0.00021798,-0.01181329,-0.01707894,0.02584936,-0.00942236,-0.
 01157145,0.02867892,-0.10943519,-0.15522594,0.00528881,0.93239636,0.01
 379382,0.02192980,-0.01969840,0.00461228,-0.00030140,0.05433071,-0.122
 88973,0.05702947,0.07258998,-0.02257815,0.01401684,-0.00728956,0.24607
 267,0.01198962,-0.01599118,0.07603404,0.01298325,0.01551616,-0.0593802
 0,0.05955003,-0.13297367,-0.06930175,0.01449172,-0.03563995,0.00056951
 ,-0.18002988,0.39900273,0.01262469,0.02923146,-0.12904511,0.01131502,0
 .00290731,-0.04660476,0.06438934,-0.05740163,-0.18428538,-0.00884299,0
 .00283265,0.01790530,-0.03653472,-0.07811912,0.53847461,-0.10405182,0.
 04615826,0.03189221,-0.01748379,0.04888113,0.01674161,-0.02424382,0.06
 164784,0.01494814,0.00641461,0.00336735,0.01069299,-0.13241757,0.07126
 171,-0.04340602,0.27208119,0.03866931,-0.11566542,-0.01894530,0.038420
 22,-0.03376544,-0.00679082,0.07556265,-0.08310227,-0.01582724,0.003791
 36,0.00967682,-0.01340743,0.08137934,-0.23881959,0.09196687,-0.2263596
 4,0.46273409,0.05629279,-0.05418392,-0.15384747,0.05049930,-0.05570558
 ,-0.03665334,-0.03014337,0.04948967,0.00264273,0.00934108,-0.01145462,
 0.00429033,-0.07612504,0.13937799,-0.18667990,-0.01086571,-0.06844991,
 0.38617218,-0.00128372,0.00115541,-0.00226098,0.00115249,0.00309684,0.
 00105002,0.01684336,0.00717618,-0.01518212,-0.09699925,0.02009641,0.03
 684578,0.00032802,0.00214135,-0.00070196,0.00032161,-0.00093488,-0.000
 67970,0.06576335,0.00106841,-0.00328123,0.00250605,0.00380060,-0.00133
 038,-0.00216653,0.00482521,-0.00229230,0.04464370,0.01789023,-0.130838
 85,0.09572235,0.00022403,0.00091797,0.00131295,-0.00049810,-0.00042673
 ,0.00219359,-0.03228639,0.10485690,-0.00197451,0.00208842,0.00153342,-
 0.00122433,0.00113535,0.00558284,-0.00762469,0.03370576,-0.05449830,0.
 04396061,0.08538873,-0.55559975,0.00547525,-0.00763359,0.00068156,-0.0
 0208793,0.00422938,-0.00437748,-0.07325574,-0.09771042,0.68458421,-0.0
 0121610,0.00273257,0.00093128,0.00096795,-0.00163582,0.00340256,-0.013
 60709,0.04129940,0.01682179,-0.21285678,0.15584574,0.14024357,0.004089
 66,0.00240178,-0.00433073,-0.00338119,0.00155301,-0.00196700,0.0145572
 0,0.00496771,0.03704313,0.21240501,0.00244330,-0.00229132,-0.00120163,
 0.00002468,0.00156463,-0.00335946,0.04387706,-0.03790671,-0.02304572,0
 .15877892,-0.26059144,-0.14377754,0.00098461,0.00112887,0.00738279,0.0
 0155032,-0.00541664,0.00140701,-0.00046451,0.03311410,-0.02103170,-0.2
 0760526,0.27170165,0.00187587,-0.00256775,0.00039668,-0.00196619,0.004
 41306,-0.00451377,0.00844125,-0.01091660,0.01428719,0.13084869,-0.1301
 5079,-0.26664248,0.00027889,0.00071420,0.00120789,-0.00197176,0.001412
 11,0.00194390,0.05453921,-0.04638849,-0.07918304,-0.19171175,0.1837530
 0,0.33081106,-0.05599209,0.08729568,-0.06521216,-0.00344259,0.00070783
 ,-0.01642681,0.00003557,0.00599074,0.00140136,0.00188298,0.00088457,-0
 .00010458,0.00508600,0.00271411,0.00709760,-0.00081899,-0.01720442,0.0
 0386371,-0.00058768,-0.00014432,-0.00047692,-0.00013046,-0.00018712,-0
 .00004695,0.05495232,0.08667508,-0.19232819,0.18345789,-0.00458023,-0.
 00567003,0.01875309,0.00536544,-0.00310143,-0.00064994,0.00101862,0.00
 071625,0.00092189,0.00357481,0.00494562,-0.00541256,-0.01161437,0.0066
 9223,-0.00546567,-0.00028724,-0.00044365,0.00022286,-0.00026151,0.0001
 2355,-0.00004854,-0.07919572,0.18942518,-0.06305829,0.18022017,-0.2959
 2460,0.00050365,-0.00572955,0.00966462,0.00338521,-0.00354959,0.000119
 29,-0.00053849,0.00155776,-0.00002822,0.00434172,-0.00140900,-0.007355
 42,-0.01418247,0.02076190,-0.01244593,-0.00001825,-0.00044053,0.000717
 57,0.00019761,-0.00040232,0.00010414,0.06978835,-0.19118148,0.30530696
 ,-0.00760002,0.00182875,0.01398039,-0.09928144,0.06712158,0.11553961,0
 .00357822,-0.00255863,-0.00220064,-0.00069953,-0.00152496,0.00002213,0
 .00390300,0.00249631,-0.00161022,0.00357977,0.00512304,-0.00021607,-0.
 00009538,0.00015261,0.00016512,-0.00082821,0.00059798,-0.00028725,-0.0
 0098507,-0.00069488,-0.00041904,0.09842866,0.00785687,-0.00710161,-0.0
 2480779,0.06586626,-0.09461136,-0.09476250,-0.00626185,0.00888055,0.00
 499331,-0.00186518,0.00097307,-0.00006383,0.00119238,0.00191304,0.0052
 9928,0.00560551,-0.00190707,0.00279144,0.00030682,-0.00027583,-0.00039
 480,0.00070237,-0.00142668,-0.00022021,-0.00086135,-0.00035952,0.00017
 265,-0.07254181,0.09391541,-0.00567288,0.00363309,0.01150126,0.1197376
 9,-0.10078721,-0.26424964,0.00975474,-0.01237334,-0.00441246,0.0011346
 9,-0.00166871,-0.00165071,0.00263115,-0.00085207,-0.00429880,-0.001761
 05,0.00505043,-0.00104501,-0.00033627,0.00032733,0.00055897,-0.0006304
 6,0.00027556,0.00158845,0.00011641,-0.00059754,-0.00015843,-0.12497402
 ,0.10699246,0.26216638\\0.00010312,-0.00003374,0.00008243,-0.00007061,
 -0.00005882,0.00005468,0.00003920,0.00005459,-0.00003811,-0.00004253,-
 0.00003972,-0.00001315,0.00001328,-0.00000709,-0.00011319,-0.00004349,
 0.00001139,0.00004380,0.00000271,0.00004803,-0.00003456,0.00001923,0.0
 0001190,-0.00002710,-0.00002278,-0.00000753,0.00001655,0.00000185,0.00
 002099,0.00002865\\\@


 SCIENCE IS LONG AND LIFE IS SHORT.

                     DON MOSER IN THE FEBRUARY 1979 SMITHSONIAN
 Job cpu time:       0 days  0 hours  4 minutes 30.9 seconds.
 File lengths (MBytes):  RWF=     26 Int=      0 D2E=      0 Chk=      2 Scr=      1
 Normal termination of Gaussian 09 at Fri Aug 20 15:51:21 2021.
