 Entering Gaussian System, Link 0=g09
 Input=B3LYP6-31Gxx.IMIVOP.gjf
 Output=B3LYP6-31Gxx.IMIVOP.log
 Initial command:
 /public/home/users/caep010/software/Gaussian09/g09/l1.exe "/public/home/users/caep010/.cache/gau_scr/Gau-103487.inp" -scrdir="/public/home/users/caep010/.cache/gau_scr/"
 Entering Link 1 = /public/home/users/caep010/software/Gaussian09/g09/l1.exe PID=    103488.
  
 Copyright (c) 1988,1990,1992,1993,1995,1998,2003,2009,2015,
            Gaussian, Inc.  All Rights Reserved.
  
 This is part of the Gaussian(R) 09 program.  It is based on
 the Gaussian(R) 03 system (copyright 2003, Gaussian, Inc.),
 the Gaussian(R) 98 system (copyright 1998, Gaussian, Inc.),
 the Gaussian(R) 94 system (copyright 1995, Gaussian, Inc.),
 the Gaussian 92(TM) system (copyright 1992, Gaussian, Inc.),
 the Gaussian 90(TM) system (copyright 1990, Gaussian, Inc.),
 the Gaussian 88(TM) system (copyright 1988, Gaussian, Inc.),
 the Gaussian 86(TM) system (copyright 1986, Carnegie Mellon
 University), and the Gaussian 82(TM) system (copyright 1983,
 Carnegie Mellon University). Gaussian is a federally registered
 trademark of Gaussian, Inc.
  
 This software contains proprietary and confidential information,
 including trade secrets, belonging to Gaussian, Inc.
  
 This software is provided under written license and may be
 used, copied, transmitted, or stored only in accord with that
 written license.
  
 The following legend is applicable only to US Government
 contracts under FAR:
  
                    RESTRICTED RIGHTS LEGEND
  
 Use, reproduction and disclosure by the US Government is
 subject to restrictions as set forth in subparagraphs (a)
 and (c) of the Commercial Computer Software - Restricted
 Rights clause in FAR 52.227-19.
  
 Gaussian, Inc.
 340 Quinnipiac St., Bldg. 40, Wallingford CT 06492
  
  
 ---------------------------------------------------------------
 Warning -- This program may not be used in any manner that
 competes with the business of Gaussian, Inc. or will provide
 assistance to any competitor of Gaussian, Inc.  The licensee
 of this program is prohibited from giving any competitor of
 Gaussian, Inc. access to this program.  By using this program,
 the user acknowledges that Gaussian, Inc. is engaged in the
 business of creating and licensing software in the field of
 computational chemistry and represents and warrants to the
 licensee that it is not a competitor of Gaussian, Inc. and that
 it will not use this program in any manner prohibited above.
 ---------------------------------------------------------------
  

 Cite this work as:
 Gaussian 09, Revision E.01,
 M. J. Frisch, G. W. Trucks, H. B. Schlegel, G. E. Scuseria, 
 M. A. Robb, J. R. Cheeseman, G. Scalmani, V. Barone, B. Mennucci, 
 G. A. Petersson, H. Nakatsuji, M. Caricato, X. Li, H. P. Hratchian, 
 A. F. Izmaylov, J. Bloino, G. Zheng, J. L. Sonnenberg, M. Hada, 
 M. Ehara, K. Toyota, R. Fukuda, J. Hasegawa, M. Ishida, T. Nakajima, 
 Y. Honda, O. Kitao, H. Nakai, T. Vreven, J. A. Montgomery, Jr., 
 J. E. Peralta, F. Ogliaro, M. Bearpark, J. J. Heyd, E. Brothers, 
 K. N. Kudin, V. N. Staroverov, T. Keith, R. Kobayashi, J. Normand, 
 K. Raghavachari, A. Rendell, J. C. Burant, S. S. Iyengar, J. Tomasi, 
 M. Cossi, N. Rega, J. M. Millam, M. Klene, J. E. Knox, J. B. Cross, 
 V. Bakken, C. Adamo, J. Jaramillo, R. Gomperts, R. E. Stratmann, 
 O. Yazyev, A. J. Austin, R. Cammi, C. Pomelli, J. W. Ochterski, 
 R. L. Martin, K. Morokuma, V. G. Zakrzewski, G. A. Voth, 
 P. Salvador, J. J. Dannenberg, S. Dapprich, A. D. Daniels, 
 O. Farkas, J. B. Foresman, J. V. Ortiz, J. Cioslowski, 
 and D. J. Fox, Gaussian, Inc., Wallingford CT, 2013.
 
 ******************************************
 Gaussian 09:  ES64L-G09RevE.01 30-Nov-2015
                23-Aug-2021 
 ******************************************
 %nproc=32
 Will use up to   32 processors via shared memory.
 %mem=180GB
 --------------------------------
 #P OPT=calcfc Freq B3LYP/6-31G**
 --------------------------------
 1/10=4,14=-1,18=20,19=15,26=3,38=1/1,3;
 2/9=110,12=2,17=6,18=5,40=1/2;
 3/5=1,6=6,7=101,11=2,16=1,25=1,30=1,71=2,74=-5,140=1/1,2,3;
 4//1;
 5/5=2,38=5/2;
 8/6=4,10=90,11=11/1;
 11/6=1,8=1,9=11,15=111,16=1/1,2,10;
 10/6=1,13=1/2;
 6/7=2,8=2,9=2,10=2,28=1/1;
 7/10=1,18=20,25=1/1,2,3,16;
 1/10=4,14=-1,18=20,19=15,26=3/3(2);
 2/9=110/2;
 99//99;
 2/9=110/2;
 3/5=1,6=6,7=101,11=2,16=1,25=1,30=1,71=1,74=-5/1,2,3;
 4/5=5,16=3,69=1/1;
 5/5=2,38=5/2;
 7//1,2,3,16;
 1/14=-1,18=20,19=15,26=3/3(-5);
 2/9=110/2;
 6/7=2,8=2,9=2,10=2,19=2,28=1/1;
 99/9=1/99;
 Leave Link    1 at Mon Aug 23 16:03:30 2021, MaxMem= 24159191040 cpu:         4.8
 (Enter /public/home/users/caep010/software/Gaussian09/g09/l101.exe)
 ------
 IMIVOP
 ------
 Symbolic Z-matrix:
 Charge =  0 Multiplicity = 1
 N                     5.3572    0.452     4.3052 
 C                     4.0428    0.5713    4.0875 
 C                     5.9223   -0.0913    5.375 
 N                     3.615     1.1233    2.9987 
 H                     2.6323    1.2124    2.8359 
 N                     6.3669    0.8761    3.4496 
 C                     7.4661    0.5578    4.0653 
 H                     4.2669    1.4609    2.3197 
 N                     5.2655   -0.6122    6.4174 
 N                     7.2117   -0.0381    5.2509 
 H                     5.7744   -1.0026    7.1846 
 H                     4.2655   -0.6111    6.4295 
 N                     8.6932    0.7905    3.5862 
 H                     9.4966    0.5178    4.1156 
 N                     3.1707    0.1196    4.9958 
 H                     8.8071    1.2371    2.6988 
 N                     1.795     0.2444    4.768 
 O                     1.0148   -0.1596    5.5806 
 O                     1.3857    0.7726    3.7262 
 
 Add atom     17 valence  3 ND=      2 dihedral      15     17     18     19
 NAtoms=     19 NQM=       19 NQMF=       0 NMMI=      0 NMMIF=      0
                NMic=       0 NMicF=      0.
                    Isotopes and Nuclear Properties:
 (Nuclear quadrupole moments (NQMom) in fm**2, nuclear magnetic moments (NMagM)
  in nuclear magnetons)

  Atom         1           2           3           4           5           6           7           8           9          10
 IAtWgt=          14          12          12          14           1          14          12           1          14          14
 AtmWgt=  14.0030740  12.0000000  12.0000000  14.0030740   1.0078250  14.0030740  12.0000000   1.0078250  14.0030740  14.0030740
 NucSpn=           2           0           0           2           1           2           0           1           2           2
 AtZEff=   0.0000000   0.0000000   0.0000000   0.0000000   0.0000000   0.0000000   0.0000000   0.0000000   0.0000000   0.0000000
 NQMom=    2.0440000   0.0000000   0.0000000   2.0440000   0.0000000   2.0440000   0.0000000   0.0000000   2.0440000   2.0440000
 NMagM=    0.4037610   0.0000000   0.0000000   0.4037610   2.7928460   0.4037610   0.0000000   2.7928460   0.4037610   0.4037610
 AtZNuc=   7.0000000   6.0000000   6.0000000   7.0000000   1.0000000   7.0000000   6.0000000   1.0000000   7.0000000   7.0000000

  Atom        11          12          13          14          15          16          17          18          19
 IAtWgt=           1           1          14           1          14           1          14          16          16
 AtmWgt=   1.0078250   1.0078250  14.0030740   1.0078250  14.0030740   1.0078250  14.0030740  15.9949146  15.9949146
 NucSpn=           1           1           2           1           2           1           2           0           0
 AtZEff=   0.0000000   0.0000000   0.0000000   0.0000000   0.0000000   0.0000000   0.0000000   0.0000000   0.0000000
 NQMom=    0.0000000   0.0000000   2.0440000   0.0000000   2.0440000   0.0000000   2.0440000   0.0000000   0.0000000
 NMagM=    2.7928460   2.7928460   0.4037610   2.7928460   0.4037610   2.7928460   0.4037610   0.0000000   0.0000000
 AtZNuc=   1.0000000   1.0000000   7.0000000   1.0000000   7.0000000   1.0000000   7.0000000   8.0000000   8.0000000
 Leave Link  101 at Mon Aug 23 16:03:31 2021, MaxMem= 24159191040 cpu:        11.2
 (Enter /public/home/users/caep010/software/Gaussian09/g09/l103.exe)

 GradGradGradGradGradGradGradGradGradGradGradGradGradGradGradGradGradGrad
 Berny optimization.
 Initialization pass.
                           ----------------------------
                           !    Initial Parameters    !
                           ! (Angstroms and Degrees)  !
 --------------------------                            --------------------------
 ! Name  Definition              Value          Derivative Info.                !
 --------------------------------------------------------------------------------
 ! R1    R(1,2)                  1.3376         calculate D2E/DX2 analytically  !
 ! R2    R(1,3)                  1.3263         calculate D2E/DX2 analytically  !
 ! R3    R(1,6)                  1.3898         calculate D2E/DX2 analytically  !
 ! R4    R(2,4)                  1.2935         calculate D2E/DX2 analytically  !
 ! R5    R(2,15)                 1.3378         calculate D2E/DX2 analytically  !
 ! R6    R(3,9)                  1.3377         calculate D2E/DX2 analytically  !
 ! R7    R(3,10)                 1.2965         calculate D2E/DX2 analytically  !
 ! R8    R(4,5)                  1.0001         calculate D2E/DX2 analytically  !
 ! R9    R(4,8)                  1.0            calculate D2E/DX2 analytically  !
 ! R10   R(6,7)                  1.2995         calculate D2E/DX2 analytically  !
 ! R11   R(7,10)                 1.3511         calculate D2E/DX2 analytically  !
 ! R12   R(7,13)                 1.3377         calculate D2E/DX2 analytically  !
 ! R13   R(9,11)                 1.0            calculate D2E/DX2 analytically  !
 ! R14   R(9,12)                 1.0001         calculate D2E/DX2 analytically  !
 ! R15   R(13,14)                1.0            calculate D2E/DX2 analytically  !
 ! R16   R(13,16)                1.0            calculate D2E/DX2 analytically  !
 ! R17   R(15,17)                1.4            calculate D2E/DX2 analytically  !
 ! R18   R(17,18)                1.1968         calculate D2E/DX2 analytically  !
 ! R19   R(17,19)                1.2377         calculate D2E/DX2 analytically  !
 ! A1    A(2,1,3)              125.9086         calculate D2E/DX2 analytically  !
 ! A2    A(2,1,6)              125.9089         calculate D2E/DX2 analytically  !
 ! A3    A(3,1,6)              108.1824         calculate D2E/DX2 analytically  !
 ! A4    A(1,2,4)              120.002          calculate D2E/DX2 analytically  !
 ! A5    A(1,2,15)             119.998          calculate D2E/DX2 analytically  !
 ! A6    A(4,2,15)             120.0            calculate D2E/DX2 analytically  !
 ! A7    A(1,3,9)              125.3727         calculate D2E/DX2 analytically  !
 ! A8    A(1,3,10)             109.2532         calculate D2E/DX2 analytically  !
 ! A9    A(9,3,10)             125.3741         calculate D2E/DX2 analytically  !
 ! A10   A(2,4,5)              120.0016         calculate D2E/DX2 analytically  !
 ! A11   A(2,4,8)              120.0005         calculate D2E/DX2 analytically  !
 ! A12   A(5,4,8)              119.9979         calculate D2E/DX2 analytically  !
 ! A13   A(1,6,7)              104.3658         calculate D2E/DX2 analytically  !
 ! A14   A(6,7,10)             111.3786         calculate D2E/DX2 analytically  !
 ! A15   A(6,7,13)             124.3075         calculate D2E/DX2 analytically  !
 ! A16   A(10,7,13)            124.3138         calculate D2E/DX2 analytically  !
 ! A17   A(3,9,11)             120.001          calculate D2E/DX2 analytically  !
 ! A18   A(3,9,12)             119.9982         calculate D2E/DX2 analytically  !
 ! A19   A(11,9,12)            120.0008         calculate D2E/DX2 analytically  !
 ! A20   A(3,10,7)             106.8199         calculate D2E/DX2 analytically  !
 ! A21   A(7,13,14)            119.994          calculate D2E/DX2 analytically  !
 ! A22   A(7,13,16)            120.0011         calculate D2E/DX2 analytically  !
 ! A23   A(14,13,16)           120.0049         calculate D2E/DX2 analytically  !
 ! A24   A(2,15,17)            120.001          calculate D2E/DX2 analytically  !
 ! A25   A(15,17,18)           120.0021         calculate D2E/DX2 analytically  !
 ! A26   A(15,17,19)           119.9973         calculate D2E/DX2 analytically  !
 ! A27   A(18,17,19)           120.0006         calculate D2E/DX2 analytically  !
 ! D1    D(3,1,2,4)            179.9943         calculate D2E/DX2 analytically  !
 ! D2    D(3,1,2,15)            -0.0119         calculate D2E/DX2 analytically  !
 ! D3    D(6,1,2,4)              0.0049         calculate D2E/DX2 analytically  !
 ! D4    D(6,1,2,15)           179.9987         calculate D2E/DX2 analytically  !
 ! D5    D(2,1,3,9)              0.0147         calculate D2E/DX2 analytically  !
 ! D6    D(2,1,3,10)          -179.9979         calculate D2E/DX2 analytically  !
 ! D7    D(6,1,3,9)           -179.9943         calculate D2E/DX2 analytically  !
 ! D8    D(6,1,3,10)            -0.007          calculate D2E/DX2 analytically  !
 ! D9    D(2,1,6,7)            179.995          calculate D2E/DX2 analytically  !
 ! D10   D(3,1,6,7)              0.004          calculate D2E/DX2 analytically  !
 ! D11   D(1,2,4,5)            179.9933         calculate D2E/DX2 analytically  !
 ! D12   D(1,2,4,8)             -0.0022         calculate D2E/DX2 analytically  !
 ! D13   D(15,2,4,5)            -0.0004         calculate D2E/DX2 analytically  !
 ! D14   D(15,2,4,8)          -179.9959         calculate D2E/DX2 analytically  !
 ! D15   D(1,2,15,17)         -179.9984         calculate D2E/DX2 analytically  !
 ! D16   D(4,2,15,17)           -0.0047         calculate D2E/DX2 analytically  !
 ! D17   D(1,3,9,11)           179.9972         calculate D2E/DX2 analytically  !
 ! D18   D(1,3,9,12)            -0.0102         calculate D2E/DX2 analytically  !
 ! D19   D(10,3,9,11)            0.0118         calculate D2E/DX2 analytically  !
 ! D20   D(10,3,9,12)         -179.9956         calculate D2E/DX2 analytically  !
 ! D21   D(1,3,10,7)             0.007          calculate D2E/DX2 analytically  !
 ! D22   D(9,3,10,7)           179.9943         calculate D2E/DX2 analytically  !
 ! D23   D(1,6,7,10)             0.0002         calculate D2E/DX2 analytically  !
 ! D24   D(1,6,7,13)           179.9988         calculate D2E/DX2 analytically  !
 ! D25   D(6,7,10,3)            -0.0045         calculate D2E/DX2 analytically  !
 ! D26   D(13,7,10,3)          179.997          calculate D2E/DX2 analytically  !
 ! D27   D(6,7,13,14)         -179.998          calculate D2E/DX2 analytically  !
 ! D28   D(6,7,13,16)            0.0033         calculate D2E/DX2 analytically  !
 ! D29   D(10,7,13,14)           0.0004         calculate D2E/DX2 analytically  !
 ! D30   D(10,7,13,16)        -179.9983         calculate D2E/DX2 analytically  !
 ! D31   D(2,15,17,18)        -179.9947         calculate D2E/DX2 analytically  !
 ! D32   D(2,15,17,19)           0.0033         calculate D2E/DX2 analytically  !
 ! D33   D(15,17,18,19)        179.998          calculate D2E/DX2 analytically  !
 --------------------------------------------------------------------------------
 Trust Radius=3.00D-01 FncErr=1.00D-07 GrdErr=1.00D-06
 Number of steps in this run=     89 maximum allowed number of steps=    114.
 GradGradGradGradGradGradGradGradGradGradGradGradGradGradGradGradGradGrad

 Leave Link  103 at Mon Aug 23 16:03:31 2021, MaxMem= 24159191040 cpu:         0.4
 (Enter /public/home/users/caep010/software/Gaussian09/g09/l202.exe)
                          Input orientation:                          
 ---------------------------------------------------------------------
 Center     Atomic      Atomic             Coordinates (Angstroms)
 Number     Number       Type             X           Y           Z
 ---------------------------------------------------------------------
      1          7           0        5.357200    0.452000    4.305200
      2          6           0        4.042800    0.571300    4.087500
      3          6           0        5.922300   -0.091300    5.375000
      4          7           0        3.615000    1.123300    2.998700
      5          1           0        2.632300    1.212400    2.835900
      6          7           0        6.366900    0.876100    3.449600
      7          6           0        7.466100    0.557800    4.065300
      8          1           0        4.266900    1.460900    2.319700
      9          7           0        5.265500   -0.612200    6.417400
     10          7           0        7.211700   -0.038100    5.250900
     11          1           0        5.774400   -1.002600    7.184600
     12          1           0        4.265500   -0.611100    6.429500
     13          7           0        8.693200    0.790500    3.586200
     14          1           0        9.496600    0.517800    4.115600
     15          7           0        3.170700    0.119600    4.995800
     16          1           0        8.807100    1.237100    2.698800
     17          7           0        1.795000    0.244400    4.768000
     18          8           0        1.014800   -0.159600    5.580600
     19          8           0        1.385700    0.772600    3.726200
 ---------------------------------------------------------------------
                    Distance matrix (angstroms):
                    1          2          3          4          5
     1  N    0.000000
     2  C    1.337637   0.000000
     3  C    1.326267   2.372597   0.000000
     4  N    2.278782   1.293523   3.527845   0.000000
     5  H    3.187810   1.991738   4.355544   1.000071   0.000000
     6  N    1.389750   2.429251   2.200158   2.799531   3.799600
     7  C    2.125136   3.423399   2.126021   4.035889   5.030462
     8  H    2.479686   1.991664   3.805855   0.999994   1.732089
     9  N    2.366922   2.885152   1.337655   4.174161   4.805211
    10  N    2.138625   3.430276   1.296450   4.399717   5.326057
    11  H    3.252824   3.881704   2.031500   5.167612   5.804327
    12  H    2.614315   2.632989   2.031538   3.898933   4.348155
    13  N    3.429350   4.682475   3.413981   5.122892   6.121720
    14  H    4.144262   5.454135   3.838321   6.017251   7.017030
    15  N    2.316938   1.337759   2.785601   2.278865   2.479769
    16  H    3.885706   5.007028   4.153163   5.201999   6.176371
    17  N    3.598132   2.371191   4.185182   2.686129   2.317565
    18  O    4.566962   3.454323   4.912280   3.882406   3.468727
    19  O    4.026268   2.689096   4.903632   2.371081   1.593760
                    6          7          8          9         10
     6  N    0.000000
     7  C    1.299478   0.000000
     8  H    2.455334   3.754676   0.000000
     9  N    3.497993   3.426940   4.699584   0.000000
    10  N    2.189550   1.351097   4.417101   2.340514   0.000000
    11  H    4.222653   3.876433   5.657618   0.999994   2.595243
    12  H    3.937950   4.147241   4.602569   1.000074   3.224519
    13  N    2.331879   1.337707   4.652482   4.661801   2.377529
    14  H    3.219776   2.031517   5.609319   4.947463   2.611264
    15  N    3.630251   4.416821   3.187829   2.635273   4.052114
    16  H    2.578487   2.031515   4.561493   5.458097   3.268738
    17  N    4.799947   5.723057   3.685693   3.936833   5.445515
    18  O    5.853103   6.665588   4.882176   4.355862   6.206854
    19  O    4.989947   6.093635   3.279224   4.920678   6.076530
                   11         12         13         14         15
    11  H    0.000000
    12  H    1.732116   0.000000
    13  N    4.968207   5.445490   0.000000
    14  H    5.058177   5.830348   1.000041   0.000000
    15  N    3.581820   1.946280   5.738910   6.399244   0.000000
    16  H    5.859687   6.161177   0.999952   1.732087   6.188216
    17  N    4.819812   3.097714   7.019974   7.734017   1.400007
    18  O    5.092863   3.389917   7.989878   8.634004   2.251188
    19  O    5.862811   4.185177   7.308863   8.124239   2.285720
                   16         17         18         19
    16  H    0.000000
    17  N    7.378116   0.000000
    18  O    8.424695   1.196765   0.000000
    19  O    7.506563   1.237687   2.108403   0.000000
 Stoichiometry    C3H6N8O2
 Framework group  C1[X(C3H6N8O2)]
 Deg. of freedom    51
 Full point group                 C1      NOp   1
 Largest Abelian subgroup         C1      NOp   1
 Largest concise Abelian subgroup C1      NOp   1
                         Standard orientation:                         
 ---------------------------------------------------------------------
 Center     Atomic      Atomic             Coordinates (Angstroms)
 Number     Number       Type             X           Y           Z
 ---------------------------------------------------------------------
      1          7           0        0.690198   -0.160586    0.000044
      2          6           0       -0.602193   -0.505548   -0.000017
      3          6           0        1.164706    1.077892   -0.000063
      4          7           0       -0.938228   -1.754661   -0.000009
      5          1           0       -1.904473   -2.012562    0.000046
      6          7           0        1.768002   -1.037937    0.000022
      7          6           0        2.812758   -0.265197   -0.000008
      8          1           0       -0.231837   -2.462475    0.000010
      9          7           0        0.423224    2.191232    0.000030
     10          7           0        2.460578    1.039193   -0.000001
     11          1           0        0.866847    3.087438   -0.000021
     12          1           0       -0.574804    2.127298    0.000039
     13          7           0        4.076022   -0.705223   -0.000014
     14          1           0        4.833031   -0.051756   -0.000008
     15          7           0       -1.547188    0.441334    0.000040
     16          1           0        4.263337   -1.687474   -0.000045
     17          7           0       -2.899858    0.080359    0.000010
     18          8           0       -3.745269    0.927428   -0.000036
     19          8           0       -3.221353   -1.114844   -0.000008
 ---------------------------------------------------------------------
 Rotational constants (GHZ):      2.2028963      0.4652391      0.3841160
 Leave Link  202 at Mon Aug 23 16:03:31 2021, MaxMem= 24159191040 cpu:         0.9
 (Enter /public/home/users/caep010/software/Gaussian09/g09/l301.exe)
 Standard basis: 6-31G(d,p) (6D, 7F)
 Ernie: Thresh=  0.10000D-02 Tol=  0.10000D-05 Strict=F.
 There are   225 symmetry adapted cartesian basis functions of A   symmetry.
 There are   225 symmetry adapted basis functions of A   symmetry.
   225 basis functions,   406 primitive gaussians,   225 cartesian basis functions
    48 alpha electrons       48 beta electrons
       nuclear repulsion energy       828.1028585630 Hartrees.
 IExCor=  402 DFT=T Ex+Corr=B3LYP ExCW=0 ScaHFX=  0.200000
 ScaDFX=  0.800000  0.720000  1.000000  0.810000 ScalE2=  1.000000  1.000000
 IRadAn=      0 IRanWt=     -1 IRanGd=            0 ICorTp=0 IEmpDi=  4
 NAtoms=   19 NActive=   19 NUniq=   19 SFac= 1.00D+00 NAtFMM=   60 NAOKFM=F Big=F
 Integral buffers will be    131072 words long.
 Raffenetti 2 integral format.
 Two-electron integral symmetry is turned on.
 Leave Link  301 at Mon Aug 23 16:03:31 2021, MaxMem= 24159191040 cpu:         2.2
 (Enter /public/home/users/caep010/software/Gaussian09/g09/l302.exe)
 NPDir=0 NMtPBC=     1 NCelOv=     1 NCel=       1 NClECP=     1 NCelD=      1
         NCelK=      1 NCelE2=     1 NClLst=     1 CellRange=     0.0.
 One-electron integrals computed using PRISM.
 NBasis=   225 RedAO= T EigKep=  1.04D-03  NBF=   225
 NBsUse=   225 1.00D-06 EigRej= -1.00D+00 NBFU=   225
 Precomputing XC quadrature grid using
 IXCGrd= 4 IRadAn=           0 IRanWt=          -1 IRanGd=           0 AccXCQ= 0.00D+00.
 Generated NRdTot=       0 NPtTot=           0 NUsed=           0 NTot=          32
 NSgBfM=   223   223   223   223   223 MxSgAt=    19 MxSgA2=    19.
 Leave Link  302 at Mon Aug 23 16:03:32 2021, MaxMem= 24159191040 cpu:        14.1
 (Enter /public/home/users/caep010/software/Gaussian09/g09/l303.exe)
 DipDrv:  MaxL=1.
 Leave Link  303 at Mon Aug 23 16:03:32 2021, MaxMem= 24159191040 cpu:         0.8
 (Enter /public/home/users/caep010/software/Gaussian09/g09/l401.exe)
 ExpMin= 1.61D-01 ExpMax= 5.48D+03 ExpMxC= 8.25D+02 IAcc=1 IRadAn=         1 AccDes= 0.00D+00
 Harris functional with IExCor=  402 and IRadAn=       1 diagonalized for initial guess.
 HarFok:  IExCor=  402 AccDes= 0.00D+00 IRadAn=         1 IDoV= 1 UseB2=F ITyADJ=14
 ICtDFT=  3500011 ScaDFX=  1.000000  1.000000  1.000000  1.000000
 FoFCou: FMM=F IPFlag=           0 FMFlag=      100000 FMFlg1=           0
         NFxFlg=           0 DoJE=T BraDBF=F KetDBF=T FulRan=T
         wScrn=  0.000000 ICntrl=     500 IOpCl=  0 I1Cent=   200000004 NGrid=           0
         NMat0=    1 NMatS0=      1 NMatT0=    0 NMatD0=    1 NMtDS0=    0 NMtDT0=    0
 Petite list used in FoFCou.
 Harris En= -706.239428738833    
 JPrj=0 DoOrth=F DoCkMO=F.
 Leave Link  401 at Mon Aug 23 16:03:33 2021, MaxMem= 24159191040 cpu:        16.7
 (Enter /public/home/users/caep010/software/Gaussian09/g09/l502.exe)
 Closed shell SCF:
 Using DIIS extrapolation, IDIIS=  1040.
 Integral symmetry usage will be decided dynamically.
 Keep R1 ints in memory in canonical form, NReq=329178808.
 IVT=      179308 IEndB=      179308 NGot= 24159191040 MDV= 23835783708
 LenX= 23835783708 LenY= 23835732642
 Requested convergence on RMS density matrix=1.00D-08 within 128 cycles.
 Requested convergence on MAX density matrix=1.00D-06.
 Requested convergence on             energy=1.00D-06.
 No special actions if energy rises.
 FoFCou: FMM=F IPFlag=           0 FMFlag=           0 FMFlg1=           0
         NFxFlg=           0 DoJE=F BraDBF=F KetDBF=F FulRan=T
         wScrn=  0.000000 ICntrl=     600 IOpCl=  0 I1Cent=           0 NGrid=           0
         NMat0=    1 NMatS0=  25425 NMatT0=    0 NMatD0=    1 NMtDS0=    0 NMtDT0=    0
 Symmetry not used in FoFCou.
 Integral accuracy reduced to 1.0D-05 until final iterations.

 Cycle   1  Pass 0  IDiag  1:
 E= -705.889109031783    
 DIIS: error= 5.08D-02 at cycle   1 NSaved=   1.
 NSaved= 1 IEnMin= 1 EnMin= -705.889109031783     IErMin= 1 ErrMin= 5.08D-02
 ErrMax= 5.08D-02  0.00D+00 EMaxC= 1.00D-01 BMatC= 5.19D-01 BMatP= 5.19D-01
 IDIUse=3 WtCom= 4.92D-01 WtEn= 5.08D-01
 Coeff-Com:  0.100D+01
 Coeff-En:   0.100D+01
 Coeff:      0.100D+01
 Gap=     0.093 Goal=   None    Shift=    0.000
 GapD=    0.093 DampG=0.500 DampE=0.500 DampFc=0.2500 IDamp=-1.
 Damping current iteration by 2.50D-01
 RMSDP=6.16D-03 MaxDP=2.69D-01              OVMax= 3.42D-01

 Cycle   2  Pass 0  IDiag  1:
 E= -706.030433450329     Delta-E=       -0.141324418545 Rises=F Damp=T
 DIIS: error= 1.58D-02 at cycle   2 NSaved=   2.
 NSaved= 2 IEnMin= 2 EnMin= -706.030433450329     IErMin= 2 ErrMin= 1.58D-02
 ErrMax= 1.58D-02  0.00D+00 EMaxC= 1.00D-01 BMatC= 8.72D-02 BMatP= 5.19D-01
 IDIUse=3 WtCom= 8.42D-01 WtEn= 1.58D-01
 Coeff-Com: -0.525D+00 0.152D+01
 Coeff-En:   0.000D+00 0.100D+01
 Coeff:     -0.442D+00 0.144D+01
 Gap=     0.144 Goal=   None    Shift=    0.000
 RMSDP=1.96D-03 MaxDP=5.99D-02 DE=-1.41D-01 OVMax= 2.22D-01

 Cycle   3  Pass 0  IDiag  1:
 E= -706.244935630822     Delta-E=       -0.214502180493 Rises=F Damp=F
 DIIS: error= 8.17D-03 at cycle   3 NSaved=   3.
 NSaved= 3 IEnMin= 3 EnMin= -706.244935630822     IErMin= 3 ErrMin= 8.17D-03
 ErrMax= 8.17D-03  0.00D+00 EMaxC= 1.00D-01 BMatC= 3.05D-02 BMatP= 8.72D-02
 IDIUse=3 WtCom= 9.18D-01 WtEn= 8.17D-02
 Coeff-Com: -0.272D+00 0.778D+00 0.494D+00
 Coeff-En:   0.000D+00 0.000D+00 0.100D+01
 Coeff:     -0.249D+00 0.715D+00 0.535D+00
 Gap=     0.168 Goal=   None    Shift=    0.000
 RMSDP=1.16D-03 MaxDP=4.96D-02 DE=-2.15D-01 OVMax= 7.95D-02

 Cycle   4  Pass 0  IDiag  1:
 E= -706.264218806538     Delta-E=       -0.019283175716 Rises=F Damp=F
 DIIS: error= 7.02D-03 at cycle   4 NSaved=   4.
 NSaved= 4 IEnMin= 4 EnMin= -706.264218806538     IErMin= 4 ErrMin= 7.02D-03
 ErrMax= 7.02D-03  0.00D+00 EMaxC= 1.00D-01 BMatC= 9.14D-03 BMatP= 3.05D-02
 IDIUse=3 WtCom= 9.30D-01 WtEn= 7.02D-02
 Coeff-Com: -0.679D-01 0.204D+00 0.347D+00 0.516D+00
 Coeff-En:   0.000D+00 0.000D+00 0.247D+00 0.753D+00
 Coeff:     -0.631D-01 0.190D+00 0.340D+00 0.533D+00
 Gap=     0.160 Goal=   None    Shift=    0.000
 RMSDP=4.80D-04 MaxDP=2.54D-02 DE=-1.93D-02 OVMax= 3.52D-02

 Cycle   5  Pass 0  IDiag  1:
 E= -706.270619742597     Delta-E=       -0.006400936059 Rises=F Damp=F
 DIIS: error= 4.33D-03 at cycle   5 NSaved=   5.
 NSaved= 5 IEnMin= 5 EnMin= -706.270619742597     IErMin= 5 ErrMin= 4.33D-03
 ErrMax= 4.33D-03  0.00D+00 EMaxC= 1.00D-01 BMatC= 1.53D-03 BMatP= 9.14D-03
 IDIUse=3 WtCom= 9.57D-01 WtEn= 4.33D-02
 Coeff-Com: -0.727D-02 0.292D-01 0.160D+00 0.357D+00 0.461D+00
 Coeff-En:   0.000D+00 0.000D+00 0.000D+00 0.135D+00 0.865D+00
 Coeff:     -0.696D-02 0.279D-01 0.153D+00 0.348D+00 0.478D+00
 Gap=     0.160 Goal=   None    Shift=    0.000
 RMSDP=1.87D-04 MaxDP=1.09D-02 DE=-6.40D-03 OVMax= 2.10D-02

 Cycle   6  Pass 0  IDiag  1:
 E= -706.271602682725     Delta-E=       -0.000982940128 Rises=F Damp=F
 DIIS: error= 1.73D-03 at cycle   6 NSaved=   6.
 NSaved= 6 IEnMin= 6 EnMin= -706.271602682725     IErMin= 6 ErrMin= 1.73D-03
 ErrMax= 1.73D-03  0.00D+00 EMaxC= 1.00D-01 BMatC= 3.27D-04 BMatP= 1.53D-03
 IDIUse=3 WtCom= 9.83D-01 WtEn= 1.73D-02
 Coeff-Com:  0.197D-02-0.158D-02 0.724D-01 0.190D+00 0.348D+00 0.389D+00
 Coeff-En:   0.000D+00 0.000D+00 0.000D+00 0.000D+00 0.189D+00 0.811D+00
 Coeff:      0.194D-02-0.155D-02 0.712D-01 0.187D+00 0.345D+00 0.396D+00
 Gap=     0.161 Goal=   None    Shift=    0.000
 RMSDP=7.11D-05 MaxDP=4.48D-03 DE=-9.83D-04 OVMax= 8.25D-03

 Cycle   7  Pass 0  IDiag  1:
 E= -706.271850699854     Delta-E=       -0.000248017129 Rises=F Damp=F
 DIIS: error= 1.84D-04 at cycle   7 NSaved=   7.
 NSaved= 7 IEnMin= 7 EnMin= -706.271850699854     IErMin= 7 ErrMin= 1.84D-04
 ErrMax= 1.84D-04  0.00D+00 EMaxC= 1.00D-01 BMatC= 1.11D-05 BMatP= 3.27D-04
 IDIUse=3 WtCom= 9.98D-01 WtEn= 1.84D-03
 Coeff-Com:  0.101D-02-0.213D-02 0.234D-01 0.641D-01 0.142D+00 0.223D+00
 Coeff-Com:  0.549D+00
 Coeff-En:   0.000D+00 0.000D+00 0.000D+00 0.000D+00 0.000D+00 0.000D+00
 Coeff-En:   0.100D+01
 Coeff:      0.100D-02-0.212D-02 0.233D-01 0.640D-01 0.142D+00 0.222D+00
 Coeff:      0.550D+00
 Gap=     0.161 Goal=   None    Shift=    0.000
 RMSDP=1.53D-05 MaxDP=6.23D-04 DE=-2.48D-04 OVMax= 9.59D-04

 Cycle   8  Pass 0  IDiag  1:
 E= -706.271859257837     Delta-E=       -0.000008557983 Rises=F Damp=F
 DIIS: error= 3.86D-05 at cycle   8 NSaved=   8.
 NSaved= 8 IEnMin= 8 EnMin= -706.271859257837     IErMin= 8 ErrMin= 3.86D-05
 ErrMax= 3.86D-05  0.00D+00 EMaxC= 1.00D-01 BMatC= 7.68D-07 BMatP= 1.11D-05
 IDIUse=1 WtCom= 1.00D+00 WtEn= 0.00D+00
 Coeff-Com:  0.311D-03-0.114D-02 0.477D-02 0.138D-01 0.401D-01 0.776D-01
 Coeff-Com:  0.286D+00 0.579D+00
 Coeff:      0.311D-03-0.114D-02 0.477D-02 0.138D-01 0.401D-01 0.776D-01
 Coeff:      0.286D+00 0.579D+00
 Gap=     0.161 Goal=   None    Shift=    0.000
 RMSDP=3.75D-06 MaxDP=1.25D-04 DE=-8.56D-06 OVMax= 1.76D-04

 Initial convergence to 1.0D-05 achieved.  Increase integral accuracy.
 Cycle   9  Pass 1  IDiag  1:
 E= -706.271922513783     Delta-E=       -0.000063255946 Rises=F Damp=F
 DIIS: error= 1.03D-05 at cycle   1 NSaved=   1.
 NSaved= 1 IEnMin= 1 EnMin= -706.271922513783     IErMin= 1 ErrMin= 1.03D-05
 ErrMax= 1.03D-05  0.00D+00 EMaxC= 1.00D-01 BMatC= 7.59D-08 BMatP= 7.59D-08
 IDIUse=1 WtCom= 1.00D+00 WtEn= 0.00D+00
 Coeff-Com:  0.100D+01
 Coeff:      0.100D+01
 Gap=     0.161 Goal=   None    Shift=    0.000
 RMSDP=3.75D-06 MaxDP=1.25D-04 DE=-6.33D-05 OVMax= 1.23D-04

 Cycle  10  Pass 1  IDiag  1:
 E= -706.271922513476     Delta-E=        0.000000000307 Rises=F Damp=F
 DIIS: error= 1.67D-05 at cycle   2 NSaved=   2.
 NSaved= 2 IEnMin= 1 EnMin= -706.271922513783     IErMin= 1 ErrMin= 1.03D-05
 ErrMax= 1.67D-05  0.00D+00 EMaxC= 1.00D-01 BMatC= 8.75D-08 BMatP= 7.59D-08
 IDIUse=1 WtCom= 1.00D+00 WtEn= 0.00D+00
 Coeff-Com:  0.522D+00 0.478D+00
 Coeff:      0.522D+00 0.478D+00
 Gap=     0.161 Goal=   None    Shift=    0.000
 RMSDP=1.65D-06 MaxDP=6.85D-05 DE= 3.07D-10 OVMax= 1.32D-04

 Cycle  11  Pass 1  IDiag  1:
 E= -706.271922576089     Delta-E=       -0.000000062613 Rises=F Damp=F
 DIIS: error= 7.86D-06 at cycle   3 NSaved=   3.
 NSaved= 3 IEnMin= 3 EnMin= -706.271922576089     IErMin= 3 ErrMin= 7.86D-06
 ErrMax= 7.86D-06  0.00D+00 EMaxC= 1.00D-01 BMatC= 1.60D-08 BMatP= 7.59D-08
 IDIUse=1 WtCom= 1.00D+00 WtEn= 0.00D+00
 Coeff-Com:  0.315D-01 0.296D+00 0.672D+00
 Coeff:      0.315D-01 0.296D+00 0.672D+00
 Gap=     0.161 Goal=   None    Shift=    0.000
 RMSDP=6.26D-07 MaxDP=2.74D-05 DE=-6.26D-08 OVMax= 4.25D-05

 Cycle  12  Pass 1  IDiag  1:
 E= -706.271922588627     Delta-E=       -0.000000012539 Rises=F Damp=F
 DIIS: error= 2.13D-06 at cycle   4 NSaved=   4.
 NSaved= 4 IEnMin= 4 EnMin= -706.271922588627     IErMin= 4 ErrMin= 2.13D-06
 ErrMax= 2.13D-06  0.00D+00 EMaxC= 1.00D-01 BMatC= 1.57D-09 BMatP= 1.60D-08
 IDIUse=1 WtCom= 1.00D+00 WtEn= 0.00D+00
 Coeff-Com: -0.117D-01 0.148D+00 0.396D+00 0.468D+00
 Coeff:     -0.117D-01 0.148D+00 0.396D+00 0.468D+00
 Gap=     0.161 Goal=   None    Shift=    0.000
 RMSDP=1.80D-07 MaxDP=7.91D-06 DE=-1.25D-08 OVMax= 8.78D-06

 Cycle  13  Pass 1  IDiag  1:
 E= -706.271922589792     Delta-E=       -0.000000001164 Rises=F Damp=F
 DIIS: error= 9.50D-07 at cycle   5 NSaved=   5.
 NSaved= 5 IEnMin= 5 EnMin= -706.271922589792     IErMin= 5 ErrMin= 9.50D-07
 ErrMax= 9.50D-07  0.00D+00 EMaxC= 1.00D-01 BMatC= 1.46D-10 BMatP= 1.57D-09
 IDIUse=1 WtCom= 1.00D+00 WtEn= 0.00D+00
 Coeff-Com: -0.897D-02 0.719D-01 0.199D+00 0.296D+00 0.442D+00
 Coeff:     -0.897D-02 0.719D-01 0.199D+00 0.296D+00 0.442D+00
 Gap=     0.161 Goal=   None    Shift=    0.000
 RMSDP=5.47D-08 MaxDP=3.16D-06 DE=-1.16D-09 OVMax= 4.44D-06

 Cycle  14  Pass 1  IDiag  1:
 E= -706.271922589922     Delta-E=       -0.000000000131 Rises=F Damp=F
 DIIS: error= 4.39D-07 at cycle   6 NSaved=   6.
 NSaved= 6 IEnMin= 6 EnMin= -706.271922589922     IErMin= 6 ErrMin= 4.39D-07
 ErrMax= 4.39D-07  0.00D+00 EMaxC= 1.00D-01 BMatC= 1.82D-11 BMatP= 1.46D-10
 IDIUse=1 WtCom= 1.00D+00 WtEn= 0.00D+00
 Coeff-Com: -0.487D-02 0.322D-01 0.905D-01 0.147D+00 0.291D+00 0.444D+00
 Coeff:     -0.487D-02 0.322D-01 0.905D-01 0.147D+00 0.291D+00 0.444D+00
 Gap=     0.161 Goal=   None    Shift=    0.000
 RMSDP=2.01D-08 MaxDP=1.16D-06 DE=-1.31D-10 OVMax= 2.03D-06

 Cycle  15  Pass 1  IDiag  1:
 E= -706.271922589921     Delta-E=        0.000000000002 Rises=F Damp=F
 DIIS: error= 1.58D-07 at cycle   7 NSaved=   7.
 NSaved= 7 IEnMin= 6 EnMin= -706.271922589922     IErMin= 7 ErrMin= 1.58D-07
 ErrMax= 1.58D-07  0.00D+00 EMaxC= 1.00D-01 BMatC= 2.68D-12 BMatP= 1.82D-11
 IDIUse=1 WtCom= 1.00D+00 WtEn= 0.00D+00
 Coeff-Com: -0.141D-02 0.737D-02 0.207D-01 0.401D-01 0.107D+00 0.299D+00
 Coeff-Com:  0.527D+00
 Coeff:     -0.141D-02 0.737D-02 0.207D-01 0.401D-01 0.107D+00 0.299D+00
 Coeff:      0.527D+00
 Gap=     0.161 Goal=   None    Shift=    0.000
 RMSDP=7.15D-09 MaxDP=4.81D-07 DE= 1.59D-12 OVMax= 8.32D-07

 SCF Done:  E(RB3LYP) =  -706.271922590     A.U. after   15 cycles
            NFock= 15  Conv=0.71D-08     -V/T= 2.0076
 KE= 7.009149318871D+02 PE=-3.306457534749D+03 EE= 1.071167821709D+03
 Leave Link  502 at Mon Aug 23 16:03:43 2021, MaxMem= 24159191040 cpu:       105.7
 (Enter /public/home/users/caep010/software/Gaussian09/g09/l801.exe)
 DoSCS=F DFT=T ScalE2(SS,OS)=  1.000000  1.000000
 Range of M.O.s used for correlation:     1   225
 NBasis=   225 NAE=    48 NBE=    48 NFC=     0 NFV=     0
 NROrb=    225 NOA=    48 NOB=    48 NVA=   177 NVB=   177
 Leave Link  801 at Mon Aug 23 16:03:43 2021, MaxMem= 24159191040 cpu:         0.8
 (Enter /public/home/users/caep010/software/Gaussian09/g09/l1101.exe)
 Using compressed storage, NAtomX=    19.
 Will process     20 centers per pass.
 Leave Link 1101 at Mon Aug 23 16:03:44 2021, MaxMem= 24159191040 cpu:        17.1
 (Enter /public/home/users/caep010/software/Gaussian09/g09/l1102.exe)
 Symmetrizing basis deriv contribution to polar:
 IMax=3 JMax=2 DiffMx= 0.00D+00
 Leave Link 1102 at Mon Aug 23 16:03:44 2021, MaxMem= 24159191040 cpu:         0.9
 (Enter /public/home/users/caep010/software/Gaussian09/g09/l1110.exe)
 Forming Gx(P) for the SCF density, NAtomX=    19.
 Integral derivatives from FoFJK, PRISM(SPDF).
 Do as many integral derivatives as possible in FoFJK.
 G2DrvN: MDV=   24159190784.
 G2DrvN: will do    20 centers at a time, making    1 passes.
 Calling FoFCou, ICntrl=  3107 FMM=F I1Cent=   0 AccDes= 0.00D+00.
 FoFJK:  IHMeth= 1 ICntrl=    3107 DoSepK=F KAlg= 0 I1Cent=   0 FoldK=F
 IRaf=         0 NMat=   1 IRICut=       1 DoRegI=T DoRafI=F ISym2E= 0.
 FoFCou: FMM=F IPFlag=           0 FMFlag=      100000 FMFlg1=           0
         NFxFlg=           0 DoJE=F BraDBF=F KetDBF=F FulRan=T
         wScrn=  0.000000 ICntrl=    3107 IOpCl=  0 I1Cent=           0 NGrid=           0
         NMat0=    1 NMatS0=      1 NMatT0=    0 NMatD0=    1 NMtDS0=    0 NMtDT0=    0
 Symmetry not used in FoFCou.
 End of G2Drv F.D. properties file   721 does not exist.
 End of G2Drv F.D. properties file   722 does not exist.
 End of G2Drv F.D. properties file   788 does not exist.
 Leave Link 1110 at Mon Aug 23 16:03:50 2021, MaxMem= 24159191040 cpu:       178.8
 (Enter /public/home/users/caep010/software/Gaussian09/g09/l1002.exe)
 Minotr:  Closed shell wavefunction.
          IDoAtm=1111111111111111111
          Direct CPHF calculation.
          Differentiating once with respect to nuclear coordinates.
          Requested convergence is 1.0D-08 RMS, and 1.0D-07 maximum.
          Secondary convergence is 1.0D-12 RMS, and 1.0D-12 maximum.
          NewPWx=T KeepS1=F KeepF1=F KeepIn=T MapXYZ=F SortEE=F KeepMc=T.
          MDV=   24159190621 using IRadAn=       2.
 Generate precomputed XC quadrature information.
 Keep R1 ints in memory in canonical form, NReq=329005724.
 FoFCou: FMM=F IPFlag=           0 FMFlag=           0 FMFlg1=           0
         NFxFlg=           0 DoJE=F BraDBF=F KetDBF=F FulRan=T
         wScrn=  0.000000 ICntrl=     600 IOpCl=  0 I1Cent=           0 NGrid=           0
         NMat0=    1 NMatS0=  25425 NMatT0=    0 NMatD0=    1 NMtDS0=    0 NMtDT0=    0
 Symmetry not used in FoFCou.
          Solving linear equations simultaneously, MaxMat=       0.
          There are    60 degrees of freedom in the 1st order CPHF.  IDoFFX=6 NUNeed=     0.
     54 vectors produced by pass  0 Test12= 1.42D-14 1.67D-09 XBig12= 2.23D-01 1.33D-01.
 AX will form    54 AO Fock derivatives at one time.
     54 vectors produced by pass  1 Test12= 1.42D-14 1.67D-09 XBig12= 6.14D-02 1.09D-01.
     54 vectors produced by pass  2 Test12= 1.42D-14 1.67D-09 XBig12= 5.05D-04 3.01D-03.
     54 vectors produced by pass  3 Test12= 1.42D-14 1.67D-09 XBig12= 3.57D-06 2.41D-04.
     54 vectors produced by pass  4 Test12= 1.42D-14 1.67D-09 XBig12= 1.12D-08 1.59D-05.
     52 vectors produced by pass  5 Test12= 1.42D-14 1.67D-09 XBig12= 1.45D-11 4.77D-07.
     21 vectors produced by pass  6 Test12= 1.42D-14 1.67D-09 XBig12= 1.10D-14 1.02D-08.
 InvSVY:  IOpt=1 It=  1 EMax= 5.00D-16
 Solved reduced A of dimension   343 with    60 vectors.
 End of Minotr F.D. properties file   721 does not exist.
 End of Minotr F.D. properties file   722 does not exist.
 End of Minotr F.D. properties file   788 does not exist.
 Leave Link 1002 at Mon Aug 23 16:03:59 2021, MaxMem= 24159191040 cpu:       276.4
 (Enter /public/home/users/caep010/software/Gaussian09/g09/l601.exe)
 Copying SCF densities to generalized density rwf, IOpCl= 0 IROHF=0.

 **********************************************************************

            Population analysis using the SCF density.

 **********************************************************************

 Orbital symmetries:
       Occupied  (A) (A) (A) (A) (A) (A) (A) (A) (A) (A) (A) (A)
                 (A) (A) (A) (A) (A) (A) (A) (A) (A) (A) (A) (A)
                 (A) (A) (A) (A) (A) (A) (A) (A) (A) (A) (A) (A)
                 (A) (A) (A) (A) (A) (A) (A) (A) (A) (A) (A) (A)
       Virtual   (A) (A) (A) (A) (A) (A) (A) (A) (A) (A) (A) (A)
                 (A) (A) (A) (A) (A) (A) (A) (A) (A) (A) (A) (A)
                 (A) (A) (A) (A) (A) (A) (A) (A) (A) (A) (A) (A)
                 (A) (A) (A) (A) (A) (A) (A) (A) (A) (A) (A) (A)
                 (A) (A) (A) (A) (A) (A) (A) (A) (A) (A) (A) (A)
                 (A) (A) (A) (A) (A) (A) (A) (A) (A) (A) (A) (A)
                 (A) (A) (A) (A) (A) (A) (A) (A) (A) (A) (A) (A)
                 (A) (A) (A) (A) (A) (A) (A) (A) (A) (A) (A) (A)
                 (A) (A) (A) (A) (A) (A) (A) (A) (A) (A) (A) (A)
                 (A) (A) (A) (A) (A) (A) (A) (A) (A) (A) (A) (A)
                 (A) (A) (A) (A) (A) (A) (A) (A) (A) (A) (A) (A)
                 (A) (A) (A) (A) (A) (A) (A) (A) (A) (A) (A) (A)
                 (A) (A) (A) (A) (A) (A) (A) (A) (A) (A) (A) (A)
                 (A) (A) (A) (A) (A) (A) (A) (A) (A) (A) (A) (A)
                 (A) (A) (A) (A) (A) (A) (A) (A) (A)
 The electronic state is 1-A.
 Alpha  occ. eigenvalues --  -19.17162 -19.16499 -14.59221 -14.43843 -14.37172
 Alpha  occ. eigenvalues --  -14.36497 -14.36362 -14.36016 -14.34177 -14.31014
 Alpha  occ. eigenvalues --  -10.34099 -10.30465 -10.28477  -1.24450  -1.11662
 Alpha  occ. eigenvalues --   -1.05718  -1.01485  -0.96143  -0.94315  -0.91486
 Alpha  occ. eigenvalues --   -0.89458  -0.83492  -0.72760  -0.68524  -0.64144
 Alpha  occ. eigenvalues --   -0.61832  -0.58815  -0.57429  -0.55404  -0.54606
 Alpha  occ. eigenvalues --   -0.53841  -0.52278  -0.51272  -0.50436  -0.50235
 Alpha  occ. eigenvalues --   -0.47116  -0.42644  -0.37605  -0.34692  -0.33772
 Alpha  occ. eigenvalues --   -0.32921  -0.30629  -0.30594  -0.27984  -0.27342
 Alpha  occ. eigenvalues --   -0.26795  -0.25717  -0.22173
 Alpha virt. eigenvalues --   -0.06069   0.00557   0.06523   0.08285   0.09202
 Alpha virt. eigenvalues --    0.09912   0.10054   0.11792   0.12896   0.15078
 Alpha virt. eigenvalues --    0.16698   0.20336   0.24761   0.25468   0.28399
 Alpha virt. eigenvalues --    0.31634   0.32588   0.34829   0.35964   0.38663
 Alpha virt. eigenvalues --    0.41610   0.43265   0.45422   0.48860   0.51138
 Alpha virt. eigenvalues --    0.53512   0.53636   0.55234   0.56560   0.58542
 Alpha virt. eigenvalues --    0.59474   0.61880   0.62598   0.63913   0.65199
 Alpha virt. eigenvalues --    0.65941   0.66655   0.69613   0.70022   0.71112
 Alpha virt. eigenvalues --    0.72333   0.74128   0.76025   0.78483   0.78534
 Alpha virt. eigenvalues --    0.78552   0.81358   0.83553   0.83605   0.83966
 Alpha virt. eigenvalues --    0.85719   0.87340   0.87948   0.88222   0.88685
 Alpha virt. eigenvalues --    0.92641   0.95294   0.95569   0.97992   0.99069
 Alpha virt. eigenvalues --    0.99494   1.03361   1.07157   1.09121   1.14393
 Alpha virt. eigenvalues --    1.15619   1.18928   1.20181   1.23364   1.25396
 Alpha virt. eigenvalues --    1.25694   1.28010   1.30292   1.31055   1.32601
 Alpha virt. eigenvalues --    1.34754   1.37321   1.37587   1.40006   1.40293
 Alpha virt. eigenvalues --    1.42921   1.44788   1.48072   1.49812   1.50299
 Alpha virt. eigenvalues --    1.51623   1.52150   1.55296   1.59495   1.63864
 Alpha virt. eigenvalues --    1.69106   1.73735   1.77148   1.77316   1.80379
 Alpha virt. eigenvalues --    1.81724   1.83825   1.84640   1.86841   1.88148
 Alpha virt. eigenvalues --    1.89382   1.93789   1.96470   1.99027   2.01928
 Alpha virt. eigenvalues --    2.03510   2.06492   2.07414   2.07522   2.08707
 Alpha virt. eigenvalues --    2.11070   2.13431   2.14723   2.15643   2.17035
 Alpha virt. eigenvalues --    2.18943   2.19456   2.21263   2.26051   2.28307
 Alpha virt. eigenvalues --    2.32236   2.33523   2.33990   2.36538   2.36879
 Alpha virt. eigenvalues --    2.40254   2.42542   2.48187   2.50501   2.53418
 Alpha virt. eigenvalues --    2.56142   2.58303   2.60575   2.61882   2.64081
 Alpha virt. eigenvalues --    2.64318   2.67654   2.68024   2.68512   2.70574
 Alpha virt. eigenvalues --    2.70690   2.71887   2.76685   2.81603   2.81620
 Alpha virt. eigenvalues --    2.85400   2.87582   2.89026   2.91427   2.95642
 Alpha virt. eigenvalues --    2.99927   3.02114   3.09881   3.10602   3.12739
 Alpha virt. eigenvalues --    3.17898   3.24799   3.30821   3.42146   3.45482
 Alpha virt. eigenvalues --    3.50558   3.62815   3.64155   3.73640   3.76508
 Alpha virt. eigenvalues --    3.80428   3.96213   4.00876   4.02070   4.06786
 Alpha virt. eigenvalues --    4.15911   4.23860   4.27605   4.32573   4.43468
 Alpha virt. eigenvalues --    4.52395   4.70409
          Condensed to atoms (all electrons):
               1          2          3          4          5          6
     1  N    6.947093   0.319564   0.312979  -0.067631   0.002813   0.237418
     2  C    0.319564   4.241036  -0.032162   0.362356  -0.021964  -0.040919
     3  C    0.312979  -0.032162   4.233514   0.003822  -0.000045  -0.075943
     4  N   -0.067631   0.362356   0.003822   6.849705   0.315163  -0.007893
     5  H    0.002813  -0.021964  -0.000045   0.315163   0.324273   0.000104
     6  N    0.237418  -0.040919  -0.075943  -0.007893   0.000104   6.974033
     7  C   -0.079242   0.008396  -0.085725  -0.000276   0.000010   0.495251
     8  H   -0.012324  -0.024278   0.000884   0.327788  -0.013860   0.023193
     9  N   -0.063594  -0.004068   0.340717  -0.000023  -0.000003   0.005497
    10  N   -0.103001   0.007659   0.551218  -0.000508   0.000004  -0.111049
    11  H    0.003887   0.000188  -0.023006   0.000014  -0.000000  -0.000036
    12  H   -0.007918  -0.001442  -0.013687   0.000513  -0.000010  -0.000051
    13  N    0.006585  -0.000075  -0.001745  -0.000004  -0.000000  -0.091713
    14  H   -0.000134  -0.000003   0.000425   0.000000  -0.000000   0.004590
    15  N   -0.071216   0.333386   0.005024  -0.079427  -0.006182   0.001517
    16  H   -0.000233  -0.000002  -0.000041  -0.000001   0.000000   0.000408
    17  N    0.001669  -0.032070  -0.000097  -0.009712  -0.009191  -0.000016
    18  O   -0.000045   0.005325  -0.000007  -0.000221   0.001068   0.000000
    19  O   -0.000088   0.000839   0.000041  -0.074492   0.065742   0.000002
               7          8          9         10         11         12
     1  N   -0.079242  -0.012324  -0.063594  -0.103001   0.003887  -0.007918
     2  C    0.008396  -0.024278  -0.004068   0.007659   0.000188  -0.001442
     3  C   -0.085725   0.000884   0.340717   0.551218  -0.023006  -0.013687
     4  N   -0.000276   0.327788  -0.000023  -0.000508   0.000014   0.000513
     5  H    0.000010  -0.013860  -0.000003   0.000004  -0.000000  -0.000010
     6  N    0.495251   0.023193   0.005497  -0.111049  -0.000036  -0.000051
     7  C    4.220270  -0.000093  -0.000389   0.475029   0.000023  -0.000090
     8  H   -0.000093   0.400143  -0.000011   0.000108  -0.000000  -0.000032
     9  N   -0.000389  -0.000011   6.851521  -0.076924   0.346165   0.319532
    10  N    0.475029   0.000108  -0.076924   6.904478  -0.000330   0.003153
    11  H    0.000023  -0.000000   0.346165  -0.000330   0.405386  -0.016850
    12  H   -0.000090  -0.000032   0.319532   0.003153  -0.016850   0.349180
    13  N    0.314167  -0.000020  -0.000143  -0.068589  -0.000012   0.000002
    14  H   -0.016638  -0.000000  -0.000012   0.000996   0.000005   0.000000
    15  N   -0.000013   0.004561  -0.045452   0.000374   0.001489   0.053936
    16  H   -0.018210   0.000021   0.000001   0.004104   0.000000  -0.000000
    17  N    0.000000   0.000640   0.000444  -0.000002  -0.000014  -0.000677
    18  O   -0.000000   0.000012  -0.000065  -0.000000  -0.000001   0.000717
    19  O    0.000000   0.002151  -0.000021  -0.000000   0.000000   0.000194
              13         14         15         16         17         18
     1  N    0.006585  -0.000134  -0.071216  -0.000233   0.001669  -0.000045
     2  C   -0.000075  -0.000003   0.333386  -0.000002  -0.032070   0.005325
     3  C   -0.001745   0.000425   0.005024  -0.000041  -0.000097  -0.000007
     4  N   -0.000004   0.000000  -0.079427  -0.000001  -0.009712  -0.000221
     5  H   -0.000000  -0.000000  -0.006182   0.000000  -0.009191   0.001068
     6  N   -0.091713   0.004590   0.001517   0.000408  -0.000016   0.000000
     7  C    0.314167  -0.016638  -0.000013  -0.018210   0.000000  -0.000000
     8  H   -0.000020  -0.000000   0.004561   0.000021   0.000640   0.000012
     9  N   -0.000143  -0.000012  -0.045452   0.000001   0.000444  -0.000065
    10  N   -0.068589   0.000996   0.000374   0.004104  -0.000002  -0.000000
    11  H   -0.000012   0.000005   0.001489   0.000000  -0.000014  -0.000001
    12  H    0.000002   0.000000   0.053936  -0.000000  -0.000677   0.000717
    13  N    6.819139   0.350326   0.000001   0.351283  -0.000000   0.000000
    14  H    0.350326   0.398447  -0.000000  -0.025803   0.000000  -0.000000
    15  N    0.000001  -0.000000   7.273407  -0.000000   0.254233  -0.100565
    16  H    0.351283  -0.025803  -0.000000   0.405549   0.000000   0.000000
    17  N   -0.000000   0.000000   0.254233   0.000000   5.525504   0.361783
    18  O    0.000000  -0.000000  -0.100565   0.000000   0.361783   8.242999
    19  O    0.000000  -0.000000  -0.102141  -0.000000   0.275281  -0.118613
              19
     1  N   -0.000088
     2  C    0.000839
     3  C    0.000041
     4  N   -0.074492
     5  H    0.065742
     6  N    0.000002
     7  C    0.000000
     8  H    0.002151
     9  N   -0.000021
    10  N   -0.000000
    11  H    0.000000
    12  H    0.000194
    13  N    0.000000
    14  H   -0.000000
    15  N   -0.102141
    16  H   -0.000000
    17  N    0.275281
    18  O   -0.118613
    19  O    8.418903
 Mulliken charges:
               1
     1  N   -0.426582
     2  C    0.878234
     3  C    0.783833
     4  N   -0.619173
     5  H    0.342079
     6  N   -0.414394
     7  C    0.687528
     8  H    0.291116
     9  N   -0.673174
    10  N   -0.586721
    11  H    0.283092
    12  H    0.313531
    13  N   -0.679201
    14  H    0.287801
    15  N   -0.522933
    16  H    0.282923
    17  N    0.632226
    18  O   -0.392385
    19  O   -0.467799
 Sum of Mulliken charges =  -0.00000
 Mulliken charges with hydrogens summed into heavy atoms:
               1
     1  N   -0.426582
     2  C    0.878234
     3  C    0.783833
     4  N    0.014023
     6  N   -0.414394
     7  C    0.687528
     9  N   -0.076551
    10  N   -0.586721
    13  N   -0.108478
    15  N   -0.522933
    17  N    0.632226
    18  O   -0.392385
    19  O   -0.467799
 APT charges:
               1
     1  N   -0.313014
     2  C    0.248425
     3  C   -0.000700
     4  N   -0.861349
     5  H    0.714452
     6  N   -0.677712
     7  C    0.344780
     8  H    0.571880
     9  N   -1.018876
    10  N   -0.098729
    11  H    0.882342
    12  H    0.360701
    13  N   -1.288751
    14  H    1.004485
    15  N   -0.414191
    16  H    0.762667
    17  N   -0.269144
    18  O    0.282995
    19  O   -0.230263
 Sum of APT charges =  -0.00000
 APT charges with hydrogens summed into heavy atoms:
               1
     1  N   -0.313014
     2  C    0.248425
     3  C   -0.000700
     4  N    0.424983
     6  N   -0.677712
     7  C    0.344780
     9  N    0.224167
    10  N   -0.098729
    13  N    0.478401
    15  N   -0.414191
    17  N   -0.269144
    18  O    0.282995
    19  O   -0.230263
 Electronic spatial extent (au):  <R**2>=           2637.5400
 Charge=             -0.0000 electrons
 Dipole moment (field-independent basis, Debye):
    X=              5.2508    Y=             -1.3214    Z=             -0.0002  Tot=              5.4145
 Quadrupole moment (field-independent basis, Debye-Ang):
   XX=            -76.2625   YY=            -62.4602   ZZ=            -73.7461
   XY=             -1.9328   XZ=             -0.0008   YZ=             -0.0004
 Traceless Quadrupole moment (field-independent basis, Debye-Ang):
   XX=             -5.4395   YY=              8.3627   ZZ=             -2.9232
   XY=             -1.9328   XZ=             -0.0008   YZ=             -0.0004
 Octapole moment (field-independent basis, Debye-Ang**2):
  XXX=            151.3554  YYY=              3.6354  ZZZ=             -0.0001  XYY=              2.7143
  XXY=            -31.9017  XXZ=              0.0003  XZZ=            -13.1263  YZZ=             -0.5910
  YYZ=             -0.0003  XYZ=              0.0006
 Hexadecapole moment (field-independent basis, Debye-Ang**3):
 XXXX=          -2275.6288 YYYY=           -453.6965 ZZZZ=            -62.4619 XXXY=            -99.7906
 XXXZ=             -0.0083 YYYX=              3.5259 YYYZ=             -0.0024 ZZZX=              0.0004
 ZZZY=             -0.0004 XXYY=           -516.3720 XXZZ=           -439.7210 YYZZ=           -121.5021
 XXYZ=              0.0021 YYXZ=             -0.0030 ZZXY=              0.3429
 N-N= 8.281028585630D+02 E-N=-3.306457543793D+03  KE= 7.009149318871D+02
  Exact polarizability:   0.000   0.000   0.000   0.000   0.000   0.000
 Approx polarizability: 221.150 -15.804 175.539   0.001  -0.000  54.068
 No NMR shielding tensors so no spin-rotation constants.
 Leave Link  601 at Mon Aug 23 16:04:00 2021, MaxMem= 24159191040 cpu:        11.9
 (Enter /public/home/users/caep010/software/Gaussian09/g09/l701.exe)
 Compute integral second derivatives.
 ... and contract with generalized density number  0.
 Leave Link  701 at Mon Aug 23 16:04:00 2021, MaxMem= 24159191040 cpu:        13.2
 (Enter /public/home/users/caep010/software/Gaussian09/g09/l702.exe)
 L702 exits ... SP integral derivatives will be done elsewhere.
 Leave Link  702 at Mon Aug 23 16:04:00 2021, MaxMem= 24159191040 cpu:         0.6
 (Enter /public/home/users/caep010/software/Gaussian09/g09/l703.exe)
 Compute integral second derivatives, UseDBF=F ICtDFT=           0.
 Integral derivatives from FoFJK, PRISM(SPDF).
 Calling FoFJK, ICntrl=    100147 FMM=F ISym2X=0 I1Cent= 0 IOpClX= 0 NMat=1 NMatS=1 NMatT=0.
 FoFJK:  IHMeth= 1 ICntrl=  100147 DoSepK=F KAlg= 0 I1Cent=   0 FoldK=F
 IRaf=         0 NMat=   1 IRICut=       1 DoRegI=T DoRafI=F ISym2E= 0.
 FoFCou: FMM=F IPFlag=           0 FMFlag=      100000 FMFlg1=         800
         NFxFlg=           0 DoJE=F BraDBF=F KetDBF=F FulRan=T
         wScrn=  0.000000 ICntrl=  100147 IOpCl=  0 I1Cent=           0 NGrid=           0
         NMat0=    1 NMatS0=      1 NMatT0=    0 NMatD0=    1 NMtDS0=    0 NMtDT0=    0
 Symmetry not used in FoFCou.
 Leave Link  703 at Mon Aug 23 16:04:08 2021, MaxMem= 24159191040 cpu:       234.1
 (Enter /public/home/users/caep010/software/Gaussian09/g09/l716.exe)
 Dipole        = 2.06582401D+00-5.19860787D-01-6.52944594D-05
 Polarizability= 0.00000000D+00 0.00000000D+00 0.00000000D+00
                 0.00000000D+00 0.00000000D+00 0.00000000D+00
 ***** Axes restored to original set *****
 -------------------------------------------------------------------
 Center     Atomic                   Forces (Hartrees/Bohr)
 Number     Number              X              Y              Z
 -------------------------------------------------------------------
      1        7           0.003120115    0.007608299   -0.015110463
      2        6          -0.055317230    0.001131910   -0.001480904
      3        6           0.019116980   -0.021831902    0.042976737
      4        7           0.034001182    0.026935487   -0.053906891
      5        1          -0.014597820   -0.002288596    0.004749474
      6        7          -0.030793743    0.027307127   -0.053725864
      7        6          -0.025159519   -0.008409426    0.017032599
      8        1           0.012520606    0.001688314   -0.003525829
      9        7           0.001977816   -0.004115574    0.008146289
     10        7           0.050014193   -0.017598064    0.034220120
     11        1           0.008405883   -0.000643223    0.001157442
     12        1          -0.011490364    0.001806035   -0.003415820
     13        7           0.010864260    0.001253960   -0.002642230
     14        1           0.002246979   -0.001500389    0.002945355
     15        7          -0.007026828   -0.015731751    0.031311108
     16        1           0.000285738    0.001917537   -0.003808825
     17        7           0.028966847    0.011713358   -0.023633125
     18        8          -0.003791183   -0.019514206    0.038755846
     19        8          -0.023343913    0.010271104   -0.020045020
 -------------------------------------------------------------------
 Cartesian Forces:  Max     0.055317230 RMS     0.021778089
 FormGI is forming the generalized inverse of G from B-inverse, IUseBI=4.
 GSVD:  received Info=                   1 from GESDD.
 Leave Link  716 at Mon Aug 23 16:04:08 2021, MaxMem= 24159191040 cpu:         1.3
 (Enter /public/home/users/caep010/software/Gaussian09/g09/l103.exe)

 GradGradGradGradGradGradGradGradGradGradGradGradGradGradGradGradGradGrad
 Berny optimization.
 Red2BG is reusing G-inverse.
 Internal  Forces:  Max     0.078194567 RMS     0.022396601
 Search for a local minimum.
 Step number   1 out of a maximum of   89
 All quantities printed in internal units (Hartrees-Bohrs-Radians)
 RMS Force = .22397D-01 SwitMx=.10000D-02 MixMth= 1
 Mixed Optimization -- RFO/linear search
 Second derivative matrix not updated -- analytic derivatives used.
 ITU=  0
     Eigenvalues ---   -0.01592  -0.00467  -0.00389   0.00029   0.00502
     Eigenvalues ---    0.00884   0.01022   0.01621   0.02426   0.03383
     Eigenvalues ---    0.03747   0.03942   0.04137   0.04856   0.05203
     Eigenvalues ---    0.08936   0.09640   0.10256   0.10482   0.10801
     Eigenvalues ---    0.11672   0.12740   0.18953   0.19223   0.21349
     Eigenvalues ---    0.23393   0.25001   0.25651   0.29901   0.30713
     Eigenvalues ---    0.34967   0.36126   0.41398   0.45802   0.47654
     Eigenvalues ---    0.48247   0.49797   0.50598   0.50658   0.50876
     Eigenvalues ---    0.51200   0.53408   0.55792   0.57526   0.62268
     Eigenvalues ---    0.62885   0.69341   0.73243   0.91423   0.94326
     Eigenvalues ---    2.36687
 Eigenvalue     1 is  -1.59D-02 should be greater than     0.000000 Eigenvector:
                          D32       D31       D13       D16       D11
   1                    0.64800   0.47968  -0.35271   0.29031  -0.23430
                          D15       D33       D14       D1        D3
   1                    0.17191   0.16832  -0.08307  -0.08118  -0.07332
 Eigenvalue     2 is  -4.67D-03 should be greater than     0.000000 Eigenvector:
                          D29       D27       D28       D30       D16
   1                    0.53996   0.49470  -0.49392  -0.44865  -0.05840
                          D24       D26       D15       D2        D32
   1                    0.05636  -0.05279  -0.04348  -0.03291   0.03112
 Eigenvalue     3 is  -3.89D-03 should be greater than     0.000000 Eigenvector:
                          D16       D15       D32       D31       D13
   1                   -0.60556  -0.46671   0.35177   0.31926   0.24028
                          D2        D4        D12       D11       D18
   1                   -0.19967  -0.16672  -0.13495   0.10142   0.09805
 RFO step:  Lambda=-5.14456296D-02 EMin=-1.59227633D-02
 Linear search not attempted -- first point.
 Maximum step size (   0.300) exceeded in Quadratic search.
    -- Step size scaled by   0.893
 Iteration  1 RMS(Cart)=  0.13623544 RMS(Int)=  0.03407946
 Iteration  2 RMS(Cart)=  0.07362179 RMS(Int)=  0.00818622
 Iteration  3 RMS(Cart)=  0.00693114 RMS(Int)=  0.00539918
 Iteration  4 RMS(Cart)=  0.00004647 RMS(Int)=  0.00539909
 Iteration  5 RMS(Cart)=  0.00000010 RMS(Int)=  0.00539909
 ITry= 1 IFail=0 DXMaxC= 1.27D+00 DCOld= 1.00D+10 DXMaxT= 3.00D-01 DXLimC= 3.00D+00 Rises=F
 Variable       Old X    -DE/DX   Delta X   Delta X   Delta X     New X
                                 (Linear)    (Quad)   (Total)
    R1        2.52777   0.03388   0.00000   0.04952   0.04952   2.57729
    R2        2.50628   0.07651   0.00000   0.08239   0.08223   2.58851
    R3        2.62625   0.00042   0.00000   0.01207   0.01197   2.63822
    R4        2.44440   0.04502   0.00000   0.05532   0.05532   2.49972
    R5        2.52800   0.02579   0.00000  -0.01183  -0.01183   2.51617
    R6        2.52780   0.00628   0.00000   0.00407   0.00407   2.53187
    R7        2.44994   0.02186   0.00000   0.03363   0.03363   2.48357
    R8        1.88986   0.01337   0.00000   0.01662   0.01662   1.90648
    R9        1.88972   0.01113   0.00000   0.01496   0.01496   1.90467
   R10        2.45566   0.03586   0.00000   0.03754   0.03765   2.49331
   R11        2.55320   0.02247   0.00000   0.03182   0.03198   2.58519
   R12        2.52790   0.01384   0.00000   0.02370   0.02370   2.55160
   R13        1.88971   0.00542   0.00000   0.00892   0.00892   1.89863
   R14        1.88987   0.01145   0.00000   0.01905   0.01905   1.90891
   R15        1.88980   0.00377   0.00000   0.00604   0.00604   1.89584
   R16        1.88963   0.00427   0.00000   0.00654   0.00654   1.89618
   R17        2.64563  -0.00078   0.00000  -0.04124  -0.04124   2.60439
   R18        2.26156   0.03538   0.00000   0.03789   0.03789   2.29945
   R19        2.33889   0.02897   0.00000   0.02005   0.02005   2.35894
    A1        2.19752   0.03165   0.00000   0.06484   0.06495   2.26247
    A2        2.19753  -0.03676   0.00000  -0.08204  -0.08192   2.11561
    A3        1.88814   0.00510   0.00000   0.01720   0.01696   1.90510
    A4        2.09443  -0.04127   0.00000  -0.05930  -0.06105   2.03338
    A5        2.09436  -0.03692   0.00000  -0.06137  -0.06298   2.03138
    A6        2.09439   0.07819   0.00000   0.12067   0.11811   2.21250
    A7        2.18817   0.00456   0.00000  -0.01934  -0.01926   2.16890
    A8        1.90683   0.00151   0.00000   0.00683   0.00668   1.91351
    A9        2.18819  -0.00607   0.00000   0.01251   0.01259   2.20078
   A10        2.09442  -0.00556   0.00000  -0.03939  -0.04865   2.04577
   A11        2.09440  -0.00378   0.00000  -0.02389  -0.03314   2.06126
   A12        2.09436   0.00934   0.00000   0.06326   0.05368   2.14804
   A13        1.82153  -0.01896   0.00000  -0.04500  -0.04502   1.77651
   A14        1.94392   0.03605   0.00000   0.06896   0.06911   2.01304
   A15        2.16958  -0.01474   0.00000  -0.01868  -0.01882   2.15076
   A16        2.16969  -0.02131   0.00000  -0.05028  -0.05042   2.11926
   A17        2.09441  -0.00576   0.00000  -0.02159  -0.02221   2.07221
   A18        2.09436  -0.00088   0.00000  -0.01350  -0.01412   2.08024
   A19        2.09441   0.00664   0.00000   0.03508   0.03445   2.12886
   A20        1.86436  -0.02371   0.00000  -0.04799  -0.04780   1.81656
   A21        2.09429  -0.00153   0.00000  -0.01041  -0.03437   2.05992
   A22        2.09441   0.00057   0.00000   0.00539  -0.01854   2.07587
   A23        2.09448   0.00096   0.00000   0.00501  -0.02109   2.07339
   A24        2.09441   0.07639   0.00000  -0.01657  -0.01657   2.07785
   A25        2.09443  -0.04969   0.00000  -0.07076  -0.07238   2.02205
   A26        2.09435   0.04190   0.00000   0.02575   0.02415   2.11850
   A27        2.09441   0.00779   0.00000   0.04502   0.04337   2.13778
    D1        3.14149  -0.00000   0.00000  -0.03277  -0.02870   3.11280
    D2       -0.00021   0.00001   0.00000   0.08421   0.08012   0.07992
    D3        0.00009  -0.00001   0.00000  -0.03718  -0.03310  -0.03301
    D4        3.14157   0.00000   0.00000   0.07979   0.07572  -3.06589
    D5        0.00026  -0.00000   0.00000  -0.01092  -0.01113  -0.01087
    D6       -3.14156   0.00001   0.00000  -0.01172  -0.01203   3.12960
    D7       -3.14149  -0.00000   0.00000  -0.00716  -0.00715   3.13454
    D8       -0.00012   0.00000   0.00000  -0.00796  -0.00805  -0.00818
    D9        3.14150   0.00000   0.00000   0.01506   0.01449  -3.12719
   D10        0.00007  -0.00000   0.00000   0.01128   0.01090   0.01097
   D11        3.14148   0.00000   0.00000  -0.18444  -0.18097   2.96051
   D12       -0.00004   0.00000   0.00000   0.06219   0.06349   0.06345
   D13       -0.00001   0.00000   0.00000  -0.30140  -0.30270  -0.30271
   D14       -3.14152  -0.00000   0.00000  -0.05477  -0.05824   3.08342
   D15       -3.14157  -0.00000   0.00000   0.23866   0.23633  -2.90523
   D16       -0.00008  -0.00000   0.00000   0.35562   0.35794   0.35786
   D17        3.14154   0.00000   0.00000   0.01305   0.01297  -3.12867
   D18       -0.00018   0.00000   0.00000  -0.05126  -0.05131  -0.05149
   D19        0.00021  -0.00000   0.00000   0.01397   0.01402   0.01423
   D20       -3.14152  -0.00001   0.00000  -0.05034  -0.05026   3.09141
   D21        0.00012  -0.00001   0.00000   0.00144   0.00151   0.00163
   D22        3.14149   0.00000   0.00000   0.00064   0.00058  -3.14111
   D23        0.00000   0.00000   0.00000  -0.01063  -0.01060  -0.01059
   D24        3.14157   0.00000   0.00000  -0.02704  -0.02752   3.11406
   D25       -0.00008   0.00000   0.00000   0.00618   0.00616   0.00608
   D26        3.14154   0.00000   0.00000   0.02260   0.02274  -3.11890
   D27       -3.14156  -0.00000   0.00000  -0.20953  -0.20526   2.93637
   D28        0.00006  -0.00000   0.00000   0.20778   0.20292   0.20298
   D29        0.00001   0.00000   0.00000  -0.22803  -0.22317  -0.22317
   D30       -3.14156   0.00000   0.00000   0.18928   0.18500  -2.95656
   D31       -3.14150  -0.00000   0.00000   0.23730   0.23777  -2.90373
   D32        0.00006   0.00000   0.00000   0.34149   0.34102   0.34108
   D33        3.14156   0.00000   0.00000   0.10420   0.10451  -3.03712
         Item               Value     Threshold  Converged?
 Maximum Force            0.078195     0.000450     NO 
 RMS     Force            0.022397     0.000300     NO 
 Maximum Displacement     1.271733     0.001800     NO 
 RMS     Displacement     0.192951     0.001200     NO 
 Predicted change in Energy=-3.165409D-02
 Lowest energy point so far.  Saving SCF results.
 GradGradGradGradGradGradGradGradGradGradGradGradGradGradGradGradGradGrad

 Leave Link  103 at Mon Aug 23 16:04:08 2021, MaxMem= 24159191040 cpu:         9.1
 (Enter /public/home/users/caep010/software/Gaussian09/g09/l202.exe)
                          Input orientation:                          
 ---------------------------------------------------------------------
 Center     Atomic      Atomic             Coordinates (Angstroms)
 Number     Number       Type             X           Y           Z
 ---------------------------------------------------------------------
      1          7           0        5.317482    0.469069    4.339881
      2          6           0        3.990951    0.666169    4.091818
      3          6           0        5.925930   -0.141994    5.404163
      4          7           0        3.688860    1.325109    2.985326
      5          1           0        2.719348    1.338831    2.706627
      6          7           0        6.294148    0.908761    3.444421
      7          6           0        7.403187    0.512593    4.039321
      8          1           0        4.441862    1.590093    2.369977
      9          7           0        5.270599   -0.669278    6.447044
     10          7           0        7.229294   -0.126997    5.236053
     11          1           0        5.802077   -1.088664    7.189400
     12          1           0        4.265015   -0.584044    6.491156
     13          7           0        8.632358    0.697257    3.511865
     14          1           0        9.427647    0.532216    4.100727
     15          7           0        3.147193    0.288776    5.050219
     16          1           0        8.734766    1.305806    2.720652
     17          7           0        1.803083    0.195988    4.760132
     18          8           0        1.058751    0.101583    5.718096
     19          8           0        1.397149    0.099628    3.583619
 ---------------------------------------------------------------------
                    Distance matrix (angstroms):
                    1          2          3          4          5
     1  N    0.000000
     2  C    1.363843   0.000000
     3  C    1.369783   2.473767   0.000000
     4  N    2.284739   1.322795   3.606612   0.000000
     5  H    3.189718   1.997048   4.444290   1.008868   0.000000
     6  N    1.396085   2.404722   2.253942   2.677991   3.675390
     7  C    2.107700   3.416094   2.115080   3.945543   4.939341
     8  H    2.429800   2.005416   3.795902   1.007910   1.772997
     9  N    2.395448   2.994663   1.339809   4.296856   4.952989
    10  N    2.193957   3.524947   1.314246   4.439489   5.374594
    11  H    3.283463   3.994325   2.024499   5.288311   5.957450
    12  H    2.616242   2.719369   2.033618   4.033320   4.517654
    13  N    3.424338   4.677603   3.407328   5.010950   6.001976
    14  H    4.117601   5.438353   3.796778   5.899701   6.898943
    15  N    2.290686   1.331498   2.834118   2.373010   2.603477
    16  H    3.872966   4.979258   4.145710   5.052879   6.015525
    17  N    3.549955   2.335483   4.186511   2.825068   2.522403
    18  O    4.491248   3.400196   4.883371   3.985288   3.654765
    19  O    4.009667   2.703155   4.886985   2.666777   2.013194
                    6          7          8          9         10
     6  N    0.000000
     7  C    1.319402   0.000000
     8  H    2.247133   3.566113   0.000000
     9  N    3.543106   3.426643   4.734347   0.000000
    10  N    2.270955   1.368021   4.351158   2.365810   0.000000
    11  H    4.272787   3.879507   5.679152   1.004712   2.603328
    12  H    3.953282   4.130646   4.662861   1.010154   3.251327
    13  N    2.348726   1.350249   4.434110   4.667346   2.370824
    14  H    3.223560   2.025486   5.382625   4.922381   2.560523
    15  N    3.586962   4.380125   3.248583   2.716218   4.107427
    16  H    2.576452   2.034988   4.316575   5.457784   3.262915
    17  N    4.733793   5.655172   3.823549   3.951964   5.456609
    18  O    5.764591   6.575643   4.987083   4.343415   6.193562
    19  O    4.965347   6.037442   3.600652   4.877913   6.065956
                   11         12         13         14         15
    11  H    0.000000
    12  H    1.762029   0.000000
    13  N    4.972350   5.439816   0.000000
    14  H    5.031094   5.797668   1.003235   0.000000
    15  N    3.677207   2.021792   5.711430   6.356485   0.000000
    16  H    5.856950   6.145479   1.003413   1.727175   6.138584
    17  N    4.852177   3.109019   6.960491   7.660407   1.378184
    18  O    5.106914   3.368654   7.910866   8.534620   2.200611
    19  O    5.815246   4.140753   7.260204   8.058749   2.291145
                   16         17         18         19
    16  H    0.000000
    17  N    7.310226   0.000000
    18  O    8.328026   1.216814   0.000000
    19  O    7.486001   1.248299   2.161136   0.000000
 Stoichiometry    C3H6N8O2
 Framework group  C1[X(C3H6N8O2)]
 Deg. of freedom    51
 Full point group                 C1      NOp   1
 RotChk:  IX=0 Diff= 4.06D-02
 Largest Abelian subgroup         C1      NOp   1
 Largest concise Abelian subgroup C1      NOp   1
                         Standard orientation:                         
 ---------------------------------------------------------------------
 Center     Atomic      Atomic             Coordinates (Angstroms)
 Number     Number       Type             X           Y           Z
 ---------------------------------------------------------------------
      1          7           0        0.658208   -0.142125   -0.053163
      2          6           0       -0.638049   -0.560576   -0.121596
      3          6           0        1.162361    1.127762    0.044415
      4          7           0       -0.832096   -1.863182   -0.245486
      5          1           0       -1.776245   -2.201461   -0.136098
      6          7           0        1.714943   -1.054257   -0.072654
      7          6           0        2.761186   -0.256825    0.028840
      8          1           0       -0.025580   -2.467347   -0.225516
      9          7           0        0.411583    2.236906    0.079336
     10          7           0        2.474598    1.079036    0.098302
     11          1           0        0.870160    3.128739    0.140868
     12          1           0       -0.591068    2.156232   -0.013364
     13          7           0        4.032780   -0.707756    0.082524
     14          1           0        4.774426   -0.040211   -0.021521
     15          7           0       -1.565156    0.392970   -0.185702
     16          1           0        4.215832   -1.670868   -0.131360
     17          7           0       -2.885200    0.058280    0.026093
     18          8           0       -3.703911    0.899575   -0.294173
     19          8           0       -3.202105   -0.995369    0.615709
 ---------------------------------------------------------------------
 Rotational constants (GHZ):      2.0495552      0.4705057      0.3882608
 Leave Link  202 at Mon Aug 23 16:04:08 2021, MaxMem= 24159191040 cpu:         0.2
 (Enter /public/home/users/caep010/software/Gaussian09/g09/l301.exe)
 Standard basis: 6-31G(d,p) (6D, 7F)
 Ernie: Thresh=  0.10000D-02 Tol=  0.10000D-05 Strict=F.
 There are   225 symmetry adapted cartesian basis functions of A   symmetry.
 There are   225 symmetry adapted basis functions of A   symmetry.
   225 basis functions,   406 primitive gaussians,   225 cartesian basis functions
    48 alpha electrons       48 beta electrons
       nuclear repulsion energy       821.1563762752 Hartrees.
 IExCor=  402 DFT=T Ex+Corr=B3LYP ExCW=0 ScaHFX=  0.200000
 ScaDFX=  0.800000  0.720000  1.000000  0.810000 ScalE2=  1.000000  1.000000
 IRadAn=      0 IRanWt=     -1 IRanGd=            0 ICorTp=0 IEmpDi=  4
 NAtoms=   19 NActive=   19 NUniq=   19 SFac= 1.00D+00 NAtFMM=   60 NAOKFM=F Big=F
 Integral buffers will be    131072 words long.
 Raffenetti 2 integral format.
 Two-electron integral symmetry is turned on.
 Leave Link  301 at Mon Aug 23 16:04:08 2021, MaxMem= 24159191040 cpu:         1.7
 (Enter /public/home/users/caep010/software/Gaussian09/g09/l302.exe)
 NPDir=0 NMtPBC=     1 NCelOv=     1 NCel=       1 NClECP=     1 NCelD=      1
         NCelK=      1 NCelE2=     1 NClLst=     1 CellRange=     0.0.
 One-electron integrals computed using PRISM.
 NBasis=   225 RedAO= T EigKep=  1.11D-03  NBF=   225
 NBsUse=   225 1.00D-06 EigRej= -1.00D+00 NBFU=   225
 Precomputing XC quadrature grid using
 IXCGrd= 4 IRadAn=           0 IRanWt=          -1 IRanGd=           0 AccXCQ= 0.00D+00.
 Generated NRdTot=       0 NPtTot=           0 NUsed=           0 NTot=          32
 NSgBfM=   223   223   223   223   223 MxSgAt=    19 MxSgA2=    19.
 Leave Link  302 at Mon Aug 23 16:04:09 2021, MaxMem= 24159191040 cpu:        12.7
 (Enter /public/home/users/caep010/software/Gaussian09/g09/l303.exe)
 DipDrv:  MaxL=1.
 Leave Link  303 at Mon Aug 23 16:04:09 2021, MaxMem= 24159191040 cpu:         1.7
 (Enter /public/home/users/caep010/software/Gaussian09/g09/l401.exe)
 Initial guess from the checkpoint file:  "/public/home/users/caep010/.cache/gau_scr/Gau-103488.chk"
 B after Tr=     0.000000    0.000000   -0.000000
         Rot=    0.999990    0.003982    0.000163   -0.001782 Ang=   0.50 deg.
 Guess basis will be translated and rotated to current coordinates.
 JPrj=2 DoOrth=T DoCkMO=T.
 Generating alternative initial guess.
 ExpMin= 1.61D-01 ExpMax= 5.48D+03 ExpMxC= 8.25D+02 IAcc=1 IRadAn=         1 AccDes= 0.00D+00
 Harris functional with IExCor=  402 and IRadAn=       1 diagonalized for initial guess.
 HarFok:  IExCor=  402 AccDes= 0.00D+00 IRadAn=         1 IDoV= 1 UseB2=F ITyADJ=14
 ICtDFT=  3500011 ScaDFX=  1.000000  1.000000  1.000000  1.000000
 FoFCou: FMM=F IPFlag=           0 FMFlag=      100000 FMFlg1=           0
         NFxFlg=           0 DoJE=T BraDBF=F KetDBF=T FulRan=T
         wScrn=  0.000000 ICntrl=     500 IOpCl=  0 I1Cent=   200000004 NGrid=           0
         NMat0=    1 NMatS0=      1 NMatT0=    0 NMatD0=    1 NMtDS0=    0 NMtDT0=    0
 Petite list used in FoFCou.
 Harris En= -706.256619786628    
 Leave Link  401 at Mon Aug 23 16:04:10 2021, MaxMem= 24159191040 cpu:        18.5
 (Enter /public/home/users/caep010/software/Gaussian09/g09/l502.exe)
 Closed shell SCF:
 Using DIIS extrapolation, IDIIS=  1040.
 Integral symmetry usage will be decided dynamically.
 Keep R1 ints in memory in canonical form, NReq=329178808.
 IVT=      179308 IEndB=      179308 NGot= 24159191040 MDV= 23835783708
 LenX= 23835783708 LenY= 23835732642
 Requested convergence on RMS density matrix=1.00D-08 within 128 cycles.
 Requested convergence on MAX density matrix=1.00D-06.
 Requested convergence on             energy=1.00D-06.
 No special actions if energy rises.
 FoFCou: FMM=F IPFlag=           0 FMFlag=           0 FMFlg1=           0
         NFxFlg=           0 DoJE=F BraDBF=F KetDBF=F FulRan=T
         wScrn=  0.000000 ICntrl=     600 IOpCl=  0 I1Cent=           0 NGrid=           0
         NMat0=    1 NMatS0=  25425 NMatT0=    0 NMatD0=    1 NMtDS0=    0 NMtDT0=    0
 Symmetry not used in FoFCou.
 Integral accuracy reduced to 1.0D-05 until final iterations.

 Cycle   1  Pass 0  IDiag  1:
 E= -705.989748800835    
 DIIS: error= 1.86D-02 at cycle   1 NSaved=   1.
 NSaved= 1 IEnMin= 1 EnMin= -705.989748800835     IErMin= 1 ErrMin= 1.86D-02
 ErrMax= 1.86D-02  0.00D+00 EMaxC= 1.00D-01 BMatC= 1.50D-01 BMatP= 1.50D-01
 IDIUse=3 WtCom= 8.14D-01 WtEn= 1.86D-01
 Coeff-Com:  0.100D+01
 Coeff-En:   0.100D+01
 Coeff:      0.100D+01
 Recover alternate guess density for next cycle.
 RMSDP=4.35D-03 MaxDP=1.34D-01              OVMax= 0.00D+00

 Cycle   2  Pass 0  IDiag  1:
 E= -705.922347722054     Delta-E=        0.067401078781 Rises=F Damp=F
 Switch densities from cycles 1 and 2 for lowest energy.
 DIIS: error= 3.26D-02 at cycle   2 NSaved=   2.
 NSaved= 2 IEnMin= 1 EnMin= -705.989748800835     IErMin= 1 ErrMin= 1.86D-02
 ErrMax= 3.26D-02  0.00D+00 EMaxC= 1.00D+00 BMatC= 5.08D-01 BMatP= 1.50D-01
 IDIUse=1 WtCom= 1.00D+00 WtEn= 0.00D+00
 Coeff-Com:  0.798D+00 0.202D+00
 Coeff:      0.798D+00 0.202D+00
 Gap=     0.140 Goal=   None    Shift=    0.000
 RMSDP=3.52D-03 MaxDP=1.28D-01 DE= 6.74D-02 OVMax= 1.63D-01

 Cycle   3  Pass 0  IDiag  1:
 E= -706.234632340807     Delta-E=       -0.312284618753 Rises=F Damp=F
 DIIS: error= 1.34D-02 at cycle   3 NSaved=   3.
 NSaved= 3 IEnMin= 3 EnMin= -706.234632340807     IErMin= 3 ErrMin= 1.34D-02
 ErrMax= 1.34D-02  0.00D+00 EMaxC= 1.00D+00 BMatC= 8.39D-02 BMatP= 1.50D-01
 IDIUse=1 WtCom= 1.00D+00 WtEn= 0.00D+00
 Coeff-Com:  0.590D-01 0.256D+00 0.685D+00
 Coeff:      0.590D-01 0.256D+00 0.685D+00
 Gap=     0.150 Goal=   None    Shift=    0.000
 RMSDP=1.39D-03 MaxDP=7.97D-02 DE=-3.12D-01 OVMax= 1.04D-01

 Cycle   4  Pass 0  IDiag  1:
 E= -706.269144698131     Delta-E=       -0.034512357324 Rises=F Damp=F
 DIIS: error= 1.44D-02 at cycle   4 NSaved=   4.
 NSaved= 4 IEnMin= 4 EnMin= -706.269144698131     IErMin= 3 ErrMin= 1.34D-02
 ErrMax= 1.44D-02  0.00D+00 EMaxC= 1.00D+00 BMatC= 3.52D-02 BMatP= 8.39D-02
 IDIUse=1 WtCom= 1.00D+00 WtEn= 0.00D+00
 Coeff-Com: -0.291D-01 0.165D+00 0.484D+00 0.381D+00
 Coeff:     -0.291D-01 0.165D+00 0.484D+00 0.381D+00
 Gap=     0.155 Goal=   None    Shift=    0.000
 RMSDP=7.93D-04 MaxDP=4.46D-02 DE=-3.45D-02 OVMax= 8.95D-02

 Cycle   5  Pass 0  IDiag  1:
 E= -706.295453883947     Delta-E=       -0.026309185816 Rises=F Damp=F
 DIIS: error= 3.38D-03 at cycle   5 NSaved=   5.
 NSaved= 5 IEnMin= 5 EnMin= -706.295453883947     IErMin= 5 ErrMin= 3.38D-03
 ErrMax= 3.38D-03  0.00D+00 EMaxC= 1.00D+00 BMatC= 2.40D-03 BMatP= 3.52D-02
 IDIUse=1 WtCom= 1.00D+00 WtEn= 0.00D+00
[...]
 81532,0.01183039,0.91721563,0.01642501,0.00160741,0.01865173,0.0270943
 0,-0.11969912,0.13914664,-0.00414847,0.00499661,-0.00263691,-0.0065170
 7,0.17654755,-0.03256000,0.01819142,-0.02568466,-0.05178199,0.14046405
 ,-0.33865356,0.00873123,-0.00267332,0.00873170,-0.01965999,-0.30409644
 ,0.66471248,0.00426566,-0.00234169,0.00476759,0.00293066,0.01090123,-0
 .02259781,-0.00006302,0.00099888,-0.00201010,-0.41200146,0.04904057,-0
 .08979245,0.41878981,-0.00008495,0.00195812,0.00477603,0.01836548,-0.0
 0189996,-0.00012214,0.00044303,0.00229709,0.00040140,0.04794061,-0.024
 83813,0.03845726,-0.05857652,0.03182897,0.00021349,0.00491449,-0.00580
 118,-0.03778638,-0.00023803,-0.00032114,-0.00086781,0.00027317,0.00184
 484,-0.08851293,0.03872723,-0.08376806,0.10980808,-0.03437710,0.082604
 92,-0.13727942,-0.04135624,0.08786290,-0.03255243,-0.00850103,0.018503
 97,-0.02468253,-0.00185857,0.00526650,-0.00793696,-0.00001109,0.000339
 92,-0.00034118,-0.00135535,0.00275909,0.56903144,-0.00300827,-0.060453
 86,0.04574549,-0.00280077,-0.00204031,-0.00792579,0.01105268,-0.009731
 81,0.02861124,0.00293940,0.00077400,-0.00024459,-0.00025337,-0.0002296
 3,-0.00035480,-0.06161495,0.15245056,0.01471864,0.04873225,-0.13554253
 ,0.00589253,-0.00762109,0.00919857,-0.02088401,0.02960863,-0.05268646,
 -0.00567342,-0.00006161,0.00122948,0.00054406,-0.00032189,0.00026635,0
 .08608544,-0.15790313,0.38066729,-0.10062300,0.00242254,0.00149675,-0.
 01227966,-0.00204940,0.00416782,-0.02340893,-0.02769161,0.05754874,0.0
 0428219,-0.00118406,0.00216253,-0.00078075,0.00037319,-0.00066551,-0.3
 1604108,0.05003573,-0.08519496,0.92413007,0.00301759,-0.00094560,0.009
 59614,-0.00366388,-0.00236853,0.00269231,-0.04838301,0.00051695,0.0103
 5015,0.00160807,-0.00062138,0.00181358,-0.00005361,0.00028548,0.000160
 49,0.08063847,-0.09919654,0.04874775,0.00718286,0.28290670,-0.00244938
 ,0.00882677,-0.01394640,0.01054968,0.00239181,-0.00620390,0.09744931,0
 .00982430,-0.02115880,-0.00392719,0.00208043,-0.00405794,0.00026223,0.
 00011612,0.00017616,-0.14359154,0.05326446,-0.16742941,-0.05304803,-0.
 20150498,0.58722177,-0.00413736,0.00240423,-0.00497145,0.01961954,-0.0
 0299173,0.00513074,0.00418228,-0.00145577,0.00263852,-0.30566991,-0.07
 527890,0.17098430,-0.00209145,-0.00671615,0.01419790,0.00283142,0.0009
 2219,-0.00196600,-0.00487955,0.00106178,-0.00158007,0.29643201,-0.0009
 1387,-0.00151175,0.00024154,-0.01381103,-0.00758080,0.00878805,-0.0003
 7897,-0.00119467,0.00035578,-0.07181612,-0.04201533,0.07996755,0.00239
 674,-0.00240513,-0.00744603,-0.00134299,-0.00166769,-0.00070396,0.0012
 8387,-0.00077981,-0.00051109,0.08176900,0.04984098,0.00190769,0.000196
 41,-0.00185642,0.02754827,0.00781599,-0.02125848,0.00060469,0.00039349
 ,-0.00185571,0.16456359,0.08067499,-0.18176606,-0.00527168,-0.00712058
 ,0.00937427,0.00256188,-0.00062716,-0.00072646,-0.00247055,-0.00048025
 ,0.00044298,-0.18413011,-0.08330135,0.19435588,0.03040749,0.00571803,-
 0.01359986,-0.01304654,-0.00127005,0.00325216,-0.20767412,-0.04458710,
 0.10583898,0.00226089,0.00077153,-0.00162984,-0.00037019,-0.00011394,0
 .00026009,-0.00239562,-0.00346130,0.00672503,-0.00733879,0.00671012,-0
 .01118052,-0.00116370,0.00032579,-0.00062639,0.87296461,0.00025809,-0.
 00588851,0.01879481,-0.00751242,0.00044517,-0.00019046,-0.05113215,-0.
 09920472,0.13039489,0.00126448,-0.00079005,0.00129540,-0.00042778,-0.0
 0012721,-0.00005092,-0.00282198,0.00025356,0.00532425,0.00435468,0.003
 55607,0.00115043,-0.00028113,0.00013216,-0.00035245,-0.03600367,0.2028
 9645,-0.00668987,0.01832165,-0.03420322,0.01852535,-0.00048348,0.00039
 855,0.11081160,0.12376681,-0.29959138,-0.00305452,0.00153368,-0.003106
 83,0.00104652,-0.00006885,-0.00007811,0.00735937,0.00595304,-0.0092230
 2,-0.00894590,0.00061765,0.00366393,0.00066307,-0.00045124,0.00081791,
 0.02473086,-0.34260745,0.65251044,-0.07909323,0.02904609,-0.05227085,0
 .01199589,0.00167226,-0.00294207,-0.38810785,0.00025771,0.01926919,-0.
 00499529,0.00220126,-0.00447010,0.00051947,0.00016646,-0.00045615,0.00
 307259,0.00030603,0.00136855,-0.11287588,-0.00335421,0.01150981,-0.002
 46894,-0.00016594,0.00058736,-0.03691088,-0.01048330,0.02752101,0.6106
 5166,0.00132730,0.01210848,0.00936752,0.00173550,0.00243755,0.00682257
 ,-0.00759769,-0.08424748,0.01874751,0.00199124,-0.00004191,-0.00180595
 ,-0.00012715,-0.00068551,-0.00018189,0.02818412,0.00837153,0.03900846,
 0.00315511,-0.11354223,0.07829562,-0.00167047,0.00091520,-0.00032317,-
 0.02421632,0.00811866,0.00235748,0.00281564,0.16593547,0.00232613,0.00
 815448,0.00034516,-0.00344386,0.00674399,-0.00727077,0.03888387,0.0176
 5560,-0.11469752,-0.00364158,-0.00183315,0.00280846,0.00022603,-0.0002
 3288,-0.00037614,-0.05438171,0.04071962,-0.04938371,-0.00611614,0.0793
 5175,-0.23142031,0.00337993,-0.00028909,0.00128222,0.05261186,0.001799
 73,0.00121980,-0.04449123,-0.16404146,0.42122931,-0.00096487,-0.001636
 84,0.00365465,-0.00340793,-0.00013660,0.00039448,0.01887861,-0.0087650
 3,0.01332307,0.00057274,0.00002970,-0.00011142,-0.00012384,-0.00004015
 ,0.00008073,-0.00075869,-0.00056238,0.00156702,0.00053311,-0.00020273,
 -0.00007913,-0.00013644,0.00006293,-0.00009661,-0.19447396,0.09840259,
 -0.15803826,-0.00070999,0.00057411,-0.00089848,0.18106223,-0.00140868,
 0.00215374,0.00066079,0.00003830,-0.00011550,0.00032299,0.00772946,-0.
 00705462,0.00739677,0.00002238,-0.00033663,-0.00035479,0.00001154,-0.0
 0005015,0.00001337,-0.00011626,0.00237485,0.00088630,-0.00006121,-0.00
 214479,-0.00003145,-0.00000419,0.00006818,0.00004934,0.09722209,-0.093
 64295,0.15868275,0.00101685,-0.00084077,-0.00252670,-0.10217466,0.1004
 4631,0.00493159,0.00109525,0.00053073,-0.00082203,0.00028907,-0.000510
 84,-0.01636777,0.01279057,-0.02325514,0.00005140,-0.00043177,0.0003143
 8,-0.00007537,0.00001273,-0.00006426,-0.00020799,0.00084406,0.00111867
 ,0.00007064,-0.00018735,-0.00223882,-0.00000149,0.00007061,-0.00003937
 ,-0.15161192,0.15253989,-0.25572562,-0.00307177,-0.00258921,0.00297667
 ,0.16378572,-0.15906502,0.27168469,-0.00753767,0.00241571,-0.00408812,
 0.01575804,0.00061620,-0.00193364,-0.01329834,-0.00709394,0.01367260,-
 0.00320001,-0.00066068,0.00138982,0.00044798,0.00024362,-0.00050699,-0
 .00036616,0.00163549,-0.00320032,-0.00043525,-0.00126671,0.00251400,0.
 00071336,-0.00027451,0.00051082,-0.44108159,-0.00234058,-0.00062842,0.
 00513291,0.00088177,-0.00248565,0.00148489,-0.00186537,0.00260468,0.45
 354053,0.00285810,-0.00099346,0.00085066,-0.00456910,-0.00066025,0.002
 47792,-0.01378491,-0.00100433,-0.00888264,0.00093934,0.00074045,-0.000
 55978,-0.00011014,-0.00006945,0.00019684,0.00001239,-0.00232827,0.0003
 3848,-0.00080579,0.00363576,0.00051616,-0.00027077,0.00027790,-0.00005
 340,-0.00671763,-0.01806102,0.03160830,-0.00132738,0.00015171,0.003601
 53,0.01288969,-0.00186567,-0.00529904,0.00998538,0.02323337,-0.0046606
 1,0.00055269,-0.00145798,0.00769589,0.00228455,-0.00445001,0.03239531,
 -0.00669448,0.00921447,-0.00158748,-0.00050090,0.00158827,0.00015960,0
 .00017534,-0.00033999,-0.00036419,0.00003649,-0.00225385,0.00223545,0.
 00059316,0.00210504,0.00049357,-0.00001953,0.00028752,-0.00351272,0.03
 019869,-0.05797326,0.00189848,0.00351003,-0.00541951,-0.02049444,-0.00
 570622,0.00410853,-0.01277900,-0.02147813,0.05324688,-0.01696110,-0.00
 018745,0.00076467,0.01284806,-0.00228004,0.00422554,-0.00058787,0.0021
 0870,-0.00512047,-0.00146136,0.00153520,-0.00301182,0.00065562,-0.0001
 7323,0.00031936,-0.04767451,0.00295043,0.00408568,-0.32954998,-0.01651
 651,0.08966600,0.00088827,-0.00055731,0.00111481,0.00112154,-0.0007433
 4,0.00167372,-0.00215746,-0.00814370,0.01847470,-0.00029684,0.00007815
 ,-0.00010667,-0.00032504,0.00040504,-0.00077251,0.73894706,0.00166365,
 0.00337311,0.00130239,-0.00111243,0.00152337,-0.00037564,0.00277969,0.
 00043390,0.00618626,0.00009958,0.00013398,0.00029218,-0.00009322,-0.00
 000065,-0.00008956,0.01241130,0.00730181,-0.00355719,-0.05119438,-0.06
 536400,0.05911272,-0.00029517,-0.00008627,-0.00030160,-0.00193089,0.00
 069181,-0.00048588,-0.02296853,0.00086405,0.01124225,0.00013445,-0.000
 03296,-0.00020165,0.00018533,-0.00028826,0.00045439,0.08777292,0.28450
 878,0.00550785,0.00319330,0.00069674,-0.00806044,0.00115346,0.00007692
 ,-0.00907771,0.00397645,-0.00567753,0.00087531,-0.00100446,0.00234081,
 -0.00030494,0.00003542,-0.00015522,-0.01505034,-0.00906683,0.02383056,
 0.07084358,0.04148174,-0.14707125,0.00008763,0.00008969,-0.00047606,0.
 00365676,0.00019740,-0.00016461,0.04561864,0.01229280,-0.02609670,-0.0
 0000643,-0.00025570,0.00047249,-0.00025489,0.00019566,-0.00045786,0.09
 145546,-0.31273700,0.63454206,0.00007247,0.00029685,0.00011960,-0.0010
 1774,-0.00005583,0.00038490,-0.00199090,0.00071559,0.00014472,0.000175
 99,-0.00012879,0.00030549,-0.00006729,0.00001280,-0.00001315,-0.001264
 60,-0.00305421,0.00407583,-0.02896217,0.00083665,-0.02575938,-0.000029
 20,0.00000515,-0.00003948,0.00072457,0.00009982,-0.00029994,0.00408284
 ,0.00176833,-0.00190429,-0.00001659,-0.00005535,0.00012769,-0.00011282
 ,0.00002062,-0.00009673,-0.27904529,-0.00760694,-0.19380481,0.30057182
 ,-0.00101978,0.00237395,0.00162386,0.00156978,0.00041225,0.00069449,-0
 .00033690,-0.00105646,-0.00061226,-0.00011529,0.00013969,-0.00037522,0
 .00008576,-0.00000265,0.00006752,-0.00118581,0.00059237,-0.00125428,0.
 00577559,-0.00213091,-0.00951910,0.00014578,-0.00003658,0.00016143,0.0
 0014863,-0.00017406,0.00023267,0.00014894,-0.00164224,0.00044748,-0.00
 011251,0.00004779,0.00001711,-0.00008588,0.00011864,-0.00007342,-0.033
 77940,-0.01827079,0.01560862,0.00771016,0.02065110,0.00167699,0.000947
 83,0.00066744,0.00001126,0.00028637,-0.00039303,0.00046215,-0.00003615
 ,-0.00025431,-0.00005098,0.00000579,0.00000350,-0.00000785,0.00002380,
 -0.00000526,0.00225059,0.00047137,-0.00217844,0.01630288,-0.00386389,0
 .01491302,-0.00002981,0.00001632,-0.00002991,-0.00025015,-0.00006100,-
 0.00002982,-0.00049238,-0.00113342,-0.00004681,0.00009706,0.00003935,-
 0.00002789,0.00009737,-0.00000781,0.00008133,-0.21298954,0.03184708,-0
 .23275313,0.21030027,-0.02034036,0.23161037,-0.07239759,-0.01092668,0.
 02444206,-0.20629017,-0.05578315,0.11949897,0.00857100,-0.00841073,0.0
 1688684,0.02635390,-0.01111128,0.02191352,-0.01430794,-0.00279723,0.00
 628347,-0.00693567,0.00333533,-0.00622954,0.00692194,-0.00070391,-0.00
 052635,0.00139892,0.00218608,-0.00422656,-0.00194780,0.00775617,-0.016
 00751,-0.00428656,-0.00097097,0.00194129,-0.00170507,-0.00048310,0.000
 97870,-0.01002888,-0.00003762,0.00063196,-0.00837424,0.00122294,0.0037
 0761,0.00049702,-0.00103580,0.00024014,0.55535965,-0.01067322,0.008052
 28,-0.00612849,-0.03736915,-0.09959436,0.08700186,0.00108160,-0.003330
 85,0.00584414,-0.01251350,0.00313863,0.02844967,-0.00245048,-0.0026545
 4,-0.00152904,-0.00051454,0.00065594,-0.00045634,0.00173190,0.00008087
 ,0.00030166,0.00329190,0.00564881,0.00434127,0.00547397,0.00195993,0.0
 0058297,0.00033547,0.00025167,-0.00081515,0.00097792,0.00095774,0.0002
 3445,-0.00152317,-0.00347272,-0.00141167,-0.00121615,0.00018985,0.0005
 5245,0.00009766,-0.00026140,0.00000942,0.05505610,0.13683443,0.0239272
 8,-0.00595303,0.01686401,0.08112825,0.08731755,-0.24025114,-0.00246916
 ,0.00590553,-0.01259750,0.02530893,0.02835096,-0.04210648,0.00536265,-
 0.00160507,-0.00041820,0.00133016,-0.00052519,0.00136917,-0.00364614,0
 .00076651,-0.00031007,-0.00634055,0.00441359,-0.00100727,-0.01076385,0
 .00107335,0.00176855,-0.00068178,-0.00077460,0.00155753,-0.00200753,0.
 00002641,0.00054202,0.00336906,-0.00148564,-0.00151283,0.00262806,-0.0
 0044325,-0.00124996,-0.00019093,0.00035324,-0.00008356,-0.12645715,-0.
 16090025,0.39167554,-0.00089726,0.00070530,-0.00070164,0.00009923,0.00
 001175,0.00025259,0.00082750,-0.00082806,0.00209254,0.00015098,0.00011
 517,-0.00018488,-0.00006187,0.00001255,-0.00003675,0.00196939,0.000879
 49,-0.00051531,0.00405799,-0.02643358,0.02856345,-0.00034422,-0.000017
 19,-0.00003205,-0.00065900,0.00028384,-0.00051302,-0.00549428,-0.00032
 350,0.00075138,0.00006135,0.00001176,-0.00006380,-0.00001870,-0.000067
 98,0.00016745,-0.07072358,-0.02077434,0.00657192,0.00666864,0.02170023
 ,-0.01761381,0.00018102,0.00002990,-0.00009853,0.06418305,-0.00099460,
 -0.00090406,-0.00040846,0.00062415,-0.00018807,-0.00000175,0.00096496,
 0.00199423,0.00054311,-0.00007596,-0.00002903,-0.00019344,0.00003041,0
 .00001984,0.00002393,0.00020062,0.00025943,-0.00108470,0.00612920,-0.0
 0400217,-0.00481702,-0.00000079,0.00012574,0.00010078,-0.00006667,-0.0
 0011619,-0.00000866,0.00009563,0.00151740,0.00040345,-0.00000059,0.000
 11257,0.00002733,0.00003031,-0.00008789,-0.00006783,-0.03078088,-0.214
 82186,0.24436894,-0.00064734,-0.00054023,-0.00819065,-0.00033505,-0.00
 007382,0.00009698,0.02469414,0.21671486,-0.00245330,-0.00139089,-0.001
 10128,0.00188112,-0.00053792,0.00066035,0.00125759,0.00114857,-0.00034
 439,-0.00021826,0.00020842,-0.00065895,0.00007519,-0.00001111,0.000065
 53,-0.00236470,0.00073691,-0.00035813,0.00618014,0.00920919,-0.0140516
 3,0.00000824,-0.00001434,0.00027977,0.00005438,-0.00025277,0.00030143,
 0.00160891,0.00081123,0.00235972,-0.00003410,0.00007726,0.00000566,-0.
 00000522,-0.00001122,-0.00013507,0.00667918,0.20808795,-0.24753600,0.0
 0669182,0.01290623,-0.01139058,-0.00118153,-0.00014154,0.00032061,-0.0
 1858502,-0.23083656,0.27144286,0.01900992,-0.00561422,0.01115650,-0.07
 396797,-0.01894653,0.03998884,-0.00814980,0.00645241,-0.01275935,-0.00
 778001,0.01116890,-0.02230357,0.02218981,0.00269150,-0.00651934,0.0056
 2022,-0.00038138,0.00061453,-0.00792973,-0.00039299,0.00263599,-0.0049
 2755,0.00042292,-0.00079444,0.00065237,-0.00281202,0.00651805,0.004966
 41,0.00094770,-0.00199405,0.00061755,0.00033420,-0.00091733,-0.0024749
 8,0.00252575,-0.00532593,0.00740482,-0.00096089,-0.00406218,-0.0006919
 6,0.00098143,-0.00008254,-0.14794672,0.00275546,-0.00348369,-0.0001730
 6,0.00033413,0.00108518,0.64097727,-0.00189631,0.00311027,0.00392997,-
 0.01975379,-0.00601964,-0.01685365,0.00006203,-0.00093075,-0.00006342,
 0.00633116,-0.00333190,0.00347756,-0.00815402,-0.00408941,0.00584050,-
 0.00003761,0.00328117,0.00161474,0.00013783,0.00075262,0.00021062,0.00
 082049,-0.00073995,0.00029119,0.00131589,-0.00057704,0.00183019,-0.000
 19069,-0.00011109,0.00055335,0.00051749,-0.00009848,-0.00016926,0.0005
 4379,0.00065866,-0.00190052,-0.00036530,-0.00041775,-0.00013705,-0.000
 03385,-0.00026889,-0.00005925,0.01408323,-0.08185710,0.02515135,-0.000
 06454,0.00007742,0.00005717,0.03768189,0.38722474,0.00345923,0.0039157
 2,-0.00314881,0.04253678,-0.01671677,0.01864629,0.00001313,-0.00017356
 ,-0.00058476,-0.01259963,0.00339289,-0.00788751,0.01573886,0.00540007,
 -0.01301464,0.00008209,0.00162278,0.00073468,0.00013829,0.00029408,0.0
 0037483,-0.00154932,0.00022999,-0.00117029,-0.00253110,0.00193071,-0.0
 0346969,0.00027711,0.00055526,-0.00093338,-0.00103856,-0.00018386,0.00
 016600,-0.00118877,-0.00190351,0.00352724,0.00059286,-0.00026956,-0.00
 053151,-0.00003975,-0.00005532,-0.00004691,-0.02710734,0.02551080,-0.1
 2025977,0.00004036,0.00006363,0.00020370,-0.08537397,-0.27970570,0.814
 01502,-0.00583609,0.00034645,-0.00047937,0.00139217,0.00473138,-0.0097
 6231,0.00227652,-0.00260511,0.00518555,-0.00060415,-0.00214548,0.00434
 521,-0.00247418,-0.00015690,0.00047698,-0.00262698,0.00078058,-0.00145
 672,0.00293652,-0.00028580,-0.00010315,0.00117237,0.00004430,-0.000147
 00,0.00053490,0.00107872,-0.00251036,-0.00148058,-0.00002505,0.0000836
 3,-0.00007463,-0.00012094,0.00033263,0.00035489,-0.00059896,0.00127560
 ,-0.00270737,0.00041861,0.00122925,0.00021752,-0.00035234,0.00006353,-
 0.08486954,-0.02738674,0.05744880,0.00010053,-0.00011181,-0.00038137,-
 0.26183110,-0.08864104,0.18213568,0.31522420,-0.00136185,0.00031126,-0
 .00106482,0.00306013,0.00675133,0.00250203,0.00025625,-0.00102356,0.00
 221579,-0.00288347,-0.00037248,-0.00069910,0.00318824,0.00220496,-0.00
 104094,-0.00120692,-0.00034953,-0.00071892,0.00104150,-0.00045673,0.00
 016727,-0.00006892,-0.00051691,-0.00086246,0.00030267,0.00084241,-0.00
 122404,-0.00010454,0.00014858,-0.00030184,-0.00005952,-0.00011753,0.00
 005353,-0.00065377,-0.00067808,0.00040674,-0.00081477,0.00026256,0.000
 40865,0.00007509,-0.00007413,0.00003881,-0.01812683,0.01668745,0.00545
 704,0.00004818,-0.00005379,-0.00014110,-0.08261589,-0.15094773,0.12838
 876,0.11342162,0.12649077,0.00292470,-0.00110601,0.00192321,-0.0062069
 9,0.00240580,0.00326908,-0.00057059,0.00225198,-0.00452992,0.00575884,
 -0.00073321,0.00053679,-0.00624764,-0.00083398,0.00377104,0.00246215,-
 0.00079225,0.00077575,-0.00223622,0.00038707,-0.00056429,0.00005436,-0
 .00082947,0.00084049,-0.00061359,-0.00105996,0.00285516,0.00026426,-0.
 00028892,0.00059752,0.00009985,0.00001371,-0.00023260,0.00127338,0.000
 31509,-0.00136949,0.00170707,-0.00027330,-0.00065031,-0.00013180,0.000
 27220,-0.00005194,0.03861901,0.00567751,0.00699268,-0.00007403,0.00005
 614,0.00021034,0.17015387,0.12856541,-0.35058091,-0.23421141,-0.188880
 44,0.41900845,-0.00411422,0.00055718,-0.00106481,0.01177116,0.00572594
 ,-0.01202473,0.00329142,-0.00100009,0.00186960,-0.00997110,-0.00719582
 ,0.01533405,-0.01711582,-0.00023481,0.00096582,-0.00166923,0.00029928,
 -0.00055704,0.00224294,0.00020141,-0.00090575,-0.00138985,0.00078116,-
 0.00156425,-0.00160420,0.00105997,-0.00216174,-0.00184084,-0.00030597,
 0.00067820,-0.00054164,-0.00017496,0.00036309,0.00144685,-0.00134602,0
 .00264031,-0.00200074,0.00024833,0.00106772,0.00018768,-0.00024259,0.0
 0001483,-0.04019326,0.02281507,-0.04436388,0.00007230,-0.00008986,-0.0
 0029826,-0.18556547,0.05764336,-0.11358597,0.03829501,-0.01349720,0.02
 697475,0.20869903,0.00072930,-0.00018030,-0.00079600,-0.00455709,-0.00
 632402,0.01277480,-0.00141288,0.00022925,0.00019574,-0.00893415,0.0039
 9763,-0.00140604,0.00593463,-0.00154204,-0.00490920,0.00047643,-0.0003
 1761,-0.00057774,-0.00063753,-0.00018175,0.00012531,-0.00138137,0.0015
 2591,-0.00060248,0.00037886,-0.00031446,-0.00015758,0.00053224,0.00029
 092,-0.00063298,0.00010215,0.00013885,-0.00003129,-0.00077298,0.000692
 89,-0.00035937,0.00070764,-0.00000070,-0.00035353,-0.00005641,0.000122
 57,0.00000638,0.02708249,0.01678718,0.01277452,0.00001688,-0.00000438,
 0.00009454,0.04542766,-0.14571512,0.12770358,0.00160853,0.00089114,0.0
 5485262,-0.06524438,0.12990403,-0.00134038,-0.00083760,0.00107422,0.00
 875719,0.01248828,-0.02588125,0.00279647,0.00012904,-0.00019375,0.0188
 0995,-0.00147430,0.00542417,-0.01168298,-0.00470456,0.00623911,-0.0009
 0360,-0.00056571,0.00059148,0.00117662,-0.00002510,-0.00044491,0.00293
 053,-0.00060702,0.00250498,-0.00081020,-0.00012454,0.00002979,-0.00104
 699,-0.00062988,0.00126845,-0.00019763,-0.00004531,0.00017469,0.001639
 28,-0.00041947,0.00121054,-0.00138607,0.00020943,0.00086055,0.00012993
 ,-0.00015489,0.00001592,-0.05340758,0.01287629,-0.00129331,-0.00002084
 ,-0.00007520,-0.00027395,-0.08853658,0.12736680,-0.33603958,-0.0035251
 7,0.05529504,-0.08280105,0.12661806,-0.19870128,0.42753390\\-0.0000060
 8,0.00000966,-0.00000375,-0.00000337,0.00000747,-0.00000145,-0.0000039
 6,-0.00001665,0.00003007,0.00000304,0.00000088,0.00000010,0.00000347,0
 .00000186,-0.00000133,-0.00000017,-0.00000100,-0.00000448,0.00000611,0
 .00000387,-0.00000026,0.00000320,-0.00000278,-0.00000357,0.00000342,0.
 00000708,-0.00001006,0.00000073,-0.00000262,0.00000702,-0.00000427,0.0
 0000380,-0.00000741,0.00000553,-0.00000115,-0.00000526,-0.00000485,-0.
 00000451,0.00000518,-0.00000165,0.00000212,0.00000242,-0.00000602,-0.0
 0000583,-0.00000414,0.00000180,-0.00000009,0.00000662,0.00000690,-0.00
 000640,-0.00000694,-0.00000097,0.00000249,0.00000064,-0.00000288,0.000
 00179,-0.00000341\\\@



 WE LOSE BECAUSE WE WIN

 GAMBLERS,

 RECOLLECTING WHICH,

 TOSS THEIR DICE AGAIN....


                          EMILY DICKINSON  BOLTS OF MELODY NO. 533
 Job cpu time:       0 days  0 hours 14 minutes 56.0 seconds.
 File lengths (MBytes):  RWF=    122 Int=      0 D2E=      0 Chk=      5 Scr=      1
 Normal termination of Gaussian 09 at Mon Aug 23 16:08:00 2021.
