 Entering Gaussian System, Link 0=g09
 Input=B3LYP6-31G.QOYJOD06.gjf
 Output=B3LYP6-31G.QOYJOD06.log
 Initial command:
 /public/home/users/caep010/software/Gaussian09/g09/l1.exe "/public/home/users/caep010/.cache/gau_scr/Gau-106394.inp" -scrdir="/public/home/users/caep010/.cache/gau_scr/"
 Entering Link 1 = /public/home/users/caep010/software/Gaussian09/g09/l1.exe PID=    106395.
  
 Copyright (c) 1988,1990,1992,1993,1995,1998,2003,2009,2015,
            Gaussian, Inc.  All Rights Reserved.
  
 This is part of the Gaussian(R) 09 program.  It is based on
 the Gaussian(R) 03 system (copyright 2003, Gaussian, Inc.),
 the Gaussian(R) 98 system (copyright 1998, Gaussian, Inc.),
 the Gaussian(R) 94 system (copyright 1995, Gaussian, Inc.),
 the Gaussian 92(TM) system (copyright 1992, Gaussian, Inc.),
 the Gaussian 90(TM) system (copyright 1990, Gaussian, Inc.),
 the Gaussian 88(TM) system (copyright 1988, Gaussian, Inc.),
 the Gaussian 86(TM) system (copyright 1986, Carnegie Mellon
 University), and the Gaussian 82(TM) system (copyright 1983,
 Carnegie Mellon University). Gaussian is a federally registered
 trademark of Gaussian, Inc.
  
 This software contains proprietary and confidential information,
 including trade secrets, belonging to Gaussian, Inc.
  
 This software is provided under written license and may be
 used, copied, transmitted, or stored only in accord with that
 written license.
  
 The following legend is applicable only to US Government
 contracts under FAR:
  
                    RESTRICTED RIGHTS LEGEND
  
 Use, reproduction and disclosure by the US Government is
 subject to restrictions as set forth in subparagraphs (a)
 and (c) of the Commercial Computer Software - Restricted
 Rights clause in FAR 52.227-19.
  
 Gaussian, Inc.
 340 Quinnipiac St., Bldg. 40, Wallingford CT 06492
  
  
 ---------------------------------------------------------------
 Warning -- This program may not be used in any manner that
 competes with the business of Gaussian, Inc. or will provide
 assistance to any competitor of Gaussian, Inc.  The licensee
 of this program is prohibited from giving any competitor of
 Gaussian, Inc. access to this program.  By using this program,
 the user acknowledges that Gaussian, Inc. is engaged in the
 business of creating and licensing software in the field of
 computational chemistry and represents and warrants to the
 licensee that it is not a competitor of Gaussian, Inc. and that
 it will not use this program in any manner prohibited above.
 ---------------------------------------------------------------
  

 Cite this work as:
 Gaussian 09, Revision E.01,
 M. J. Frisch, G. W. Trucks, H. B. Schlegel, G. E. Scuseria, 
 M. A. Robb, J. R. Cheeseman, G. Scalmani, V. Barone, B. Mennucci, 
 G. A. Petersson, H. Nakatsuji, M. Caricato, X. Li, H. P. Hratchian, 
 A. F. Izmaylov, J. Bloino, G. Zheng, J. L. Sonnenberg, M. Hada, 
 M. Ehara, K. Toyota, R. Fukuda, J. Hasegawa, M. Ishida, T. Nakajima, 
 Y. Honda, O. Kitao, H. Nakai, T. Vreven, J. A. Montgomery, Jr., 
 J. E. Peralta, F. Ogliaro, M. Bearpark, J. J. Heyd, E. Brothers, 
 K. N. Kudin, V. N. Staroverov, T. Keith, R. Kobayashi, J. Normand, 
 K. Raghavachari, A. Rendell, J. C. Burant, S. S. Iyengar, J. Tomasi, 
 M. Cossi, N. Rega, J. M. Millam, M. Klene, J. E. Knox, J. B. Cross, 
 V. Bakken, C. Adamo, J. Jaramillo, R. Gomperts, R. E. Stratmann, 
 O. Yazyev, A. J. Austin, R. Cammi, C. Pomelli, J. W. Ochterski, 
 R. L. Martin, K. Morokuma, V. G. Zakrzewski, G. A. Voth, 
 P. Salvador, J. J. Dannenberg, S. Dapprich, A. D. Daniels, 
 O. Farkas, J. B. Foresman, J. V. Ortiz, J. Cioslowski, 
 and D. J. Fox, Gaussian, Inc., Wallingford CT, 2013.
 
 ******************************************
 Gaussian 09:  ES64L-G09RevE.01 30-Nov-2015
                20-Aug-2021 
 ******************************************
 %nproc=32
 Will use up to   32 processors via shared memory.
 %mem=180GB
 -------------------------
 #P OPT Freq B3LYP/6-31G**
 -------------------------
 1/14=-1,18=20,19=15,26=3,38=1/1,3;
 2/9=110,12=2,17=6,18=5,40=1/2;
 3/5=1,6=6,7=101,11=2,16=1,25=1,30=1,71=1,74=-5/1,2,3;
 4//1;
 5/5=2,38=5/2;
 6/7=2,8=2,9=2,10=2,28=1/1;
 7//1,2,3,16;
 1/14=-1,18=20,19=15,26=3/3(2);
 2/9=110/2;
 99//99;
 2/9=110/2;
 3/5=1,6=6,7=101,11=2,16=1,25=1,30=1,71=1,74=-5/1,2,3;
 4/5=5,16=3,69=1/1;
 5/5=2,38=5/2;
 7//1,2,3,16;
 1/14=-1,18=20,19=15,26=3/3(-5);
 2/9=110/2;
 6/7=2,8=2,9=2,10=2,19=2,28=1/1;
 99/9=1/99;
 Leave Link    1 at Fri Aug 20 15:43:15 2021, MaxMem= 24159191040 cpu:         2.3
 (Enter /public/home/users/caep010/software/Gaussian09/g09/l101.exe)
 --------
 QOYJOD06
 --------
 Symbolic Z-matrix:
 Charge =  0 Multiplicity = 1
 N                     1.5639   -0.7328    16.0512 
 C                     2.5096   -0.2946    15.3029 
 N                     3.7439   -0.7336    15.6215 
 H                     4.4838   -0.5363    15.2293 
 N                     2.2561    0.6089    14.1928 
 N                     2.2247   -1.5286    16.9314 
 O                     3.2221    0.9406    13.531 
 O                     1.1014    0.9436    14.0069 
 C                     3.572    -1.5642    16.7063 
 O                     4.4326   -2.1817    17.3114 
 H                     1.8362   -1.9644    17.563 
 
 NAtoms=     11 NQM=       11 NQMF=       0 NMMI=      0 NMMIF=      0
                NMic=       0 NMicF=      0.
                    Isotopes and Nuclear Properties:
 (Nuclear quadrupole moments (NQMom) in fm**2, nuclear magnetic moments (NMagM)
  in nuclear magnetons)

  Atom         1           2           3           4           5           6           7           8           9          10
 IAtWgt=          14          12          14           1          14          14          16          16          12          16
 AtmWgt=  14.0030740  12.0000000  14.0030740   1.0078250  14.0030740  14.0030740  15.9949146  15.9949146  12.0000000  15.9949146
 NucSpn=           2           0           2           1           2           2           0           0           0           0
 AtZEff=   0.0000000   0.0000000   0.0000000   0.0000000   0.0000000   0.0000000   0.0000000   0.0000000   0.0000000   0.0000000
 NQMom=    2.0440000   0.0000000   2.0440000   0.0000000   2.0440000   2.0440000   0.0000000   0.0000000   0.0000000   0.0000000
 NMagM=    0.4037610   0.0000000   0.4037610   2.7928460   0.4037610   0.4037610   0.0000000   0.0000000   0.0000000   0.0000000
 AtZNuc=   7.0000000   6.0000000   7.0000000   1.0000000   7.0000000   7.0000000   8.0000000   8.0000000   6.0000000   8.0000000

  Atom        11
 IAtWgt=           1
 AtmWgt=   1.0078250
 NucSpn=           1
 AtZEff=   0.0000000
 NQMom=    0.0000000
 NMagM=    2.7928460
 AtZNuc=   1.0000000
 Leave Link  101 at Fri Aug 20 15:43:15 2021, MaxMem= 24159191040 cpu:        10.5
 (Enter /public/home/users/caep010/software/Gaussian09/g09/l103.exe)

 GradGradGradGradGradGradGradGradGradGradGradGradGradGradGradGradGradGrad
 Berny optimization.
 Initialization pass.
                           ----------------------------
                           !    Initial Parameters    !
                           ! (Angstroms and Degrees)  !
 --------------------------                            --------------------------
 ! Name  Definition              Value          Derivative Info.                !
 --------------------------------------------------------------------------------
 ! R1    R(1,2)                  1.2831         estimate D2E/DX2                !
 ! R2    R(1,6)                  1.3582         estimate D2E/DX2                !
 ! R3    R(2,3)                  1.3482         estimate D2E/DX2                !
 ! R4    R(2,5)                  1.4536         estimate D2E/DX2                !
 ! R5    R(3,4)                  0.8603         estimate D2E/DX2                !
 ! R6    R(3,9)                  1.377          estimate D2E/DX2                !
 ! R7    R(5,7)                  1.217          estimate D2E/DX2                !
 ! R8    R(5,8)                  1.2165         estimate D2E/DX2                !
 ! R9    R(6,9)                  1.3664         estimate D2E/DX2                !
 ! R10   R(6,11)                 0.8601         estimate D2E/DX2                !
 ! R11   R(9,10)                 1.2199         estimate D2E/DX2                !
 ! A1    A(2,1,6)              102.6774         estimate D2E/DX2                !
 ! A2    A(1,2,3)              115.1979         estimate D2E/DX2                !
 ! A3    A(1,2,5)              121.9467         estimate D2E/DX2                !
 ! A4    A(3,2,5)              122.8554         estimate D2E/DX2                !
 ! A5    A(2,3,4)              127.2239         estimate D2E/DX2                !
 ! A6    A(2,3,9)              105.5618         estimate D2E/DX2                !
 ! A7    A(4,3,9)              127.2143         estimate D2E/DX2                !
 ! A8    A(2,5,7)              116.5046         estimate D2E/DX2                !
 ! A9    A(2,5,8)              116.9524         estimate D2E/DX2                !
 ! A10   A(7,5,8)              126.5354         estimate D2E/DX2                !
 ! A11   A(1,6,9)              112.8437         estimate D2E/DX2                !
 ! A12   A(1,6,11)             123.574          estimate D2E/DX2                !
 ! A13   A(9,6,11)             123.5823         estimate D2E/DX2                !
 ! A14   A(3,9,6)              103.7181         estimate D2E/DX2                !
 ! A15   A(3,9,10)             127.447          estimate D2E/DX2                !
 ! A16   A(6,9,10)             128.8348         estimate D2E/DX2                !
 ! D1    D(6,1,2,3)             -0.2341         estimate D2E/DX2                !
 ! D2    D(6,1,2,5)            179.693          estimate D2E/DX2                !
 ! D3    D(2,1,6,9)              0.0222         estimate D2E/DX2                !
 ! D4    D(2,1,6,11)          -179.9277         estimate D2E/DX2                !
 ! D5    D(1,2,3,4)           -179.6535         estimate D2E/DX2                !
 ! D6    D(1,2,3,9)              0.3529         estimate D2E/DX2                !
 ! D7    D(5,2,3,4)              0.42           estimate D2E/DX2                !
 ! D8    D(5,2,3,9)           -179.5735         estimate D2E/DX2                !
 ! D9    D(1,2,5,7)           -178.5159         estimate D2E/DX2                !
 ! D10   D(1,2,5,8)              0.5473         estimate D2E/DX2                !
 ! D11   D(3,2,5,7)              1.4056         estimate D2E/DX2                !
 ! D12   D(3,2,5,8)           -179.5311         estimate D2E/DX2                !
 ! D13   D(2,3,9,6)             -0.2967         estimate D2E/DX2                !
 ! D14   D(2,3,9,10)           179.5861         estimate D2E/DX2                !
 ! D15   D(4,3,9,6)            179.7098         estimate D2E/DX2                !
 ! D16   D(4,3,9,10)            -0.4074         estimate D2E/DX2                !
 ! D17   D(1,6,9,3)              0.179          estimate D2E/DX2                !
 ! D18   D(1,6,9,10)          -179.7015         estimate D2E/DX2                !
 ! D19   D(11,6,9,3)          -179.8711         estimate D2E/DX2                !
 ! D20   D(11,6,9,10)            0.2484         estimate D2E/DX2                !
 --------------------------------------------------------------------------------
 Trust Radius=3.00D-01 FncErr=1.00D-07 GrdErr=1.00D-06
 Number of steps in this run=     57 maximum allowed number of steps=    100.
 GradGradGradGradGradGradGradGradGradGradGradGradGradGradGradGradGradGrad

 Leave Link  103 at Fri Aug 20 15:43:15 2021, MaxMem= 24159191040 cpu:         0.3
 (Enter /public/home/users/caep010/software/Gaussian09/g09/l202.exe)
                          Input orientation:                          
 ---------------------------------------------------------------------
 Center     Atomic      Atomic             Coordinates (Angstroms)
 Number     Number       Type             X           Y           Z
 ---------------------------------------------------------------------
      1          7           0        1.563900   -0.732800   16.051200
      2          6           0        2.509600   -0.294600   15.302900
      3          7           0        3.743900   -0.733600   15.621500
      4          1           0        4.483800   -0.536300   15.229300
      5          7           0        2.256100    0.608900   14.192800
      6          7           0        2.224700   -1.528600   16.931400
      7          8           0        3.222100    0.940600   13.531000
      8          8           0        1.101400    0.943600   14.006900
      9          6           0        3.572000   -1.564200   16.706300
     10          8           0        4.432600   -2.181700   17.311400
     11          1           0        1.836200   -1.964400   17.563000
 ---------------------------------------------------------------------
                    Distance matrix (angstroms):
                    1          2          3          4          5
     1  N    0.000000
     2  C    1.283090   0.000000
     3  N    2.221946   1.348230   0.000000
     4  H    3.039728   1.990302   0.860349   0.000000
     5  N    2.394358   1.453581   2.461105   2.710805   0.000000
     6  N    1.358200   2.062992   2.157738   2.997555   3.474165
     7  O    3.449826   2.274424   2.728628   2.580183   1.217029
     8  O    2.683912   2.279426   3.521752   3.889087   1.216518
     9  C    2.269988   2.170279   1.377039   2.017297   3.573743
    10  O    3.452080   3.360528   2.329606   2.654261   4.717019
    11  H    1.968889   2.889594   2.987241   3.807284   4.261037
                    6          7          8          9         10
     6  N    0.000000
     7  O    4.319083   0.000000
     8  O    3.990774   2.173444   0.000000
     9  C    1.366439   4.059431   4.436179   0.000000
    10  O    2.333616   5.050296   5.637740   1.219871   0.000000
    11  H    0.860100   5.159144   4.652122   1.976638   2.617597
                   11
    11  H    0.000000
 Stoichiometry    C2H2N4O3
 Framework group  C1[X(C2H2N4O3)]
 Deg. of freedom    27
 Full point group                 C1      NOp   1
 Largest Abelian subgroup         C1      NOp   1
 Largest concise Abelian subgroup C1      NOp   1
                         Standard orientation:                         
 ---------------------------------------------------------------------
 Center     Atomic      Atomic             Coordinates (Angstroms)
 Number     Number       Type             X           Y           Z
 ---------------------------------------------------------------------
      1          7           0        0.118318    1.320867    0.003253
      2          6           0       -0.348952    0.125916   -0.005141
      3          7           0        0.578172   -0.852909   -0.013249
      4          1           0        0.438683   -1.701813   -0.023536
      5          7           0       -1.777773   -0.141232   -0.004203
      6          7           0        1.460958    1.115886    0.005890
      7          8           0       -2.111499   -1.311445    0.015521
      8          8           0       -2.519063    0.823341   -0.005410
      9          6           0        1.795327   -0.208991   -0.001462
     10          8           0        2.903819   -0.718210    0.003528
     11          1           0        2.039294    1.752486    0.012210
 ---------------------------------------------------------------------
 Rotational constants (GHZ):      4.7835302      1.1719868      0.9413825
 Leave Link  202 at Fri Aug 20 15:43:15 2021, MaxMem= 24159191040 cpu:         0.8
 (Enter /public/home/users/caep010/software/Gaussian09/g09/l301.exe)
 Standard basis: 6-31G(d,p) (6D, 7F)
 Ernie: Thresh=  0.10000D-02 Tol=  0.10000D-05 Strict=F.
 There are   145 symmetry adapted cartesian basis functions of A   symmetry.
 There are   145 symmetry adapted basis functions of A   symmetry.
   145 basis functions,   266 primitive gaussians,   145 cartesian basis functions
    33 alpha electrons       33 beta electrons
       nuclear repulsion energy       451.9381518429 Hartrees.
 IExCor=  402 DFT=T Ex+Corr=B3LYP ExCW=0 ScaHFX=  0.200000
 ScaDFX=  0.800000  0.720000  1.000000  0.810000 ScalE2=  1.000000  1.000000
 IRadAn=      0 IRanWt=     -1 IRanGd=            0 ICorTp=0 IEmpDi=  4
 NAtoms=   11 NActive=   11 NUniq=   11 SFac= 1.00D+00 NAtFMM=   60 NAOKFM=F Big=F
 Integral buffers will be    131072 words long.
 Raffenetti 2 integral format.
 Two-electron integral symmetry is turned on.
 Leave Link  301 at Fri Aug 20 15:43:16 2021, MaxMem= 24159191040 cpu:         1.9
 (Enter /public/home/users/caep010/software/Gaussian09/g09/l302.exe)
 NPDir=0 NMtPBC=     1 NCelOv=     1 NCel=       1 NClECP=     1 NCelD=      1
         NCelK=      1 NCelE2=     1 NClLst=     1 CellRange=     0.0.
 One-electron integrals computed using PRISM.
 NBasis=   145 RedAO= T EigKep=  1.09D-03  NBF=   145
 NBsUse=   145 1.00D-06 EigRej= -1.00D+00 NBFU=   145
 Precomputing XC quadrature grid using
 IXCGrd= 4 IRadAn=           0 IRanWt=          -1 IRanGd=           0 AccXCQ= 0.00D+00.
 Generated NRdTot=       0 NPtTot=           0 NUsed=           0 NTot=          32
 NSgBfM=   144   144   144   144   144 MxSgAt=    11 MxSgA2=    11.
 Leave Link  302 at Fri Aug 20 15:43:16 2021, MaxMem= 24159191040 cpu:        13.4
 (Enter /public/home/users/caep010/software/Gaussian09/g09/l303.exe)
 DipDrv:  MaxL=1.
 Leave Link  303 at Fri Aug 20 15:43:16 2021, MaxMem= 24159191040 cpu:         0.7
 (Enter /public/home/users/caep010/software/Gaussian09/g09/l401.exe)
 ExpMin= 1.61D-01 ExpMax= 5.48D+03 ExpMxC= 8.25D+02 IAcc=1 IRadAn=         1 AccDes= 0.00D+00
 Harris functional with IExCor=  402 and IRadAn=       1 diagonalized for initial guess.
 HarFok:  IExCor=  402 AccDes= 0.00D+00 IRadAn=         1 IDoV= 1 UseB2=F ITyADJ=14
 ICtDFT=  3500011 ScaDFX=  1.000000  1.000000  1.000000  1.000000
 FoFCou: FMM=F IPFlag=           0 FMFlag=      100000 FMFlg1=           0
         NFxFlg=           0 DoJE=T BraDBF=F KetDBF=T FulRan=T
         wScrn=  0.000000 ICntrl=     500 IOpCl=  0 I1Cent=   200000004 NGrid=           0
         NMat0=    1 NMatS0=      1 NMatT0=    0 NMatD0=    1 NMtDS0=    0 NMtDT0=    0
 Petite list used in FoFCou.
 Harris En= -521.935277293269    
 JPrj=0 DoOrth=F DoCkMO=F.
 Leave Link  401 at Fri Aug 20 15:43:17 2021, MaxMem= 24159191040 cpu:        14.2
 (Enter /public/home/users/caep010/software/Gaussian09/g09/l502.exe)
 Closed shell SCF:
 Using DIIS extrapolation, IDIIS=  1040.
 Integral symmetry usage will be decided dynamically.
 Keep R1 ints in memory in canonical form, NReq=57669744.
 IVT=       87344 IEndB=       87344 NGot= 24159191040 MDV= 24103077292
 LenX= 24103077292 LenY= 24103055826
 Requested convergence on RMS density matrix=1.00D-08 within 128 cycles.
 Requested convergence on MAX density matrix=1.00D-06.
 Requested convergence on             energy=1.00D-06.
 No special actions if energy rises.
 FoFCou: FMM=F IPFlag=           0 FMFlag=           0 FMFlg1=           0
         NFxFlg=           0 DoJE=F BraDBF=F KetDBF=F FulRan=T
         wScrn=  0.000000 ICntrl=     600 IOpCl=  0 I1Cent=           0 NGrid=           0
         NMat0=    1 NMatS0=  10585 NMatT0=    0 NMatD0=    1 NMtDS0=    0 NMtDT0=    0
 Symmetry not used in FoFCou.
 Integral accuracy reduced to 1.0D-05 until final iterations.

 Cycle   1  Pass 0  IDiag  1:
 E= -521.637946983663    
 DIIS: error= 5.79D-02 at cycle   1 NSaved=   1.
 NSaved= 1 IEnMin= 1 EnMin= -521.637946983663     IErMin= 1 ErrMin= 5.79D-02
 ErrMax= 5.79D-02  0.00D+00 EMaxC= 1.00D-01 BMatC= 3.95D-01 BMatP= 3.95D-01
 IDIUse=3 WtCom= 4.21D-01 WtEn= 5.79D-01
 Coeff-Com:  0.100D+01
 Coeff-En:   0.100D+01
 Coeff:      0.100D+01
 Gap=     0.089 Goal=   None    Shift=    0.000
 GapD=    0.089 DampG=0.500 DampE=0.500 DampFc=0.2500 IDamp=-1.
 Damping current iteration by 2.50D-01
 RMSDP=1.24D-02 MaxDP=2.64D-01              OVMax= 4.14D-01

 Cycle   2  Pass 0  IDiag  1:
 E= -521.732504402139     Delta-E=       -0.094557418476 Rises=F Damp=T
 DIIS: error= 1.67D-02 at cycle   2 NSaved=   2.
 NSaved= 2 IEnMin= 2 EnMin= -521.732504402139     IErMin= 2 ErrMin= 1.67D-02
 ErrMax= 1.67D-02  0.00D+00 EMaxC= 1.00D-01 BMatC= 4.66D-02 BMatP= 3.95D-01
 IDIUse=3 WtCom= 8.33D-01 WtEn= 1.67D-01
 Coeff-Com: -0.322D+00 0.132D+01
 Coeff-En:   0.675D-01 0.932D+00
 Coeff:     -0.257D+00 0.126D+01
 Gap=     0.175 Goal=   None    Shift=    0.000
 RMSDP=2.43D-03 MaxDP=6.89D-02 DE=-9.46D-02 OVMax= 2.94D-01

 Cycle   3  Pass 0  IDiag  1:
 E= -521.898739087031     Delta-E=       -0.166234684891 Rises=F Damp=F
 DIIS: error= 1.18D-02 at cycle   3 NSaved=   3.
 NSaved= 3 IEnMin= 3 EnMin= -521.898739087031     IErMin= 3 ErrMin= 1.18D-02
 ErrMax= 1.18D-02  0.00D+00 EMaxC= 1.00D-01 BMatC= 3.11D-02 BMatP= 4.66D-02
 IDIUse=3 WtCom= 8.82D-01 WtEn= 1.18D-01
 Coeff-Com: -0.190D+00 0.724D+00 0.466D+00
 Coeff-En:   0.000D+00 0.000D+00 0.100D+01
 Coeff:     -0.168D+00 0.639D+00 0.529D+00
 Gap=     0.154 Goal=   None    Shift=    0.000
 RMSDP=1.65D-03 MaxDP=5.03D-02 DE=-1.66D-01 OVMax= 8.24D-02

 Cycle   4  Pass 0  IDiag  1:
 E= -521.915583470769     Delta-E=       -0.016844383738 Rises=F Damp=F
 DIIS: error= 8.85D-03 at cycle   4 NSaved=   4.
 NSaved= 4 IEnMin= 4 EnMin= -521.915583470769     IErMin= 4 ErrMin= 8.85D-03
 ErrMax= 8.85D-03  0.00D+00 EMaxC= 1.00D-01 BMatC= 1.24D-02 BMatP= 3.11D-02
 IDIUse=3 WtCom= 9.12D-01 WtEn= 8.85D-02
 Coeff-Com: -0.707D-01 0.242D+00 0.366D+00 0.463D+00
 Coeff-En:   0.000D+00 0.000D+00 0.297D+00 0.703D+00
 Coeff:     -0.644D-01 0.220D+00 0.360D+00 0.484D+00
 Gap=     0.154 Goal=   None    Shift=    0.000
 RMSDP=8.27D-04 MaxDP=3.14D-02 DE=-1.68D-02 OVMax= 5.84D-02

 Cycle   5  Pass 0  IDiag  1:
 E= -521.922888525975     Delta-E=       -0.007305055206 Rises=F Damp=F
 DIIS: error= 6.50D-03 at cycle   5 NSaved=   5.
 NSaved= 5 IEnMin= 5 EnMin= -521.922888525975     IErMin= 5 ErrMin= 6.50D-03
 ErrMax= 6.50D-03  0.00D+00 EMaxC= 1.00D-01 BMatC= 2.86D-03 BMatP= 1.24D-02
 IDIUse=3 WtCom= 9.35D-01 WtEn= 6.50D-02
 Coeff-Com: -0.257D-01 0.791D-01 0.200D+00 0.365D+00 0.382D+00
 Coeff-En:   0.000D+00 0.000D+00 0.000D+00 0.219D+00 0.781D+00
 Coeff:     -0.240D-01 0.740D-01 0.187D+00 0.355D+00 0.408D+00
 Gap=     0.156 Goal=   None    Shift=    0.000
 RMSDP=3.82D-04 MaxDP=1.50D-02 DE=-7.31D-03 OVMax= 3.30D-02

 Cycle   6  Pass 0  IDiag  1:
 E= -521.924838370421     Delta-E=       -0.001949844447 Rises=F Damp=F
 DIIS: error= 2.24D-03 at cycle   6 NSaved=   6.
 NSaved= 6 IEnMin= 6 EnMin= -521.924838370421     IErMin= 6 ErrMin= 2.24D-03
 ErrMax= 2.24D-03  0.00D+00 EMaxC= 1.00D-01 BMatC= 4.58D-04 BMatP= 2.86D-03
 IDIUse=3 WtCom= 9.78D-01 WtEn= 2.24D-02
 Coeff-Com: -0.415D-02 0.813D-02 0.669D-01 0.168D+00 0.308D+00 0.453D+00
 Coeff-En:   0.000D+00 0.000D+00 0.000D+00 0.000D+00 0.174D+00 0.826D+00
 Coeff:     -0.406D-02 0.795D-02 0.654D-01 0.164D+00 0.305D+00 0.462D+00
 Gap=     0.155 Goal=   None    Shift=    0.000
 RMSDP=1.36D-04 MaxDP=4.88D-03 DE=-1.95D-03 OVMax= 9.42D-03

 Cycle   7  Pass 0  IDiag  1:
 E= -521.925176170469     Delta-E=       -0.000337800048 Rises=F Damp=F
 DIIS: error= 3.58D-04 at cycle   7 NSaved=   7.
 NSaved= 7 IEnMin= 7 EnMin= -521.925176170469     IErMin= 7 ErrMin= 3.58D-04
 ErrMax= 3.58D-04  0.00D+00 EMaxC= 1.00D-01 BMatC= 2.43D-05 BMatP= 4.58D-04
 IDIUse=3 WtCom= 9.96D-01 WtEn= 3.58D-03
 Coeff-Com: -0.715D-03-0.596D-03 0.209D-01 0.590D-01 0.136D+00 0.274D+00
 Coeff-Com:  0.511D+00
 Coeff-En:   0.000D+00 0.000D+00 0.000D+00 0.000D+00 0.000D+00 0.340D-02
 Coeff-En:   0.997D+00
 Coeff:     -0.712D-03-0.594D-03 0.208D-01 0.588D-01 0.136D+00 0.274D+00
 Coeff:      0.513D+00
 Gap=     0.156 Goal=   None    Shift=    0.000
 RMSDP=2.98D-05 MaxDP=8.35D-04 DE=-3.38D-04 OVMax= 1.23D-03

 Cycle   8  Pass 0  IDiag  1:
 E= -521.925194391924     Delta-E=       -0.000018221455 Rises=F Damp=F
 DIIS: error= 6.37D-05 at cycle   8 NSaved=   8.
 NSaved= 8 IEnMin= 8 EnMin= -521.925194391924     IErMin= 8 ErrMin= 6.37D-05
 ErrMax= 6.37D-05  0.00D+00 EMaxC= 1.00D-01 BMatC= 8.78D-07 BMatP= 2.43D-05
 IDIUse=1 WtCom= 1.00D+00 WtEn= 0.00D+00
 Coeff-Com:  0.103D-03-0.132D-02 0.364D-02 0.104D-01 0.332D-01 0.849D-01
 Coeff-Com:  0.230D+00 0.639D+00
 Coeff:      0.103D-03-0.132D-02 0.364D-02 0.104D-01 0.332D-01 0.849D-01
 Coeff:      0.230D+00 0.639D+00
 Gap=     0.156 Goal=   None    Shift=    0.000
 RMSDP=6.43D-06 MaxDP=1.40D-04 DE=-1.82D-05 OVMax= 1.87D-04

 Initial convergence to 1.0D-05 achieved.  Increase integral accuracy.
 Cycle   9  Pass 1  IDiag  1:
 E= -521.925177383994     Delta-E=        0.000017007930 Rises=F Damp=F
 DIIS: error= 1.67D-05 at cycle   1 NSaved=   1.
 NSaved= 1 IEnMin= 1 EnMin= -521.925177383994     IErMin= 1 ErrMin= 1.67D-05
 ErrMax= 1.67D-05  0.00D+00 EMaxC= 1.00D-01 BMatC= 8.00D-08 BMatP= 8.00D-08
 IDIUse=1 WtCom= 1.00D+00 WtEn= 0.00D+00
 Coeff-Com:  0.100D+01
 Coeff:      0.100D+01
 Gap=     0.156 Goal=   None    Shift=    0.000
 RMSDP=6.43D-06 MaxDP=1.40D-04 DE= 1.70D-05 OVMax= 1.05D-04

 Cycle  10  Pass 1  IDiag  1:
 E= -521.925177369388     Delta-E=        0.000000014606 Rises=F Damp=F
 DIIS: error= 2.62D-05 at cycle   2 NSaved=   2.
 NSaved= 2 IEnMin= 1 EnMin= -521.925177383994     IErMin= 1 ErrMin= 1.67D-05
 ErrMax= 2.62D-05  0.00D+00 EMaxC= 1.00D-01 BMatC= 1.13D-07 BMatP= 8.00D-08
 IDIUse=1 WtCom= 1.00D+00 WtEn= 0.00D+00
 Coeff-Com:  0.550D+00 0.450D+00
 Coeff:      0.550D+00 0.450D+00
 Gap=     0.156 Goal=   None    Shift=    0.000
 RMSDP=2.34D-06 MaxDP=1.07D-04 DE= 1.46D-08 OVMax= 1.15D-04

 Cycle  11  Pass 1  IDiag  1:
 E= -521.925177451432     Delta-E=       -0.000000082044 Rises=F Damp=F
 DIIS: error= 7.03D-06 at cycle   3 NSaved=   3.
 NSaved= 3 IEnMin= 3 EnMin= -521.925177451432     IErMin= 3 ErrMin= 7.03D-06
 ErrMax= 7.03D-06  0.00D+00 EMaxC= 1.00D-01 BMatC= 1.03D-08 BMatP= 8.00D-08
 IDIUse=1 WtCom= 1.00D+00 WtEn= 0.00D+00
 Coeff-Com:  0.116D+00 0.241D+00 0.643D+00
 Coeff:      0.116D+00 0.241D+00 0.643D+00
 Gap=     0.156 Goal=   None    Shift=    0.000
 RMSDP=9.13D-07 MaxDP=2.53D-05 DE=-8.20D-08 OVMax= 4.03D-05

 Cycle  12  Pass 1  IDiag  1:
 E= -521.925177456402     Delta-E=       -0.000000004969 Rises=F Damp=F
 DIIS: error= 4.02D-06 at cycle   4 NSaved=   4.
 NSaved= 4 IEnMin= 4 EnMin= -521.925177456402     IErMin= 4 ErrMin= 4.02D-06
 ErrMax= 4.02D-06  0.00D+00 EMaxC= 1.00D-01 BMatC= 4.10D-09 BMatP= 1.03D-08
 IDIUse=1 WtCom= 1.00D+00 WtEn= 0.00D+00
 Coeff-Com:  0.427D-02 0.109D+00 0.452D+00 0.435D+00
 Coeff:      0.427D-02 0.109D+00 0.452D+00 0.435D+00
 Gap=     0.156 Goal=   None    Shift=    0.000
 RMSDP=4.37D-07 MaxDP=1.39D-05 DE=-4.97D-09 OVMax= 2.78D-05

 Cycle  13  Pass 1  IDiag  1:
 E= -521.925177459228     Delta-E=       -0.000000002826 Rises=F Damp=F
 DIIS: error= 2.51D-06 at cycle   5 NSaved=   5.
 NSaved= 5 IEnMin= 5 EnMin= -521.925177459228     IErMin= 5 ErrMin= 2.51D-06
 ErrMax= 2.51D-06  0.00D+00 EMaxC= 1.00D-01 BMatC= 4.64D-10 BMatP= 4.10D-09
 IDIUse=1 WtCom= 1.00D+00 WtEn= 0.00D+00
 Coeff-Com: -0.756D-02 0.544D-01 0.253D+00 0.304D+00 0.396D+00
 Coeff:     -0.756D-02 0.544D-01 0.253D+00 0.304D+00 0.396D+00
 Gap=     0.156 Goal=   None    Shift=    0.000
 RMSDP=1.51D-07 MaxDP=6.26D-06 DE=-2.83D-09 OVMax= 1.32D-05

 Cycle  14  Pass 1  IDiag  1:
 E= -521.925177459524     Delta-E=       -0.000000000296 Rises=F Damp=F
 DIIS: error= 9.56D-07 at cycle   6 NSaved=   6.
 NSaved= 6 IEnMin= 6 EnMin= -521.925177459524     IErMin= 6 ErrMin= 9.56D-07
 ErrMax= 9.56D-07  0.00D+00 EMaxC= 1.00D-01 BMatC= 8.46D-11 BMatP= 4.64D-10
 IDIUse=1 WtCom= 1.00D+00 WtEn= 0.00D+00
 Coeff-Com: -0.625D-02 0.231D-01 0.114D+00 0.159D+00 0.305D+00 0.405D+00
 Coeff:     -0.625D-02 0.231D-01 0.114D+00 0.159D+00 0.305D+00 0.405D+00
 Gap=     0.156 Goal=   None    Shift=    0.000
 RMSDP=5.79D-08 MaxDP=1.84D-06 DE=-2.96D-10 OVMax= 3.73D-06

 Cycle  15  Pass 1  IDiag  1:
 E= -521.925177459591     Delta-E=       -0.000000000067 Rises=F Damp=F
 DIIS: error= 9.02D-08 at cycle   7 NSaved=   7.
 NSaved= 7 IEnMin= 7 EnMin= -521.925177459591     IErMin= 7 ErrMin= 9.02D-08
 ErrMax= 9.02D-08  0.00D+00 EMaxC= 1.00D-01 BMatC= 2.09D-12 BMatP= 8.46D-11
 IDIUse=1 WtCom= 1.00D+00 WtEn= 0.00D+00
 Coeff-Com: -0.250D-02 0.708D-02 0.337D-01 0.530D-01 0.117D+00 0.200D+00
 Coeff-Com:  0.592D+00
 Coeff:     -0.250D-02 0.708D-02 0.337D-01 0.530D-01 0.117D+00 0.200D+00
 Coeff:      0.592D+00
 Gap=     0.156 Goal=   None    Shift=    0.000
 RMSDP=1.28D-08 MaxDP=3.47D-07 DE=-6.72D-11 OVMax= 5.72D-07

 Cycle  16  Pass 1  IDiag  1:
 E= -521.925177459584     Delta-E=        0.000000000008 Rises=F Damp=F
 DIIS: error= 3.69D-08 at cycle   8 NSaved=   8.
 NSaved= 8 IEnMin= 7 EnMin= -521.925177459591     IErMin= 8 ErrMin= 3.69D-08
 ErrMax= 3.69D-08  0.00D+00 EMaxC= 1.00D-01 BMatC= 3.06D-13 BMatP= 2.09D-12
 IDIUse=1 WtCom= 1.00D+00 WtEn= 0.00D+00
 Coeff-Com: -0.490D-03 0.917D-03 0.291D-02 0.839D-02 0.230D-01 0.555D-01
 Coeff-Com:  0.320D+00 0.590D+00
 Coeff:     -0.490D-03 0.917D-03 0.291D-02 0.839D-02 0.230D-01 0.555D-01
 Coeff:      0.320D+00 0.590D+00
 Gap=     0.156 Goal=   None    Shift=    0.000
 RMSDP=4.82D-09 MaxDP=1.32D-07 DE= 7.50D-12 OVMax= 1.89D-07

 SCF Done:  E(RB3LYP) =  -521.925177460     A.U. after   16 cycles
            NFock= 16  Conv=0.48D-08     -V/T= 2.0068
 KE= 5.184103632184D+02 PE=-2.125403352326D+03 EE= 6.331296598050D+02
 Leave Link  502 at Fri Aug 20 15:43:19 2021, MaxMem= 24159191040 cpu:        48.1
 (Enter /public/home/users/caep010/software/Gaussian09/g09/l601.exe)
 Copying SCF densities to generalized density rwf, IOpCl= 0 IROHF=0.

 **********************************************************************

            Population analysis using the SCF density.

 **********************************************************************

 Orbital symmetries:
       Occupied  (A) (A) (A) (A) (A) (A) (A) (A) (A) (A) (A) (A)
                 (A) (A) (A) (A) (A) (A) (A) (A) (A) (A) (A) (A)
                 (A) (A) (A) (A) (A) (A) (A) (A) (A)
       Virtual   (A) (A) (A) (A) (A) (A) (A) (A) (A) (A) (A) (A)
                 (A) (A) (A) (A) (A) (A) (A) (A) (A) (A) (A) (A)
                 (A) (A) (A) (A) (A) (A) (A) (A) (A) (A) (A) (A)
                 (A) (A) (A) (A) (A) (A) (A) (A) (A) (A) (A) (A)
                 (A) (A) (A) (A) (A) (A) (A) (A) (A) (A) (A) (A)
                 (A) (A) (A) (A) (A) (A) (A) (A) (A) (A) (A) (A)
                 (A) (A) (A) (A) (A) (A) (A) (A) (A) (A) (A) (A)
                 (A) (A) (A) (A) (A) (A) (A) (A) (A) (A) (A) (A)
                 (A) (A) (A) (A) (A) (A) (A) (A) (A) (A) (A) (A)
                 (A) (A) (A) (A)
 The electronic state is 1-A.
 Alpha  occ. eigenvalues --  -19.21475 -19.21039 -19.14296 -14.61016 -14.43818
 Alpha  occ. eigenvalues --  -14.42599 -14.42477 -10.35429 -10.34129  -1.27016
 Alpha  occ. eigenvalues --   -1.15454  -1.09533  -1.05206  -1.00494  -0.90307
 Alpha  occ. eigenvalues --   -0.80243  -0.74579  -0.65415  -0.61661  -0.58868
 Alpha  occ. eigenvalues --   -0.58036  -0.57318  -0.53292  -0.52425  -0.45357
 Alpha  occ. eigenvalues --   -0.39811  -0.38100  -0.38055  -0.34305  -0.33990
 Alpha  occ. eigenvalues --   -0.32472  -0.29658  -0.27040
 Alpha virt. eigenvalues --   -0.11450   0.01138   0.02783   0.08511   0.10627
 Alpha virt. eigenvalues --    0.12691   0.14598   0.23005   0.23352   0.24489
 Alpha virt. eigenvalues --    0.29645   0.31159   0.36599   0.46643   0.47794
 Alpha virt. eigenvalues --    0.47822   0.50280   0.53852   0.54146   0.57443
 Alpha virt. eigenvalues --    0.60651   0.62498   0.66009   0.68133   0.70646
 Alpha virt. eigenvalues --    0.72034   0.74012   0.74969   0.77909   0.78381
 Alpha virt. eigenvalues --    0.80207   0.82913   0.86688   0.92283   0.92317
 Alpha virt. eigenvalues --    0.94733   0.96941   0.98343   1.01663   1.02062
 Alpha virt. eigenvalues --    1.04847   1.06926   1.11718   1.12589   1.18641
 Alpha virt. eigenvalues --    1.20609   1.26158   1.28157   1.32224   1.33230
 Alpha virt. eigenvalues --    1.36920   1.37362   1.40112   1.40896   1.49427
 Alpha virt. eigenvalues --    1.56650   1.61520   1.67733   1.68814   1.72159
 Alpha virt. eigenvalues --    1.77072   1.77584   1.78402   1.80400   1.82400
 Alpha virt. eigenvalues --    1.85430   1.88580   1.91400   1.97721   2.01363
 Alpha virt. eigenvalues --    2.03582   2.08618   2.12014   2.13787   2.16376
 Alpha virt. eigenvalues --    2.18758   2.21722   2.24762   2.26347   2.40450
 Alpha virt. eigenvalues --    2.44166   2.44526   2.47714   2.51876   2.52038
 Alpha virt. eigenvalues --    2.56786   2.60716   2.68524   2.69618   2.70049
 Alpha virt. eigenvalues --    2.75209   2.82631   2.87331   2.90730   2.91637
 Alpha virt. eigenvalues --    2.91800   2.95438   3.13501   3.15552   3.28143
 Alpha virt. eigenvalues --    3.40993   3.63838   3.73437   3.79080   3.84764
 Alpha virt. eigenvalues --    3.88960   4.07381   4.10021   4.22870   4.35951
 Alpha virt. eigenvalues --    4.56249   4.92455
          Condensed to atoms (all electrons):
               1          2          3          4          5          6
     1  N    6.837740   0.432442  -0.071946   0.006447  -0.055214   0.181470
     2  C    0.432442   4.756587   0.277021  -0.025103   0.146805  -0.079204
     3  N   -0.071946   0.277021   6.925854   0.381361  -0.047726  -0.128895
     4  H    0.006447  -0.025103   0.381361   0.393521  -0.005120   0.006631
     5  N   -0.055214   0.146805  -0.047726  -0.005120   5.972950   0.004416
     6  N    0.181470  -0.079204  -0.128895   0.006631   0.004416   6.808452
     7  O    0.003442  -0.085572  -0.003450   0.013240   0.288368  -0.000126
     8  O    0.000364  -0.079278   0.003665   0.000165   0.305823   0.000397
     9  C   -0.029360  -0.077337   0.245984  -0.019583  -0.003152   0.199619
    10  O    0.003870  -0.001140  -0.080543   0.002232  -0.000038  -0.079285
    11  H   -0.031920   0.005052   0.007704  -0.000099  -0.000028   0.397116
               7          8          9         10         11
     1  N    0.003442   0.000364  -0.029360   0.003870  -0.031920
     2  C   -0.085572  -0.079278  -0.077337  -0.001140   0.005052
     3  N   -0.003450   0.003665   0.245984  -0.080543   0.007704
     4  H    0.013240   0.000165  -0.019583   0.002232  -0.000099
     5  N    0.288368   0.305823  -0.003152  -0.000038  -0.000028
     6  N   -0.000126   0.000397   0.199619  -0.079285   0.397116
     7  O    8.267466  -0.086984   0.000609   0.000000   0.000003
     8  O   -0.086984   8.214235  -0.000079   0.000000   0.000006
     9  C    0.000609  -0.000079   4.316687   0.657086  -0.029972
    10  O    0.000000   0.000000   0.657086   8.001940   0.004056
    11  H    0.000003   0.000006  -0.029972   0.004056   0.396090
 Mulliken charges:
               1
     1  N   -0.277335
     2  C    0.729726
     3  N   -0.509028
     4  H    0.246309
     5  N    0.392917
     6  N   -0.310591
     7  O   -0.396996
     8  O   -0.358313
     9  C    0.739499
    10  O   -0.508179
    11  H    0.251991
 Sum of Mulliken charges =  -0.00000
 Mulliken charges with hydrogens summed into heavy atoms:
               1
     1  N   -0.277335
     2  C    0.729726
     3  N   -0.262720
     5  N    0.392917
     6  N   -0.058599
     7  O   -0.396996
     8  O   -0.358313
     9  C    0.739499
    10  O   -0.508179
 Electronic spatial extent (au):  <R**2>=           1095.1063
 Charge=             -0.0000 electrons
 Dipole moment (field-independent basis, Debye):
    X=              1.1983    Y=              0.3941    Z=             -0.0466  Tot=              1.2623
 Quadrupole moment (field-independent basis, Debye-Ang):
   XX=            -63.9727   YY=            -47.7967   ZZ=            -46.9692
   XY=              7.0014   XZ=              0.0444   YZ=              0.1227
 Traceless Quadrupole moment (field-independent basis, Debye-Ang):
   XX=            -11.0599   YY=              5.1162   ZZ=              5.9437
   XY=              7.0014   XZ=              0.0444   YZ=              0.1227
 Octapole moment (field-independent basis, Debye-Ang**2):
  XXX=            -16.9594  YYY=             -4.8051  ZZZ=              0.0263  XYY=             13.2251
  XXY=             21.3281  XXZ=             -0.0871  XZZ=             -3.6053  YZZ=             -1.3450
  YYZ=             -0.0933  XYZ=              0.0036
 Hexadecapole moment (field-independent basis, Debye-Ang**3):
 XXXX=          -1117.9118 YYYY=           -254.2954 ZZZZ=            -37.4251 XXXY=             57.9092
 XXXZ=              0.1419 YYYX=             15.0182 YYYZ=              0.3597 ZZZX=             -0.0000
 ZZZY=             -0.0236 XXYY=           -206.8039 XXZZ=           -158.8988 YYZZ=            -51.9298
 XXYZ=              0.3985 YYXZ=              0.1267 ZZXY=              0.3141
 N-N= 4.519381518429D+02 E-N=-2.125403354437D+03  KE= 5.184103632184D+02
 No NMR shielding tensors so no spin-rotation constants.
 Leave Link  601 at Fri Aug 20 15:43:20 2021, MaxMem= 24159191040 cpu:        10.4
 (Enter /public/home/users/caep010/software/Gaussian09/g09/l701.exe)
 Compute integral first derivatives.
 ... and contract with generalized density number  0.
 Leave Link  701 at Fri Aug 20 15:43:20 2021, MaxMem= 24159191040 cpu:        10.7
 (Enter /public/home/users/caep010/software/Gaussian09/g09/l702.exe)
 L702 exits ... SP integral derivatives will be done elsewhere.
 Leave Link  702 at Fri Aug 20 15:43:20 2021, MaxMem= 24159191040 cpu:         0.5
 (Enter /public/home/users/caep010/software/Gaussian09/g09/l703.exe)
 Compute integral first derivatives, UseDBF=F ICtDFT=           0.
 Integral derivatives from FoFJK, PRISM(SPDF).
 Calling FoFJK, ICntrl=      2127 FMM=F ISym2X=0 I1Cent= 0 IOpClX= 0 NMat=1 NMatS=1 NMatT=0.
 FoFJK:  IHMeth= 1 ICntrl=    2127 DoSepK=F KAlg= 0 I1Cent=   0 FoldK=F
 IRaf=         0 NMat=   1 IRICut=       1 DoRegI=T DoRafI=F ISym2E= 0.
 FoFCou: FMM=F IPFlag=           0 FMFlag=      100000 FMFlg1=         800
         NFxFlg=           0 DoJE=F BraDBF=F KetDBF=F FulRan=T
         wScrn=  0.000000 ICntrl=    2127 IOpCl=  0 I1Cent=           0 NGrid=           0
         NMat0=    1 NMatS0=      1 NMatT0=    0 NMatD0=    1 NMtDS0=    0 NMtDT0=    0
 Symmetry not used in FoFCou.
 Leave Link  703 at Fri Aug 20 15:43:21 2021, MaxMem= 24159191040 cpu:        14.1
 (Enter /public/home/users/caep010/software/Gaussian09/g09/l716.exe)
 Dipole        = 4.71439349D-01 1.55069533D-01-1.83159508D-02
 ***** Axes restored to original set *****
 -------------------------------------------------------------------
 Center     Atomic                   Forces (Hartrees/Bohr)
 Number     Number              X              Y              Z
 -------------------------------------------------------------------
      1        7          -0.013448157   -0.003203257    0.006319943
      2        6          -0.010949744    0.017825521   -0.018949869
      3        7          -0.187468272   -0.042886632    0.090110637
      4        1           0.191957509    0.049550232   -0.100217334
      5        7          -0.012609402   -0.006877758    0.008275398
      6        7           0.094703209    0.111088008   -0.159846129
      7        8           0.021737450    0.003288171   -0.007705189
      8        8          -0.010186139    0.003687355   -0.001196049
      9        6           0.039046229   -0.024231341    0.022788869
     10        8          -0.006093507    0.002143586   -0.001087441
     11        1          -0.106689178   -0.110383885    0.161507165
 -------------------------------------------------------------------
 Cartesian Forces:  Max     0.191957509 RMS     0.076988747
 Leave Link  716 at Fri Aug 20 15:43:21 2021, MaxMem= 24159191040 cpu:         0.6
 (Enter /public/home/users/caep010/software/Gaussian09/g09/l103.exe)

 GradGradGradGradGradGradGradGradGradGradGradGradGradGradGradGradGradGrad
 Berny optimization.
 FormGI is forming the generalized inverse of G from B-inverse, IUseBI=4.
 Internal  Forces:  Max     0.222720629 RMS     0.046598569
 Search for a local minimum.
 Step number   1 out of a maximum of   57
 All quantities printed in internal units (Hartrees-Bohrs-Radians)
 RMS Force = .46599D-01 SwitMx=.10000D-02 MixMth= 1
 Mixed Optimization -- RFO/linear search
 Second derivative matrix not updated -- first step.
 ITU=  0
     Eigenvalues ---    0.00983   0.00985   0.01933   0.02019   0.02073
     Eigenvalues ---    0.02094   0.02201   0.02631   0.16000   0.16000
     Eigenvalues ---    0.23371   0.24097   0.25000   0.25000   0.25000
     Eigenvalues ---    0.25000   0.37780   0.45415   0.46826   0.51917
     Eigenvalues ---    0.54355   0.68672   0.83892   0.83985   0.95441
     Eigenvalues ---    0.96712   0.96943
 RFO step:  Lambda=-1.09821013D-01 EMin= 9.83011916D-03
 Linear search not attempted -- first point.
 Maximum step size (   0.300) exceeded in Quadratic search.
    -- Step size scaled by   0.861
 Iteration  1 RMS(Cart)=  0.04547035 RMS(Int)=  0.00057099
 Iteration  2 RMS(Cart)=  0.00058219 RMS(Int)=  0.00003235
 Iteration  3 RMS(Cart)=  0.00000055 RMS(Int)=  0.00003234
 ITry= 1 IFail=0 DXMaxC= 1.49D-01 DCOld= 1.00D+10 DXMaxT= 3.00D-01 DXLimC= 3.00D+00 Rises=F
 Variable       Old X    -DE/DX   Delta X   Delta X   Delta X     New X
                                 (Linear)    (Quad)   (Total)
    R1        2.42469   0.01180   0.00000   0.01208   0.01201   2.43670
    R2        2.56663   0.01085   0.00000   0.01402   0.01400   2.58063
    R3        2.54778   0.01935   0.00000   0.02543   0.02541   2.57319
    R4        2.74687   0.00072   0.00000   0.00128   0.00128   2.74815
    R5        1.62582   0.22213   0.00000   0.20159   0.20159   1.82741
    R6        2.60223   0.02319   0.00000   0.03342   0.03347   2.63570
    R7        2.29985   0.02234   0.00000   0.01786   0.01786   2.31771
    R8        2.29889   0.01086   0.00000   0.00867   0.00867   2.30755
    R9        2.58219   0.02130   0.00000   0.02915   0.02920   2.61140
   R10        1.62535   0.22272   0.00000   0.20192   0.20192   1.82728
   R11        2.30522  -0.00592   0.00000  -0.00479  -0.00479   2.30043
    A1        1.79206   0.00310   0.00000   0.00486   0.00476   1.79682
    A2        2.01058  -0.00643   0.00000  -0.01571  -0.01577   1.99481
    A3        2.12837   0.00957   0.00000   0.02306   0.02310   2.15147
    A4        2.14423  -0.00314   0.00000  -0.00736  -0.00732   2.13691
    A5        2.22048  -0.00267   0.00000  -0.00650  -0.00651   2.21396
    A6        1.84240   0.00849   0.00000   0.02307   0.02310   1.86550
    A7        2.22031  -0.00582   0.00000  -0.01657  -0.01659   2.20372
    A8        2.03339  -0.01004   0.00000  -0.02396  -0.02399   2.00940
    A9        2.04120   0.00511   0.00000   0.01227   0.01224   2.05344
   A10        2.20846   0.00496   0.00000   0.01191   0.01188   2.22034
   A11        1.96949   0.00759   0.00000   0.01822   0.01825   1.98775
   A12        2.15677  -0.00939   0.00000  -0.02695  -0.02697   2.12980
   A13        2.15692   0.00180   0.00000   0.00873   0.00872   2.16563
   A14        1.81022  -0.01275   0.00000  -0.03043  -0.03033   1.77990
   A15        2.22437   0.00959   0.00000   0.02290   0.02285   2.24722
   A16        2.24859   0.00316   0.00000   0.00752   0.00747   2.25606
    D1       -0.00409   0.00023   0.00000   0.00140   0.00139  -0.00270
    D2        3.13623   0.00015   0.00000   0.00090   0.00089   3.13712
    D3        0.00039  -0.00008   0.00000  -0.00049  -0.00050  -0.00011
    D4       -3.14033  -0.00008   0.00000  -0.00045  -0.00045  -3.14078
    D5       -3.13555  -0.00016   0.00000  -0.00107  -0.00106  -3.13661
    D6        0.00616  -0.00025   0.00000  -0.00169  -0.00169   0.00447
    D7        0.00733  -0.00010   0.00000  -0.00059  -0.00059   0.00674
    D8       -3.13415  -0.00019   0.00000  -0.00121  -0.00122  -3.13537
    D9       -3.11569  -0.00102   0.00000  -0.00738  -0.00738  -3.12307
   D10        0.00955   0.00087   0.00000   0.00621   0.00622   0.01577
   D11        0.02453  -0.00110   0.00000  -0.00792  -0.00792   0.01661
   D12       -3.13341   0.00079   0.00000   0.00567   0.00567  -3.12774
   D13       -0.00518   0.00019   0.00000   0.00122   0.00122  -0.00396
   D14        3.13437   0.00017   0.00000   0.00117   0.00118   3.13555
   D15        3.13653   0.00009   0.00000   0.00059   0.00059   3.13712
   D16       -0.00711   0.00008   0.00000   0.00055   0.00055  -0.00656
   D17        0.00312  -0.00008   0.00000  -0.00051  -0.00050   0.00262
   D18       -3.13638  -0.00008   0.00000  -0.00049  -0.00049  -3.13687
   D19       -3.13934  -0.00009   0.00000  -0.00057  -0.00057  -3.13991
   D20        0.00434  -0.00009   0.00000  -0.00055  -0.00055   0.00378
         Item               Value     Threshold  Converged?
 Maximum Force            0.222721     0.000450     NO 
 RMS     Force            0.046599     0.000300     NO 
 Maximum Displacement     0.148529     0.001800     NO 
 RMS     Displacement     0.045736     0.001200     NO 
 Predicted change in Energy=-5.880219D-02
 Lowest energy point so far.  Saving SCF results.
 GradGradGradGradGradGradGradGradGradGradGradGradGradGradGradGradGradGrad

 Leave Link  103 at Fri Aug 20 15:43:21 2021, MaxMem= 24159191040 cpu:         3.8
 (Enter /public/home/users/caep010/software/Gaussian09/g09/l202.exe)
                          Input orientation:                          
 ---------------------------------------------------------------------
 Center     Atomic      Atomic             Coordinates (Angstroms)
 Number     Number       Type             X           Y           Z
 ---------------------------------------------------------------------
      1          7           0        1.549116   -0.736722   16.055869
      2          6           0        2.486120   -0.286182   15.293168
      3          7           0        3.732578   -0.729673   15.615377
      4          1           0        4.561124   -0.505142   15.170144
      5          7           0        2.243269    0.617138   14.179661
      6          7           0        2.226376   -1.531937   16.935550
      7          8           0        3.240381    0.936034   13.540655
      8          8           0        1.092223    0.971354   13.977873
      9          6           0        3.590106   -1.574119   16.716259
     10          8           0        4.449116   -2.188636   17.321547
     11          1           0        1.775890   -2.015214   17.641598
 ---------------------------------------------------------------------
                    Distance matrix (angstroms):
                    1          2          3          4          5
     1  N    0.000000
     2  C    1.289448   0.000000
     3  N    2.227463   1.361675   0.000000
     4  H    3.148068   2.090148   0.967023   0.000000
     5  N    2.415563   1.454257   2.468445   2.759170   0.000000
     6  N    1.365609   2.077689   2.157575   3.101937   3.494815
     7  O    3.461906   2.265839   2.705792   2.544914   1.226481
     8  O    2.728433   2.292237   3.542088   3.954090   1.221104
     9  C    2.302822   2.214216   1.394751   2.115670   3.612466
    10  O    3.481379   3.403969   2.356484   2.734087   4.754953
    11  H    2.049513   3.001516   3.096259   4.018200   4.374098
                    6          7          8          9         10
     6  N    0.000000
     7  O    4.317916   0.000000
     8  O    4.037403   2.192485   0.000000
     9  C    1.381892   4.062960   4.496400   0.000000
    10  O    2.349643   5.051708   5.695123   1.217335   0.000000
    11  H    0.966953   5.260450   4.775968   2.083793   2.697897
                   11
    11  H    0.000000
 Stoichiometry    C2H2N4O3
 Framework group  C1[X(C2H2N4O3)]
 Deg. of freedom    27
 Full point group                 C1      NOp   1
 RotChk:  IX=2 Diff= 2.53D-03
 Largest Abelian subgroup         C1      NOp   1
 Largest concise Abelian subgroup C1      NOp   1
                         Standard orientation:                         
 ---------------------------------------------------------------------
 Center     Atomic      Atomic             Coordinates (Angstroms)
 Number     Number       Type             X           Y           Z
 ---------------------------------------------------------------------
      1          7           0        0.119759    1.336829    0.004486
      2          6           0       -0.366471    0.142590   -0.002563
      3          7           0        0.571751   -0.844244   -0.010187
      4          1           0        0.410542   -1.797685   -0.019975
      5          7           0       -1.793434   -0.137829   -0.000301
      6          7           0        1.467788    1.118413    0.004856
      7          8           0       -2.090393   -1.327745    0.012685
      8          8           0       -2.558114    0.814167   -0.008298
      9          6           0        1.818135   -0.218313   -0.001861
     10          8           0        2.925171   -0.724639    0.001155
     11          1           0        2.105114    1.845589    0.010205
 ---------------------------------------------------------------------
 Rotational constants (GHZ):      4.7025462      1.1556394      0.9276891
 Leave Link  202 at Fri Aug 20 15:43:21 2021, MaxMem= 24159191040 cpu:         0.2
 (Enter /public/home/users/caep010/software/Gaussian09/g09/l301.exe)
 Standard basis: 6-31G(d,p) (6D, 7F)
 Ernie: Thresh=  0.10000D-02 Tol=  0.10000D-05 Strict=F.
 There are   145 symmetry adapted cartesian basis functions of A   symmetry.
 There are   145 symmetry adapted basis functions of A   symmetry.
   145 basis functions,   266 primitive gaussians,   145 cartesian basis functions
    33 alpha electrons       33 beta electrons
       nuclear repulsion energy       447.6924741413 Hartrees.
 IExCor=  402 DFT=T Ex+Corr=B3LYP ExCW=0 ScaHFX=  0.200000
 ScaDFX=  0.800000  0.720000  1.000000  0.810000 ScalE2=  1.000000  1.000000
 IRadAn=      0 IRanWt=     -1 IRanGd=            0 ICorTp=0 IEmpDi=  4
 NAtoms=   11 NActive=   11 NUniq=   11 SFac= 1.00D+00 NAtFMM=   60 NAOKFM=F Big=F
 Integral buffers will be    131072 words long.
 Raffenetti 2 integral format.
 Two-electron integral symmetry is turned on.
 Leave Link  301 at Fri Aug 20 15:43:21 2021, MaxMem= 24159191040 cpu:         1.8
 (Enter /public/home/users/caep010/software/Gaussian09/g09/l302.exe)
 NPDir=0 NMtPBC=     1 NCelOv=     1 NCel=       1 NClECP=     1 NCelD=      1
         NCelK=      1 NCelE2=     1 NClLst=     1 CellRange=     0.0.
 One-electron integrals computed using PRISM.
 NBasis=   145 RedAO= T EigKep=  1.14D-03  NBF=   145
 NBsUse=   145 1.00D-06 EigRej= -1.00D+00 NBFU=   145
 Precomputing XC quadrature grid using
 IXCGrd= 4 IRadAn=           0 IRanWt=          -1 IRanGd=           0 AccXCQ= 0.00D+00.
 Generated NRdTot=       0 NPtTot=           0 NUsed=           0 NTot=          32
 NSgBfM=   144   144   144   144   144 MxSgAt=    11 MxSgA2=    11.
 Leave Link  302 at Fri Aug 20 15:43:22 2021, MaxMem= 24159191040 cpu:        10.7
 (Enter /public/home/users/caep010/software/Gaussian09/g09/l303.exe)
 DipDrv:  MaxL=1.
 Leave Link  303 at Fri Aug 20 15:43:22 2021, MaxMem= 24159191040 cpu:         0.6
 (Enter /public/home/users/caep010/software/Gaussian09/g09/l401.exe)
 Initial guess from the checkpoint file:  "/public/home/users/caep010/.cache/gau_scr/Gau-106395.chk"
 B after Tr=    -0.000000   -0.000000   -0.000000
         Rot=    0.999999    0.000020   -0.000034   -0.001295 Ang=   0.15 deg.
 Guess basis will be translated and rotated to current coordinates.
 JPrj=2 DoOrth=T DoCkMO=T.
 Generating alternative initial guess.
 ExpMin= 1.61D-01 ExpMax= 5.48D+03 ExpMxC= 8.25D+02 IAcc=1 IRadAn=         1 AccDes= 0.00D+00
 Harris functional with IExCor=  402 and IRadAn=       1 diagonalized for initial guess.
 HarFok:  IExCor=  402 AccDes= 0.00D+00 IRadAn=         1 IDoV= 1 UseB2=F ITyADJ=14
 ICtDFT=  3500011 ScaDFX=  1.000000  1.000000  1.000000  1.000000
 FoFCou: FMM=F IPFlag=           0 FMFlag=      100000 FMFlg1=           0
         NFxFlg=           0 DoJE=T BraDBF=F KetDBF=T FulRan=T
         wScrn=  0.000000 ICntrl=     500 IOpCl=  0 I1Cent=   200000004 NGrid=           0
         NMat0=    1 NMatS0=      1 NMatT0=    0 NMatD0=    1 NMtDS0=    0 NMtDT0=    0
 Petite list used in FoFCou.
 Harris En= -521.977271771189    
 Leave Link  401 at Fri Aug 20 15:43:22 2021, MaxMem= 24159191040 cpu:        15.7
 (Enter /public/home/users/caep010/software/Gaussian09/g09/l502.exe)
 Closed shell SCF:
 Using DIIS extrapolation, IDIIS=  1040.
 Integral symmetry usage will be decided dynamically.
 Keep R1 ints in memory in canonical form, NReq=57669744.
 IVT=       87344 IEndB=       87344 NGot= 24159191040 MDV= 24103077292
 LenX= 24103077292 LenY= 24103055826
 Requested convergence on RMS density matrix=1.00D-08 within 128 cycles.
 Requested convergence on MAX density matrix=1.00D-06.
 Requested convergence on             energy=1.00D-06.
 No special actions if energy rises.
 FoFCou: FMM=F IPFlag=           0 FMFlag=           0 FMFlg1=           0
         NFxFlg=           0 DoJE=F BraDBF=F KetDBF=F FulRan=T
         wScrn=  0.000000 ICntrl=     600 IOpCl=  0 I1Cent=           0 NGrid=           0
         NMat0=    1 NMatS0=  10585 NMatT0=    0 NMatD0=    1 NMtDS0=    0 NMtDT0=    0
 Symmetry not used in FoFCou.
 Integral accuracy reduced to 1.0D-05 until final iterations.

 Cycle   1  Pass 0  IDiag  1:
 E= -521.970696251860    
 DIIS: error= 4.72D-03 at cycle   1 NSaved=   1.
 NSaved= 1 IEnMin= 1 EnMin= -521.970696251860     IErMin= 1 ErrMin= 4.72D-03
 ErrMax= 4.72D-03  0.00D+00 EMaxC= 1.00D-01 BMatC= 6.82D-03 BMatP= 6.82D-03
 IDIUse=3 WtCom= 9.53D-01 WtEn= 4.72D-02
 Coeff-Com:  0.100D+01
 Coeff-En:   0.100D+01
 Coeff:      0.100D+01
 Gap=     1.575 Goal=   None    Shift=    0.000
 GapD=    1.575 DampG=2.000 DampE=1.000 DampFc=2.0000 IDamp=-1.
 RMSDP=9.10D-04 MaxDP=2.10D-02              OVMax= 2.74D-02

 Cycle   2  Pass 0  IDiag  1:
 E= -521.975809248677     Delta-E=       -0.005112996817 Rises=F Damp=F
 DIIS: error= 3.69D-03 at cycle   2 NSaved=   2.
 NSaved= 2 IEnMin= 2 EnMin= -521.975809248677     IErMin= 2 ErrMin= 3.69D-03
 ErrMax= 3.69D-03  0.00D+00 EMaxC= 1.00D-01 BMatC= 2.80D-03 BMatP= 6.82D-03
 IDIUse=3 WtCom= 9.63D-01 WtEn= 3.69D-02
 Coeff-Com:  0.345D+00 0.655D+00
 Coeff-En:   0.000D+00 0.100D+01
 Coeff:      0.333D+00 0.667D+00
 Gap=     0.154 Goal=   None    Shift=    0.000
 RMSDP=5.89D-04 MaxDP=1.94D-02 DE=-5.11D-03 OVMax= 2.86D-02

 Cycle   3  Pass 0  IDiag  1:
 E= -521.975957592805     Delta-E=       -0.000148344128 Rises=F Damp=F
 DIIS: error= 3.95D-03 at cycle   3 NSaved=   3.
 NSaved= 3 IEnMin= 3 EnMin= -521.975957592805     IErMin= 2 ErrMin= 3.69D-03
 ErrMax= 3.95D-03  0.00D+00 EMaxC= 1.00D-01 BMatC= 2.78D-03 BMatP= 2.80D-03
 IDIUse=3 WtCom= 9.61D-01 WtEn= 3.95D-02
 Coeff-Com:  0.392D-01 0.491D+00 0.470D+00
 Coeff-En:   0.000D+00 0.487D+00 0.513D+00
 Coeff:      0.377D-01 0.491D+00 0.472D+00
 Gap=     0.155 Goal=   None    Shift=    0.000
 RMSDP=3.52D-04 MaxDP=1.06D-02 DE=-1.48D-04 OVMax= 1.58D-02

 Cycle   4  Pass 0  IDiag  1:
 E= -521.978045578659     Delta-E=       -0.002087985854 Rises=F Damp=F
 DIIS: error= 6.90D-04 at cycle   4 NSaved=   4.
 NSaved= 4 IEnMin= 4 EnMin= -521.978045578659     IErMin= 4 ErrMin= 6.90D-04
 ErrMax= 6.90D-04  0.00D+00 EMaxC= 1.00D-01 BMatC= 1.31D-04 BMatP= 2.78D-03
 IDIUse=3 WtCom= 9.93D-01 WtEn= 6.90D-03
 Coeff-Com:  0.440D-02 0.260D+00 0.279D+00 0.456D+00
 Coeff-En:   0.000D+00 0.000D+00 0.000D+00 0.100D+01
 Coeff:      0.437D-02 0.259D+00 0.277D+00 0.460D+00
 Gap=     0.153 Goal=   None    Shift=    0.000
 RMSDP=8.22D-05 MaxDP=2.67D-03 DE=-2.09D-03 OVMax= 3.23D-03

 Cycle   5  Pass 0  IDiag  1:
 E= -521.978132493858     Delta-E=       -0.000086915199 Rises=F Damp=F
 DIIS: error= 2.97D-04 at cycle   5 NSaved=   5.
 NSaved= 5 IEnMin= 5 EnMin= -521.978132493858     IErMin= 5 ErrMin= 2.97D-04
 ErrMax= 2.97D-04  0.00D+00 EMaxC= 1.00D-01 BMatC= 1.35D-05 BMatP= 1.31D-04
 IDIUse=3 WtCom= 9.97D-01 WtEn= 2.97D-03
 Coeff-Com: -0.251D-02 0.870D-01 0.974D-01 0.268D+00 0.550D+00
 Coeff-En:   0.000D+00 0.000D+00 0.000D+00 0.740D-01 0.926D+00
 Coeff:     -0.251D-02 0.867D-01 0.972D-01 0.268D+00 0.551D+00
 Gap=     0.153 Goal=   None    Shift=    0.000
 RMSDP=3.21D-05 MaxDP=1.27D-03 DE=-8.69D-05 OVMax= 2.78D-03

 Cycle   6  Pass 0  IDiag  1:
 E= -521.978136170213     Delta-E=       -0.000003676355 Rises=F Damp=F
 DIIS: error= 3.18D-04 at cycle   6 NSaved=   6.
 NSaved= 6 IEnMin= 6 EnMin= -521.978136170213     IErMin= 5 ErrMin= 2.97D-04
 ErrMax= 3.18D-04  0.00D+00 EMaxC= 1.00D-01 BMatC= 8.87D-06 BMatP= 1.35D-05
 IDIUse=3 WtCom= 9.97D-01 WtEn= 2.97D-03
 Coeff-Com: -0.266D-02 0.326D-01 0.385D-01 0.151D+00 0.454D+00 0.326D+00
 Coeff-En:   0.000D+00 0.000D+00 0.000D+00 0.000D+00 0.415D+00 0.585D+00
 Coeff:     -0.265D-02 0.325D-01 0.384D-01 0.151D+00 0.454D+00 0.327D+00
 Gap=     0.153 Goal=   None    Shift=    0.000
 RMSDP=1.68D-05 MaxDP=7.00D-04 DE=-3.68D-06 OVMax= 1.47D-03

 Cycle   7  Pass 0  IDiag  1:
 E= -521.978143096467     Delta-E=       -0.000006926254 Rises=F Damp=F
 DIIS: error= 2.32D-05 at cycle   7 NSaved=   7.
 NSaved= 7 IEnMin= 7 EnMin= -521.978143096467     IErMin= 7 ErrMin= 2.32D-05
 ErrMax= 2.32D-05  0.00D+00 EMaxC= 1.00D-01 BMatC= 1.37D-07 BMatP= 8.87D-06
 IDIUse=1 WtCom= 1.00D+00 WtEn= 0.00D+00
 Coeff-Com: -0.108D-02 0.751D-02 0.985D-02 0.475D-01 0.176D+00 0.165D+00
 Coeff-Com:  0.595D+00
 Coeff:     -0.108D-02 0.751D-02 0.985D-02 0.475D-01 0.176D+00 0.165D+00
 Coeff:      0.595D+00
 Gap=     0.153 Goal=   None    Shift=    0.000
 RMSDP=3.48D-06 MaxDP=8.84D-05 DE=-6.93D-06 OVMax= 1.08D-04

 Initial convergence to 1.0D-05 achieved.  Increase integral accuracy.
 Cycle   8  Pass 1  IDiag  1:
 E= -521.978121972134     Delta-E=        0.000021124333 Rises=F Damp=F
 DIIS: error= 1.86D-05 at cycle   1 NSaved=   1.
 NSaved= 1 IEnMin= 1 EnMin= -521.978121972134     IErMin= 1 ErrMin= 1.86D-05
 ErrMax= 1.86D-05  0.00D+00 EMaxC= 1.00D-01 BMatC= 6.14D-08 BMatP= 6.14D-08
 IDIUse=1 WtCom= 1.00D+00 WtEn= 0.00D+00
 Coeff-Com:  0.100D+01
 Coeff:      0.100D+01
 Gap=     0.153 Goal=   None    Shift=    0.000
 RMSDP=3.48D-06 MaxDP=8.84D-05 DE= 2.11D-05 OVMax= 1.12D-04

 Cycle   9  Pass 1  IDiag  1:
 E= -521.978121954689     Delta-E=        0.000000017445 Rises=F Damp=F
 DIIS: error= 1.76D-05 at cycle   2 NSaved=   2.
 NSaved= 2 IEnMin= 1 EnMin= -521.978121972134     IErMin= 2 ErrMin= 1.76D-05
 ErrMax= 1.76D-05  0.00D+00 EMaxC= 1.00D-01 BMatC= 9.87D-08 BMatP= 6.14D-08
 IDIUse=1 WtCom= 1.00D+00 WtEn= 0.00D+00
 Coeff-Com:  0.572D+00 0.428D+00
 Coeff:      0.572D+00 0.428D+00
 Gap=     0.153 Goal=   None    Shift=    0.000
 RMSDP=2.37D-06 MaxDP=7.17D-05 DE= 1.74D-08 OVMax= 9.56D-05

 Cycle  10  Pass 1  IDiag  1:
 E= -521.978122024322     Delta-E=       -0.000000069633 Rises=F Damp=F
 DIIS: error= 1.06D-05 at cycle   3 NSaved=   3.
 NSaved= 3 IEnMin= 3 EnMin= -521.978122024322     IErMin= 3 ErrMin= 1.06D-05
 ErrMax= 1.06D-05  0.00D+00 EMaxC= 1.00D-01 BMatC= 1.30D-08 BMatP= 6.14D-08
 IDIUse=1 WtCom= 1.00D+00 WtEn= 0.00D+00
 Coeff-Com:  0.115D+00 0.259D+00 0.625D+00
 Coeff:      0.115D+00 0.259D+00 0.625D+00
 Gap=     0.153 Goal=   None    Shift=    0.000
 RMSDP=1.06D-06 MaxDP=4.64D-05 DE=-6.96D-08 OVMax= 9.25D-05

 Cycle  11  Pass 1  IDiag  1:
 E= -521.978122025225     Delta-E=       -0.000000000903 Rises=F Damp=F
 DIIS: error= 1.13D-05 at cycle   4 NSaved=   4.
 NSaved= 4 IEnMin= 4 EnMin= -521.978122025225     IErMin= 3 ErrMin= 1.06D-05
 ErrMax= 1.13D-05  0.00D+00 EMaxC= 1.00D-01 BMatC= 1.17D-08 BMatP= 1.30D-08
 IDIUse=1 WtCom= 1.00D+00 WtEn= 0.00D+00
 Coeff-Com: -0.816D-02 0.141D+00 0.528D+00 0.339D+00
 Coeff:     -0.816D-02 0.141D+00 0.528D+00 0.339D+00
 Gap=     0.153 Goal=   None    Shift=    0.000
 RMSDP=6.02D-07 MaxDP=2.59D-05 DE=-9.03D-10 OVMax= 5.29D-05

 Cycle  12  Pass 1  IDiag  1:
 E= -521.978122034390     Delta-E=       -0.000000009165 Rises=F Damp=F
 DIIS: error= 1.16D-06 at cycle   5 NSaved=   5.
 NSaved= 5 IEnMin= 5 EnMin= -521.978122034390     IErMin= 5 ErrMin= 1.16D-06
 ErrMax= 1.16D-06  0.00D+00 EMaxC= 1.00D-01 BMatC= 2.41D-10 BMatP= 1.17D-08
 IDIUse=1 WtCom= 1.00D+00 WtEn= 0.00D+00
 Coeff-Com: -0.112D-01 0.753D-01 0.298D+00 0.211D+00 0.427D+00
 Coeff:     -0.112D-01 0.753D-01 0.298D+00 0.211D+00 0.427D+00
 Gap=     0.153 Goal=   None    Shift=    0.000
 RMSDP=8.45D-08 MaxDP=2.91D-06 DE=-9.16D-09 OVMax= 4.03D-06

 Cycle  13  Pass 1  IDiag  1:
 E= -521.978122034567     Delta-E=       -0.000000000178 Rises=F Damp=F
 DIIS: error= 2.36D-07 at cycle   6 NSaved=   6.
 NSaved= 6 IEnMin= 6 EnMin= -521.978122034567     IErMin= 6 ErrMin= 2.36D-07
 ErrMax= 2.36D-07  0.00D+00 EMaxC= 1.00D-01 BMatC= 1.02D-11 BMatP= 2.41D-10
 IDIUse=1 WtCom= 1.00D+00 WtEn= 0.00D+00
 Coeff-Com: -0.434D-02 0.213D-01 0.847D-01 0.647D-01 0.215D+00 0.619D+00
 Coeff:     -0.434D-02 0.213D-01 0.847D-01 0.647D-01 0.215D+00 0.619D+00
 Gap=     0.153 Goal=   None    Shift=    0.000
 RMSDP=2.12D-08 MaxDP=4.84D-07 DE=-1.78D-10 OVMax= 6.80D-07

 Cycle  14  Pass 1  IDiag  1:
 E= -521.978122034566     Delta-E=        0.000000000001 Rises=F Damp=F
 DIIS: error= 8.17D-08 at cycle   7 NSaved=   7.
 NSaved= 7 IEnMin= 6 EnMin= -521.978122034567     IErMin= 7 ErrMin= 8.17D-08
 ErrMax= 8.17D-08  0.00D+00 EMaxC= 1.00D-01 BMatC= 1.36D-12 BMatP= 1.02D-11
 IDIUse=1 WtCom= 1.00D+00 WtEn= 0.00D+00
 Coeff-Com: -0.170D-02 0.729D-02 0.286D-01 0.228D-01 0.944D-01 0.355D+00
 Coeff-Com:  0.494D+00
 Coeff:     -0.170D-02 0.729D-02 0.286D-01 0.228D-01 0.944D-01 0.355D+00
 Coeff:      0.494D+00
 Gap=     0.153 Goal=   None    Shift=    0.000
 RMSDP=8.69D-09 MaxDP=2.52D-07 DE= 1.36D-12 OVMax= 3.89D-07

 SCF Done:  E(RB3LYP) =  -521.978122035     A.U. after   14 cycles
            NFock= 14  Conv=0.87D-08     -V/T= 2.0083
 KE= 5.177067414682D+02 PE=-2.116752126644D+03 EE= 6.293747889995D+02
 Leave Link  502 at Fri Aug 20 15:43:25 2021, MaxMem= 24159191040 cpu:        42.9
 (Enter /public/home/users/caep010/software/Gaussian09/g09/l701.exe)
 Compute integral first derivatives.
 ... and contract with generalized density number  0.
 Leave Link  701 at Fri Aug 20 15:43:25 2021, MaxMem= 24159191040 cpu:        11.3
 (Enter /public/home/users/caep010/software/Gaussian09/g09/l702.exe)
 L702 exits ... SP integral derivatives will be done elsewhere.
 Leave Link  702 at Fri Aug 20 15:43:25 2021, MaxMem= 24159191040 cpu:         0.5
 (Enter /public/home/users/caep010/software/Gaussian09/g09/l703.exe)
 Compute integral first derivatives, UseDBF=F ICtDFT=           0.
 Integral derivatives from FoFJK, PRISM(SPDF).
 Calling FoFJK, ICntrl=      2127 FMM=F ISym2X=0 I1Cent= 0 IOpClX= 0 NMat=1 NMatS=1 NMatT=0.
 FoFJK:  IHMeth= 1 ICntrl=    2127 DoSepK=F KAlg= 0 I1Cent=   0 FoldK=F
 IRaf=         0 NMat=   1 IRICut=       1 DoRegI=T DoRafI=F ISym2E= 0.
 FoFCou: FMM=F IPFlag=           0 FMFlag=      100000 FMFlg1=         800
         NFxFlg=           0 DoJE=F BraDBF=F KetDBF=F FulRan=T
         wScrn=  0.000000 ICntrl=    2127 IOpCl=  0 I1Cent=           0 NGrid=           0
         NMat0=    1 NMatS0=      1 NMatT0=    0 NMatD0=    1 NMtDS0=    0 NMtDT0=    0
 Symmetry not used in FoFCou.
 Leave Link  703 at Fri Aug 20 15:43:26 2021, MaxMem= 24159191040 cpu:        13.3
 (Enter /public/home/users/caep010/software/Gaussian09/g09/l716.exe)
 Dipole        = 5.19066419D-01 1.62229955D-01-1.10344033D-02
 ***** Axes restored to original set *****
 -------------------------------------------------------------------
 Center     Atomic                   Forces (Hartrees/Bohr)
 Number     Number              X              Y              Z
 -------------------------------------------------------------------
      1        7          -0.005430140   -0.004191433    0.006079094
      2        6          -0.001853390    0.006986161   -0.007884051
      3        7          -0.037973089   -0.006953136    0.015868788
      4        1           0.037141010    0.009865455   -0.020101522
      5        7          -0.006238755   -0.004612194    0.006918295
      6        7           0.016042033    0.023589896   -0.033061470
      7        8           0.008524075    0.002147888   -0.004264137
      8        8          -0.001241873    0.001061774   -0.000994286
      9        6           0.020363223   -0.010872227    0.009567342
     10        8          -0.005961442    0.003364440   -0.002695693
     11        1          -0.023371650   -0.020386625    0.030567641
 -------------------------------------------------------------------
 Cartesian Forces:  Max     0.037973089 RMS     0.016058793
 Leave Link  716 at Fri Aug 20 15:43:26 2021, MaxMem= 24159191040 cpu:         0.5
 (Enter /public/home/users/caep010/software/Gaussian09/g09/l103.exe)

 GradGradGradGradGradGradGradGradGradGradGradGradGradGradGradGradGradGrad
 Berny optimization.
 Using GEDIIS/GDIIS optimizer.
 FormGI is forming the generalized inverse of G from B-inverse, IUseBI=4.
 Internal  Forces:  Max     0.043397556 RMS     0.009516336
 Search for a local minimum.
 Step number   2 out of a maximum of   57
 All quantities printed in internal units (Hartrees-Bohrs-Radians)
 RMS Force = .95163D-02 SwitMx=.10000D-02 MixMth= 1
 Mixed Optimization -- RFO/linear search
 Update second derivatives using D2CorX and points    1    2
 DE= -5.29D-02 DEPred=-5.88D-02 R= 9.00D-01
 TightC=F SS=  1.41D+00  RLast= 3.00D-01 DXNew= 5.0454D-01 9.0100D-01
 Trust test= 9.00D-01 RLast= 3.00D-01 DXMaxT set to 5.05D-01
 ITU=  1  0
 Use linear search instead of GDIIS.
     Eigenvalues ---    0.00983   0.00984   0.01925   0.02021   0.02073
     Eigenvalues ---    0.02094   0.02203   0.02624   0.15989   0.16004
     Eigenvalues ---    0.23354   0.24114   0.24974   0.25000   0.25000
     Eigenvalues ---    0.25041   0.37777   0.45350   0.46864   0.51931
     Eigenvalues ---    0.54393   0.68567   0.83938   0.88180   0.95871
     Eigenvalues ---    0.96781   0.97066
 RFO step:  Lambda=-1.77541770D-03 EMin= 9.83010005D-03
 Quartic linear search produced a step of  0.42971.
 Iteration  1 RMS(Cart)=  0.03823063 RMS(Int)=  0.00196506
 Iteration  2 RMS(Cart)=  0.00193155 RMS(Int)=  0.00095637
 Iteration  3 RMS(Cart)=  0.00000376 RMS(Int)=  0.00095637
 Iteration  4 RMS(Cart)=  0.00000001 RMS(Int)=  0.00095637
 ITry= 1 IFail=0 DXMaxC= 1.15D-01 DCOld= 1.00D+10 DXMaxT= 5.05D-01 DXLimC= 3.00D+00 Rises=F
 Variable       Old X    -DE/DX   Delta X   Delta X   Delta X     New X
                                 (Linear)    (Quad)   (Total)
    R1        2.43670   0.00580   0.00516   0.00673   0.01176   2.44846
    R2        2.58063  -0.00019   0.00602  -0.00563   0.00036   2.58099
    R3        2.57319   0.00438   0.01092   0.00310   0.01396   2.58716
    R4        2.74815  -0.00232   0.00055  -0.00905  -0.00850   2.73965
    R5        1.82741   0.04337   0.08662  -0.00451   0.08212   1.90953
    R6        2.63570   0.00739   0.01438   0.01139   0.02587   2.66156
    R7        2.31771   0.00971   0.00768   0.00714   0.01481   2.33253
    R8        2.30755   0.00164   0.00372  -0.00108   0.00265   2.31020
    R9        2.61140   0.00982   0.01255   0.01776   0.03042   2.64182
   R10        1.82728   0.04340   0.08677  -0.00469   0.08208   1.90935
   R11        2.30043  -0.00725  -0.00206  -0.00891  -0.01097   2.28946
    A1        1.79682   0.00019   0.00204  -0.00399  -0.00219   1.79463
    A2        1.99481  -0.00131  -0.00678  -0.00663  -0.01359   1.98122
    A3        2.15147   0.00393   0.00993   0.01987   0.02987   2.18134
    A4        2.13691  -0.00262  -0.00315  -0.01325  -0.01631   2.12059
    A5        2.21396  -0.00141  -0.00280  -0.00810  -0.01092   2.20305
    A6        1.86550   0.00286   0.00993   0.01731   0.02726   1.89276
    A7        2.20372  -0.00145  -0.00713  -0.00922  -0.01636   2.18736
    A8        2.00940  -0.00237  -0.01031  -0.01015  -0.02419   1.98520
    A9        2.05344   0.00232   0.00526   0.01167   0.01319   2.06664
   A10        2.22034   0.00006   0.00511  -0.00112   0.00020   2.22054
   A11        1.98775   0.00351   0.00784   0.01883   0.02673   2.01448
   A12        2.12980  -0.00504  -0.01159  -0.03967  -0.05128   2.07852
   A13        2.16563   0.00153   0.00375   0.02083   0.02455   2.19018
   A14        1.77990  -0.00524  -0.01303  -0.02546  -0.03830   1.74160
   A15        2.24722   0.00407   0.00982   0.01993   0.02965   2.27688
   A16        2.25606   0.00117   0.00321   0.00553   0.00864   2.26471
    D1       -0.00270   0.00017   0.00060   0.01328   0.01372   0.01103
    D2        3.13712   0.00012   0.00038   0.00717   0.00731  -3.13875
    D3       -0.00011  -0.00007  -0.00021  -0.00427  -0.00451  -0.00462
    D4       -3.14078  -0.00007  -0.00020  -0.00486  -0.00500   3.13740
    D5       -3.13661  -0.00013  -0.00046  -0.01121  -0.01167   3.13490
    D6        0.00447  -0.00021  -0.00073  -0.01740  -0.01823  -0.01377
    D7        0.00674  -0.00008  -0.00025  -0.00520  -0.00556   0.00118
    D8       -3.13537  -0.00016  -0.00052  -0.01139  -0.01213   3.13569
    D9       -3.12307  -0.00026  -0.00317  -0.08850  -0.09136   3.06876
   D10        0.01577   0.00009   0.00267   0.05503   0.05746   0.07323
   D11        0.01661  -0.00031  -0.00340  -0.09509  -0.09824  -0.08163
   D12       -3.12774   0.00003   0.00244   0.04845   0.05057  -3.07717
   D13       -0.00396   0.00015   0.00052   0.01276   0.01326   0.00930
   D14        3.13555   0.00016   0.00051   0.01410   0.01467  -3.13297
   D15        3.13712   0.00007   0.00025   0.00662   0.00677  -3.13929
   D16       -0.00656   0.00008   0.00024   0.00796   0.00818   0.00162
   D17        0.00262  -0.00005  -0.00022  -0.00559  -0.00569  -0.00306
   D18       -3.13687  -0.00007  -0.00021  -0.00696  -0.00712   3.13920
   D19       -3.13991  -0.00006  -0.00024  -0.00502  -0.00521   3.13807
   D20        0.00378  -0.00008  -0.00024  -0.00639  -0.00664  -0.00286
         Item               Value     Threshold  Converged?
 Maximum Force            0.043398     0.000450     NO 
 RMS     Force            0.009516     0.000300     NO 
 Maximum Displacement     0.115115     0.001800     NO 
 RMS     Displacement     0.038266     0.001200     NO 
 Predicted change in Energy=-1.359464D-03
 Lowest energy point so far.  Saving SCF results.
 GradGradGradGradGradGradGradGradGradGradGradGradGradGradGradGradGradGrad

 Leave Link  103 at Fri Aug 20 15:43:26 2021, MaxMem= 24159191040 cpu:         1.9
 (Enter /public/home/users/caep010/software/Gaussian09/g09/l202.exe)
                          Input orientation:                          
 ---------------------------------------------------------------------
 Center     Atomic      Atomic             Coordinates (Angstroms)
 Number     Number       Type             X           Y           Z
 ---------------------------------------------------------------------
      1          7           0        1.533224   -0.760072   16.058469
      2          6           0        2.458508   -0.299457   15.277159
      3          7           0        3.713879   -0.742357   15.596878
      4          1           0        4.570374   -0.509044   15.114130
      5          7           0        2.232188    0.591202   14.155862
      6          7           0        2.236370   -1.532127   16.938766
      7          8           0        3.269440    0.965922   13.601571
      8          8           0        1.098711    1.006296   13.962344
      9          6           0        3.617378   -1.578102   16.726444
     10          8           0        4.476663   -2.170178   17.341975
     11          1           0        1.739565   -2.015183   17.674103
 ---------------------------------------------------------------------
                    Distance matrix (angstroms):
                    1          2          3          4          5
     1  N    0.000000
     2  C    1.295671   0.000000
     3  N    2.229044   1.369064   0.000000
     4  H    3.190466   2.128494   1.010478   0.000000
     5  N    2.436064   1.449759   2.459739   2.756073   0.000000
     6  N    1.365799   2.080807   2.146492   3.134258   3.500443
     7  O    3.468408   2.250864   2.664019   2.481087   1.234320
     8  O    2.775355   2.298429   3.545221   3.959206   1.222506
     9  C    2.336463   2.253517   1.408439   2.156535   3.637654
    10  O    3.507082   3.440351   2.380310   2.780547   4.776423
    11  H    2.056248   3.034129   3.135740   4.103097   4.406126
                    6          7          8          9         10
     6  N    0.000000
     7  O    4.294689   0.000000
     8  O    4.073935   2.200875   0.000000
     9  C    1.397990   4.044496   4.545661   0.000000
    10  O    2.364022   5.028234   5.737809   1.211530   0.000000
    11  H    1.010386   5.273806   4.828787   2.148320   2.761528
                   11
    11  H    0.000000
 Stoichiometry    C2H2N4O3
 Framework group  C1[X(C2H2N4O3)]
 Deg. of freedom    27
 Full point group                 C1      NOp   1
 RotChk:  IX=0 Diff= 1.74D-02
 Largest Abelian subgroup         C1      NOp   1
 Largest concise Abelian subgroup C1      NOp   1
                         Standard orientation:                         
 ---------------------------------------------------------------------
 Center     Atomic      Atomic             Coordinates (Angstroms)
 Number     Number       Type             X           Y           Z
 ---------------------------------------------------------------------
      1          7           0        0.122425    1.358383    0.011171
      2          6           0       -0.382464    0.165194    0.023404
      3          7           0        0.560789   -0.827079    0.026329
      4          1           0        0.381461   -1.821413    0.040692
      5          7           0       -1.800185   -0.137265    0.043083
      6          7           0        1.466844    1.118497   -0.008745
      7          8           0       -2.052110   -1.343385   -0.030098
      8          8           0       -2.593754    0.789800   -0.029853
      9          6           0        1.835990   -0.229866   -0.003625
     10          8           0        2.938729   -0.731377   -0.019675
     11          1           0        2.105345    1.901392   -0.025228
 ---------------------------------------------------------------------
 Rotational constants (GHZ):      4.6536932      1.1483068      0.9213154
 Leave Link  202 at Fri Aug 20 15:43:26 2021, MaxMem= 24159191040 cpu:         0.2
 (Enter /public/home/users/caep010/software/Gaussian09/g09/l301.exe)
 Standard basis: 6-31G(d,p) (6D, 7F)
 Ernie: Thresh=  0.10000D-02 Tol=  0.10000D-05 Strict=F.
 There are   145 symmetry adapted cartesian basis functions of A   symmetry.
 There are   145 symmetry adapted basis functions of A   symmetry.
   145 basis functions,   266 primitive gaussians,   145 cartesian basis functions
    33 alpha electrons       33 beta electrons
       nuclear repulsion energy       445.7593408341 Hartrees.
 IExCor=  402 DFT=T Ex+Corr=B3LYP ExCW=0 ScaHFX=  0.200000
 ScaDFX=  0.800000  0.720000  1.000000  0.810000 ScalE2=  1.000000  1.000000
 IRadAn=      0 IRanWt=     -1 IRanGd=            0 ICorTp=0 IEmpDi=  4
 NAtoms=   11 NActive=   11 NUniq=   11 SFac= 1.00D+00 NAtFMM=   60 NAOKFM=F Big=F
 Integral buffers will be    131072 words long.
 Raffenetti 2 integral format.
 Two-electron integral symmetry is turned on.
 Leave Link  301 at Fri Aug 20 15:43:26 2021, MaxMem= 24159191040 cpu:         1.3
 (Enter /public/home/users/caep010/software/Gaussian09/g09/l302.exe)
 NPDir=0 NMtPBC=     1 NCelOv=     1 NCel=       1 NClECP=     1 NCelD=      1
         NCelK=      1 NCelE2=     1 NClLst=     1 CellRange=     0.0.
 One-electron integrals computed using PRISM.
 NBasis=   145 RedAO= T EigKep=  1.22D-03  NBF=   145
 NBsUse=   145 1.00D-06 EigRej= -1.00D+00 NBFU=   145
 Precomputing XC quadrature grid using
 IXCGrd= 4 IRadAn=           0 IRanWt=          -1 IRanGd=           0 AccXCQ= 0.00D+00.
 Generated NRdTot=       0 NPtTot=           0 NUsed=           0 NTot=          32
 NSgBfM=   144   144   144   144   144 MxSgAt=    11 MxSgA2=    11.
 Leave Link  302 at Fri Aug 20 15:43:26 2021, MaxMem= 24159191040 cpu:        11.0
 (Enter /public/home/users/caep010/software/Gaussian09/g09/l303.exe)
 DipDrv:  MaxL=1.
 Leave Link  303 at Fri Aug 20 15:43:27 2021, MaxMem= 24159191040 cpu:         0.6
 (Enter /public/home/users/caep010/software/Gaussian09/g09/l401.exe)
 Initial guess from the checkpoint file:  "/public/home/users/caep010/.cache/gau_scr/Gau-106395.chk"
 B after Tr=    -0.000000   -0.000000   -0.000000
         Rot=    0.999998    0.000147    0.000006   -0.002201 Ang=   0.25 deg.
 Guess basis will be translated and rotated to current coordinates.
 JPrj=2 DoOrth=T DoCkMO=T.
 Generating alternative initial guess.
 ExpMin= 1.61D-01 ExpMax= 5.48D+03 ExpMxC= 8.25D+02 IAcc=1 IRadAn=         1 AccDes= 0.00D+00
 Harris functional with IExCor=  402 and IRadAn=       1 diagonalized for initial guess.
 HarFok:  IExCor=  402 AccDes= 0.00D+00 IRadAn=         1 IDoV= 1 UseB2=F ITyADJ=14
 ICtDFT=  3500011 ScaDFX=  1.000000  1.000000  1.000000  1.000000
 FoFCou: FMM=F IPFlag=           0 FMFlag=      100000 FMFlg1=           0
         NFxFlg=           0 DoJE=T BraDBF=F KetDBF=T FulRan=T
         wScrn=  0.000000 ICntrl=     500 IOpCl=  0 I1Cent=   200000004 NGrid=           0
         NMat0=    1 NMatS0=      1 NMatT0=    0 NMatD0=    1 NMtDS0=    0 NMtDT0=    0
 Petite list used in FoFCou.
 Harris En= -521.976328729051    
 Leave Link  401 at Fri Aug 20 15:43:27 2021, MaxMem= 24159191040 cpu:        11.5
 (Enter /public/home/users/caep010/software/Gaussian09/g09/l502.exe)
 Closed shell SCF:
 Using DIIS extrapolation, IDIIS=  1040.
 Integral symmetry usage will be decided dynamically.
 Keep R1 ints in memory in canonical form, NReq=57669744.
 IVT=       87344 IEndB=       87344 NGot= 24159191040 MDV= 24103077292
 LenX= 24103077292 LenY= 24103055826
 Requested convergence on RMS density matrix=1.00D-08 within 128 cycles.
 Requested convergence on MAX density matrix=1.00D-06.
 Requested convergence on             energy=1.00D-06.
 No special actions if energy rises.
 FoFCou: FMM=F IPFlag=           0 FMFlag=           0 FMFlg1=           0
         NFxFlg=           0 DoJE=F BraDBF=F KetDBF=F FulRan=T
         wScrn=  0.000000 ICntrl=     600 IOpCl=  0 I1Cent=           0 NGrid=           0
         NMat0=    1 NMatS0=  10585 NMatT0=    0 NMatD0=    1 NMtDS0=    0 NMtDT0=    0
 Symmetry not used in FoFCou.
 Integral accuracy reduced to 1.0D-05 until final iterations.

 Cycle   1  Pass 0  IDiag  1:
 E= -521.970578511606    
 DIIS: error= 4.79D-03 at cycle   1 NSaved=   1.
 NSaved= 1 IEnMin= 1 EnMin= -521.970578511606     IErMin= 1 ErrMin= 4.79D-03
 ErrMax= 4.79D-03  0.00D+00 EMaxC= 1.00D-01 BMatC= 5.79D-03 BMatP= 5.79D-03
 IDIUse=3 WtCom= 9.52D-01 WtEn= 4.79D-02
 Coeff-Com:  0.100D+01
 Coeff-En:   0.100D+01
 Coeff:      0.100D+01
 Gap=     1.592 Goal=   None    Shift=    0.000
 GapD=    1.592 DampG=2.000 DampE=1.000 DampFc=2.0000 IDamp=-1.
 RMSDP=1.25D-03 MaxDP=2.99D-02              OVMax= 3.41D-02

 Cycle   2  Pass 0  IDiag  1:
 E= -521.979868126717     Delta-E=       -0.009289615111 Rises=F Damp=F
 DIIS: error= 2.50D-03 at cycle   2 NSaved=   2.
 NSaved= 2 IEnMin= 2 EnMin= -521.979868126717     IErMin= 2 ErrMin= 2.50D-03
 ErrMax= 2.50D-03  0.00D+00 EMaxC= 1.00D-01 BMatC= 9.76D-04 BMatP= 5.79D-03
 IDIUse=3 WtCom= 9.75D-01 WtEn= 2.50D-02
 Coeff-Com:  0.153D+00 0.847D+00
 Coeff-En:   0.000D+00 0.100D+01
 Coeff:      0.150D+00 0.850D+00
 Gap=     0.152 Goal=   None    Shift=    0.000
 RMSDP=4.54D-04 MaxDP=1.33D-02 DE=-9.29D-03 OVMax= 2.03D-02

 Cycle   3  Pass 0  IDiag  1:
 E= -521.978785099048     Delta-E=        0.001083027669 Rises=F Damp=F
 DIIS: error= 4.29D-03 at cycle   3 NSaved=   3.
 NSaved= 3 IEnMin= 2 EnMin= -521.979868126717     IErMin= 2 ErrMin= 2.50D-03
 ErrMax= 4.29D-03  0.00D+00 EMaxC= 1.00D-01 BMatC= 2.46D-03 BMatP= 9.76D-04
 IDIUse=3 WtCom= 1.33D-01 WtEn= 8.67D-01
 Coeff-Com: -0.401D-01 0.636D+00 0.404D+00
 Coeff-En:   0.000D+00 0.662D+00 0.338D+00
 Coeff:     -0.532D-02 0.658D+00 0.347D+00
[...]
     33 -0.343931D-03  0.410538D-03 -0.532803D-03  0.149870D-03 -0.458425D-03
               26            27            28            29            30 
     26  0.465542D+00
     27 -0.302314D+00  0.532582D+00
     28  0.231020D+00 -0.225714D+00  0.465935D+00
     29 -0.244165D+00  0.174147D+00 -0.279248D+00  0.248255D+00
     30  0.173816D+00 -0.249656D+00  0.270924D+00 -0.215478D+00  0.257395D+00
     31 -0.174178D-01  0.197809D-01  0.106318D-02  0.210018D-02 -0.319370D-02
     32  0.579797D-03 -0.940635D-02  0.870370D-04 -0.212124D-02  0.902035D-03
     33 -0.619873D-02  0.102532D-02 -0.608273D-03  0.491051D-03 -0.191221D-02
               31            32            33 
     31  0.162369D+00
     32  0.947901D-01  0.129126D+00
     33 -0.152390D+00 -0.171846D+00  0.261176D+00
 FormGI is forming the generalized inverse of G from B-inverse, IUseBI=4.
 Leave Link  716 at Fri Aug 20 15:44:11 2021, MaxMem= 24159191040 cpu:         1.2
 (Enter /public/home/users/caep010/software/Gaussian09/g09/l103.exe)

 GradGradGradGradGradGradGradGradGradGradGradGradGradGradGradGradGradGrad
 Berny optimization.
 Red2BG is reusing G-inverse.
 Internal  Forces:  Max     0.000132677 RMS     0.000043752
 Search for a local minimum.
 Step number   1 out of a maximum of    2
 All quantities printed in internal units (Hartrees-Bohrs-Radians)
 Second derivative matrix not updated -- analytic derivatives used.
 ITU=  0
     Eigenvalues ---    0.00397   0.00558   0.00732   0.01590   0.02135
     Eigenvalues ---    0.04740   0.05273   0.08700   0.10927   0.11372
     Eigenvalues ---    0.16654   0.19392   0.21964   0.25083   0.25751
     Eigenvalues ---    0.27309   0.30614   0.33096   0.39282   0.43179
     Eigenvalues ---    0.46231   0.48190   0.48356   0.60130   0.62871
     Eigenvalues ---    0.77908   0.87578
 Angle between quadratic step and forces=  59.03 degrees.
 Linear search not attempted -- first point.
 Iteration  1 RMS(Cart)=  0.00029706 RMS(Int)=  0.00000013
 Iteration  2 RMS(Cart)=  0.00000010 RMS(Int)=  0.00000007
 ITry= 1 IFail=0 DXMaxC= 9.14D-04 DCOld= 1.00D+10 DXMaxT= 3.00D-01 DXLimC= 3.00D+00 Rises=F
 Variable       Old X    -DE/DX   Delta X   Delta X   Delta X     New X
                                 (Linear)    (Quad)   (Total)
    R1        2.44944  -0.00001   0.00000  -0.00000  -0.00000   2.44943
    R2        2.57091  -0.00013   0.00000  -0.00043  -0.00043   2.57047
    R3        2.58111   0.00008   0.00000   0.00030   0.00030   2.58141
    R4        2.73079  -0.00008   0.00000  -0.00035  -0.00035   2.73044
    R5        1.90640   0.00003   0.00000   0.00006   0.00006   1.90646
    R6        2.65267  -0.00013   0.00000  -0.00048  -0.00048   2.65219
    R7        2.33507   0.00009   0.00000   0.00017   0.00017   2.33524
    R8        2.30938  -0.00000   0.00000   0.00002   0.00002   2.30940
    R9        2.64414   0.00010   0.00000   0.00043   0.00043   2.64458
   R10        1.90642   0.00003   0.00000   0.00006   0.00006   1.90648
   R11        2.28640  -0.00003   0.00000  -0.00003  -0.00003   2.28636
    A1        1.79857  -0.00005   0.00000  -0.00002  -0.00002   1.79855
    A2        1.98633   0.00005   0.00000   0.00002   0.00002   1.98635
    A3        2.17229  -0.00002   0.00000   0.00010   0.00010   2.17239
    A4        2.12457  -0.00004   0.00000  -0.00012  -0.00012   2.12444
    A5        2.19747   0.00002   0.00000  -0.00016  -0.00016   2.19730
    A6        1.88222  -0.00005   0.00000  -0.00005  -0.00005   1.88217
    A7        2.20350   0.00003   0.00000   0.00021   0.00021   2.20371
    A8        2.00158   0.00001   0.00000   0.00006   0.00006   2.00163
    A9        2.06566  -0.00004   0.00000  -0.00011  -0.00011   2.06555
   A10        2.21595   0.00004   0.00000   0.00005   0.00005   2.21600
   A11        2.00242   0.00003   0.00000   0.00004   0.00004   2.00246
   A12        2.09561  -0.00002   0.00000   0.00007   0.00007   2.09568
   A13        2.18515  -0.00002   0.00000  -0.00010  -0.00010   2.18505
   A14        1.75524   0.00001   0.00000   0.00001   0.00001   1.75525
   A15        2.26871   0.00001   0.00000   0.00024   0.00024   2.26895
   A16        2.25924  -0.00002   0.00000  -0.00025  -0.00025   2.25898
    D1       -0.00004   0.00000   0.00000   0.00004   0.00004  -0.00000
    D2       -3.14142  -0.00001   0.00000  -0.00017  -0.00017   3.14159
    D3       -0.00021   0.00001   0.00000   0.00021   0.00021   0.00000
    D4        3.14130   0.00001   0.00000   0.00030   0.00030   3.14159
    D5       -3.14054  -0.00002   0.00000  -0.00106  -0.00106   3.14159
    D6        0.00027  -0.00002   0.00000  -0.00027  -0.00027   0.00000
    D7        0.00085  -0.00001   0.00000  -0.00085  -0.00085  -0.00000
    D8       -3.14153  -0.00001   0.00000  -0.00007  -0.00007  -3.14159
    D9        3.14103   0.00001   0.00000   0.00056   0.00056   3.14159
   D10       -0.00041  -0.00000   0.00000   0.00041   0.00041  -0.00000
   D11       -0.00034   0.00000   0.00000   0.00034   0.00034   0.00000
   D12        3.14141  -0.00001   0.00000   0.00019   0.00019   3.14159
   D13       -0.00035   0.00003   0.00000   0.00035   0.00035  -0.00000
   D14       -3.14105  -0.00002   0.00000  -0.00054  -0.00054   3.14159
   D15        3.14045   0.00002   0.00000   0.00114   0.00114  -3.14159
   D16       -0.00025  -0.00002   0.00000   0.00025   0.00025   0.00000
   D17        0.00036  -0.00003   0.00000  -0.00036  -0.00036   0.00000
   D18        3.14106   0.00002   0.00000   0.00053   0.00053   3.14159
   D19       -3.14114  -0.00002   0.00000  -0.00045  -0.00045  -3.14159
   D20       -0.00044   0.00002   0.00000   0.00044   0.00044   0.00000
         Item               Value     Threshold  Converged?
 Maximum Force            0.000133     0.000450     YES
 RMS     Force            0.000044     0.000300     YES
 Maximum Displacement     0.000914     0.001800     YES
 RMS     Displacement     0.000297     0.001200     YES
 Predicted change in Energy=-1.957703D-07
 Optimization completed.
    -- Stationary point found.
                           ----------------------------
                           !   Optimized Parameters   !
                           ! (Angstroms and Degrees)  !
 --------------------------                            --------------------------
 ! Name  Definition              Value          Derivative Info.                !
 --------------------------------------------------------------------------------
 ! R1    R(1,2)                  1.2962         -DE/DX =    0.0                 !
 ! R2    R(1,6)                  1.3605         -DE/DX =   -0.0001              !
 ! R3    R(2,3)                  1.3659         -DE/DX =    0.0001              !
 ! R4    R(2,5)                  1.4451         -DE/DX =   -0.0001              !
 ! R5    R(3,4)                  1.0088         -DE/DX =    0.0                 !
 ! R6    R(3,9)                  1.4037         -DE/DX =   -0.0001              !
 ! R7    R(5,7)                  1.2357         -DE/DX =    0.0001              !
 ! R8    R(5,8)                  1.2221         -DE/DX =    0.0                 !
 ! R9    R(6,9)                  1.3992         -DE/DX =    0.0001              !
 ! R10   R(6,11)                 1.0088         -DE/DX =    0.0                 !
 ! R11   R(9,10)                 1.2099         -DE/DX =    0.0                 !
 ! A1    A(2,1,6)              103.0505         -DE/DX =    0.0                 !
 ! A2    A(1,2,3)              113.8081         -DE/DX =    0.0001              !
 ! A3    A(1,2,5)              124.4632         -DE/DX =    0.0                 !
 ! A4    A(3,2,5)              121.7287         -DE/DX =    0.0                 !
 ! A5    A(2,3,4)              125.9055         -DE/DX =    0.0                 !
 ! A6    A(2,3,9)              107.8432         -DE/DX =    0.0                 !
 ! A7    A(4,3,9)              126.2512         -DE/DX =    0.0                 !
 ! A8    A(2,5,7)              114.6819         -DE/DX =    0.0                 !
 ! A9    A(2,5,8)              118.3535         -DE/DX =    0.0                 !
 ! A10   A(7,5,8)              126.9647         -DE/DX =    0.0                 !
 ! A11   A(1,6,9)              114.7305         -DE/DX =    0.0                 !
 ! A12   A(1,6,11)             120.0698         -DE/DX =    0.0                 !
 ! A13   A(9,6,11)             125.1998         -DE/DX =    0.0                 !
 ! A14   A(3,9,6)              100.5677         -DE/DX =    0.0                 !
 ! A15   A(3,9,10)             129.9875         -DE/DX =    0.0                 !
 ! A16   A(6,9,10)             129.4448         -DE/DX =    0.0                 !
 ! D1    D(6,1,2,3)             -0.0024         -DE/DX =    0.0                 !
 ! D2    D(6,1,2,5)            180.0097         -DE/DX =    0.0                 !
 ! D3    D(2,1,6,9)             -0.0121         -DE/DX =    0.0                 !
 ! D4    D(2,1,6,11)           179.983          -DE/DX =    0.0                 !
 ! D5    D(1,2,3,4)            180.0606         -DE/DX =    0.0                 !
 ! D6    D(1,2,3,9)              0.0155         -DE/DX =    0.0                 !
 ! D7    D(5,2,3,4)              0.0489         -DE/DX =    0.0                 !
 ! D8    D(5,2,3,9)           -179.9962         -DE/DX =    0.0                 !
 ! D9    D(1,2,5,7)            179.9677         -DE/DX =    0.0                 !
 ! D10   D(1,2,5,8)             -0.0237         -DE/DX =    0.0                 !
 ! D11   D(3,2,5,7)             -0.0193         -DE/DX =    0.0                 !
 ! D12   D(3,2,5,8)            179.9893         -DE/DX =    0.0                 !
 ! D13   D(2,3,9,6)             -0.0202         -DE/DX =    0.0                 !
 ! D14   D(2,3,9,10)           180.0312         -DE/DX =    0.0                 !
 ! D15   D(4,3,9,6)           -180.0655         -DE/DX =    0.0                 !
 ! D16   D(4,3,9,10)            -0.0141         -DE/DX =    0.0                 !
 ! D17   D(1,6,9,3)              0.0205         -DE/DX =    0.0                 !
 ! D18   D(1,6,9,10)           179.9695         -DE/DX =    0.0                 !
 ! D19   D(11,6,9,3)          -179.9743         -DE/DX =    0.0                 !
 ! D20   D(11,6,9,10)           -0.0253         -DE/DX =    0.0                 !
 --------------------------------------------------------------------------------
 GradGradGradGradGradGradGradGradGradGradGradGradGradGradGradGradGradGrad

 Leave Link  103 at Fri Aug 20 15:44:11 2021, MaxMem= 24159191040 cpu:         2.2
 (Enter /public/home/users/caep010/software/Gaussian09/g09/l9999.exe)
 1\1\GINC-B1132\Freq\RB3LYP\6-31G(d,p)\C2H2N4O3\ROOT\20-Aug-2021\0\\#P 
 Geom=AllCheck Guess=TCheck SCRF=Check GenChk RB3LYP/6-31G(d,p) Freq\\Q
 OYJOD06\\0,1\N,1.5405644452,-0.7444388062,16.0679611505\C,2.4709670083
 ,-0.2851272474,15.2911212395\N,3.7229662984,-0.7300365285,15.607580459
 1\H,4.575991062,-0.4881455001,15.1263676021\N,2.2416074729,0.615312166
 7,14.1843997247\N,2.2281356627,-1.5324150805,16.9381363517\O,3.2595868
 087,0.9397124308,13.5636278069\O,1.0959847011,0.9743145333,13.95610393
 58\C,3.6092576919,-1.5800011799,16.7189276263\O,4.4631799753,-2.186927
 2872,17.3241848062\H,1.7380588735,-2.0253475011,17.6692892972\\Version
 =ES64L-G09RevE.01\State=1-A\HF=-521.9822004\RMSD=8.402e-09\RMSF=6.957e
 -05\ZeroPoint=0.0667428\Thermal=0.0737798\Dipole=0.0378526,-0.3797387,
 0.4790766\DipoleDeriv=-0.4970993,-0.0746528,0.1700325,0.0451297,0.1930
 104,-0.4226951,0.0165116,-0.3985029,0.3772339,0.7812057,-0.2226026,0.1
 665113,-0.1267893,-0.0770993,0.3751912,0.0437737,0.3947399,-0.3184939,
 -0.6007921,-0.0834645,0.1692573,0.257683,-0.474179,0.1793174,-0.267548
 1,0.2482611,-0.5575873,0.3256197,0.0486982,-0.0574059,0.0127551,0.3048
 882,0.0551235,-0.0114644,0.0477408,0.2911913,1.417239,-0.1553747,-0.02
 30042,-0.1472024,0.966989,-0.8023855,-0.0334708,-0.8006848,1.349332,-0
 .5280084,0.5095322,-0.6046959,-0.0832148,-0.4828397,0.2628143,0.154778
 7,0.1427097,-0.5048285,-0.7752028,-0.1128632,0.2474157,-0.0999112,-0.4
 488134,0.2547202,0.2307097,0.257331,-0.6417939,-0.8604675,0.2733135,-0
 .2221036,0.2380791,-0.4593608,0.2500708,-0.176824,0.2428449,-0.5018474
 ,1.480319,-0.7520978,0.7438089,-0.5340381,0.878299,-0.5078508,0.464909
 1,-0.4639092,0.8973397,-0.9643198,0.4866393,-0.5067716,0.380596,-0.704
 1481,0.3258729,-0.3716903,0.3049521,-0.70473,0.2215063,0.0828723,-0.08
 30444,0.0569128,0.3032537,0.0298211,-0.0496854,0.0245173,0.3141841\Pol
 ar=62.038628,-7.9457977,47.0503398,2.3081024,-29.0435958,59.851911\PG=
 C01 [X(C2H2N4O3)]\NImag=0\\0.55273640,0.02799584,0.25805451,-0.1296566
 1,-0.22133226,0.39947028,-0.30583182,-0.12358756,0.20721146,0.76868678
 ,-0.07173302,-0.10170741,0.06216726,-0.02727090,0.36512361,0.14076440,
 0.07267162,-0.18610011,-0.09651388,-0.30923820,0.53495252,-0.08769554,
 -0.00632037,0.03112270,-0.30173760,0.06690532,-0.03303978,0.90545718,0
 .00735248,0.00759450,0.02227073,0.06335546,-0.08545738,0.04328657,0.00
 858961,0.27255052,0.01363713,0.02502036,-0.00871929,-0.02857016,0.0426
 0100,-0.09032260,-0.18215003,-0.27756547,0.44909142,-0.00243902,0.0014
 9178,-0.00012292,-0.01380574,-0.00922794,0.01284276,-0.35429900,-0.073
 14395,0.16422296,0.36180501,0.00693035,0.00310173,0.00282145,0.0051558
 3,0.00102126,-0.01342676,-0.07578802,-0.05159695,0.07676305,0.08232286
 ,0.05006958,-0.00707591,0.00392775,0.00281521,-0.00554652,-0.01053177,
 0.00592400,0.16754478,0.07621994,-0.13478826,-0.17600102,-0.06673571,0
 .13169183,0.01420764,-0.01235751,0.00926337,-0.08504169,0.01009201,-0.
 00803472,-0.00665419,0.01806640,-0.02310477,-0.00347610,0.00324095,-0.
 00339084,0.98281147,-0.01029464,-0.03441336,0.02285068,0.02975775,-0.0
 9627604,0.03928921,0.00372296,-0.01472603,0.00974920,-0.00054659,0.002
 22837,-0.00235245,-0.06562467,0.38834131,0.00661588,0.02326087,-0.0493
 5099,-0.03320021,0.04325937,-0.10957561,-0.00474000,0.00684319,-0.0143
 3131,0.00146293,-0.00311798,0.00400248,-0.07145293,-0.21146687,0.49800
 182,-0.13877232,0.06687663,-0.06608598,-0.02496393,0.00821331,-0.00281
 315,-0.02542085,-0.04888753,0.06807658,0.00023998,-0.00152858,0.002443
 30,-0.00575589,-0.01353439,0.02099368,0.62902153,0.03360177,-0.1232576
 7,0.09688525,-0.00019465,-0.04809732,0.07851978,-0.01826605,-0.0016911
 0,0.00774494,0.00280858,-0.00164576,0.00488375,-0.00502142,0.01819087,
 -0.00644617,0.04832861,0.35505626,-0.02348676,0.09015989,-0.15305495,0
 .00796561,0.07681203,-0.08685915,0.02886189,0.01395019,-0.02220629,-0.
 00312474,0.00575507,-0.00414813,0.01010285,-0.00472895,0.01636892,-0.1
 7840730,-0.39464288,0.59657955,0.00482542,0.00432325,-0.00548980,-0.01
 768941,-0.02030660,0.03297619,0.00272835,0.00578143,-0.00754510,0.0027
 1200,-0.00278225,0.00264084,-0.37888802,-0.08100746,0.16564694,0.00639
 214,-0.00227559,0.00128582,0.47732709,0.00431135,0.00259448,0.00231227
 ,-0.02918492,-0.00474699,0.03352268,0.00006540,-0.00011661,0.00274251,
 -0.00114724,-0.00212138,0.00055786,-0.09371303,-0.13012008,0.09323798,
 0.00068256,-0.00380659,0.00261385,0.10943354,0.10540567,-0.00546236,0.
 00231190,0.00323411,0.04433197,0.03173390,-0.03274857,-0.00022379,0.00
 158904,0.00004829,0.00054556,0.00088755,-0.00311271,0.18191019,0.09067
 108,-0.22487035,-0.00250217,0.00320870,-0.00526584,-0.23091355,-0.1218
 6931,0.23010752,-0.00098196,-0.00811831,0.01106155,-0.02779524,0.03353
 687,-0.03424003,0.00254502,0.00292733,-0.00360418,0.00108612,-0.001355
 99,0.00153927,-0.51033251,0.12982121,-0.07780534,-0.00267347,0.0039245
 8,-0.00471479,-0.09545188,0.01110389,0.01002664,0.63291746,0.00101709,
 0.00421387,-0.00267686,0.03343158,-0.00745870,0.02238513,-0.00048759,-
 0.00117099,0.00577826,-0.00023193,-0.00022237,0.00046049,0.14302804,-0
 .13927804,0.05662812,0.00352535,-0.00276120,0.00137337,-0.00953780,0.0
 3316644,-0.00899772,-0.17154426,0.11402940,-0.00064102,-0.00082984,0.0
 0347633,-0.03410971,0.02236854,-0.00645381,0.00077136,0.00508771,-0.00
 340805,0.00009808,0.00068815,-0.00079932,-0.09469950,0.05928975,-0.129
 28235,-0.00420196,0.00129290,-0.00193491,0.03644812,-0.01316578,0.0341
 3166,0.09753694,-0.07521636,0.10483657,-0.04956797,0.03808961,-0.03808
 693,0.02470989,0.00001278,-0.00442847,-0.15523106,0.00482612,0.0132740
 6,0.01071802,-0.01778192,0.01952108,-0.00908689,0.01496813,-0.01715257
 ,-0.20434220,-0.00017514,0.03091922,-0.00511724,-0.00396782,0.00623632
 ,0.00300108,-0.00134139,0.00123538,0.79943933,0.00767480,0.00113361,0.
 00120494,0.04949932,-0.02561100,0.02634150,-0.00539239,-0.11160302,0.0
 6872583,-0.00333668,-0.00105365,-0.00489096,0.00169728,0.00172575,-0.0
 0148462,0.00367027,-0.08929362,0.04570195,-0.00361767,0.00144521,-0.00
 034556,-0.00149123,0.00129975,-0.00055670,-0.26230567,0.46554210,0.000
 85224,-0.00494349,0.00950097,-0.06780456,0.03635760,-0.03007457,0.0263
 5242,0.06669297,-0.14947220,0.00102765,-0.00198773,-0.00307116,-0.0001
 6844,-0.00417314,0.00620711,0.02597485,0.04648650,-0.11791810,0.005793
 24,-0.00027366,-0.00021513,0.00142830,-0.00058602,0.00109125,0.2124775
 9,-0.30231396,0.53258228,-0.00328418,0.00207139,-0.00106476,-0.0117195
 7,0.00335865,-0.00117042,0.02719856,0.01265058,-0.01846021,-0.00326483
 ,0.00233374,-0.00266911,0.00065167,-0.00608910,0.00776651,-0.05716554,
 0.03016759,-0.02413334,0.00234140,0.00185872,-0.00285668,-0.00173610,0
 .00178935,-0.00201344,-0.42001937,0.23101981,-0.22571417,0.46593477,0.
 00354661,-0.00133248,0.00684657,-0.00453266,0.00190396,0.00331168,0.02
 471397,-0.01687351,0.03725026,0.00109512,-0.00060737,-0.00164234,0.000
 77737,0.00260058,-0.00282924,0.02070373,0.01502586,-0.00472783,0.00005
 408,-0.00095660,0.00118777,0.00149583,-0.00172878,0.00144248,0.2292935
 2,-0.24416492,0.17414727,-0.27924777,0.24825451,-0.00294848,0.00714754
 ,-0.00399802,0.00893058,0.00171452,-0.00022985,-0.03388678,0.03967437,
 -0.02789043,-0.00109138,-0.00188431,0.00092545,-0.00102339,-0.00144372
 ,0.00257010,-0.01198747,-0.00665768,0.02556762,-0.00054712,0.00082420,
 -0.00096505,-0.00163890,0.00138439,-0.00180724,-0.22353724,0.17381631,
 -0.24965576,0.27092388,-0.21547766,0.25739538,0.01680336,0.00953525,-0
 .01815210,-0.00481167,0.00641952,-0.00634290,-0.00689087,-0.00151792,0
 .00422372,0.00072355,-0.00074696,0.00099414,0.00156450,-0.00117320,0.0
 0186511,-0.17655946,-0.09289828,0.15473156,0.00082014,0.00055756,-0.00
 109213,-0.00057852,0.00035157,-0.00042425,0.00549642,-0.01741784,0.019
 78088,0.00106318,0.00210018,-0.00319370,0.16236937,-0.01040263,-0.0159
 8177,0.00664998,0.00357077,0.00130601,0.00333680,0.00225717,0.00309058
 ,0.00119006,-0.00008400,0.00082654,0.00010344,-0.00018542,0.00172667,0
 .00211535,-0.08804995,-0.11771972,0.16773332,-0.00006494,-0.00074355,-
 0.00037735,-0.00029991,-0.00008939,-0.00040086,-0.00161822,0.00057980,
 -0.00940635,0.00008704,-0.00212124,0.00090204,0.09479011,0.12912607,0.
 00740148,0.00260563,-0.01727354,-0.00269457,0.00275575,0.00148775,-0.0
 0061276,0.00195076,0.00199870,0.00014013,0.00023720,0.00056060,0.00059
 817,0.00231523,0.00026019,0.14850962,0.16872491,-0.24712872,-0.0002955
 8,-0.00050259,-0.00034393,0.00041054,-0.00053280,0.00014987,-0.0004584
 3,-0.00619873,0.00102532,-0.00060827,0.00049105,-0.00191221,-0.1523903
 3,-0.17184641,0.26117597\\-0.00000875,0.00006491,-0.00006845,0.0001051
 0,-0.00002913,-0.00001153,-0.00008488,0.00011916,-0.00007534,-0.000018
 19,0.00000223,0.00003131,0.00003316,0.00003042,-0.00007567,0.00012759,
 -0.00007399,0.00013137,-0.00007997,-0.00001125,0.00004259,0.00001332,0
 .00002510,-0.00002460,-0.00013923,-0.00017199,0.00002666,0.00003862,0.
 00002439,0.00003611,0.00001323,0.00002015,-0.00001244\\\@


 REFRAIN FROM ILLUSIONS, INSIST ON WORK AND NOT WORDS,
 PATIENTLY SEEK DIVINE AND SCIENTIFIC TRUTH.
 LAST WORDS OF MARIA MENDELEEVA TO HER SON DMITRI, C. 1850
 Job cpu time:       0 days  0 hours  5 minutes 34.8 seconds.
 File lengths (MBytes):  RWF=     34 Int=      0 D2E=      0 Chk=      3 Scr=      1
 Normal termination of Gaussian 09 at Fri Aug 20 15:44:11 2021.
