 Entering Gaussian System, Link 0=g09
 Input=B3LYP6-31G.MUTSAW.gjf
 Output=B3LYP6-31G.MUTSAW.log
 Initial command:
 /public/home/users/caep010/software/Gaussian09/g09/l1.exe "/public/home/users/caep010/.cache/gau_scr/Gau-123108.inp" -scrdir="/public/home/users/caep010/.cache/gau_scr/"
 Entering Link 1 = /public/home/users/caep010/software/Gaussian09/g09/l1.exe PID=    123109.
  
 Copyright (c) 1988,1990,1992,1993,1995,1998,2003,2009,2015,
            Gaussian, Inc.  All Rights Reserved.
  
 This is part of the Gaussian(R) 09 program.  It is based on
 the Gaussian(R) 03 system (copyright 2003, Gaussian, Inc.),
 the Gaussian(R) 98 system (copyright 1998, Gaussian, Inc.),
 the Gaussian(R) 94 system (copyright 1995, Gaussian, Inc.),
 the Gaussian 92(TM) system (copyright 1992, Gaussian, Inc.),
 the Gaussian 90(TM) system (copyright 1990, Gaussian, Inc.),
 the Gaussian 88(TM) system (copyright 1988, Gaussian, Inc.),
 the Gaussian 86(TM) system (copyright 1986, Carnegie Mellon
 University), and the Gaussian 82(TM) system (copyright 1983,
 Carnegie Mellon University). Gaussian is a federally registered
 trademark of Gaussian, Inc.
  
 This software contains proprietary and confidential information,
 including trade secrets, belonging to Gaussian, Inc.
  
 This software is provided under written license and may be
 used, copied, transmitted, or stored only in accord with that
 written license.
  
 The following legend is applicable only to US Government
 contracts under FAR:
  
                    RESTRICTED RIGHTS LEGEND
  
 Use, reproduction and disclosure by the US Government is
 subject to restrictions as set forth in subparagraphs (a)
 and (c) of the Commercial Computer Software - Restricted
 Rights clause in FAR 52.227-19.
  
 Gaussian, Inc.
 340 Quinnipiac St., Bldg. 40, Wallingford CT 06492
  
  
 ---------------------------------------------------------------
 Warning -- This program may not be used in any manner that
 competes with the business of Gaussian, Inc. or will provide
 assistance to any competitor of Gaussian, Inc.  The licensee
 of this program is prohibited from giving any competitor of
 Gaussian, Inc. access to this program.  By using this program,
 the user acknowledges that Gaussian, Inc. is engaged in the
 business of creating and licensing software in the field of
 computational chemistry and represents and warrants to the
 licensee that it is not a competitor of Gaussian, Inc. and that
 it will not use this program in any manner prohibited above.
 ---------------------------------------------------------------
  

 Cite this work as:
 Gaussian 09, Revision E.01,
 M. J. Frisch, G. W. Trucks, H. B. Schlegel, G. E. Scuseria, 
 M. A. Robb, J. R. Cheeseman, G. Scalmani, V. Barone, B. Mennucci, 
 G. A. Petersson, H. Nakatsuji, M. Caricato, X. Li, H. P. Hratchian, 
 A. F. Izmaylov, J. Bloino, G. Zheng, J. L. Sonnenberg, M. Hada, 
 M. Ehara, K. Toyota, R. Fukuda, J. Hasegawa, M. Ishida, T. Nakajima, 
 Y. Honda, O. Kitao, H. Nakai, T. Vreven, J. A. Montgomery, Jr., 
 J. E. Peralta, F. Ogliaro, M. Bearpark, J. J. Heyd, E. Brothers, 
 K. N. Kudin, V. N. Staroverov, T. Keith, R. Kobayashi, J. Normand, 
 K. Raghavachari, A. Rendell, J. C. Burant, S. S. Iyengar, J. Tomasi, 
 M. Cossi, N. Rega, J. M. Millam, M. Klene, J. E. Knox, J. B. Cross, 
 V. Bakken, C. Adamo, J. Jaramillo, R. Gomperts, R. E. Stratmann, 
 O. Yazyev, A. J. Austin, R. Cammi, C. Pomelli, J. W. Ochterski, 
 R. L. Martin, K. Morokuma, V. G. Zakrzewski, G. A. Voth, 
 P. Salvador, J. J. Dannenberg, S. Dapprich, A. D. Daniels, 
 O. Farkas, J. B. Foresman, J. V. Ortiz, J. Cioslowski, 
 and D. J. Fox, Gaussian, Inc., Wallingford CT, 2013.
 
 ******************************************
 Gaussian 09:  ES64L-G09RevE.01 30-Nov-2015
                20-Aug-2021 
 ******************************************
 %nproc=32
 Will use up to   32 processors via shared memory.
 %mem=180GB
 -------------------------
 #P OPT Freq B3LYP/6-31G**
 -------------------------
 1/14=-1,18=20,19=15,26=3,38=1/1,3;
 2/9=110,12=2,17=6,18=5,40=1/2;
 3/5=1,6=6,7=101,11=2,16=1,25=1,30=1,71=1,74=-5/1,2,3;
 4//1;
 5/5=2,38=5/2;
 6/7=2,8=2,9=2,10=2,28=1/1;
 7//1,2,3,16;
 1/14=-1,18=20,19=15,26=3/3(2);
 2/9=110/2;
 99//99;
 2/9=110/2;
 3/5=1,6=6,7=101,11=2,16=1,25=1,30=1,71=1,74=-5/1,2,3;
 4/5=5,16=3,69=1/1;
 5/5=2,38=5/2;
 7//1,2,3,16;
 1/14=-1,18=20,19=15,26=3/3(-5);
 2/9=110/2;
 6/7=2,8=2,9=2,10=2,19=2,28=1/1;
 99/9=1/99;
 Leave Link    1 at Fri Aug 20 15:40:42 2021, MaxMem= 24159191040 cpu:         2.1
 (Enter /public/home/users/caep010/software/Gaussian09/g09/l101.exe)
 ------
 MUTSAW
 ------
 Symbolic Z-matrix:
 Charge =  0 Multiplicity = 1
 C                     2.5271   -0.7941    4.8305 
 N                     1.4935   -1.4403    5.3434 
 C                     1.722    -2.8672    5.4027 
 H                     1.664    -3.192     6.3154 
 H                     1.082    -3.347     4.8546 
 C                     3.1174   -3.0144    4.8629 
 H                     3.7099   -3.3984    5.5275 
 H                     3.1264   -3.5743    4.0707 
 C                     2.6182    0.5938    4.6153 
 H                     3.4102    0.9421    4.2743 
 N                     3.5096   -1.6488    4.5402 
 C                     4.865    -1.3304    4.1185 
 H                     5.483    -1.926     4.5715 
 H                     5.0749   -0.424     4.392 
 C                     5.0742   -1.4523    2.6247 
 H                     6.0132   -1.3165    2.4218 
 O                     4.3057   -0.5178    1.9062 
 H                     3.5628   -0.8315    1.7584 
 H                     4.8346   -2.3483    2.3401 
 N                     1.6095    1.4337    4.8825 
 O                     1.7496    2.6684    4.6331 
 H                     0.7712   -1.057     5.6093 
 O                     0.5144    1.0269    5.3725 
 
 NAtoms=     23 NQM=       23 NQMF=       0 NMMI=      0 NMMIF=      0
                NMic=       0 NMicF=      0.
                    Isotopes and Nuclear Properties:
 (Nuclear quadrupole moments (NQMom) in fm**2, nuclear magnetic moments (NMagM)
  in nuclear magnetons)

  Atom         1           2           3           4           5           6           7           8           9          10
 IAtWgt=          12          14          12           1           1          12           1           1          12           1
 AtmWgt=  12.0000000  14.0030740  12.0000000   1.0078250   1.0078250  12.0000000   1.0078250   1.0078250  12.0000000   1.0078250
 NucSpn=           0           2           0           1           1           0           1           1           0           1
 AtZEff=   0.0000000   0.0000000   0.0000000   0.0000000   0.0000000   0.0000000   0.0000000   0.0000000   0.0000000   0.0000000
 NQMom=    0.0000000   2.0440000   0.0000000   0.0000000   0.0000000   0.0000000   0.0000000   0.0000000   0.0000000   0.0000000
 NMagM=    0.0000000   0.4037610   0.0000000   2.7928460   2.7928460   0.0000000   2.7928460   2.7928460   0.0000000   2.7928460
 AtZNuc=   6.0000000   7.0000000   6.0000000   1.0000000   1.0000000   6.0000000   1.0000000   1.0000000   6.0000000   1.0000000

  Atom        11          12          13          14          15          16          17          18          19          20
 IAtWgt=          14          12           1           1          12           1          16           1           1          14
 AtmWgt=  14.0030740  12.0000000   1.0078250   1.0078250  12.0000000   1.0078250  15.9949146   1.0078250   1.0078250  14.0030740
 NucSpn=           2           0           1           1           0           1           0           1           1           2
 AtZEff=   0.0000000   0.0000000   0.0000000   0.0000000   0.0000000   0.0000000   0.0000000   0.0000000   0.0000000   0.0000000
 NQMom=    2.0440000   0.0000000   0.0000000   0.0000000   0.0000000   0.0000000   0.0000000   0.0000000   0.0000000   2.0440000
 NMagM=    0.4037610   0.0000000   2.7928460   2.7928460   0.0000000   2.7928460   0.0000000   2.7928460   2.7928460   0.4037610
 AtZNuc=   7.0000000   6.0000000   1.0000000   1.0000000   6.0000000   1.0000000   8.0000000   1.0000000   1.0000000   7.0000000

  Atom        21          22          23
 IAtWgt=          16           1          16
 AtmWgt=  15.9949146   1.0078250  15.9949146
 NucSpn=           0           1           0
 AtZEff=   0.0000000   0.0000000   0.0000000
 NQMom=    0.0000000   0.0000000   0.0000000
 NMagM=    0.0000000   2.7928460   0.0000000
 AtZNuc=   8.0000000   1.0000000   8.0000000
 Leave Link  101 at Fri Aug 20 15:40:42 2021, MaxMem= 24159191040 cpu:        10.5
 (Enter /public/home/users/caep010/software/Gaussian09/g09/l103.exe)

 GradGradGradGradGradGradGradGradGradGradGradGradGradGradGradGradGradGrad
 Berny optimization.
 Initialization pass.
                           ----------------------------
                           !    Initial Parameters    !
                           ! (Angstroms and Degrees)  !
 --------------------------                            --------------------------
 ! Name  Definition              Value          Derivative Info.                !
 --------------------------------------------------------------------------------
 ! R1    R(1,2)                  1.3225         estimate D2E/DX2                !
 ! R2    R(1,9)                  1.4074         estimate D2E/DX2                !
 ! R3    R(1,11)                 1.3342         estimate D2E/DX2                !
 ! R4    R(2,3)                  1.4463         estimate D2E/DX2                !
 ! R5    R(2,22)                 0.8598         estimate D2E/DX2                !
 ! R6    R(3,4)                  0.9705         estimate D2E/DX2                !
 ! R7    R(3,5)                  0.9697         estimate D2E/DX2                !
 ! R8    R(3,6)                  1.5034         estimate D2E/DX2                !
 ! R9    R(6,7)                  0.9696         estimate D2E/DX2                !
 ! R10   R(6,8)                  0.9701         estimate D2E/DX2                !
 ! R11   R(6,11)                 1.457          estimate D2E/DX2                !
 ! R12   R(9,10)                 0.93           estimate D2E/DX2                !
 ! R13   R(9,20)                 1.3395         estimate D2E/DX2                !
 ! R14   R(11,12)                1.4548         estimate D2E/DX2                !
 ! R15   R(12,13)                0.9705         estimate D2E/DX2                !
 ! R16   R(12,14)                0.9698         estimate D2E/DX2                !
 ! R17   R(12,15)                1.5133         estimate D2E/DX2                !
 ! R18   R(15,16)                0.9702         estimate D2E/DX2                !
 ! R19   R(15,17)                1.4072         estimate D2E/DX2                !
 ! R20   R(15,19)                0.9702         estimate D2E/DX2                !
 ! R21   R(17,18)                0.8198         estimate D2E/DX2                !
 ! R22   R(20,21)                1.2674         estimate D2E/DX2                !
 ! R23   R(20,23)                1.2668         estimate D2E/DX2                !
 ! A1    A(2,1,9)              126.28           estimate D2E/DX2                !
 ! A2    A(2,1,11)             110.2981         estimate D2E/DX2                !
 ! A3    A(9,1,11)             123.4207         estimate D2E/DX2                !
 ! A4    A(1,2,3)              111.9931         estimate D2E/DX2                !
 ! A5    A(1,2,22)             123.9624         estimate D2E/DX2                !
 ! A6    A(3,2,22)             124.0444         estimate D2E/DX2                !
 ! A7    A(2,3,4)              111.0572         estimate D2E/DX2                !
 ! A8    A(2,3,5)              111.1449         estimate D2E/DX2                !
 ! A9    A(2,3,6)              103.2098         estimate D2E/DX2                !
 ! A10   A(4,3,5)              109.059          estimate D2E/DX2                !
 ! A11   A(4,3,6)              111.1229         estimate D2E/DX2                !
 ! A12   A(5,3,6)              111.1747         estimate D2E/DX2                !
 ! A13   A(3,6,7)              111.09           estimate D2E/DX2                !
 ! A14   A(3,6,8)              110.9971         estimate D2E/DX2                !
 ! A15   A(3,6,11)             103.7451         estimate D2E/DX2                !
 ! A16   A(7,6,8)              108.994          estimate D2E/DX2                !
 ! A17   A(7,6,11)             111.0083         estimate D2E/DX2                !
 ! A18   A(8,6,11)             110.9516         estimate D2E/DX2                !
 ! A19   A(1,9,10)             118.7191         estimate D2E/DX2                !
 ! A20   A(1,9,20)             122.6205         estimate D2E/DX2                !
 ! A21   A(10,9,20)            118.6604         estimate D2E/DX2                !
 ! A22   A(1,11,6)             110.7326         estimate D2E/DX2                !
 ! A23   A(1,11,12)            127.5147         estimate D2E/DX2                !
 ! A24   A(6,11,12)            121.3418         estimate D2E/DX2                !
 ! A25   A(11,12,13)           108.8849         estimate D2E/DX2                !
 ! A26   A(11,12,14)           108.934          estimate D2E/DX2                !
 ! A27   A(11,12,15)           113.4102         estimate D2E/DX2                !
 ! A28   A(13,12,14)           107.7063         estimate D2E/DX2                !
 ! A29   A(13,12,15)           108.862          estimate D2E/DX2                !
 ! A30   A(14,12,15)           108.8908         estimate D2E/DX2                !
 ! A31   A(12,15,16)           109.2051         estimate D2E/DX2                !
 ! A32   A(12,15,17)           112.0261         estimate D2E/DX2                !
 ! A33   A(12,15,19)           109.2582         estimate D2E/DX2                !
 ! A34   A(16,15,17)           109.1974         estimate D2E/DX2                !
 ! A35   A(16,15,19)           107.875          estimate D2E/DX2                !
 ! A36   A(17,15,19)           109.188          estimate D2E/DX2                !
 ! A37   A(15,17,18)           109.4399         estimate D2E/DX2                !
 ! A38   A(9,20,21)            119.2318         estimate D2E/DX2                !
 ! A39   A(9,20,23)            121.7873         estimate D2E/DX2                !
 ! A40   A(21,20,23)           118.98           estimate D2E/DX2                !
 ! D1    D(9,1,2,3)            178.9107         estimate D2E/DX2                !
 ! D2    D(9,1,2,22)            -1.0393         estimate D2E/DX2                !
 ! D3    D(11,1,2,3)            -1.4933         estimate D2E/DX2                !
 ! D4    D(11,1,2,22)          178.5567         estimate D2E/DX2                !
 ! D5    D(2,1,9,10)           177.8576         estimate D2E/DX2                !
 ! D6    D(2,1,9,20)            -2.12           estimate D2E/DX2                !
 ! D7    D(11,1,9,10)           -1.6885         estimate D2E/DX2                !
 ! D8    D(11,1,9,20)          178.3339         estimate D2E/DX2                !
 ! D9    D(2,1,11,6)             0.8627         estimate D2E/DX2                !
 ! D10   D(2,1,11,12)         -171.7783         estimate D2E/DX2                !
 ! D11   D(9,1,11,6)          -179.5275         estimate D2E/DX2                !
 ! D12   D(9,1,11,12)            7.8315         estimate D2E/DX2                !
 ! D13   D(1,2,3,4)            120.5948         estimate D2E/DX2                !
 ! D14   D(1,2,3,5)           -117.7992         estimate D2E/DX2                !
 ! D15   D(1,2,3,6)              1.4495         estimate D2E/DX2                !
 ! D16   D(22,2,3,4)           -59.4553         estimate D2E/DX2                !
 ! D17   D(22,2,3,5)            62.1508         estimate D2E/DX2                !
 ! D18   D(22,2,3,6)          -178.6005         estimate D2E/DX2                !
 ! D19   D(2,3,6,7)            118.4791         estimate D2E/DX2                !
 ! D20   D(2,3,6,8)           -120.0767         estimate D2E/DX2                !
 ! D21   D(2,3,6,11)            -0.8553         estimate D2E/DX2                !
 ! D22   D(4,3,6,7)             -0.6207         estimate D2E/DX2                !
 ! D23   D(4,3,6,8)            120.8235         estimate D2E/DX2                !
 ! D24   D(4,3,6,11)          -119.9551         estimate D2E/DX2                !
 ! D25   D(5,3,6,7)           -122.2929         estimate D2E/DX2                !
 ! D26   D(5,3,6,8)             -0.8487         estimate D2E/DX2                !
 ! D27   D(5,3,6,11)           118.3727         estimate D2E/DX2                !
 ! D28   D(3,6,11,1)             0.0635         estimate D2E/DX2                !
 ! D29   D(3,6,11,12)          173.2317         estimate D2E/DX2                !
 ! D30   D(7,6,11,1)          -119.3268         estimate D2E/DX2                !
 ! D31   D(7,6,11,12)           53.8414         estimate D2E/DX2                !
 ! D32   D(8,6,11,1)           119.316          estimate D2E/DX2                !
 ! D33   D(8,6,11,12)          -67.5158         estimate D2E/DX2                !
 ! D34   D(1,9,20,21)         -178.2708         estimate D2E/DX2                !
 ! D35   D(1,9,20,23)            1.3749         estimate D2E/DX2                !
 ! D36   D(10,9,20,21)           1.7516         estimate D2E/DX2                !
 ! D37   D(10,9,20,23)        -178.6027         estimate D2E/DX2                !
 ! D38   D(1,11,12,13)         138.6516         estimate D2E/DX2                !
 ! D39   D(1,11,12,14)          21.4466         estimate D2E/DX2                !
 ! D40   D(1,11,12,15)         -99.9868         estimate D2E/DX2                !
 ! D41   D(6,11,12,13)         -33.2856         estimate D2E/DX2                !
 ! D42   D(6,11,12,14)        -150.4906         estimate D2E/DX2                !
 ! D43   D(6,11,12,15)          88.0759         estimate D2E/DX2                !
 ! D44   D(11,12,15,16)       -174.268          estimate D2E/DX2                !
 ! D45   D(11,12,15,17)         64.6315         estimate D2E/DX2                !
 ! D46   D(11,12,15,19)        -56.4933         estimate D2E/DX2                !
 ! D47   D(13,12,15,16)        -52.8937         estimate D2E/DX2                !
 ! D48   D(13,12,15,17)       -173.9941         estimate D2E/DX2                !
 ! D49   D(13,12,15,19)         64.881          estimate D2E/DX2                !
 ! D50   D(14,12,15,16)         64.2743         estimate D2E/DX2                !
 ! D51   D(14,12,15,17)        -56.8262         estimate D2E/DX2                !
 ! D52   D(14,12,15,19)       -177.951          estimate D2E/DX2                !
 ! D53   D(12,15,17,18)        -87.2917         estimate D2E/DX2                !
 ! D54   D(16,15,17,18)        151.6035         estimate D2E/DX2                !
 ! D55   D(19,15,17,18)         33.8737         estimate D2E/DX2                !
 --------------------------------------------------------------------------------
 Trust Radius=3.00D-01 FncErr=1.00D-07 GrdErr=1.00D-06
 Number of steps in this run=    128 maximum allowed number of steps=    138.
 GradGradGradGradGradGradGradGradGradGradGradGradGradGradGradGradGradGrad

 Leave Link  103 at Fri Aug 20 15:40:42 2021, MaxMem= 24159191040 cpu:         0.6
 (Enter /public/home/users/caep010/software/Gaussian09/g09/l202.exe)
                          Input orientation:                          
 ---------------------------------------------------------------------
 Center     Atomic      Atomic             Coordinates (Angstroms)
 Number     Number       Type             X           Y           Z
 ---------------------------------------------------------------------
      1          6           0        2.527100   -0.794100    4.830500
      2          7           0        1.493500   -1.440300    5.343400
      3          6           0        1.722000   -2.867200    5.402700
      4          1           0        1.664000   -3.192000    6.315400
      5          1           0        1.082000   -3.347000    4.854600
      6          6           0        3.117400   -3.014400    4.862900
      7          1           0        3.709900   -3.398400    5.527500
      8          1           0        3.126400   -3.574300    4.070700
      9          6           0        2.618200    0.593800    4.615300
     10          1           0        3.410200    0.942100    4.274300
     11          7           0        3.509600   -1.648800    4.540200
     12          6           0        4.865000   -1.330400    4.118500
     13          1           0        5.483000   -1.926000    4.571500
     14          1           0        5.074900   -0.424000    4.392000
     15          6           0        5.074200   -1.452300    2.624700
     16          1           0        6.013200   -1.316500    2.421800
     17          8           0        4.305700   -0.517800    1.906200
     18          1           0        3.562800   -0.831500    1.758400
     19          1           0        4.834600   -2.348300    2.340100
     20          7           0        1.609500    1.433700    4.882500
     21          8           0        1.749600    2.668400    4.633100
     22          1           0        0.771200   -1.057000    5.609300
     23          8           0        0.514400    1.026900    5.372500
 ---------------------------------------------------------------------
                    Distance matrix (angstroms):
                    1          2          3          4          5
     1  C    0.000000
     2  N    1.322486   0.000000
     3  C    2.296376   1.446296   0.000000
     4  H    2.949541   2.010549   0.970505   0.000000
     5  H    2.933631   2.010911   0.969650   1.580090   0.000000
     6  C    2.297659   2.312082   1.503394   2.062443   2.062412
     7  H    2.944011   2.963187   2.061430   2.202066   2.713171
     8  H    2.943802   2.973228   2.060717   2.706186   2.201303
     9  C    1.407436   2.435702   3.660832   4.258300   4.236399
    10  H    2.025738   3.239220   4.316720   4.930120   4.914636
    11  N    1.334201   2.180198   2.328931   2.989823   2.979257
    12  C    2.502067   3.588798   3.726845   4.305616   4.349668
    13  H    3.175787   4.092413   3.965082   4.385055   4.633378
    14  H    2.611617   3.842454   4.269974   4.795366   4.970028
    15  C    3.433147   4.495874   4.577824   5.317639   4.949748
    16  H    4.269383   5.383192   5.450214   6.131326   5.861585
    17  O    3.433845   4.535837   4.941730   5.794046   5.204774
    18  H    3.242202   4.183882   4.562186   5.472079   4.697719
    19  H    3.733924   4.583364   4.397392   5.154371   4.626242
    20  N    2.409935   2.913033   4.333706   4.842858   4.809795
    21  O    3.554206   4.177503   5.588910   6.097684   6.056384
    22  H    1.938770   0.859848   2.055122   2.419482   2.431104
    23  O    2.767809   2.654536   4.077159   4.473227   4.440877
                    6          7          8          9         10
     6  C    0.000000
     7  H    0.969642   0.000000
     8  H    0.970129   1.579139   0.000000
     9  C    3.650974   4.238110   4.234137   0.000000
    10  H    4.010745   4.527722   4.529886   0.929977   0.000000
    11  N    1.456990   2.018906   2.018619   2.414433   2.606405
    12  C    2.538522   2.756113   2.839032   2.999578   2.702771
    13  H    2.620227   2.495152   2.919119   3.815546   3.551172
    14  H    3.280812   3.464050   3.718101   2.668549   2.156689
    15  C    3.358387   3.751649   3.222999   3.765760   3.350109
    16  H    4.150601   4.391454   4.018724   4.470650   3.912626
    17  O    4.048104   4.665474   3.926576   3.379724   2.922520
    18  H    3.821172   4.562535   3.613880   3.329509   3.081996
    19  H    3.123617   3.539375   2.723233   4.329540   4.073914
    20  N    4.696780   5.308191   5.295287   1.339516   1.963186
    21  O    5.849607   6.438073   6.417412   2.249166   2.422074
    22  H    3.145343   3.758298   3.775057   2.669192   3.569726
    23  O    4.833985   5.460634   5.448694   2.277477   3.098208
                   11         12         13         14         15
    11  N    0.000000
    12  C    1.454757   0.000000
    13  H    1.993020   0.970501   0.000000
    14  H    1.993054   0.969753   1.566771   0.000000
    15  C    2.481073   1.513295   2.044881   2.044688   0.000000
    16  H    3.296370   2.048743   2.296478   2.357679   0.970222
    17  O    2.975045   2.422273   3.236184   2.603780   1.407169
    18  H    2.899866   2.741295   3.577517   3.064042   1.849378
    19  H    2.661835   2.049329   2.361759   2.823290   0.970166
    20  N    3.637218   4.338459   5.136955   3.962403   5.042896
    21  O    4.663094   5.095187   5.920353   4.547382   5.662756
    22  H    2.998672   4.365367   4.902372   4.517117   5.251658
    23  O    4.101624   5.104616   5.835084   4.885146   5.872701
                   16         17         18         19         20
    16  H    0.000000
    17  O    1.954308   0.000000
    18  H    2.584528   0.819849   0.000000
    19  H    1.568561   1.954158   2.063137   0.000000
    20  N    5.745539   4.464998   4.325103   5.582884   0.000000
    21  O    6.240798   4.911365   4.878616   6.319996   1.267404
    22  H    6.140526   5.147463   4.761650   5.372741   2.726641
    23  O    6.665955   5.364260   5.080168   6.265106   1.266819
                   21         22         23
    21  O    0.000000
    22  H    3.973517   0.000000
    23  O    2.183335   2.112974   0.000000
 Stoichiometry    C6H11N3O3
 Framework group  C1[X(C6H11N3O3)]
 Deg. of freedom    63
 Full point group                 C1      NOp   1
 Largest Abelian subgroup         C1      NOp   1
 Largest concise Abelian subgroup C1      NOp   1
                         Standard orientation:                         
 ---------------------------------------------------------------------
 Center     Atomic      Atomic             Coordinates (Angstroms)
 Number     Number       Type             X           Y           Z
 ---------------------------------------------------------------------
      1          6           0       -0.211042    0.472812   -0.147475
      2          7           0       -0.575593    1.689170    0.222045
      3          6           0        0.554637    2.585798    0.324086
      4          1           0        0.453520    3.343745   -0.273553
      5          1           0        0.662932    2.910238    1.231407
      6          6           0        1.715567    1.723286   -0.086413
      7          1           0        2.147876    2.074712   -0.880021
      8          1           0        2.369767    1.658383    0.627001
      9          6           0       -1.061294   -0.635766   -0.317781
     10          1           0       -0.695272   -1.438762   -0.611178
     11          7           0        1.106276    0.427160   -0.354071
     12          6           0        1.876175   -0.667621   -0.924184
     13          1           0        2.541537   -0.302220   -1.528872
     14          1           0        1.283251   -1.231909   -1.444224
     15          6           0        2.574113   -1.517216    0.115592
     16          1           0        3.138519   -2.168123   -0.330610
     17          8           0        1.660068   -2.190220    0.947285
     18          1           0        1.457726   -1.706785    1.577762
     19          1           0        3.144464   -0.952123    0.660194
     20          7           0       -2.377375   -0.580499   -0.074509
     21          8           0       -3.077755   -1.627044   -0.217774
     22          1           0       -1.388381    1.918916    0.383076
     23          8           0       -2.942068    0.489183    0.301965
 ---------------------------------------------------------------------
 Rotational constants (GHZ):      1.2254333      0.7269077      0.4947717
 Leave Link  202 at Fri Aug 20 15:40:42 2021, MaxMem= 24159191040 cpu:         1.2
 (Enter /public/home/users/caep010/software/Gaussian09/g09/l301.exe)
 Standard basis: 6-31G(d,p) (6D, 7F)
 Ernie: Thresh=  0.10000D-02 Tol=  0.10000D-05 Strict=F.
 There are   235 symmetry adapted cartesian basis functions of A   symmetry.
 There are   235 symmetry adapted basis functions of A   symmetry.
   235 basis functions,   413 primitive gaussians,   235 cartesian basis functions
    46 alpha electrons       46 beta electrons
       nuclear repulsion energy       764.0786664186 Hartrees.
 IExCor=  402 DFT=T Ex+Corr=B3LYP ExCW=0 ScaHFX=  0.200000
 ScaDFX=  0.800000  0.720000  1.000000  0.810000 ScalE2=  1.000000  1.000000
 IRadAn=      0 IRanWt=     -1 IRanGd=            0 ICorTp=0 IEmpDi=  4
 NAtoms=   23 NActive=   23 NUniq=   23 SFac= 1.00D+00 NAtFMM=   60 NAOKFM=F Big=F
 Integral buffers will be    131072 words long.
 Raffenetti 2 integral format.
 Two-electron integral symmetry is turned on.
 Leave Link  301 at Fri Aug 20 15:40:42 2021, MaxMem= 24159191040 cpu:         2.2
 (Enter /public/home/users/caep010/software/Gaussian09/g09/l302.exe)
 NPDir=0 NMtPBC=     1 NCelOv=     1 NCel=       1 NClECP=     1 NCelD=      1
         NCelK=      1 NCelE2=     1 NClLst=     1 CellRange=     0.0.
 One-electron integrals computed using PRISM.
 NBasis=   235 RedAO= T EigKep=  1.21D-03  NBF=   235
 NBsUse=   235 1.00D-06 EigRej= -1.00D+00 NBFU=   235
 Precomputing XC quadrature grid using
 IXCGrd= 4 IRadAn=           0 IRanWt=          -1 IRanGd=           0 AccXCQ= 0.00D+00.
 Generated NRdTot=       0 NPtTot=           0 NUsed=           0 NTot=          32
 NSgBfM=   234   234   234   235   235 MxSgAt=    23 MxSgA2=    23.
 Leave Link  302 at Fri Aug 20 15:40:43 2021, MaxMem= 24159191040 cpu:        14.9
 (Enter /public/home/users/caep010/software/Gaussian09/g09/l303.exe)
 DipDrv:  MaxL=1.
 Leave Link  303 at Fri Aug 20 15:40:43 2021, MaxMem= 24159191040 cpu:         1.2
 (Enter /public/home/users/caep010/software/Gaussian09/g09/l401.exe)
 ExpMin= 1.61D-01 ExpMax= 5.48D+03 ExpMxC= 8.25D+02 IAcc=1 IRadAn=         1 AccDes= 0.00D+00
 Harris functional with IExCor=  402 and IRadAn=       1 diagonalized for initial guess.
 HarFok:  IExCor=  402 AccDes= 0.00D+00 IRadAn=         1 IDoV= 1 UseB2=F ITyADJ=14
 ICtDFT=  3500011 ScaDFX=  1.000000  1.000000  1.000000  1.000000
 FoFCou: FMM=F IPFlag=           0 FMFlag=      100000 FMFlg1=           0
         NFxFlg=           0 DoJE=T BraDBF=F KetDBF=T FulRan=T
         wScrn=  0.000000 ICntrl=     500 IOpCl=  0 I1Cent=   200000004 NGrid=           0
         NMat0=    1 NMatS0=      1 NMatT0=    0 NMatD0=    1 NMtDS0=    0 NMtDT0=    0
 Petite list used in FoFCou.
 Harris En= -625.019162321867    
 JPrj=0 DoOrth=F DoCkMO=F.
 Leave Link  401 at Fri Aug 20 15:40:44 2021, MaxMem= 24159191040 cpu:        16.0
 (Enter /public/home/users/caep010/software/Gaussian09/g09/l502.exe)
 Closed shell SCF:
 Using DIIS extrapolation, IDIIS=  1040.
 Integral symmetry usage will be decided dynamically.
 Keep R1 ints in memory in canonical form, NReq=391255842.
 IVT=      193517 IEndB=      193517 NGot= 24159191040 MDV= 23774507209
 LenX= 23774507209 LenY= 23774451543
 Requested convergence on RMS density matrix=1.00D-08 within 128 cycles.
 Requested convergence on MAX density matrix=1.00D-06.
 Requested convergence on             energy=1.00D-06.
 No special actions if energy rises.
 FoFCou: FMM=F IPFlag=           0 FMFlag=           0 FMFlg1=           0
         NFxFlg=           0 DoJE=F BraDBF=F KetDBF=F FulRan=T
         wScrn=  0.000000 ICntrl=     600 IOpCl=  0 I1Cent=           0 NGrid=           0
         NMat0=    1 NMatS0=  27730 NMatT0=    0 NMatD0=    1 NMtDS0=    0 NMtDT0=    0
 Symmetry not used in FoFCou.
 Integral accuracy reduced to 1.0D-05 until final iterations.

 Cycle   1  Pass 0  IDiag  1:
 E= -624.517727095681    
 DIIS: error= 3.20D-02 at cycle   1 NSaved=   1.
 NSaved= 1 IEnMin= 1 EnMin= -624.517727095681     IErMin= 1 ErrMin= 3.20D-02
 ErrMax= 3.20D-02  0.00D+00 EMaxC= 1.00D-01 BMatC= 4.66D-01 BMatP= 4.66D-01
 IDIUse=3 WtCom= 6.80D-01 WtEn= 3.20D-01
 Coeff-Com:  0.100D+01
 Coeff-En:   0.100D+01
 Coeff:      0.100D+01
 Gap=     0.136 Goal=   None    Shift=    0.000
 GapD=    0.136 DampG=1.000 DampE=0.500 DampFc=0.5000 IDamp=-1.
 Damping current iteration by 5.00D-01
 RMSDP=6.06D-03 MaxDP=2.04D-01              OVMax= 2.57D-01

 Cycle   2  Pass 0  IDiag  1:
 E= -624.645088099558     Delta-E=       -0.127361003877 Rises=F Damp=T
 DIIS: error= 1.40D-02 at cycle   2 NSaved=   2.
 NSaved= 2 IEnMin= 2 EnMin= -624.645088099558     IErMin= 2 ErrMin= 1.40D-02
 ErrMax= 1.40D-02  0.00D+00 EMaxC= 1.00D-01 BMatC= 6.36D-02 BMatP= 4.66D-01
 IDIUse=3 WtCom= 8.60D-01 WtEn= 1.40D-01
 Coeff-Com:  0.189D+00 0.811D+00
 Coeff-En:   0.280D+00 0.720D+00
 Coeff:      0.201D+00 0.799D+00
 Gap=     0.205 Goal=   None    Shift=    0.000
 RMSDP=1.88D-03 MaxDP=7.34D-02 DE=-1.27D-01 OVMax= 2.11D-01

 Cycle   3  Pass 0  IDiag  1:
 E= -624.852567520835     Delta-E=       -0.207479421278 Rises=F Damp=F
 DIIS: error= 1.37D-02 at cycle   3 NSaved=   3.
 NSaved= 3 IEnMin= 3 EnMin= -624.852567520835     IErMin= 3 ErrMin= 1.37D-02
 ErrMax= 1.37D-02  0.00D+00 EMaxC= 1.00D-01 BMatC= 5.62D-02 BMatP= 6.36D-02
 IDIUse=3 WtCom= 8.63D-01 WtEn= 1.37D-01
 Coeff-Com:  0.512D-01 0.477D+00 0.472D+00
 Coeff-En:   0.000D+00 0.000D+00 0.100D+01
 Coeff:      0.442D-01 0.412D+00 0.544D+00
 Gap=     0.190 Goal=   None    Shift=    0.000
 RMSDP=1.55D-03 MaxDP=8.67D-02 DE=-2.07D-01 OVMax= 1.70D-01

 Cycle   4  Pass 0  IDiag  1:
 E= -624.879202101632     Delta-E=       -0.026634580797 Rises=F Damp=F
 DIIS: error= 1.29D-02 at cycle   4 NSaved=   4.
 NSaved= 4 IEnMin= 4 EnMin= -624.879202101632     IErMin= 4 ErrMin= 1.29D-02
 ErrMax= 1.29D-02  0.00D+00 EMaxC= 1.00D-01 BMatC= 2.61D-02 BMatP= 5.62D-02
 IDIUse=3 WtCom= 8.71D-01 WtEn= 1.29D-01
 Coeff-Com:  0.189D-01 0.181D+00 0.393D+00 0.407D+00
 Coeff-En:   0.000D+00 0.000D+00 0.346D+00 0.654D+00
 Coeff:      0.165D-01 0.158D+00 0.387D+00 0.439D+00
 Gap=     0.202 Goal=   None    Shift=    0.000
 RMSDP=8.00D-04 MaxDP=4.98D-02 DE=-2.66D-02 OVMax= 9.72D-02

 Cycle   5  Pass 0  IDiag  1:
 E= -624.897583393337     Delta-E=       -0.018381291705 Rises=F Damp=F
 DIIS: error= 6.30D-03 at cycle   5 NSaved=   5.
 NSaved= 5 IEnMin= 5 EnMin= -624.897583393337     IErMin= 5 ErrMin= 6.30D-03
 ErrMax= 6.30D-03  0.00D+00 EMaxC= 1.00D-01 BMatC= 3.96D-03 BMatP= 2.61D-02
 IDIUse=3 WtCom= 9.37D-01 WtEn= 6.30D-02
 Coeff-Com:  0.810D-02 0.384D-01 0.201D+00 0.334D+00 0.419D+00
 Coeff-En:   0.000D+00 0.000D+00 0.000D+00 0.146D+00 0.854D+00
 Coeff:      0.759D-02 0.360D-01 0.188D+00 0.322D+00 0.446D+00
 Gap=     0.182 Goal=   None    Shift=    0.000
 RMSDP=2.78D-04 MaxDP=1.67D-02 DE=-1.84D-02 OVMax= 3.36D-02

 Cycle   6  Pass 0  IDiag  1:
 E= -624.900549151809     Delta-E=       -0.002965758471 Rises=F Damp=F
 DIIS: error= 1.22D-03 at cycle   6 NSaved=   6.
 NSaved= 6 IEnMin= 6 EnMin= -624.900549151809     IErMin= 6 ErrMin= 1.22D-03
 ErrMax= 1.22D-03  0.00D+00 EMaxC= 1.00D-01 BMatC= 3.20D-04 BMatP= 3.96D-03
 IDIUse=3 WtCom= 9.88D-01 WtEn= 1.22D-02
 Coeff-Com:  0.159D-02 0.178D-02 0.597D-01 0.134D+00 0.281D+00 0.522D+00
 Coeff-En:   0.000D+00 0.000D+00 0.000D+00 0.000D+00 0.731D-01 0.927D+00
 Coeff:      0.157D-02 0.176D-02 0.590D-01 0.133D+00 0.278D+00 0.527D+00
 Gap=     0.183 Goal=   None    Shift=    0.000
 RMSDP=8.40D-05 MaxDP=4.67D-03 DE=-2.97D-03 OVMax= 7.33D-03

 Cycle   7  Pass 0  IDiag  1:
 E= -624.900803131393     Delta-E=       -0.000253979584 Rises=F Damp=F
 DIIS: error= 1.50D-04 at cycle   7 NSaved=   7.
 NSaved= 7 IEnMin= 7 EnMin= -624.900803131393     IErMin= 7 ErrMin= 1.50D-04
 ErrMax= 1.50D-04  0.00D+00 EMaxC= 1.00D-01 BMatC= 1.51D-05 BMatP= 3.20D-04
 IDIUse=3 WtCom= 9.98D-01 WtEn= 1.50D-03
 Coeff-Com: -0.156D-03-0.206D-02 0.931D-02 0.316D-01 0.981D-01 0.273D+00
 Coeff-Com:  0.590D+00
 Coeff-En:   0.000D+00 0.000D+00 0.000D+00 0.000D+00 0.000D+00 0.000D+00
 Coeff-En:   0.100D+01
 Coeff:     -0.156D-03-0.206D-02 0.929D-02 0.316D-01 0.979D-01 0.272D+00
 Coeff:      0.591D+00
 Gap=     0.183 Goal=   None    Shift=    0.000
 RMSDP=1.79D-05 MaxDP=5.05D-04 DE=-2.54D-04 OVMax= 1.43D-03

 Cycle   8  Pass 0  IDiag  1:
 E= -624.900815333861     Delta-E=       -0.000012202468 Rises=F Damp=F
 DIIS: error= 2.67D-05 at cycle   8 NSaved=   8.
 NSaved= 8 IEnMin= 8 EnMin= -624.900815333861     IErMin= 8 ErrMin= 2.67D-05
 ErrMax= 2.67D-05  0.00D+00 EMaxC= 1.00D-01 BMatC= 6.86D-07 BMatP= 1.51D-05
 IDIUse=1 WtCom= 1.00D+00 WtEn= 0.00D+00
 Coeff-Com: -0.207D-03-0.706D-03 0.124D-02 0.700D-02 0.306D-01 0.994D-01
 Coeff-Com:  0.269D+00 0.594D+00
 Coeff:     -0.207D-03-0.706D-03 0.124D-02 0.700D-02 0.306D-01 0.994D-01
 Coeff:      0.269D+00 0.594D+00
 Gap=     0.183 Goal=   None    Shift=    0.000
 RMSDP=4.62D-06 MaxDP=2.31D-04 DE=-1.22D-05 OVMax= 3.95D-04

 Initial convergence to 1.0D-05 achieved.  Increase integral accuracy.
 Cycle   9  Pass 1  IDiag  1:
 E= -624.900862969077     Delta-E=       -0.000047635217 Rises=F Damp=F
 DIIS: error= 1.94D-05 at cycle   1 NSaved=   1.
 NSaved= 1 IEnMin= 1 EnMin= -624.900862969077     IErMin= 1 ErrMin= 1.94D-05
 ErrMax= 1.94D-05  0.00D+00 EMaxC= 1.00D-01 BMatC= 2.13D-07 BMatP= 2.13D-07
 IDIUse=1 WtCom= 1.00D+00 WtEn= 0.00D+00
 Coeff-Com:  0.100D+01
 Coeff:      0.100D+01
 Gap=     0.183 Goal=   None    Shift=    0.000
 RMSDP=4.62D-06 MaxDP=2.31D-04 DE=-4.76D-05 OVMax= 3.98D-04

 Cycle  10  Pass 1  IDiag  1:
 E= -624.900862918257     Delta-E=        0.000000050821 Rises=F Damp=F
 DIIS: error= 1.89D-05 at cycle   2 NSaved=   2.
 NSaved= 2 IEnMin= 1 EnMin= -624.900862969077     IErMin= 2 ErrMin= 1.89D-05
 ErrMax= 1.89D-05  0.00D+00 EMaxC= 1.00D-01 BMatC= 3.03D-07 BMatP= 2.13D-07
 IDIUse=1 WtCom= 1.00D+00 WtEn= 0.00D+00
 Coeff-Com:  0.552D+00 0.448D+00
 Coeff:      0.552D+00 0.448D+00
 Gap=     0.183 Goal=   None    Shift=    0.000
 RMSDP=3.26D-06 MaxDP=1.12D-04 DE= 5.08D-08 OVMax= 3.50D-04

 Cycle  11  Pass 1  IDiag  1:
 E= -624.900863192885     Delta-E=       -0.000000274628 Rises=F Damp=F
 DIIS: error= 8.79D-06 at cycle   3 NSaved=   3.
 NSaved= 3 IEnMin= 3 EnMin= -624.900863192885     IErMin= 3 ErrMin= 8.79D-06
 ErrMax= 8.79D-06  0.00D+00 EMaxC= 1.00D-01 BMatC= 2.49D-08 BMatP= 2.13D-07
 IDIUse=1 WtCom= 1.00D+00 WtEn= 0.00D+00
 Coeff-Com:  0.660D-01 0.223D+00 0.711D+00
 Coeff:      0.660D-01 0.223D+00 0.711D+00
 Gap=     0.183 Goal=   None    Shift=    0.000
 RMSDP=1.07D-06 MaxDP=5.32D-05 DE=-2.75D-07 OVMax= 1.10D-04

 Cycle  12  Pass 1  IDiag  1:
 E= -624.900863207355     Delta-E=       -0.000000014471 Rises=F Damp=F
 DIIS: error= 9.34D-06 at cycle   4 NSaved=   4.
 NSaved= 4 IEnMin= 4 EnMin= -624.900863207355     IErMin= 3 ErrMin= 8.79D-06
 ErrMax= 9.34D-06  0.00D+00 EMaxC= 1.00D-01 BMatC= 1.25D-08 BMatP= 2.49D-08
 IDIUse=1 WtCom= 1.00D+00 WtEn= 0.00D+00
 Coeff-Com: -0.705D-02 0.119D+00 0.513D+00 0.375D+00
 Coeff:     -0.705D-02 0.119D+00 0.513D+00 0.375D+00
 Gap=     0.183 Goal=   None    Shift=    0.000
 RMSDP=4.87D-07 MaxDP=3.07D-05 DE=-1.45D-08 OVMax= 5.70D-05

 Cycle  13  Pass 1  IDiag  1:
 E= -624.900863216448     Delta-E=       -0.000000009092 Rises=F Damp=F
 DIIS: error= 2.51D-06 at cycle   5 NSaved=   5.
 NSaved= 5 IEnMin= 5 EnMin= -624.900863216448     IErMin= 5 ErrMin= 2.51D-06
 ErrMax= 2.51D-06  0.00D+00 EMaxC= 1.00D-01 BMatC= 1.15D-09 BMatP= 1.25D-08
 IDIUse=1 WtCom= 1.00D+00 WtEn= 0.00D+00
 Coeff-Com: -0.115D-01 0.578D-01 0.279D+00 0.263D+00 0.413D+00
 Coeff:     -0.115D-01 0.578D-01 0.279D+00 0.263D+00 0.413D+00
 Gap=     0.183 Goal=   None    Shift=    0.000
 RMSDP=1.42D-07 MaxDP=7.71D-06 DE=-9.09D-09 OVMax= 1.62D-05

 Cycle  14  Pass 1  IDiag  1:
 E= -624.900863217358     Delta-E=       -0.000000000910 Rises=F Damp=F
 DIIS: error= 3.55D-07 at cycle   6 NSaved=   6.
 NSaved= 6 IEnMin= 6 EnMin= -624.900863217358     IErMin= 6 ErrMin= 3.55D-07
 ErrMax= 3.55D-07  0.00D+00 EMaxC= 1.00D-01 BMatC= 3.81D-11 BMatP= 1.15D-09
 IDIUse=1 WtCom= 1.00D+00 WtEn= 0.00D+00
 Coeff-Com: -0.571D-02 0.231D-01 0.116D+00 0.115D+00 0.229D+00 0.522D+00
 Coeff:     -0.571D-02 0.231D-01 0.116D+00 0.115D+00 0.229D+00 0.522D+00
 Gap=     0.183 Goal=   None    Shift=    0.000
 RMSDP=2.99D-08 MaxDP=1.38D-06 DE=-9.10D-10 OVMax= 1.86D-06

 Cycle  15  Pass 1  IDiag  1:
 E= -624.900863217402     Delta-E=       -0.000000000044 Rises=F Damp=F
 DIIS: error= 1.05D-07 at cycle   7 NSaved=   7.
 NSaved= 7 IEnMin= 7 EnMin= -624.900863217402     IErMin= 7 ErrMin= 1.05D-07
 ErrMax= 1.05D-07  0.00D+00 EMaxC= 1.00D-01 BMatC= 3.82D-12 BMatP= 3.81D-11
 IDIUse=1 WtCom= 1.00D+00 WtEn= 0.00D+00
 Coeff-Com: -0.158D-02 0.488D-02 0.262D-01 0.264D-01 0.709D-01 0.279D+00
 Coeff-Com:  0.594D+00
 Coeff:     -0.158D-02 0.488D-02 0.262D-01 0.264D-01 0.709D-01 0.279D+00
 Coeff:      0.594D+00
 Gap=     0.183 Goal=   None    Shift=    0.000
 RMSDP=9.90D-09 MaxDP=3.39D-07 DE=-4.37D-11 OVMax= 5.35D-07

 SCF Done:  E(RB3LYP) =  -624.900863217     A.U. after   15 cycles
            NFock= 15  Conv=0.99D-08     -V/T= 2.0041
 KE= 6.223438576204D+02 PE=-2.988959914391D+03 EE= 9.776365271350D+02
 Leave Link  502 at Fri Aug 20 15:40:57 2021, MaxMem= 24159191040 cpu:       133.5
 (Enter /public/home/users/caep010/software/Gaussian09/g09/l601.exe)
 Copying SCF densities to generalized density rwf, IOpCl= 0 IROHF=0.

 **********************************************************************

            Population analysis using the SCF density.

 **********************************************************************

 Orbital symmetries:
       Occupied  (A) (A) (A) (A) (A) (A) (A) (A) (A) (A) (A) (A)
                 (A) (A) (A) (A) (A) (A) (A) (A) (A) (A) (A) (A)
                 (A) (A) (A) (A) (A) (A) (A) (A) (A) (A) (A) (A)
                 (A) (A) (A) (A) (A) (A) (A) (A) (A) (A)
       Virtual   (A) (A) (A) (A) (A) (A) (A) (A) (A) (A) (A) (A)
                 (A) (A) (A) (A) (A) (A) (A) (A) (A) (A) (A) (A)
                 (A) (A) (A) (A) (A) (A) (A) (A) (A) (A) (A) (A)
                 (A) (A) (A) (A) (A) (A) (A) (A) (A) (A) (A) (A)
                 (A) (A) (A) (A) (A) (A) (A) (A) (A) (A) (A) (A)
                 (A) (A) (A) (A) (A) (A) (A) (A) (A) (A) (A) (A)
                 (A) (A) (A) (A) (A) (A) (A) (A) (A) (A) (A) (A)
                 (A) (A) (A) (A) (A) (A) (A) (A) (A) (A) (A) (A)
                 (A) (A) (A) (A) (A) (A) (A) (A) (A) (A) (A) (A)
                 (A) (A) (A) (A) (A) (A) (A) (A) (A) (A) (A) (A)
                 (A) (A) (A) (A) (A) (A) (A) (A) (A) (A) (A) (A)
                 (A) (A) (A) (A) (A) (A) (A) (A) (A) (A) (A) (A)
                 (A) (A) (A) (A) (A) (A) (A) (A) (A) (A) (A) (A)
                 (A) (A) (A) (A) (A) (A) (A) (A) (A) (A) (A) (A)
                 (A) (A) (A) (A) (A) (A) (A) (A) (A) (A) (A) (A)
                 (A) (A) (A) (A) (A) (A) (A) (A) (A)
 The electronic state is 1-A.
 Alpha  occ. eigenvalues --  -19.14470 -19.11067 -19.10458 -14.50901 -14.38853
 Alpha  occ. eigenvalues --  -14.36187 -10.29159 -10.23509 -10.23108 -10.22951
 Alpha  occ. eigenvalues --  -10.22473 -10.18125  -1.14359  -1.07177  -1.04893
 Alpha  occ. eigenvalues --   -0.96157  -0.94133  -0.84343  -0.81297  -0.78674
 Alpha  occ. eigenvalues --   -0.70928  -0.70265  -0.64263  -0.62456  -0.56807
 Alpha  occ. eigenvalues --   -0.55744  -0.54513  -0.52104  -0.50884  -0.48980
 Alpha  occ. eigenvalues --   -0.47415  -0.46840  -0.46456  -0.45116  -0.44615
 Alpha  occ. eigenvalues --   -0.44294  -0.41965  -0.40917  -0.39463  -0.35474
 Alpha  occ. eigenvalues --   -0.29920  -0.25935  -0.25549  -0.24057  -0.22073
 Alpha  occ. eigenvalues --   -0.20769
 Alpha virt. eigenvalues --   -0.02453   0.06168   0.08336   0.09635   0.09936
 Alpha virt. eigenvalues --    0.11123   0.12299   0.13978   0.14240   0.16214
 Alpha virt. eigenvalues --    0.16424   0.16894   0.18277   0.19844   0.21315
 Alpha virt. eigenvalues --    0.22767   0.23476   0.24061   0.26172   0.27682
 Alpha virt. eigenvalues --    0.29484   0.33731   0.34122   0.41479   0.44407
 Alpha virt. eigenvalues --    0.45935   0.46786   0.48196   0.50386   0.52037
 Alpha virt. eigenvalues --    0.52567   0.54473   0.57080   0.57673   0.58764
 Alpha virt. eigenvalues --    0.61512   0.62113   0.63223   0.66706   0.68060
 Alpha virt. eigenvalues --    0.70247   0.73906   0.74846   0.76164   0.77832
 Alpha virt. eigenvalues --    0.80885   0.83123   0.83424   0.84909   0.85660
 Alpha virt. eigenvalues --    0.86409   0.87646   0.89521   0.90819   0.92353
 Alpha virt. eigenvalues --    0.94115   0.94356   0.95858   0.97169   0.98950
 Alpha virt. eigenvalues --    1.00400   1.01383   1.02162   1.02508   1.03659
 Alpha virt. eigenvalues --    1.04686   1.04718   1.05551   1.07559   1.10713
 Alpha virt. eigenvalues --    1.11321   1.15340   1.19505   1.24894   1.26081
 Alpha virt. eigenvalues --    1.26893   1.31190   1.33865   1.35229   1.37261
 Alpha virt. eigenvalues --    1.39948   1.45054   1.45579   1.46163   1.47893
 Alpha virt. eigenvalues --    1.54894   1.57091   1.60659   1.60712   1.62869
 Alpha virt. eigenvalues --    1.65833   1.69267   1.70594   1.71050   1.74051
 Alpha virt. eigenvalues --    1.78534   1.79792   1.80315   1.82645   1.83719
 Alpha virt. eigenvalues --    1.85243   1.86948   1.87883   1.89497   1.90889
 Alpha virt. eigenvalues --    1.92157   1.94259   1.96380   1.99596   2.03419
 Alpha virt. eigenvalues --    2.03748   2.06304   2.08208   2.10623   2.12434
 Alpha virt. eigenvalues --    2.14666   2.17066   2.18104   2.19861   2.24133
 Alpha virt. eigenvalues --    2.26246   2.27046   2.28643   2.30603   2.32770
 Alpha virt. eigenvalues --    2.33094   2.34426   2.36206   2.37413   2.40631
 Alpha virt. eigenvalues --    2.44465   2.47301   2.49795   2.51837   2.52497
 Alpha virt. eigenvalues --    2.54469   2.55433   2.57407   2.59543   2.61160
 Alpha virt. eigenvalues --    2.65497   2.67061   2.69633   2.71195   2.76439
 Alpha virt. eigenvalues --    2.77948   2.80641   2.82485   2.82919   2.84935
 Alpha virt. eigenvalues --    2.86975   2.88418   2.89771   2.91134   2.93417
 Alpha virt. eigenvalues --    3.01110   3.03793   3.04613   3.06776   3.09208
 Alpha virt. eigenvalues --    3.10573   3.15498   3.19931   3.26515   3.41415
 Alpha virt. eigenvalues --    3.43513   3.58737   3.62301   3.64494   3.66121
 Alpha virt. eigenvalues --    3.66920   3.69565   3.71537   3.75759   3.79022
 Alpha virt. eigenvalues --    3.82709   3.83145   3.93032   4.01691   4.02305
 Alpha virt. eigenvalues --    4.06948   4.17296   4.18512   4.34745   4.38120
 Alpha virt. eigenvalues --    4.46215   4.65634   4.70869   4.78104
          Condensed to atoms (all electrons):
               1          2          3          4          5          6
     1  C    4.543451   0.368659  -0.063841   0.002475   0.002345  -0.065661
     2  N    0.368659   6.798462   0.285035  -0.042204  -0.044031  -0.041516
     3  C   -0.063841   0.285035   4.734401   0.405609   0.406792   0.382453
     4  H    0.002475  -0.042204   0.405609   0.591482  -0.056224  -0.030453
     5  H    0.002345  -0.044031   0.406792  -0.056224   0.594926  -0.032967
     6  C   -0.065661  -0.041516   0.382453  -0.030453  -0.032967   4.713576
     7  H    0.003195   0.002842  -0.029076  -0.012320   0.005979   0.401115
     8  H    0.001864   0.003048  -0.033871   0.005871  -0.011840   0.405226
     9  C    0.397272  -0.081858   0.005918  -0.000133  -0.000049   0.003598
    10  H   -0.046270   0.006396  -0.000138   0.000004   0.000006  -0.000082
    11  N    0.326773  -0.080225  -0.044015   0.002823   0.002280   0.329259
    12  C   -0.037050   0.004317   0.005101  -0.000019  -0.000164  -0.039424
    13  H    0.005963  -0.000137   0.000214  -0.000034   0.000007  -0.005639
    14  H   -0.008075   0.000037  -0.000343   0.000014   0.000004   0.004698
    15  C   -0.000476  -0.000068  -0.000130   0.000004  -0.000004  -0.000540
    16  H    0.000177   0.000001   0.000007  -0.000000  -0.000000  -0.000100
    17  O    0.003343  -0.000010   0.000015   0.000000  -0.000002  -0.000147
    18  H    0.001511  -0.000120   0.000011  -0.000001   0.000008   0.000011
    19  H    0.000098  -0.000009  -0.000115   0.000002   0.000002   0.001371
    20  N   -0.013440  -0.010076   0.000065   0.000002   0.000000  -0.000077
    21  O    0.006733   0.000026   0.000004  -0.000000  -0.000000   0.000001
    22  H   -0.022903   0.369891  -0.023933  -0.000854  -0.000366   0.004024
    23  O   -0.002538  -0.016901   0.001095  -0.000014  -0.000006  -0.000049
               7          8          9         10         11         12
     1  C    0.003195   0.001864   0.397272  -0.046270   0.326773  -0.037050
     2  N    0.002842   0.003048  -0.081858   0.006396  -0.080225   0.004317
     3  C   -0.029076  -0.033871   0.005918  -0.000138  -0.044015   0.005101
     4  H   -0.012320   0.005871  -0.000133   0.000004   0.002823  -0.000019
     5  H    0.005979  -0.011840  -0.000049   0.000006   0.002280  -0.000164
     6  C    0.401115   0.405226   0.003598  -0.000082   0.329259  -0.039424
     7  H    0.606842  -0.062504  -0.000023   0.000002  -0.044836  -0.004421
     8  H   -0.062504   0.611500  -0.000074  -0.000004  -0.047784   0.002333
     9  C   -0.000023  -0.000074   5.135905   0.374294  -0.053576  -0.003511
    10  H    0.000002  -0.000004   0.374294   0.625297  -0.012631   0.002739
    11  N   -0.044836  -0.047784  -0.053576  -0.012631   7.005862   0.305867
    12  C   -0.004421   0.002333  -0.003511   0.002739   0.305867   4.861308
    13  H    0.006408  -0.001452   0.000127   0.000364  -0.037887   0.357187
    14  H    0.000488  -0.000306   0.005578   0.002544  -0.033344   0.400715
    15  C   -0.001022   0.002218   0.000291  -0.001312  -0.057243   0.354431
    16  H    0.000064  -0.000196  -0.000090   0.000046   0.006161  -0.052682
    17  O   -0.000000   0.000076  -0.003042   0.008112  -0.001218  -0.061755
    18  H    0.000010  -0.000104   0.001615  -0.000305   0.004003  -0.002265
    19  H    0.000112   0.001164  -0.000009   0.000152  -0.007101  -0.049232
    20  N    0.000002   0.000002   0.297699  -0.038881   0.002885  -0.000040
    21  O   -0.000000  -0.000000  -0.070909   0.004640  -0.000037   0.000003
    22  H   -0.000109  -0.000077  -0.007879  -0.000012   0.007540  -0.000123
    23  O    0.000000  -0.000000  -0.083807   0.005911   0.000415   0.000005
              13         14         15         16         17         18
     1  C    0.005963  -0.008075  -0.000476   0.000177   0.003343   0.001511
     2  N   -0.000137   0.000037  -0.000068   0.000001  -0.000010  -0.000120
     3  C    0.000214  -0.000343  -0.000130   0.000007   0.000015   0.000011
     4  H   -0.000034   0.000014   0.000004  -0.000000   0.000000  -0.000001
     5  H    0.000007   0.000004  -0.000004  -0.000000  -0.000002   0.000008
     6  C   -0.005639   0.004698  -0.000540  -0.000100  -0.000147   0.000011
     7  H    0.006408   0.000488  -0.001022   0.000064  -0.000000   0.000010
     8  H   -0.001452  -0.000306   0.002218  -0.000196   0.000076  -0.000104
     9  C    0.000127   0.005578   0.000291  -0.000090  -0.003042   0.001615
    10  H    0.000364   0.002544  -0.001312   0.000046   0.008112  -0.000305
    11  N   -0.037887  -0.033344  -0.057243   0.006161  -0.001218   0.004003
    12  C    0.357187   0.400715   0.354431  -0.052682  -0.061755  -0.002265
    13  H    0.633579  -0.034079  -0.040169   0.005161   0.004934  -0.000082
    14  H   -0.034079   0.559425  -0.039892  -0.005605  -0.002242  -0.000633
    15  C   -0.040169  -0.039892   4.680635   0.398071   0.290902  -0.031536
    16  H    0.005161  -0.005605   0.398071   0.610699  -0.036643   0.008029
    17  O    0.004934  -0.002242   0.290902  -0.036643   7.983480   0.341506
    18  H   -0.000082  -0.000633  -0.031536   0.008029   0.341506   0.410452
    19  H   -0.000844   0.008314   0.386169  -0.051038  -0.033274  -0.011178
    20  N   -0.000005   0.000043   0.000011  -0.000000  -0.000041  -0.000006
    21  O   -0.000000  -0.000017   0.000000   0.000000   0.000000  -0.000002
    22  H    0.000005   0.000006   0.000002  -0.000000  -0.000002   0.000000
    23  O    0.000000  -0.000001  -0.000000   0.000000   0.000000  -0.000001
              19         20         21         22         23
     1  C    0.000098  -0.013440   0.006733  -0.022903  -0.002538
     2  N   -0.000009  -0.010076   0.000026   0.369891  -0.016901
     3  C   -0.000115   0.000065   0.000004  -0.023933   0.001095
     4  H    0.000002   0.000002  -0.000000  -0.000854  -0.000014
     5  H    0.000002   0.000000  -0.000000  -0.000366  -0.000006
     6  C    0.001371  -0.000077   0.000001   0.004024  -0.000049
     7  H    0.000112   0.000002  -0.000000  -0.000109   0.000000
     8  H    0.001164   0.000002  -0.000000  -0.000077  -0.000000
     9  C   -0.000009   0.297699  -0.070909  -0.007879  -0.083807
    10  H    0.000152  -0.038881   0.004640  -0.000012   0.005911
    11  N   -0.007101   0.002885  -0.000037   0.007540   0.000415
    12  C   -0.049232  -0.000040   0.000003  -0.000123   0.000005
    13  H   -0.000844  -0.000005  -0.000000   0.000005   0.000000
    14  H    0.008314   0.000043  -0.000017   0.000006  -0.000001
    15  C    0.386169   0.000011   0.000000   0.000002  -0.000000
    16  H   -0.051038  -0.000000   0.000000  -0.000000   0.000000
    17  O   -0.033274  -0.000041   0.000000  -0.000002   0.000000
    18  H   -0.011178  -0.000006  -0.000002   0.000000  -0.000001
    19  H    0.663026  -0.000000   0.000000  -0.000000  -0.000000
    20  N   -0.000000   5.859447   0.261144  -0.001321   0.275294
    21  O    0.000000   0.261144   8.350122   0.000360  -0.089881
    22  H   -0.000000  -0.001321   0.000360   0.398727   0.048044
    23  O   -0.000000   0.275294  -0.089881   0.048044   8.369476
 Mulliken charges:
               1
     1  C    0.596395
     2  N   -0.521560
     3  C   -0.031256
     4  H    0.133969
     5  H    0.133304
     6  C   -0.028677
     7  H    0.127255
     8  H    0.124909
     9  C    0.082661
    10  H    0.069128
    11  N   -0.573973
    12  C   -0.043318
    13  H    0.106380
    14  H    0.142672
    15  C    0.059659
    16  H    0.117937
    17  O   -0.493995
    18  H    0.279076
    19  H    0.092391
    20  N    0.367292
    21  O   -0.462186
    22  H    0.228980
    23  O   -0.507043
 Sum of Mulliken charges =  -0.00000
 Mulliken charges with hydrogens summed into heavy atoms:
               1
     1  C    0.596395
     2  N   -0.292580
     3  C    0.236017
     6  C    0.223487
     9  C    0.151790
    11  N   -0.573973
    12  C    0.205735
    15  C    0.269986
    17  O   -0.214919
    20  N    0.367292
    21  O   -0.462186
    23  O   -0.507043
 Electronic spatial extent (au):  <R**2>=           2236.0095
 Charge=             -0.0000 electrons
 Dipole moment (field-independent basis, Debye):
    X=              9.6703    Y=              5.1613    Z=             -0.3086  Tot=             10.9658
 Quadrupole moment (field-independent basis, Debye-Ang):
   XX=            -83.6353   YY=            -68.2258   ZZ=            -65.2771
   XY=             -3.2389   XZ=             -0.9229   YZ=              2.3164
 Traceless Quadrupole moment (field-independent basis, Debye-Ang):
   XX=            -11.2559   YY=              4.1536   ZZ=              7.1023
   XY=             -3.2389   XZ=             -0.9229   YZ=              2.3164
 Octapole moment (field-independent basis, Debye-Ang**2):
  XXX=             92.6507  YYY=             40.8876  ZZZ=              9.6302  XYY=              9.6656
  XXY=             16.4703  XXZ=             -3.6379  XZZ=              2.9628  YZZ=             -4.2053
  YYZ=             -1.8236  XYZ=              5.9651
 Hexadecapole moment (field-independent basis, Debye-Ang**3):
 XXXX=          -1769.4326 YYYY=           -948.5685 ZZZZ=           -158.9999 XXXY=            -70.2383
 XXXZ=              2.0268 YYYX=             -1.9620 YYYZ=             19.9121 ZZZX=              8.7035
 ZZZY=            -10.4425 XXYY=           -450.9930 XXZZ=           -280.0164 YYZZ=           -181.8981
 XXYZ=             -0.0993 YYXZ=            -17.7398 ZZXY=             -1.9497
 N-N= 7.640786664186D+02 E-N=-2.988959935831D+03  KE= 6.223438576204D+02
 No NMR shielding tensors so no spin-rotation constants.
 Leave Link  601 at Fri Aug 20 15:40:58 2021, MaxMem= 24159191040 cpu:        11.6
 (Enter /public/home/users/caep010/software/Gaussian09/g09/l701.exe)
 Compute integral first derivatives.
 ... and contract with generalized density number  0.
 Leave Link  701 at Fri Aug 20 15:40:58 2021, MaxMem= 24159191040 cpu:        11.1
 (Enter /public/home/users/caep010/software/Gaussian09/g09/l702.exe)
 L702 exits ... SP integral derivatives will be done elsewhere.
 Leave Link  702 at Fri Aug 20 15:40:58 2021, MaxMem= 24159191040 cpu:         0.5
 (Enter /public/home/users/caep010/software/Gaussian09/g09/l703.exe)
 Compute integral first derivatives, UseDBF=F ICtDFT=           0.
 Integral derivatives from FoFJK, PRISM(SPDF).
 Calling FoFJK, ICntrl=      2127 FMM=F ISym2X=0 I1Cent= 0 IOpClX= 0 NMat=1 NMatS=1 NMatT=0.
 FoFJK:  IHMeth= 1 ICntrl=    2127 DoSepK=F KAlg= 0 I1Cent=   0 FoldK=F
 IRaf=         0 NMat=   1 IRICut=       1 DoRegI=T DoRafI=F ISym2E= 0.
 FoFCou: FMM=F IPFlag=           0 FMFlag=      100000 FMFlg1=         800
         NFxFlg=           0 DoJE=F BraDBF=F KetDBF=F FulRan=T
         wScrn=  0.000000 ICntrl=    2127 IOpCl=  0 I1Cent=           0 NGrid=           0
         NMat0=    1 NMatS0=      1 NMatT0=    0 NMatD0=    1 NMtDS0=    0 NMtDT0=    0
 Symmetry not used in FoFCou.
 Leave Link  703 at Fri Aug 20 15:40:59 2021, MaxMem= 24159191040 cpu:        31.4
 (Enter /public/home/users/caep010/software/Gaussian09/g09/l716.exe)
 Dipole        = 3.80458537D+00 2.03062369D+00-1.21427694D-01
 ***** Axes restored to original set *****
 -------------------------------------------------------------------
 Center     Atomic                   Forces (Hartrees/Bohr)
 Number     Number              X              Y              Z
 -------------------------------------------------------------------
      1        6          -0.002103631    0.051420110   -0.003522016
      2        7           0.162990588   -0.108502428   -0.058914146
      3        6           0.059432811    0.082237954   -0.030973513
      4        1          -0.007925641   -0.038019773    0.109807250
      5        1          -0.078487573   -0.057145022   -0.066449116
      6        6          -0.050742087    0.095620344    0.007779496
      7        1           0.074354265   -0.044921695    0.080404523
      8        1           0.002378935   -0.067072076   -0.096275313
      9        6          -0.106175269   -0.098189593    0.055068382
     10        1           0.135494759    0.067667830   -0.063434112
     11        7           0.020130486   -0.013533314   -0.006490580
     12        6          -0.093607070   -0.029300852   -0.074663825
     13        1           0.072363562   -0.073815636    0.056592374
     14        1           0.023610528    0.108776223    0.032956173
     15        6          -0.082241562    0.077219436    0.047456290
     16        1           0.112491010    0.020852373   -0.024654453
     17        8           0.222615590    0.103792072    0.038928525
     18        1          -0.225438414   -0.092757291   -0.043793418
     19        1          -0.027414369   -0.111660065   -0.033883104
     20        7          -0.041132607    0.051964259    0.008598453
     21        8           0.008125119   -0.020610405    0.000718161
     22        1          -0.184947474    0.106336150    0.065633599
     23        8           0.006228044   -0.010358601   -0.000889628
 -------------------------------------------------------------------
 Cartesian Forces:  Max     0.225438414 RMS     0.079668904
 Leave Link  716 at Fri Aug 20 15:41:00 2021, MaxMem= 24159191040 cpu:         0.9
 (Enter /public/home/users/caep010/software/Gaussian09/g09/l103.exe)

 GradGradGradGradGradGradGradGradGradGradGradGradGradGradGradGradGradGrad
 Berny optimization.
 FormGI is forming the generalized inverse of G from B-inverse, IUseBI=4.
 Internal  Forces:  Max     0.247660714 RMS     0.046462571
 Search for a local minimum.
 Step number   1 out of a maximum of  128
 All quantities printed in internal units (Hartrees-Bohrs-Radians)
 RMS Force = .46463D-01 SwitMx=.10000D-02 MixMth= 1
 Mixed Optimization -- RFO/linear search
 Second derivative matrix not updated -- first step.
 ITU=  0
     Eigenvalues ---    0.00590   0.00893   0.00967   0.01403   0.01597
     Eigenvalues ---    0.01693   0.01861   0.01990   0.02241   0.02492
     Eigenvalues ---    0.02492   0.02492   0.04267   0.04469   0.04607
     Eigenvalues ---    0.05053   0.05618   0.05996   0.06040   0.06306
     Eigenvalues ---    0.08255   0.08323   0.08365   0.09582   0.10710
     Eigenvalues ---    0.11614   0.12960   0.13956   0.16000   0.16000
     Eigenvalues ---    0.16000   0.22000   0.22006   0.22059   0.22140
     Eigenvalues ---    0.24137   0.24675   0.24999   0.25000   0.25000
     Eigenvalues ---    0.31022   0.31090   0.35040   0.37628   0.38024
     Eigenvalues ---    0.44410   0.44453   0.53274   0.53275   0.53332
     Eigenvalues ---    0.53343   0.53351   0.53427   0.53448   0.53450
     Eigenvalues ---    0.55192   0.57314   0.58521   0.62466   0.77124
     Eigenvalues ---    0.77319   0.84079   1.01030
 RFO step:  Lambda=-2.69496553D-01 EMin= 5.90075998D-03
 Linear search not attempted -- first point.
 Maximum step size (   0.300) exceeded in Quadratic search.
    -- Step size scaled by   0.551
 Iteration  1 RMS(Cart)=  0.03112979 RMS(Int)=  0.00017940
 Iteration  2 RMS(Cart)=  0.00022828 RMS(Int)=  0.00000222
 Iteration  3 RMS(Cart)=  0.00000009 RMS(Int)=  0.00000221
 ITry= 1 IFail=0 DXMaxC= 9.83D-02 DCOld= 1.00D+10 DXMaxT= 3.00D-01 DXLimC= 3.00D+00 Rises=F
 Variable       Old X    -DE/DX   Delta X   Delta X   Delta X     New X
                                 (Linear)    (Quad)   (Total)
    R1        2.49914   0.02626   0.00000   0.01698   0.01698   2.51612
    R2        2.65967  -0.00924   0.00000  -0.00714  -0.00714   2.65253
    R3        2.52127   0.02972   0.00000   0.01978   0.01978   2.54106
    R4        2.73310   0.01606   0.00000   0.01325   0.01325   2.74635
    R5        1.62488   0.22306   0.00000   0.11074   0.11074   1.73561
    R6        1.83399   0.11646   0.00000   0.08002   0.08002   1.91401
    R7        1.83237   0.11764   0.00000   0.08065   0.08065   1.91303
    R8        2.84100   0.03250   0.00000   0.02930   0.02930   2.87031
    R9        1.83236   0.11834   0.00000   0.08113   0.08113   1.91349
   R10        1.83328   0.11735   0.00000   0.08055   0.08055   1.91383
   R11        2.75331   0.01465   0.00000   0.01234   0.01234   2.76565
   R12        1.75740   0.16399   0.00000   0.10109   0.10109   1.85849
   R13        2.53132   0.03502   0.00000   0.02291   0.02291   2.55423
   R14        2.74909   0.00323   0.00000   0.00275   0.00275   2.75185
   R15        1.83398   0.11780   0.00000   0.08093   0.08093   1.91492
   R16        1.83257   0.11608   0.00000   0.07960   0.07960   1.91217
   R17        2.85971   0.01593   0.00000   0.01514   0.01514   2.87486
   R18        1.83345   0.11695   0.00000   0.08030   0.08030   1.91375
   R19        2.65916   0.01134   0.00000   0.00876   0.00876   2.66792
   R20        1.83335   0.11983   0.00000   0.08226   0.08226   1.91561
   R21        1.54929   0.24766   0.00000   0.10666   0.10666   1.65596
   R22        2.39505  -0.01932   0.00000  -0.01023  -0.01023   2.38481
   R23        2.39394  -0.00240   0.00000  -0.00127  -0.00127   2.39267
    A1        2.20400  -0.00239   0.00000  -0.00346  -0.00346   2.20054
    A2        1.92506  -0.00495   0.00000  -0.00341  -0.00341   1.92165
    A3        2.15410   0.00735   0.00000   0.00688   0.00688   2.16097
    A4        1.95465   0.00321   0.00000   0.00430   0.00430   1.95895
    A5        2.16355  -0.00804   0.00000  -0.01041  -0.01041   2.15315
    A6        2.16498   0.00483   0.00000   0.00610   0.00610   2.17109
    A7        1.93831  -0.00060   0.00000  -0.00051  -0.00051   1.93781
    A8        1.93984  -0.00022   0.00000  -0.00009  -0.00009   1.93975
    A9        1.80135  -0.00085   0.00000  -0.00268  -0.00268   1.79867
   A10        1.90344  -0.00018   0.00000  -0.00027  -0.00027   1.90317
   A11        1.93946   0.00129   0.00000   0.00232   0.00232   1.94178
   A12        1.94037   0.00055   0.00000   0.00119   0.00119   1.94155
   A13        1.93889   0.00129   0.00000   0.00251   0.00251   1.94140
   A14        1.93726   0.00068   0.00000   0.00155   0.00155   1.93881
   A15        1.81069   0.00054   0.00000  -0.00106  -0.00106   1.80963
   A16        1.90230  -0.00004   0.00000  -0.00021  -0.00021   1.90209
   A17        1.93746  -0.00169   0.00000  -0.00213  -0.00213   1.93533
   A18        1.93647  -0.00077   0.00000  -0.00068  -0.00068   1.93579
   A19        2.07204   0.01057   0.00000   0.01291   0.01291   2.08495
   A20        2.14013  -0.00832   0.00000  -0.00937  -0.00937   2.13076
   A21        2.07101  -0.00225   0.00000  -0.00354  -0.00354   2.06747
   A22        1.93265   0.00206   0.00000   0.00288   0.00288   1.93553
   A23        2.22555  -0.00206   0.00000  -0.00256  -0.00256   2.22299
   A24        2.11781  -0.00003   0.00000  -0.00038  -0.00038   2.11744
   A25        1.90040  -0.00230   0.00000  -0.00353  -0.00353   1.89687
   A26        1.90126   0.00030   0.00000   0.00020   0.00020   1.90146
   A27        1.97938  -0.00099   0.00000  -0.00124  -0.00124   1.97814
   A28        1.87983   0.00042   0.00000   0.00090   0.00089   1.88072
   A29        1.90000   0.00246   0.00000   0.00341   0.00340   1.90341
   A30        1.90050   0.00018   0.00000   0.00037   0.00037   1.90087
   A31        1.90599   0.00035   0.00000  -0.00017  -0.00018   1.90581
   A32        1.95522  -0.00191   0.00000  -0.00227  -0.00228   1.95295
   A33        1.90692  -0.00012   0.00000   0.00024   0.00024   1.90716
   A34        1.90585  -0.00257   0.00000  -0.00442  -0.00442   1.90143
   A35        1.88277   0.00060   0.00000   0.00113   0.00114   1.88391
   A36        1.90569   0.00374   0.00000   0.00560   0.00560   1.91129
   A37        1.91009   0.00238   0.00000   0.00305   0.00305   1.91314
   A38        2.08099  -0.00783   0.00000  -0.00830  -0.00830   2.07268
   A39        2.12559  -0.01031   0.00000  -0.01093  -0.01093   2.11466
   A40        2.07659   0.01813   0.00000   0.01924   0.01924   2.09583
    D1        3.12258  -0.00002   0.00000  -0.00003  -0.00002   3.12256
    D2       -0.01814   0.00014   0.00000   0.00028   0.00028  -0.01786
    D3       -0.02606   0.00063   0.00000   0.00110   0.00110  -0.02496
    D4        3.11640   0.00079   0.00000   0.00141   0.00140   3.11781
    D5        3.10420   0.00259   0.00000   0.00489   0.00489   3.10909
    D6       -0.03700   0.00198   0.00000   0.00373   0.00373  -0.03327
    D7       -0.02947   0.00191   0.00000   0.00366   0.00367  -0.02580
    D8        3.11251   0.00130   0.00000   0.00251   0.00250   3.11502
    D9        0.01506  -0.00061   0.00000  -0.00106  -0.00106   0.01399
   D10       -2.99810  -0.00039   0.00000  -0.00058  -0.00058  -2.99868
   D11       -3.13335  -0.00003   0.00000  -0.00002  -0.00002  -3.13336
   D12        0.13669   0.00020   0.00000   0.00046   0.00047   0.13715
   D13        2.10478   0.00035   0.00000   0.00022   0.00022   2.10499
   D14       -2.05598  -0.00044   0.00000  -0.00054  -0.00054  -2.05653
   D15        0.02530  -0.00040   0.00000  -0.00073  -0.00073   0.02457
   D16       -1.03769   0.00018   0.00000  -0.00009  -0.00009  -1.03778
   D17        1.08474  -0.00061   0.00000  -0.00085  -0.00085   1.08388
   D18       -3.11717  -0.00056   0.00000  -0.00104  -0.00104  -3.11821
   D19        2.06785  -0.00097   0.00000  -0.00173  -0.00173   2.06612
   D20       -2.09573   0.00033   0.00000   0.00079   0.00079  -2.09494
   D21       -0.01493   0.00007   0.00000   0.00015   0.00015  -0.01478
   D22       -0.01083  -0.00041   0.00000  -0.00072  -0.00072  -0.01155
   D23        2.10877   0.00090   0.00000   0.00181   0.00181   2.11058
   D24       -2.09361   0.00064   0.00000   0.00116   0.00116  -2.09245
   D25       -2.13441  -0.00145   0.00000  -0.00281  -0.00281  -2.13723
   D26       -0.01481  -0.00015   0.00000  -0.00028  -0.00028  -0.01510
   D27        2.06599  -0.00041   0.00000  -0.00093  -0.00093   2.06506
   D28        0.00111   0.00025   0.00000   0.00050   0.00050   0.00161
   D29        3.02346  -0.00014   0.00000  -0.00016  -0.00016   3.02331
   D30       -2.08265  -0.00074   0.00000  -0.00079  -0.00079  -2.08344
   D31        0.93971  -0.00114   0.00000  -0.00145  -0.00145   0.93826
   D32        2.08246   0.00099   0.00000   0.00138   0.00138   2.08384
   D33       -1.17837   0.00059   0.00000   0.00072   0.00072  -1.17765
   D34       -3.11141  -0.00030   0.00000  -0.00056  -0.00056  -3.11197
   D35        0.02400   0.00022   0.00000   0.00042   0.00042   0.02441
   D36        0.03057  -0.00091   0.00000  -0.00171  -0.00171   0.02886
   D37       -3.11720  -0.00039   0.00000  -0.00074  -0.00074  -3.11794
   D38        2.41993  -0.00008   0.00000   0.00017   0.00017   2.42010
   D39        0.37431   0.00054   0.00000   0.00096   0.00096   0.37528
   D40       -1.74510   0.00076   0.00000   0.00117   0.00117  -1.74393
   D41       -0.58094   0.00006   0.00000   0.00051   0.00051  -0.58043
   D42       -2.62656   0.00068   0.00000   0.00131   0.00131  -2.62525
   D43        1.53721   0.00089   0.00000   0.00152   0.00152   1.53873
   D44       -3.04155  -0.00080   0.00000  -0.00132  -0.00132  -3.04287
   D45        1.12803   0.00345   0.00000   0.00584   0.00584   1.13387
   D46       -0.98599   0.00006   0.00000   0.00009   0.00009  -0.98590
   D47       -0.92317  -0.00264   0.00000  -0.00420  -0.00420  -0.92737
   D48       -3.03677   0.00161   0.00000   0.00295   0.00295  -3.03382
   D49        1.13239  -0.00178   0.00000  -0.00279  -0.00279   1.12959
   D50        1.12180  -0.00066   0.00000  -0.00102  -0.00101   1.12078
   D51       -0.99180   0.00359   0.00000   0.00614   0.00614  -0.98566
   D52       -3.10583   0.00020   0.00000   0.00039   0.00040  -3.10543
   D53       -1.52353  -0.00034   0.00000  -0.00072  -0.00071  -1.52424
   D54        2.64598   0.00222   0.00000   0.00399   0.00398   2.64996
   D55        0.59121   0.00082   0.00000   0.00194   0.00194   0.59315
         Item               Value     Threshold  Converged?
 Maximum Force            0.247661     0.000450     NO 
 RMS     Force            0.046463     0.000300     NO 
 Maximum Displacement     0.098317     0.001800     NO 
 RMS     Displacement     0.031158     0.001200     NO 
 Predicted change in Energy=-1.197640D-01
 Lowest energy point so far.  Saving SCF results.
 GradGradGradGradGradGradGradGradGradGradGradGradGradGradGradGradGradGrad

 Leave Link  103 at Fri Aug 20 15:41:00 2021, MaxMem= 24159191040 cpu:         2.4
 (Enter /public/home/users/caep010/software/Gaussian09/g09/l202.exe)
                          Input orientation:                          
 ---------------------------------------------------------------------
 Center     Atomic      Atomic             Coordinates (Angstroms)
 Number     Number       Type             X           Y           Z
 ---------------------------------------------------------------------
      1          6           0        2.529314   -0.781788    4.828521
      2          7           0        1.487502   -1.431892    5.343116
      3          6           0        1.710776   -2.866573    5.405879
      4          1           0        1.646331   -3.203059    6.359025
      5          1           0        1.041383   -3.365616    4.833444
      6          6           0        3.120984   -3.018462    4.862463
      7          1           0        3.740378   -3.418316    5.556562
      8          1           0        3.131797   -3.603007    4.035505
      9          6           0        2.616602    0.602876    4.615582
     10          1           0        3.447095    0.985077    4.253062
     11          7           0        3.516618   -1.647265    4.538154
     12          6           0        4.874359   -1.330521    4.117713
     13          1           0        5.515402   -1.954830    4.593253
     14          1           0        5.094809   -0.385306    4.403837
     15          6           0        5.084232   -1.452712    2.615913
     16          1           0        6.064416   -1.311414    2.404105
     17          8           0        4.319424   -0.507212    1.898778
     18          1           0        3.522225   -0.834042    1.738949
     19          1           0        4.832082   -2.388217    2.317867
     20          7           0        1.590495    1.437935    4.892542
     21          8           0        1.725625    2.668295    4.646437
     22          1           0        0.719173   -1.013672    5.622955
     23          8           0        0.507376    1.004320    5.384439
 ---------------------------------------------------------------------
                    Distance matrix (angstroms):
                    1          2          3          4          5
     1  C    0.000000
     2  N    1.331471   0.000000
     3  C    2.312936   1.453307   0.000000
     4  H    2.997441   2.048007   1.012849   0.000000
     5  H    2.981632   2.048921   1.012330   1.649176   0.000000
     6  C    2.313858   2.327337   1.518901   2.109118   2.108578
     7  H    2.991320   3.011128   2.108651   2.252847   2.794682
     8  H    2.991845   3.021141   2.107026   2.786631   2.250087
     9  C    1.403658   2.438124   3.671806   4.297227   4.275243
    10  H    2.072507   3.296962   4.379383   5.021784   5.005279
    11  N    1.344668   2.193550   2.345362   3.038757   3.027658
    12  C    2.511094   3.603151   3.745275   4.353165   4.398362
    13  H    3.216847   4.130344   3.995849   4.432351   4.697324
    14  H    2.630460   3.871725   4.314215   4.863589   5.049462
    15  C    3.445778   4.513817   4.600339   5.375293   4.992121
    16  H    4.319172   5.440629   5.512108   6.224081   5.945779
    17  O    3.444312   4.553931   4.967030   5.857203   5.246741
    18  H    3.245622   4.181811   4.567155   5.520537   4.705246
    19  H    3.766529   4.610087   4.416694   5.209984   4.653260
    20  N    2.410943   2.906807   4.336677   4.867496   4.835196
    21  O    3.547132   4.165765   5.586746   6.116539   6.075462
    22  H    1.990353   0.918447   2.112732   2.488943   2.501756
    23  O    2.754534   2.626306   4.053695   4.466439   4.436790
                    6          7          8          9         10
     6  C    0.000000
     7  H    1.012573   0.000000
     8  H    1.012753   1.648664   0.000000
     9  C    3.664620   4.279988   4.276841   0.000000
    10  H    4.062763   4.601629   4.604048   0.983472   0.000000
    11  N    1.463518   2.055199   2.055643   2.424697   2.648647
    12  C    2.545216   2.777604   2.864869   3.013862   2.723489
    13  H    2.633823   2.494085   2.951126   3.865929   3.610634
    14  H    3.322624   3.516021   3.787173   2.676351   2.148405
    15  C    3.369407   3.783776   3.232803   3.783295   3.362037
    16  H    4.197776   4.447265   4.063633   4.521345   3.942446
    17  O    4.065227   4.710542   3.944618   3.393070   2.920708
    18  H    3.832627   4.615217   3.618532   3.340645   3.104128
    19  H    3.130500   3.569603   2.704989   4.374298   4.128229
    20  N    4.711982   5.352204   5.340526   1.351638   2.015187
    21  O    5.859429   6.475677   6.455989   2.249611   2.439555
    22  H    3.219663   3.861916   3.878840   2.688543   3.648720
    23  O    4.825576   5.481025   5.471259   2.280599   3.149973
                   11         12         13         14         15
    11  N    0.000000
    12  C    1.456214   0.000000
    13  H    2.023060   1.013330   0.000000
    14  H    2.025159   1.011877   1.635904   0.000000
    15  C    2.488027   1.521309   2.085163   2.082340   0.000000
    16  H    3.340394   2.086396   2.346864   2.407642   1.012713
    17  O    2.985050   2.430939   3.284229   2.625148   1.411802
    18  H    2.914946   2.780877   3.657318   3.126662   1.895174
    19  H    2.684982   2.088050   2.414981   2.903781   1.013696
    20  N    3.654312   4.364455   5.196665   3.980359   5.073961
    21  O    4.673697   5.117090   5.978171   4.553542   5.690868
    22  H    3.066583   4.430770   4.994985   4.585552   5.318722
    23  O    4.099102   5.111420   5.870508   4.892564   5.886371
                   16         17         18         19         20
    16  H    0.000000
    17  O    1.986729   0.000000
    18  H    2.670777   0.876294   0.000000
    19  H    1.638776   1.994150   2.113369   0.000000
    20  N    5.810955   4.493693   4.340347   5.637044   0.000000
    21  O    6.300099   4.935714   4.893632   6.375000   1.261988
    22  H    6.246700   5.204595   4.793211   5.452430   2.702422
    23  O    6.717567   5.382032   5.075282   6.294144   1.266148
                   21         22         23
    21  O    0.000000
    22  H    3.939977   0.000000
    23  O    2.190340   2.043047   0.000000
 Stoichiometry    C6H11N3O3
 Framework group  C1[X(C6H11N3O3)]
 Deg. of freedom    63
 Full point group                 C1      NOp   1
 RotChk:  IX=0 Diff= 1.74D-02
 Largest Abelian subgroup         C1      NOp   1
 Largest concise Abelian subgroup C1      NOp   1
                         Standard orientation:                         
 ---------------------------------------------------------------------
 Center     Atomic      Atomic             Coordinates (Angstroms)
 Number     Number       Type             X           Y           Z
 ---------------------------------------------------------------------
      1          6           0       -0.220846    0.458445   -0.150415
      2          7           0       -0.603689    1.678166    0.221779
      3          6           0        0.516353    2.598344    0.326078
      4          1           0        0.397433    3.387749   -0.297269
      5          1           0        0.622231    2.938681    1.273587
      6          6           0        1.702073    1.743887   -0.087482
      7          1           0        2.149519    2.114321   -0.916864
      8          1           0        2.385904    1.684724    0.657195
      9          6           0       -1.058268   -0.655346   -0.319082
     10          1           0       -0.674075   -1.507432   -0.624961
     11          7           0        1.107745    0.433765   -0.356255
     12          6           0        1.893786   -0.651469   -0.926313
     13          1           0        2.582642   -0.257180   -1.556274
     14          1           0        1.283979   -1.248269   -1.470244
     15          6           0        2.604144   -1.495822    0.120989
     16          1           0        3.202368   -2.168276   -0.343252
     17          8           0        1.691731   -2.187506    0.946981
     18          1           0        1.461146   -1.678071    1.621664
     19          1           0        3.190811   -0.897507    0.691446
     20          7           0       -2.386151   -0.598973   -0.073171
     21          8           0       -3.074810   -1.647003   -0.214574
     22          1           0       -1.477686    1.903295    0.392049
     23          8           0       -2.938553    0.478137    0.298068
 ---------------------------------------------------------------------
 Rotational constants (GHZ):      1.2176773      0.7211439      0.4914611
 Leave Link  202 at Fri Aug 20 15:41:00 2021, MaxMem= 24159191040 cpu:         0.3
 (Enter /public/home/users/caep010/software/Gaussian09/g09/l301.exe)
 Standard basis: 6-31G(d,p) (6D, 7F)
 Ernie: Thresh=  0.10000D-02 Tol=  0.10000D-05 Strict=F.
 There are   235 symmetry adapted cartesian basis functions of A   symmetry.
 There are   235 symmetry adapted basis functions of A   symmetry.
[...]
 0187968,-0.00082664,0.00103000,-0.00002264,0.00041380,0.00007063,0.000
 23971,-0.00049173,0.00004029,-0.00012459,0.00001987,0.00002910,-0.0000
 5460,0.00002202,0.00000390,-0.00146512,0.00084183,-0.00128818,-0.00006
 325,-0.00011302,0.00002022,0.00023323,-0.00007449,-0.00000112,-0.00009
 579,0.00033050,0.00044712,0.00143564,-0.00021769,0.00020933,-0.0064549
 6,-0.00540001,0.00069160,-0.05216327,-0.26202616,-0.08902374,-0.004393
 18,-0.01634856,-0.00823119,0.05910167,0.28201185,0.00000437,0.00081547
 ,0.00125384,0.00013179,0.00011763,-0.00026985,-0.00000671,0.00050973,-
 0.00039374,0.00014307,-0.00003606,-0.00003299,0.00006334,-0.00002404,0
 .00003590,0.00190868,-0.00000456,-0.00011457,-0.00000270,-0.00005644,-
 0.00010764,-0.00013862,-0.00005892,-0.00000187,-0.00102836,-0.00028856
 ,0.00010914,-0.00043597,0.00048043,-0.00003509,0.00376955,0.01032003,0
 .00365961,-0.02336968,-0.08984624,-0.08708115,0.00413605,0.01343861,0.
 00656866,0.01877897,0.09627316,0.09298860,0.00081672,-0.00668000,0.004
 49129,-0.00203963,0.00133911,-0.00019619,-0.00009062,-0.00040245,0.000
 72059,-0.00031871,0.00002812,-0.00002490,-0.00003470,0.00000877,-0.000
 00879,-0.00186604,0.00238395,0.00123048,-0.00007595,-0.00032128,0.0003
 1800,0.00040257,-0.00014606,-0.00034779,-0.00090279,0.00090227,-0.0003
 6259,0.00017805,0.00109304,0.00143411,-0.02445803,-0.00062113,0.038878
 25,-0.07672425,0.00170339,0.00634910,0.00314102,-0.00053710,-0.0203994
 1,0.00233346,0.00112703,-0.00562992,0.61970568,-0.00021036,0.00329615,
 -0.00111934,-0.00004179,-0.00122817,0.00052343,-0.00062988,0.00022952,
 -0.00010848,-0.00003720,-0.00010620,-0.00001214,-0.00005839,-0.0001425
 4,0.00000578,-0.00043779,0.00181031,0.00152926,0.00020330,-0.00034130,
 -0.00026900,-0.00011813,-0.00082472,-0.00002812,0.00099503,0.00006861,
 0.00096580,-0.00005989,-0.00115241,-0.00167385,-0.00251237,-0.00078632
 ,0.00930961,-0.00177498,-0.08394601,-0.01458031,-0.00261391,-0.0006748
 7,0.02502017,0.00520178,-0.00095361,-0.03362917,0.04442341,0.54746144,
 0.00103131,-0.00489116,-0.00052959,-0.00091620,0.00053906,0.00027150,0
 .00002427,-0.00019655,0.00029500,-0.00016616,0.00002829,-0.00000096,-0
 .00026215,-0.00001678,-0.00004399,-0.00147511,0.00074612,-0.00022819,0
 .00011323,0.00018077,-0.00046858,0.00011509,-0.00014351,0.00012215,-0.
 00156228,0.00169898,-0.00076654,0.00049535,0.00043878,0.00149490,0.011
 40571,0.00563964,-0.00639104,0.02079611,-0.01796828,-0.18083528,-0.000
 42833,-0.00227698,-0.00851620,0.00086065,0.00012261,-0.01564897,-0.009
 19212,0.03376315,0.46435911,0.00059528,-0.00040599,-0.00018960,-0.0001
 2815,-0.00007513,0.00016990,-0.00000870,0.00008806,-0.00001971,-0.0000
 0962,-0.00001334,0.00001239,0.00001496,-0.00000951,-0.00001318,0.00007
 607,0.00042123,-0.00003793,0.00002224,-0.00006485,0.00008055,0.0000191
 9,-0.00001903,-0.00005952,-0.00015190,0.00038971,0.00033820,-0.0000921
 9,-0.00011706,-0.00015310,0.00024860,0.00012027,0.00111433,-0.00420075
 ,-0.00227115,0.00024549,0.00027960,-0.00017300,0.00080640,0.00016409,0
 .00029540,0.00003355,-0.28977679,-0.04903043,0.04680965,0.32081793,0.0
 0054541,-0.00097632,0.00035398,-0.00025248,0.00018665,0.00005538,0.000
 09154,0.00008382,-0.00001591,0.00000438,-0.00000144,0.00000975,0.00001
 928,0.00000265,-0.00000858,0.00019082,0.00006006,-0.00035778,-0.000008
 70,0.00000120,0.00003780,0.00004492,0.00007483,-0.00011112,-0.00013003
 ,0.00024160,-0.00027792,0.00007120,0.00011325,0.00014726,-0.00065848,0
 .00188800,0.00106753,0.00124392,0.00013249,-0.00288371,-0.00024525,0.0
 0001604,0.00010079,0.00037393,0.00027118,0.00044074,-0.05868760,-0.062
 64153,0.00839191,0.04613116,0.06650253,-0.00074617,0.00245779,-0.00058
 602,0.00075122,-0.00023850,-0.00020920,0.00007420,0.00002046,-0.000211
 07,0.00010992,0.00000711,-0.00000045,0.00002913,0.00002411,0.00002267,
 0.00048563,-0.00103751,-0.00030171,0.00001445,0.00016257,-0.00010584,-
 0.00005725,0.00015861,0.00004338,0.00024235,-0.00071288,0.00007232,0.0
 0002298,-0.00008039,-0.00013377,0.00352973,-0.00069434,-0.00708205,0.0
 3007577,0.00700407,-0.00237512,-0.00044142,0.00054117,0.00096395,-0.00
 033950,-0.00058585,0.00126862,0.05104119,0.00656933,-0.06145601,-0.047
 12890,-0.01430019,0.06509135,0.00010595,0.00380111,-0.00137337,-0.0001
 2228,-0.00109869,0.00066132,-0.00016606,0.00042730,-0.00012620,0.00006
 273,-0.00008898,0.00001625,0.00009757,-0.00011546,-0.00004266,0.000809
 52,0.00025247,0.00021960,-0.00019571,-0.00034552,0.00024771,-0.0001171
 7,-0.00023925,-0.00006419,0.00085352,-0.00002750,0.00156345,-0.0013640
 5,-0.00075620,-0.00100881,0.00378288,-0.00200754,0.00060352,-0.0024794
 5,0.00439542,-0.00584974,0.00132197,0.00015935,0.00002654,-0.00017788,
 -0.00052477,0.00044096,-0.13345619,0.07130420,-0.04706491,-0.02241604,
 0.03360364,-0.02225968,0.63197728,0.00180869,-0.00667341,0.00031390,-0
 .00023644,0.00170547,-0.00053739,0.00037312,-0.00052235,0.00000430,-0.
 00004965,0.00013398,0.00001373,-0.00006278,0.00021499,0.00005015,-0.00
 035173,-0.00051582,-0.00048514,0.00006265,0.00031942,-0.00018967,0.000
 11007,0.00046565,0.00000027,-0.00134710,0.00099614,-0.00166692,0.00054
 684,0.00084700,0.00129007,-0.00150823,0.00327547,-0.00007367,0.0101899
 2,-0.00765385,0.01315041,-0.00052426,0.00144596,0.00172907,-0.00087022
 ,0.00165869,0.00112994,0.03026666,-0.16515792,0.06017862,0.00476012,0.
 00137607,0.00103096,-0.00096302,0.25198979,-0.00150361,0.00115686,0.00
 113322,0.00102303,0.00045157,-0.00079336,-0.00008106,-0.00037335,-0.00
 008934,0.00011130,0.00007531,-0.00001800,0.00020365,0.00015909,0.00009
 862,-0.00002990,-0.00087032,-0.00001744,-0.00005422,-0.00001371,0.0002
 8674,-0.00008523,0.00011344,-0.00009558,0.00168100,-0.00287025,-0.0003
 8816,0.00044442,0.00063228,-0.00123009,-0.00021897,-0.00191604,0.00316
 861,-0.02689295,0.03778824,-0.02323101,0.00170726,0.00121967,-0.009426
 14,-0.00007860,0.00026458,0.00493817,-0.02028765,0.06105947,-0.1000409
 9,-0.00262296,-0.00061806,0.00222153,0.00147885,-0.12736890,0.13910464
 ,0.00038712,-0.00148688,0.00029803,-0.00006419,0.00014983,-0.00003410,
 0.00011926,-0.00007889,0.00011992,-0.00004803,0.00001647,-0.00002621,-
 0.00007294,-0.00002250,-0.00001976,-0.00005988,0.00007895,0.00000087,-
 0.00002698,0.00001606,-0.00003269,0.00002952,0.00006232,0.00002191,-0.
 00026880,0.00093703,-0.00090298,0.00031017,-0.00031820,0.00005823,0.00
 000686,0.00024702,-0.00048875,0.00176793,-0.00130784,0.00051878,-0.000
 05050,-0.00016938,0.00089170,-0.00016606,0.00005199,-0.00025005,-0.024
 18637,-0.00598758,0.00307825,0.00019597,0.00426976,-0.00205967,-0.4823
 9516,-0.06865025,0.04267714,0.50298947,-0.00186563,0.00524672,0.000414
 59,0.00002716,-0.00111133,0.00034362,-0.00017142,0.00040979,0.00008003
 ,0.00000326,-0.00009141,-0.00003327,-0.00006524,-0.00018612,-0.0000499
 6,0.00002387,-0.00020178,0.00033388,-0.00001680,0.00004215,-0.00008068
 ,0.00005598,-0.00011052,0.00009513,0.00085692,-0.00115233,0.00151362,-
 0.00080716,-0.00052560,-0.00113682,0.00055118,-0.00151980,-0.00329553,
 0.00013250,0.00068321,0.00099487,0.00001707,-0.00006132,-0.00021882,-0
 .00007758,-0.00005914,-0.00012696,0.03925165,-0.00036335,0.00025733,0.
 00292126,-0.00342508,0.00288491,-0.11462135,-0.05074144,0.02818691,0.0
 7343541,0.05277675,0.00189976,0.00018395,-0.00298103,-0.00093212,-0.00
 081078,0.00092162,0.00000574,0.00055792,0.00011838,-0.00007273,-0.0001
 1474,0.00001306,-0.00004845,-0.00018858,-0.00010415,0.00048083,0.00119
 260,0.00006334,-0.00003160,-0.00038355,0.00024057,0.00001019,-0.000269
 72,-0.00000009,-0.00031424,0.00090545,0.00086520,-0.00056987,-0.001240
 82,-0.00094674,-0.00008456,0.00013081,0.00165932,-0.00345914,-0.000170
 24,-0.00009948,0.00052027,-0.00016425,0.00008593,-0.00009952,-0.000006
 01,-0.00034560,-0.02325880,-0.00182148,-0.00083553,-0.00134322,0.00225
 621,-0.00107301,0.07108425,0.02969961,-0.02244676,-0.04539272,-0.02963
 585,0.02453179,-0.00045312,0.00069953,-0.00000856,0.00015585,-0.000050
 35,-0.00009513,-0.00002862,0.00003701,-0.00003041,0.00001975,-0.000006
 62,-0.00001245,-0.00000324,-0.00000522,0.00000123,0.00023334,-0.000199
 11,0.00028781,-0.00002059,-0.00000132,-0.00003323,0.00002493,0.0000020
 5,0.00007909,0.00015360,-0.00014630,0.00010376,-0.00003839,-0.00006600
 ,-0.00017073,0.00160116,0.00071020,-0.00129577,0.00150799,0.00359301,0
 .00538151,-0.00001012,-0.00021170,-0.00015710,0.00092848,0.00050423,0.
 00105769,-0.07284333,-0.05815928,-0.02437284,-0.00582524,-0.02663077,-
 0.01320973,0.00423072,0.02537762,0.00269246,0.00182607,0.00060716,0.00
 092173,0.06864630,0.00015255,-0.00079030,0.00029617,0.00010714,0.00039
 695,-0.00025246,0.00011095,-0.00013443,-0.00007320,0.00001905,0.000033
 63,0.00000787,0.00003605,0.00006808,0.00002039,0.00012281,-0.00061928,
 -0.00029067,-0.00003134,0.00011659,0.00003330,0.00000411,0.00030781,0.
 00000633,-0.00029064,0.00008500,-0.00023598,0.00005702,0.00027746,0.00
 050814,0.00060420,0.00095241,0.00070474,-0.00274402,0.00094144,-0.0003
 6626,0.00015631,0.00039597,-0.00147357,-0.00049408,0.00112396,0.000606
 05,-0.05502549,-0.23410471,-0.08618175,-0.00278767,-0.00388535,-0.0033
 8412,0.00726067,-0.03364483,0.00193546,-0.00132175,0.00075893,0.000781
 01,0.05392684,0.26757483,0.00017875,-0.00022492,0.00020142,-0.00010153
 ,0.00014086,-0.00003630,0.00013863,0.00004537,0.00000064,0.00000418,0.
 00000875,0.00001058,0.00003925,0.00002566,0.00001871,0.00012822,-0.000
 30775,-0.00042373,-0.00005590,-0.00002144,0.00003854,0.00016850,0.0003
 1572,-0.00020546,0.00020794,0.00022627,0.00028564,-0.00011167,-0.00004
 031,-0.00040925,-0.00072846,0.00104866,0.00335189,-0.01020985,-0.03141
 940,-0.01583324,-0.00020825,0.00044278,0.00110306,0.00149207,0.0005522
 3,-0.00659924,-0.02388982,-0.08594431,-0.09029832,0.00206997,0.0058011
 7,0.00364519,0.00095819,0.02261464,0.00739999,0.00111368,-0.00081275,0
 .00035695,0.02877879,0.08751376,0.09744228,0.01445464,0.05543520,-0.02
 787746,-0.01825606,-0.00290489,0.01745705,-0.00559948,0.00250641,-0.00
 169011,0.00006088,-0.00067628,0.00031661,0.00041848,-0.00222019,-0.000
 57007,0.00330218,0.00492090,0.00139981,-0.00057132,-0.00184437,0.00124
 029,-0.00056857,-0.00064102,0.00003564,-0.16758459,0.02947127,0.051761
 13,-0.02004264,0.01857599,0.00394841,0.00550040,-0.01661172,-0.0005744
 7,-0.00368420,-0.00096895,0.00123388,0.00094560,-0.00016468,-0.0000508
 9,-0.00003389,0.00064350,0.00037264,-0.00003061,0.00052619,0.00120721,
 0.00040743,0.00005320,-0.00034075,0.00041324,-0.00013875,-0.00186549,-
 0.00004774,0.00049745,0.00220513,-0.00012154,-0.00021929,-0.00003733,0
 .62837394,0.02723530,-0.05947686,-0.00563789,0.00496212,0.00852033,-0.
 00862159,0.00122588,-0.00428374,0.00054856,-0.00008851,0.00099743,-0.0
 0028528,-0.00007566,0.00169295,0.00058945,-0.00007961,-0.00273701,0.00
 009876,0.00002634,0.00069397,-0.00075437,-0.00008342,0.00055456,0.0001
 9020,0.06130888,-0.13693763,-0.01874314,-0.01088961,0.00794106,0.00429
 954,-0.00778526,0.00687277,0.00788178,0.00322188,0.00150420,-0.0017542
 2,-0.00071105,0.00059526,0.00027298,0.00061168,-0.00055557,-0.00021099
 ,0.00000405,-0.00035310,-0.00138740,-0.00043617,-0.00006263,0.00039459
 ,-0.00051742,0.00007566,0.00274167,0.00006068,-0.00024522,-0.00232455,
 0.00010226,0.00009921,0.00006779,0.01465138,0.81865123,-0.02099998,-0.
 01904031,0.00439491,0.00890090,-0.00087834,-0.01063690,0.00215850,-0.0
 0009056,0.00024418,-0.00014322,0.00040146,-0.00014431,-0.00011915,0.00
 072525,0.00026160,0.00067030,-0.00132036,0.00281709,-0.00007379,-0.000
 00672,-0.00019463,0.00069822,0.00089358,-0.00041439,0.04298824,-0.0000
 3358,-0.08939833,0.01165123,-0.01431195,-0.00703528,0.00068398,0.00603
 522,0.00496791,0.00230428,0.00132359,-0.00120297,-0.00027270,0.0004468
 9,0.00014541,0.00070129,-0.00079592,-0.00019890,-0.00037486,-0.0000961
 4,-0.00037651,-0.00013660,-0.00004235,0.00016223,0.00025177,-0.0001663
 6,-0.00046369,0.00031879,-0.00027044,-0.00011396,0.00003173,0.00001172
 ,0.00002364,-0.21658676,-0.12659028,0.37852373,-0.00349912,-0.00276940
 ,0.00667815,0.00351619,-0.00097140,-0.00270171,0.00094519,-0.00025745,
 -0.00037522,0.00000245,0.00018287,-0.00002351,-0.00002226,0.00019390,0
 .00009650,-0.00069534,-0.00074508,-0.00007039,0.00010090,0.00030471,-0
 .00019953,0.00009621,0.00012832,-0.00005793,0.01337591,0.03768404,-0.0
 0329949,0.00146281,0.00060433,-0.00217898,-0.00021070,0.00267603,-0.00
 066466,0.00033854,0.00001631,-0.00025203,-0.00013481,0.00006111,0.0000
 2551,0.00006819,-0.00001048,0.00006305,0.00013666,-0.00018028,-0.00010
 218,-0.00004160,-0.00001815,0.00002459,-0.00012671,0.00024030,0.000371
 76,-0.00007003,-0.00011343,-0.00036015,0.00000665,0.00008063,0.0000257
 6,-0.12060926,-0.01291568,0.02338578,0.10870074,0.00457760,0.01577044,
 -0.00481260,-0.00000792,-0.00628021,0.00373142,-0.00023669,0.00263734,
 -0.00094962,0.00002741,-0.00050810,0.00018826,0.00006416,-0.00115031,-
 0.00034451,0.00086913,0.00095547,-0.00052613,-0.00003519,-0.00058162,0
 .00050830,0.00004840,-0.00057367,0.00003355,0.02300939,-0.08471367,0.0
 0920688,-0.00106644,-0.00017981,-0.00018161,0.00201205,-0.00630430,-0.
 00163409,-0.00282486,-0.00099196,0.00094899,0.00055124,-0.00018177,-0.
 00013256,-0.00006087,0.00041079,0.00013421,0.00036053,-0.00011880,0.00
 114019,0.00026002,0.00007394,-0.00033277,0.00002848,0.00052491,-0.0014
 9309,-0.00001408,-0.00014908,0.00136538,-0.00009458,0.00003121,-0.0000
 2989,-0.02697090,-0.49109615,0.09913505,0.04340484,0.60343692,0.005121
 81,-0.00119153,0.00461134,-0.00182900,0.00182611,0.00065750,-0.0007414
 8,-0.00070370,-0.00038069,-0.00001989,0.00009729,0.00000088,0.00003878
 ,-0.00000348,0.00002789,-0.00034311,0.00010427,-0.00073169,0.00008498,
 0.00016193,-0.00006698,-0.00019667,-0.00009922,0.00012944,-0.00051534,
 0.00185393,0.02048740,-0.00182350,-0.00066141,-0.00046705,-0.00077672,
 0.00012376,-0.00027390,0.00017062,0.00011693,0.00001971,-0.00009720,-0
 .00005994,0.00003880,-0.00007880,0.00000469,-0.00001943,-0.00019858,0.
 00026718,-0.00034319,-0.00000647,-0.00001891,0.00005488,0.00021267,-0.
 00043840,0.00038305,-0.00003326,0.00026917,-0.00027701,0.00002902,-0.0
 0007892,0.00002946,0.02691707,0.09054126,-0.11450652,-0.05035403,-0.14
 033151,0.08767860,-0.02110244,0.00841307,0.00259038,-0.32585043,0.1565
 4748,0.07284330,0.01117287,-0.00280159,-0.00436092,-0.00012950,0.00016
 290,0.00046962,0.00015057,-0.00046582,-0.00049431,0.00006415,-0.003689
 82,-0.00028991,0.00002918,0.00018328,-0.00013147,0.00097201,0.00006888
 ,-0.00025983,-0.00111497,0.00369612,0.00018272,-0.00023513,0.00033365,
 -0.00004638,-0.00081778,-0.00110876,0.00096759,0.00035254,0.00043246,0
 .00111324,0.00001812,0.00005897,0.00003361,0.00010525,0.00004331,-0.00
 003598,-0.00036052,-0.00007389,0.00004808,0.00001388,-0.00000633,0.000
 06885,-0.00001835,0.00006023,-0.00017189,0.00005890,-0.00002286,0.0000
 9595,-0.00000378,0.00001472,-0.00000834,0.00604084,-0.00565290,-0.0033
 2974,-0.00142648,0.00025773,0.00117961,0.34126168,-0.00714094,0.030772
 32,-0.00774398,0.15511399,-0.15673929,-0.02069309,0.01693901,-0.004825
 78,-0.00310626,0.00019626,-0.00007904,0.00045414,0.00008511,0.00029860
 ,-0.00033114,-0.00050350,-0.00409092,-0.00009480,-0.00003350,-0.000138
 88,-0.00011770,0.00073490,0.00014662,0.00001577,0.00413522,-0.01184422
 ,-0.00078209,0.00049863,-0.00047419,-0.00026060,-0.00542583,-0.0024838
 8,0.00518832,0.00039820,0.00090347,0.00055637,-0.00021350,-0.00009594,
 0.00003215,-0.00026548,-0.00000254,0.00008709,-0.00057937,0.00017812,-
 0.00023150,-0.00001568,-0.00006733,0.00018194,0.00010721,-0.00030360,0
 .00005162,0.00001152,0.00021423,-0.00004434,0.00003438,-0.00003228,-0.
 00001491,-0.02630013,0.00117829,0.01435702,0.00577427,0.00233214,-0.00
 322792,-0.16069155,0.14195224,0.02038364,-0.00927190,-0.00822056,0.050
 18474,-0.01585349,-0.02015599,-0.00270691,-0.00124050,-0.00549167,-0.0
 0025646,0.00059697,-0.00007086,0.00061347,-0.00030621,0.00017991,0.000
 68705,0.00075958,0.00028776,-0.00027482,-0.00011443,-0.00025581,0.0001
 9201,-0.00013474,0.00021468,-0.00070595,-0.00199190,-0.00021871,-0.000
 38055,-0.00029136,-0.00083255,0.00352832,0.00336969,0.00227301,0.00110
 413,-0.00113253,0.00049403,0.00037349,0.00027155,-0.00018896,-0.000150
 06,-0.00003368,0.00006866,-0.00006477,-0.00015970,0.00011322,-0.000077
 44,-0.00003133,0.00003616,-0.00026403,0.00014561,-0.00001985,0.0001691
 1,-0.00001645,-0.00014352,0.00002286,0.00002288,-0.00008138,-0.0006016
 8,0.00343505,-0.00120262,0.00090075,-0.00038098,0.00111356,-0.07295896
 ,0.02562620,0.03616691,-0.00643791,-0.02772173,0.01032667,0.01186905,0
 .00389875,-0.00880064,0.00208034,-0.00031428,0.00063018,-0.00002839,0.
 00034999,-0.00016136,-0.00020394,0.00096374,0.00027220,-0.00123116,-0.
 00244606,-0.00003284,0.00023505,0.00077373,-0.00054620,0.00027026,0.00
 038869,-0.00009524,-0.05295827,0.01580895,0.03506916,-0.00076980,0.004
 61808,0.00230630,-0.00131987,0.00628126,0.00121108,0.00132235,0.000115
 00,-0.00080939,-0.00031628,0.00033319,0.00004972,0.00038276,-0.0001827
 3,-0.00000574,0.00045035,-0.00072776,-0.00044264,-0.00020428,-0.000005
 37,0.00011303,-0.00062035,0.00090622,0.00150166,-0.00023460,-0.0006194
 0,-0.00125671,0.00001312,0.00026123,0.00004722,-0.32276776,-0.07417514
 ,0.14729181,-0.00191413,-0.04415944,0.02325949,-0.00918060,0.01714077,
 0.00028207,0.38156406,-0.00668224,-0.01077089,0.00701625,0.00722708,-0
 .01768166,-0.00392891,0.00560110,0.00106689,0.00039390,-0.00011888,-0.
 00009452,0.00003500,-0.00027089,0.00044384,-0.00004993,-0.00029069,-0.
 00205201,-0.00072614,0.00025629,0.00019135,0.00000166,0.00065217,0.000
 00364,-0.00007748,0.00602884,0.02907877,-0.00586434,0.00431907,-0.0017
 9269,-0.00078075,0.00154031,0.00077391,-0.00138313,-0.00032307,-0.0002
 0932,0.00028852,0.00007173,-0.00003327,-0.00005717,0.00012341,-0.00003
 533,-0.00007112,0.00010850,-0.00014858,0.00016847,0.00003178,0.0000353
 5,-0.00007106,-0.00003415,0.00018400,-0.00031246,0.00002031,-0.0001882
 6,0.00010197,-0.00002305,0.00004772,0.00001201,-0.04762035,-0.15362901
 ,0.04031352,-0.07337031,-0.03334372,0.05144843,0.00424075,0.00320188,-
 0.00326834,0.09851228,0.18495192,0.00469623,0.01694352,-0.00656503,-0.
 00635565,0.00144265,0.00755471,-0.00185032,0.00011611,0.00058542,0.000
 13212,-0.00038326,0.00003799,0.00006085,-0.00030837,-0.00009091,0.0003
 5370,0.00146937,-0.00032547,-0.00008612,-0.00034476,0.00027823,-0.0002
 8412,-0.00024425,0.00007978,0.03731270,-0.01159547,-0.00109836,0.00277
 859,-0.00077804,0.00398607,0.00065945,-0.00297139,-0.00054756,-0.00077
 244,-0.00037582,0.00057175,0.00019285,-0.00029048,-0.00008493,-0.00043
 284,0.00020625,-0.00004217,-0.00022685,0.00042885,0.00012402,0.0001082
 0,0.00000334,-0.00004801,0.00028851,-0.00042482,-0.00047413,-0.0000262
 1,0.00030346,0.00051072,-0.00000172,-0.00011090,-0.00002107,0.14210014
 ,0.05524809,-0.16565169,0.02906798,0.03475713,0.00183393,0.00249478,-0
 .00990228,-0.00406545,-0.21020983,-0.08318893,0.16345218\\-0.00000995,
 0.00003661,-0.00000147,-0.00003015,0.00002754,0.00003846,0.00002316,-0
 .00003111,-0.00002431,0.00000061,0.00000818,0.00000702,-0.00000058,0.0
 0000765,0.00000120,-0.00001250,-0.00002595,0.00003316,-0.00001553,-0.0
 0000037,-0.00000499,-0.00000758,0.00000606,-0.00000904,0.00002231,-0.0
 0001787,-0.00001694,0.00000494,-0.00000663,0.00000517,0.00001407,-0.00
 000142,-0.00002793,0.00002736,0.00000637,0.00001979,-0.00000652,-0.000
 00959,-0.00000518,-0.00000311,-0.00000523,0.00000126,-0.00002447,0.000
 01359,-0.00002008,0.00001291,-0.00000340,-0.00000251,0.00002278,-0.000
 01423,-0.00000306,-0.00001030,-0.00000127,0.00000306,-0.00000311,-0.00
 000367,0.00000286,0.00000155,0.00002349,-0.00001355,0.00000654,-0.0000
 0651,0.00001430,-0.00001436,0.00000100,-0.00000608,0.00000197,-0.00000
 325,0.00000885\\\@


 FIREWORKS ENDED
 AND SPECTATORS GONE AWAY....
 AH, HOW VAST AND DARK
                     SHIKI
 Job cpu time:       0 days  0 hours 18 minutes 49.5 seconds.
 File lengths (MBytes):  RWF=    148 Int=      0 D2E=      0 Chk=      5 Scr=      1
 Normal termination of Gaussian 09 at Fri Aug 20 15:47:07 2021.
