 Entering Gaussian System, Link 0=g09
 Input=B3LYP6-31G.KAJFAD.gjf
 Output=B3LYP6-31G.KAJFAD.log
 Initial command:
 /public/home/users/caep010/software/Gaussian09/g09/l1.exe "/public/home/users/caep010/.cache/gau_scr/Gau-110343.inp" -scrdir="/public/home/users/caep010/.cache/gau_scr/"
 Entering Link 1 = /public/home/users/caep010/software/Gaussian09/g09/l1.exe PID=    110344.
  
 Copyright (c) 1988,1990,1992,1993,1995,1998,2003,2009,2015,
            Gaussian, Inc.  All Rights Reserved.
  
 This is part of the Gaussian(R) 09 program.  It is based on
 the Gaussian(R) 03 system (copyright 2003, Gaussian, Inc.),
 the Gaussian(R) 98 system (copyright 1998, Gaussian, Inc.),
 the Gaussian(R) 94 system (copyright 1995, Gaussian, Inc.),
 the Gaussian 92(TM) system (copyright 1992, Gaussian, Inc.),
 the Gaussian 90(TM) system (copyright 1990, Gaussian, Inc.),
 the Gaussian 88(TM) system (copyright 1988, Gaussian, Inc.),
 the Gaussian 86(TM) system (copyright 1986, Carnegie Mellon
 University), and the Gaussian 82(TM) system (copyright 1983,
 Carnegie Mellon University). Gaussian is a federally registered
 trademark of Gaussian, Inc.
  
 This software contains proprietary and confidential information,
 including trade secrets, belonging to Gaussian, Inc.
  
 This software is provided under written license and may be
 used, copied, transmitted, or stored only in accord with that
 written license.
  
 The following legend is applicable only to US Government
 contracts under FAR:
  
                    RESTRICTED RIGHTS LEGEND
  
 Use, reproduction and disclosure by the US Government is
 subject to restrictions as set forth in subparagraphs (a)
 and (c) of the Commercial Computer Software - Restricted
 Rights clause in FAR 52.227-19.
  
 Gaussian, Inc.
 340 Quinnipiac St., Bldg. 40, Wallingford CT 06492
  
  
 ---------------------------------------------------------------
 Warning -- This program may not be used in any manner that
 competes with the business of Gaussian, Inc. or will provide
 assistance to any competitor of Gaussian, Inc.  The licensee
 of this program is prohibited from giving any competitor of
 Gaussian, Inc. access to this program.  By using this program,
 the user acknowledges that Gaussian, Inc. is engaged in the
 business of creating and licensing software in the field of
 computational chemistry and represents and warrants to the
 licensee that it is not a competitor of Gaussian, Inc. and that
 it will not use this program in any manner prohibited above.
 ---------------------------------------------------------------
  

 Cite this work as:
 Gaussian 09, Revision E.01,
 M. J. Frisch, G. W. Trucks, H. B. Schlegel, G. E. Scuseria, 
 M. A. Robb, J. R. Cheeseman, G. Scalmani, V. Barone, B. Mennucci, 
 G. A. Petersson, H. Nakatsuji, M. Caricato, X. Li, H. P. Hratchian, 
 A. F. Izmaylov, J. Bloino, G. Zheng, J. L. Sonnenberg, M. Hada, 
 M. Ehara, K. Toyota, R. Fukuda, J. Hasegawa, M. Ishida, T. Nakajima, 
 Y. Honda, O. Kitao, H. Nakai, T. Vreven, J. A. Montgomery, Jr., 
 J. E. Peralta, F. Ogliaro, M. Bearpark, J. J. Heyd, E. Brothers, 
 K. N. Kudin, V. N. Staroverov, T. Keith, R. Kobayashi, J. Normand, 
 K. Raghavachari, A. Rendell, J. C. Burant, S. S. Iyengar, J. Tomasi, 
 M. Cossi, N. Rega, J. M. Millam, M. Klene, J. E. Knox, J. B. Cross, 
 V. Bakken, C. Adamo, J. Jaramillo, R. Gomperts, R. E. Stratmann, 
 O. Yazyev, A. J. Austin, R. Cammi, C. Pomelli, J. W. Ochterski, 
 R. L. Martin, K. Morokuma, V. G. Zakrzewski, G. A. Voth, 
 P. Salvador, J. J. Dannenberg, S. Dapprich, A. D. Daniels, 
 O. Farkas, J. B. Foresman, J. V. Ortiz, J. Cioslowski, 
 and D. J. Fox, Gaussian, Inc., Wallingford CT, 2013.
 
 ******************************************
 Gaussian 09:  ES64L-G09RevE.01 30-Nov-2015
                20-Aug-2021 
 ******************************************
 %nproc=32
 Will use up to   32 processors via shared memory.
 %mem=180GB
 -------------------------
 #P OPT Freq B3LYP/6-31G**
 -------------------------
 1/14=-1,18=20,19=15,26=3,38=1/1,3;
 2/9=110,12=2,17=6,18=5,40=1/2;
 3/5=1,6=6,7=101,11=2,16=1,25=1,30=1,71=1,74=-5/1,2,3;
 4//1;
 5/5=2,38=5/2;
 6/7=2,8=2,9=2,10=2,28=1/1;
 7//1,2,3,16;
 1/14=-1,18=20,19=15,26=3/3(2);
 2/9=110/2;
 99//99;
 2/9=110/2;
 3/5=1,6=6,7=101,11=2,16=1,25=1,30=1,71=1,74=-5/1,2,3;
 4/5=5,16=3,69=1/1;
 5/5=2,38=5/2;
 7//1,2,3,16;
 1/14=-1,18=20,19=15,26=3/3(-5);
 2/9=110/2;
 6/7=2,8=2,9=2,10=2,19=2,28=1/1;
 99/9=1/99;
 Leave Link    1 at Fri Aug 20 16:00:21 2021, MaxMem= 24159191040 cpu:         2.5
 (Enter /public/home/users/caep010/software/Gaussian09/g09/l101.exe)
 ------
 KAJFAD
 ------
 Symbolic Z-matrix:
 Charge =  0 Multiplicity = 1
 O                     4.8214    7.1039    0.7861 
 N                     6.0528    6.696     0.5687 
 C                     6.9819    7.6198    0.1382 
 C                     6.3896    5.4022    0.7567 
 C                     7.6574    4.9553    0.5544 
 H                     7.8812    4.0615    0.684 
 H                     5.7366    4.7998    1.0322 
 C                     8.5959    5.8756    0.1508 
 C                     8.2858    7.1867   -0.0655 
 H                     8.9403    7.7845   -0.3459 
 N                     9.9854    5.4456   -0.0664 
 O                     10.7907   6.2711   -0.4777 
 N                     6.5261    8.8677   -0.0008 
 C                     7.3111    9.9348   -0.6219 
 C                     7.3691    9.8447   -2.1188 
 H                     6.5248    9.8141   -2.4583 
 H                     5.6954    8.9343   -0.0957 
 H                     8.2284    9.8686   -0.2473 
 H                     6.897     10.7692  -0.3546 
 O                     10.2715   4.2803    0.1885 
 H                     7.8562    10.651   -2.4364 
 H                     7.8137    9.0085   -2.414 
 
 NAtoms=     22 NQM=       22 NQMF=       0 NMMI=      0 NMMIF=      0
                NMic=       0 NMicF=      0.
                    Isotopes and Nuclear Properties:
 (Nuclear quadrupole moments (NQMom) in fm**2, nuclear magnetic moments (NMagM)
  in nuclear magnetons)

  Atom         1           2           3           4           5           6           7           8           9          10
 IAtWgt=          16          14          12          12          12           1           1          12          12           1
 AtmWgt=  15.9949146  14.0030740  12.0000000  12.0000000  12.0000000   1.0078250   1.0078250  12.0000000  12.0000000   1.0078250
 NucSpn=           0           2           0           0           0           1           1           0           0           1
 AtZEff=   0.0000000   0.0000000   0.0000000   0.0000000   0.0000000   0.0000000   0.0000000   0.0000000   0.0000000   0.0000000
 NQMom=    0.0000000   2.0440000   0.0000000   0.0000000   0.0000000   0.0000000   0.0000000   0.0000000   0.0000000   0.0000000
 NMagM=    0.0000000   0.4037610   0.0000000   0.0000000   0.0000000   2.7928460   2.7928460   0.0000000   0.0000000   2.7928460
 AtZNuc=   8.0000000   7.0000000   6.0000000   6.0000000   6.0000000   1.0000000   1.0000000   6.0000000   6.0000000   1.0000000

  Atom        11          12          13          14          15          16          17          18          19          20
 IAtWgt=          14          16          14          12          12           1           1           1           1          16
 AtmWgt=  14.0030740  15.9949146  14.0030740  12.0000000  12.0000000   1.0078250   1.0078250   1.0078250   1.0078250  15.9949146
 NucSpn=           2           0           2           0           0           1           1           1           1           0
 AtZEff=   0.0000000   0.0000000   0.0000000   0.0000000   0.0000000   0.0000000   0.0000000   0.0000000   0.0000000   0.0000000
 NQMom=    2.0440000   0.0000000   2.0440000   0.0000000   0.0000000   0.0000000   0.0000000   0.0000000   0.0000000   0.0000000
 NMagM=    0.4037610   0.0000000   0.4037610   0.0000000   0.0000000   2.7928460   2.7928460   2.7928460   2.7928460   0.0000000
 AtZNuc=   7.0000000   8.0000000   7.0000000   6.0000000   6.0000000   1.0000000   1.0000000   1.0000000   1.0000000   8.0000000

  Atom        21          22
 IAtWgt=           1           1
 AtmWgt=   1.0078250   1.0078250
 NucSpn=           1           1
 AtZEff=   0.0000000   0.0000000
 NQMom=    0.0000000   0.0000000
 NMagM=    2.7928460   2.7928460
 AtZNuc=   1.0000000   1.0000000
 Leave Link  101 at Fri Aug 20 16:00:21 2021, MaxMem= 24159191040 cpu:        10.6
 (Enter /public/home/users/caep010/software/Gaussian09/g09/l103.exe)

 GradGradGradGradGradGradGradGradGradGradGradGradGradGradGradGradGradGrad
 Berny optimization.
 Initialization pass.
                           ----------------------------
                           !    Initial Parameters    !
                           ! (Angstroms and Degrees)  !
 --------------------------                            --------------------------
 ! Name  Definition              Value          Derivative Info.                !
 --------------------------------------------------------------------------------
 ! R1    R(1,2)                  1.3153         estimate D2E/DX2                !
 ! R2    R(2,3)                  1.3791         estimate D2E/DX2                !
 ! R3    R(2,4)                  1.3501         estimate D2E/DX2                !
 ! R4    R(3,9)                  1.389          estimate D2E/DX2                !
 ! R5    R(3,13)                 1.3358         estimate D2E/DX2                !
 ! R6    R(4,5)                  1.3594         estimate D2E/DX2                !
 ! R7    R(4,7)                  0.9302         estimate D2E/DX2                !
 ! R8    R(5,6)                  0.9305         estimate D2E/DX2                !
 ! R9    R(5,8)                  1.375          estimate D2E/DX2                !
 ! R10   R(8,9)                  1.3645         estimate D2E/DX2                !
 ! R11   R(8,11)                 1.4706         estimate D2E/DX2                !
 ! R12   R(9,10)                 0.9297         estimate D2E/DX2                !
 ! R13   R(11,12)                1.2244         estimate D2E/DX2                !
 ! R14   R(11,20)                1.2267         estimate D2E/DX2                !
 ! R15   R(13,14)                1.4631         estimate D2E/DX2                !
 ! R16   R(13,17)                0.8388         estimate D2E/DX2                !
 ! R17   R(14,15)                1.5007         estimate D2E/DX2                !
 ! R18   R(14,18)                0.993          estimate D2E/DX2                !
 ! R19   R(14,19)                0.9691         estimate D2E/DX2                !
 ! R20   R(15,16)                0.9105         estimate D2E/DX2                !
 ! R21   R(15,21)                0.9941         estimate D2E/DX2                !
 ! R22   R(15,22)                0.992          estimate D2E/DX2                !
 ! A1    A(1,2,3)              118.3322         estimate D2E/DX2                !
 ! A2    A(1,2,4)              120.5131         estimate D2E/DX2                !
 ! A3    A(3,2,4)              121.1535         estimate D2E/DX2                !
 ! A4    A(2,3,9)              117.9917         estimate D2E/DX2                !
 ! A5    A(2,3,13)             115.3648         estimate D2E/DX2                !
 ! A6    A(9,3,13)             126.6098         estimate D2E/DX2                !
 ! A7    A(2,4,5)              121.8017         estimate D2E/DX2                !
 ! A8    A(2,4,7)              119.127          estimate D2E/DX2                !
 ! A9    A(5,4,7)              119.0712         estimate D2E/DX2                !
 ! A10   A(4,5,6)              121.2911         estimate D2E/DX2                !
 ! A11   A(4,5,8)              117.4001         estimate D2E/DX2                !
 ! A12   A(6,5,8)              121.3088         estimate D2E/DX2                !
 ! A13   A(5,8,9)              122.3112         estimate D2E/DX2                !
 ! A14   A(5,8,11)             119.5076         estimate D2E/DX2                !
 ! A15   A(9,8,11)             118.1804         estimate D2E/DX2                !
 ! A16   A(3,9,8)              119.3208         estimate D2E/DX2                !
 ! A17   A(3,9,10)             120.3051         estimate D2E/DX2                !
 ! A18   A(8,9,10)             120.3741         estimate D2E/DX2                !
 ! A19   A(8,11,12)            118.2882         estimate D2E/DX2                !
 ! A20   A(8,11,20)            117.8677         estimate D2E/DX2                !
 ! A21   A(12,11,20)           123.8404         estimate D2E/DX2                !
 ! A22   A(3,13,14)            122.8505         estimate D2E/DX2                !
 ! A23   A(3,13,17)            115.081          estimate D2E/DX2                !
 ! A24   A(14,13,17)           115.1782         estimate D2E/DX2                !
 ! A25   A(13,14,15)           113.6014         estimate D2E/DX2                !
 ! A26   A(13,14,18)           106.6694         estimate D2E/DX2                !
 ! A27   A(13,14,19)           106.3565         estimate D2E/DX2                !
 ! A28   A(15,14,18)           109.6672         estimate D2E/DX2                !
 ! A29   A(15,14,19)           110.0797         estimate D2E/DX2                !
 ! A30   A(18,14,19)           110.3688         estimate D2E/DX2                !
 ! A31   A(14,15,16)           109.7608         estimate D2E/DX2                !
 ! A32   A(14,15,21)           106.7926         estimate D2E/DX2                !
 ! A33   A(14,15,22)           111.3925         estimate D2E/DX2                !
 ! A34   A(16,15,21)           111.253          estimate D2E/DX2                !
 ! A35   A(16,15,22)           106.04           estimate D2E/DX2                !
 ! A36   A(21,15,22)           111.6552         estimate D2E/DX2                !
 ! D1    D(1,2,3,9)            178.8354         estimate D2E/DX2                !
 ! D2    D(1,2,3,13)             0.8056         estimate D2E/DX2                !
 ! D3    D(4,2,3,9)             -1.5572         estimate D2E/DX2                !
 ! D4    D(4,2,3,13)          -179.5871         estimate D2E/DX2                !
 ! D5    D(1,2,4,5)           -179.2502         estimate D2E/DX2                !
 ! D6    D(1,2,4,7)              0.7485         estimate D2E/DX2                !
 ! D7    D(3,2,4,5)              1.151          estimate D2E/DX2                !
 ! D8    D(3,2,4,7)           -178.8504         estimate D2E/DX2                !
 ! D9    D(2,3,9,8)              0.6853         estimate D2E/DX2                !
 ! D10   D(2,3,9,10)          -179.2812         estimate D2E/DX2                !
 ! D11   D(13,3,9,8)           178.4675         estimate D2E/DX2                !
 ! D12   D(13,3,9,10)           -1.499          estimate D2E/DX2                !
 ! D13   D(2,3,13,14)         -171.1856         estimate D2E/DX2                !
 ! D14   D(2,3,13,17)          -21.7174         estimate D2E/DX2                !
 ! D15   D(9,3,13,14)           10.9818         estimate D2E/DX2                !
 ! D16   D(9,3,13,17)          160.4499         estimate D2E/DX2                !
 ! D17   D(2,4,5,6)           -179.8392         estimate D2E/DX2                !
 ! D18   D(2,4,5,8)              0.1587         estimate D2E/DX2                !
 ! D19   D(7,4,5,6)              0.1621         estimate D2E/DX2                !
 ! D20   D(7,4,5,8)           -179.84           estimate D2E/DX2                !
 ! D21   D(4,5,8,9)             -1.0422         estimate D2E/DX2                !
 ! D22   D(4,5,8,11)           179.2874         estimate D2E/DX2                !
 ! D23   D(6,5,8,9)            178.9558         estimate D2E/DX2                !
 ! D24   D(6,5,8,11)            -0.7146         estimate D2E/DX2                !
 ! D25   D(5,8,9,3)              0.6113         estimate D2E/DX2                !
 ! D26   D(5,8,9,10)          -179.4223         estimate D2E/DX2                !
 ! D27   D(11,8,9,3)          -179.7142         estimate D2E/DX2                !
 ! D28   D(11,8,9,10)            0.2523         estimate D2E/DX2                !
 ! D29   D(5,8,11,12)          177.0837         estimate D2E/DX2                !
 ! D30   D(5,8,11,20)           -3.596          estimate D2E/DX2                !
 ! D31   D(9,8,11,12)           -2.6003         estimate D2E/DX2                !
 ! D32   D(9,8,11,20)          176.7201         estimate D2E/DX2                !
 ! D33   D(3,13,14,15)          76.2739         estimate D2E/DX2                !
 ! D34   D(3,13,14,18)         -44.6713         estimate D2E/DX2                !
 ! D35   D(3,13,14,19)        -162.4809         estimate D2E/DX2                !
 ! D36   D(17,13,14,15)        -73.1673         estimate D2E/DX2                !
 ! D37   D(17,13,14,18)        165.8875         estimate D2E/DX2                !
 ! D38   D(17,13,14,19)         48.0778         estimate D2E/DX2                !
 ! D39   D(13,14,15,16)         54.638          estimate D2E/DX2                !
 ! D40   D(13,14,15,21)        175.351          estimate D2E/DX2                !
 ! D41   D(13,14,15,22)        -62.4949         estimate D2E/DX2                !
 ! D42   D(18,14,15,16)        173.8855         estimate D2E/DX2                !
 ! D43   D(18,14,15,21)        -65.4015         estimate D2E/DX2                !
 ! D44   D(18,14,15,22)         56.7526         estimate D2E/DX2                !
 ! D45   D(19,14,15,16)        -64.5005         estimate D2E/DX2                !
 ! D46   D(19,14,15,21)         56.2125         estimate D2E/DX2                !
 ! D47   D(19,14,15,22)        178.3666         estimate D2E/DX2                !
 --------------------------------------------------------------------------------
 Trust Radius=3.00D-01 FncErr=1.00D-07 GrdErr=1.00D-06
 Number of steps in this run=    115 maximum allowed number of steps=    132.
 GradGradGradGradGradGradGradGradGradGradGradGradGradGradGradGradGradGrad

 Leave Link  103 at Fri Aug 20 16:00:21 2021, MaxMem= 24159191040 cpu:         0.6
 (Enter /public/home/users/caep010/software/Gaussian09/g09/l202.exe)
                          Input orientation:                          
 ---------------------------------------------------------------------
 Center     Atomic      Atomic             Coordinates (Angstroms)
 Number     Number       Type             X           Y           Z
 ---------------------------------------------------------------------
      1          8           0        4.821400    7.103900    0.786100
      2          7           0        6.052800    6.696000    0.568700
      3          6           0        6.981900    7.619800    0.138200
      4          6           0        6.389600    5.402200    0.756700
      5          6           0        7.657400    4.955300    0.554400
      6          1           0        7.881200    4.061500    0.684000
      7          1           0        5.736600    4.799800    1.032200
      8          6           0        8.595900    5.875600    0.150800
      9          6           0        8.285800    7.186700   -0.065500
     10          1           0        8.940300    7.784500   -0.345900
     11          7           0        9.985400    5.445600   -0.066400
     12          8           0       10.790700    6.271100   -0.477700
     13          7           0        6.526100    8.867700   -0.000800
     14          6           0        7.311100    9.934800   -0.621900
     15          6           0        7.369100    9.844700   -2.118800
     16          1           0        6.524800    9.814100   -2.458300
     17          1           0        5.695400    8.934300   -0.095700
     18          1           0        8.228400    9.868600   -0.247300
     19          1           0        6.897000   10.769200   -0.354600
     20          8           0       10.271500    4.280300    0.188500
     21          1           0        7.856200   10.651000   -2.436400
     22          1           0        7.813700    9.008500   -2.414000
 ---------------------------------------------------------------------
                    Distance matrix (angstroms):
                    1          2          3          4          5
     1  O    0.000000
     2  N    1.315291   0.000000
     3  C    2.313804   1.379117   0.000000
     4  C    2.314281   1.350073   2.377207   0.000000
     5  C    3.565538   2.367484   2.780123   1.359398   0.000000
     6  H    4.316132   3.208883   3.710544   2.006896   0.930463
     7  H    2.491392   1.977470   3.209736   0.930159   1.985433
     8  C    4.019848   2.704636   2.376423   2.336446   1.375001
     9  C    3.568493   2.372611   1.388965   2.730573   2.399648
    10  H    4.325503   3.218537   2.024058   3.660212   3.234308
    11  N    5.490320   4.175188   3.713491   3.689059   2.458734
    12  O    6.158189   4.870646   4.087210   4.652785   3.551638
    13  N    2.576083   2.294477   1.335788   3.549948   4.110348
    14  C    4.024309   3.672965   2.458729   4.826403   5.128258
    15  C    4.737215   4.343917   3.192828   5.381796   5.579906
    16  H    4.557728   4.371277   3.430117   5.460711   5.828128
    17  H    2.211744   2.362022   1.854104   3.699220   4.483806
    18  H    4.507675   3.932491   2.599899   4.933349   5.010916
    19  H    4.363913   4.260999   3.188852   5.504283   5.933458
    20  O    6.167125   4.876227   4.687884   4.080522   2.724523
    21  H    5.672428   5.284402   4.071994   6.316384   6.436257
    22  H    4.777238   4.164724   3.022268   5.008672   5.026356
                    6          7          8          9         10
     6  H    0.000000
     7  H    2.294698   0.000000
     8  C    2.021400   3.179592   0.000000
     9  C    3.239186   3.660691   1.364526   0.000000
    10  H    4.005386   4.590347   2.002304   0.929709   0.000000
    11  N    2.628020   4.435795   1.470641   2.433119   2.576976
    12  O    3.833676   5.476171   2.317020   2.698658   2.394103
    13  N    5.040318   4.270622   3.641389   2.434439   2.668479
    14  C    6.043678   5.619904   4.327226   2.968447   2.711874
    15  C    6.446963   6.168053   4.733907   3.481572   3.139469
    16  H    6.693749   6.160199   5.158356   3.966087   3.796861
    17  H    5.397206   4.285784   4.222477   3.124930   3.451669
    18  H    5.891543   5.791280   4.029589   2.688668   2.204540
    19  H    6.858613   6.237265   5.204710   3.853135   3.617124
    20  O    2.450903   4.641878   2.313880   3.529119   3.786436
    21  H    7.291024   7.124636   5.481351   4.219846   3.709755
    22  H    5.837377   5.822697   4.123724   3.009533   2.654137
                   11         12         13         14         15
    11  N    0.000000
    12  O    1.224388   0.000000
    13  N    4.866398   5.015633   0.000000
    14  C    5.254843   5.054810   1.463111   0.000000
    15  C    5.514477   5.212598   2.480142   1.500730   0.000000
    16  H    6.064712   5.888423   2.633435   2.001300   0.910516
    17  H    5.529556   5.762000   0.838751   1.971896   2.779035
    18  H    4.762636   4.422722   1.990072   0.993049   2.059485
    19  H    6.161330   5.950543   1.969376   0.969098   2.046944
    20  O    1.226683   2.162562   5.925208   6.433824   6.686562
    21  H    6.102998   5.624173   3.298708   2.025460   0.994111
    22  H    4.787668   4.483876   2.738845   2.079005   0.991989
                   16         17         18         19         20
    16  H    0.000000
    17  H    2.654022   0.000000
    18  H    2.791728   2.704069   0.000000
    19  H    2.340150   2.208558   1.610969   0.000000
    20  O    7.187924   6.533083   5.966010   7.334032   0.000000
    21  H    1.572739   3.618700   2.354324   2.295197   7.301342
    22  H    1.520598   3.141212   2.367770   2.860338   5.930402
                   21         22
    21  H    0.000000
    22  H    1.643202   0.000000
 Stoichiometry    C7H9N3O3
 Framework group  C1[X(C7H9N3O3)]
 Deg. of freedom    60
 Full point group                 C1      NOp   1
 Largest Abelian subgroup         C1      NOp   1
 Largest concise Abelian subgroup C1      NOp   1
                         Standard orientation:                         
 ---------------------------------------------------------------------
 Center     Atomic      Atomic             Coordinates (Angstroms)
 Number     Number       Type             X           Y           Z
 ---------------------------------------------------------------------
      1          8           0       -1.846633    2.458245   -0.007773
      2          7           0       -0.788616    1.676917    0.003082
      3          6           0       -0.970054    0.326472   -0.209857
      4          6           0        0.440158    2.189985    0.225723
      5          6           0        1.552917    1.409135    0.227799
      6          1           0        2.396189    1.769932    0.384258
      7          1           0        0.528195    3.102687    0.381996
      8          6           0        1.383553    0.065534   -0.010271
      9          6           0        0.154597   -0.488543   -0.221452
     10          1           0        0.070398   -1.402099   -0.372070
     11          7           0        2.557820   -0.819514   -0.034234
     12          8           0        2.376585   -2.019811   -0.194129
     13          7           0       -2.231967   -0.054170   -0.426691
     14          6           0       -2.638554   -1.458458   -0.484593
     15          6           0       -2.726963   -2.114414    0.862292
     16          1           0       -3.277567   -1.632269    1.403966
     17          1           0       -2.816934    0.475241   -0.142013
     18          1           0       -1.963277   -1.927808   -1.041243
     19          1           0       -3.504287   -1.474198   -0.919806
     20          8           0        3.664812   -0.307048    0.094989
     21          1           0       -3.081103   -3.031163    0.712586
     22          1           0       -1.844314   -2.132301    1.314679
 ---------------------------------------------------------------------
 Rotational constants (GHZ):      1.1596321      0.5958870      0.4089194
 Leave Link  202 at Fri Aug 20 16:00:21 2021, MaxMem= 24159191040 cpu:         0.9
 (Enter /public/home/users/caep010/software/Gaussian09/g09/l301.exe)
 Standard basis: 6-31G(d,p) (6D, 7F)
 Ernie: Thresh=  0.10000D-02 Tol=  0.10000D-05 Strict=F.
 There are   240 symmetry adapted cartesian basis functions of A   symmetry.
 There are   240 symmetry adapted basis functions of A   symmetry.
   240 basis functions,   427 primitive gaussians,   240 cartesian basis functions
    48 alpha electrons       48 beta electrons
       nuclear repulsion energy       809.9069506735 Hartrees.
 IExCor=  402 DFT=T Ex+Corr=B3LYP ExCW=0 ScaHFX=  0.200000
 ScaDFX=  0.800000  0.720000  1.000000  0.810000 ScalE2=  1.000000  1.000000
 IRadAn=      0 IRanWt=     -1 IRanGd=            0 ICorTp=0 IEmpDi=  4
 NAtoms=   22 NActive=   22 NUniq=   22 SFac= 1.00D+00 NAtFMM=   60 NAOKFM=F Big=F
 Integral buffers will be    131072 words long.
 Raffenetti 2 integral format.
 Two-electron integral symmetry is turned on.
 Leave Link  301 at Fri Aug 20 16:00:22 2021, MaxMem= 24159191040 cpu:         1.8
 (Enter /public/home/users/caep010/software/Gaussian09/g09/l302.exe)
 NPDir=0 NMtPBC=     1 NCelOv=     1 NCel=       1 NClECP=     1 NCelD=      1
         NCelK=      1 NCelE2=     1 NClLst=     1 CellRange=     0.0.
 One-electron integrals computed using PRISM.
 NBasis=   240 RedAO= T EigKep=  4.89D-04  NBF=   240
 NBsUse=   240 1.00D-06 EigRej= -1.00D+00 NBFU=   240
 Precomputing XC quadrature grid using
 IXCGrd= 4 IRadAn=           0 IRanWt=          -1 IRanGd=           0 AccXCQ= 0.00D+00.
 Generated NRdTot=       0 NPtTot=           0 NUsed=           0 NTot=          32
 NSgBfM=   239   239   239   239   239 MxSgAt=    22 MxSgA2=    22.
 Leave Link  302 at Fri Aug 20 16:00:22 2021, MaxMem= 24159191040 cpu:        16.9
 (Enter /public/home/users/caep010/software/Gaussian09/g09/l303.exe)
 DipDrv:  MaxL=1.
 Leave Link  303 at Fri Aug 20 16:00:22 2021, MaxMem= 24159191040 cpu:         1.2
 (Enter /public/home/users/caep010/software/Gaussian09/g09/l401.exe)
 ExpMin= 1.61D-01 ExpMax= 5.48D+03 ExpMxC= 8.25D+02 IAcc=1 IRadAn=         1 AccDes= 0.00D+00
 Harris functional with IExCor=  402 and IRadAn=       1 diagonalized for initial guess.
 HarFok:  IExCor=  402 AccDes= 0.00D+00 IRadAn=         1 IDoV= 1 UseB2=F ITyADJ=14
 ICtDFT=  3500011 ScaDFX=  1.000000  1.000000  1.000000  1.000000
 FoFCou: FMM=F IPFlag=           0 FMFlag=      100000 FMFlg1=           0
         NFxFlg=           0 DoJE=T BraDBF=F KetDBF=T FulRan=T
         wScrn=  0.000000 ICntrl=     500 IOpCl=  0 I1Cent=   200000004 NGrid=           0
         NMat0=    1 NMatS0=      1 NMatT0=    0 NMatD0=    1 NMtDS0=    0 NMtDT0=    0
 Petite list used in FoFCou.
 Harris En= -661.926485341371    
 JPrj=0 DoOrth=F DoCkMO=F.
 Leave Link  401 at Fri Aug 20 16:00:23 2021, MaxMem= 24159191040 cpu:        12.9
 (Enter /public/home/users/caep010/software/Gaussian09/g09/l502.exe)
 Closed shell SCF:
 Using DIIS extrapolation, IDIIS=  1040.
 Integral symmetry usage will be decided dynamically.
 Keep R1 ints in memory in canonical form, NReq=425397133.
 IVT=      200833 IEndB=      200833 NGot= 24159191040 MDV= 23740792548
 LenX= 23740792548 LenY= 23740734507
 Requested convergence on RMS density matrix=1.00D-08 within 128 cycles.
 Requested convergence on MAX density matrix=1.00D-06.
 Requested convergence on             energy=1.00D-06.
 No special actions if energy rises.
 FoFCou: FMM=F IPFlag=           0 FMFlag=           0 FMFlg1=           0
         NFxFlg=           0 DoJE=F BraDBF=F KetDBF=F FulRan=T
         wScrn=  0.000000 ICntrl=     600 IOpCl=  0 I1Cent=           0 NGrid=           0
         NMat0=    1 NMatS0=  28920 NMatT0=    0 NMatD0=    1 NMtDS0=    0 NMtDT0=    0
 Symmetry not used in FoFCou.
 Integral accuracy reduced to 1.0D-05 until final iterations.

 Cycle   1  Pass 0  IDiag  1:
 E= -661.283204254380    
 DIIS: error= 3.85D-02 at cycle   1 NSaved=   1.
 NSaved= 1 IEnMin= 1 EnMin= -661.283204254380     IErMin= 1 ErrMin= 3.85D-02
 ErrMax= 3.85D-02  0.00D+00 EMaxC= 1.00D-01 BMatC= 5.91D-01 BMatP= 5.91D-01
 IDIUse=3 WtCom= 6.15D-01 WtEn= 3.85D-01
 Coeff-Com:  0.100D+01
 Coeff-En:   0.100D+01
 Coeff:      0.100D+01
 Gap=     0.058 Goal=   None    Shift=    0.000
 GapD=    0.058 DampG=0.500 DampE=0.500 DampFc=0.2500 IDamp=-1.
 Damping current iteration by 2.50D-01
 RMSDP=6.77D-03 MaxDP=2.61D-01              OVMax= 3.49D-01

 Cycle   2  Pass 0  IDiag  1:
 E= -661.458444930594     Delta-E=       -0.175240676215 Rises=F Damp=T
 DIIS: error= 1.60D-02 at cycle   2 NSaved=   2.
 NSaved= 2 IEnMin= 2 EnMin= -661.458444930594     IErMin= 2 ErrMin= 1.60D-02
 ErrMax= 1.60D-02  0.00D+00 EMaxC= 1.00D-01 BMatC= 1.07D-01 BMatP= 5.91D-01
 IDIUse=3 WtCom= 8.40D-01 WtEn= 1.60D-01
 Coeff-Com: -0.490D+00 0.149D+01
 Coeff-En:   0.000D+00 0.100D+01
 Coeff:     -0.412D+00 0.141D+01
 Gap=     0.128 Goal=   None    Shift=    0.000
 RMSDP=2.40D-03 MaxDP=7.20D-02 DE=-1.75D-01 OVMax= 2.94D-01

 Cycle   3  Pass 0  IDiag  1:
 E= -661.698742686578     Delta-E=       -0.240297755984 Rises=F Damp=F
 DIIS: error= 2.63D-02 at cycle   3 NSaved=   3.
 NSaved= 3 IEnMin= 3 EnMin= -661.698742686578     IErMin= 2 ErrMin= 1.60D-02
 ErrMax= 2.63D-02  0.00D+00 EMaxC= 1.00D-01 BMatC= 8.15D-02 BMatP= 1.07D-01
 IDIUse=3 WtCom= 7.37D-01 WtEn= 2.63D-01
 Coeff-Com: -0.316D+00 0.889D+00 0.427D+00
 Coeff-En:   0.000D+00 0.000D+00 0.100D+01
 Coeff:     -0.233D+00 0.655D+00 0.578D+00
 Gap=     0.127 Goal=   None    Shift=    0.000
 RMSDP=2.73D-03 MaxDP=1.58D-01 DE=-2.40D-01 OVMax= 3.89D-01

 Cycle   4  Pass 0  IDiag  1:
 E= -661.662561079139     Delta-E=        0.036181607439 Rises=F Damp=F
 DIIS: error= 3.44D-02 at cycle   4 NSaved=   4.
 NSaved= 4 IEnMin= 3 EnMin= -661.698742686578     IErMin= 2 ErrMin= 1.60D-02
 ErrMax= 3.44D-02  0.00D+00 EMaxC= 1.00D-01 BMatC= 1.16D-01 BMatP= 8.15D-02
 IDIUse=2 WtCom= 0.00D+00 WtEn= 1.00D+00
 Coeff-En:   0.000D+00 0.000D+00 0.566D+00 0.434D+00
 Coeff:      0.000D+00 0.000D+00 0.566D+00 0.434D+00
 Gap=     0.121 Goal=   None    Shift=    0.000
 RMSDP=1.74D-03 MaxDP=1.07D-01 DE= 3.62D-02 OVMax= 2.55D-01

 Cycle   5  Pass 0  IDiag  1:
 E= -661.773767831191     Delta-E=       -0.111206752052 Rises=F Damp=F
 DIIS: error= 2.95D-03 at cycle   5 NSaved=   5.
 NSaved= 5 IEnMin= 5 EnMin= -661.773767831191     IErMin= 5 ErrMin= 2.95D-03
 ErrMax= 2.95D-03  0.00D+00 EMaxC= 1.00D-01 BMatC= 5.50D-03 BMatP= 8.15D-02
 IDIUse=3 WtCom= 9.71D-01 WtEn= 2.95D-02
 Coeff-Com:  0.482D-02 0.162D-01 0.262D+00 0.228D+00 0.489D+00
 Coeff-En:   0.000D+00 0.000D+00 0.000D+00 0.000D+00 0.100D+01
 Coeff:      0.468D-02 0.158D-01 0.254D+00 0.221D+00 0.504D+00
 Gap=     0.118 Goal=   None    Shift=    0.000
 RMSDP=4.15D-04 MaxDP=1.52D-02 DE=-1.11D-01 OVMax= 3.91D-02

 Cycle   6  Pass 0  IDiag  1:
 E= -661.778863884646     Delta-E=       -0.005096053455 Rises=F Damp=F
 DIIS: error= 9.75D-04 at cycle   6 NSaved=   6.
 NSaved= 6 IEnMin= 6 EnMin= -661.778863884646     IErMin= 6 ErrMin= 9.75D-04
 ErrMax= 9.75D-04  0.00D+00 EMaxC= 1.00D-01 BMatC= 4.31D-04 BMatP= 5.50D-03
 IDIUse=3 WtCom= 9.90D-01 WtEn= 9.75D-03
 Coeff-Com: -0.662D-03-0.746D-02 0.392D-01 0.414D-01 0.238D+00 0.689D+00
 Coeff-En:   0.000D+00 0.000D+00 0.000D+00 0.000D+00 0.000D+00 0.100D+01
 Coeff:     -0.656D-03-0.739D-02 0.388D-01 0.410D-01 0.236D+00 0.692D+00
 Gap=     0.121 Goal=   None    Shift=    0.000
 RMSDP=1.19D-04 MaxDP=6.25D-03 DE=-5.10D-03 OVMax= 1.06D-02

 Cycle   7  Pass 0  IDiag  1:
 E= -661.779093499209     Delta-E=       -0.000229614564 Rises=F Damp=F
 DIIS: error= 1.61D-03 at cycle   7 NSaved=   7.
 NSaved= 7 IEnMin= 7 EnMin= -661.779093499209     IErMin= 6 ErrMin= 9.75D-04
 ErrMax= 1.61D-03  0.00D+00 EMaxC= 1.00D-01 BMatC= 1.77D-04 BMatP= 4.31D-04
 IDIUse=3 WtCom= 9.90D-01 WtEn= 9.75D-03
 Coeff-Com: -0.380D-02 0.141D-03 0.765D-02 0.935D-02 0.123D+00 0.479D+00
 Coeff-Com:  0.385D+00
 Coeff-En:   0.000D+00 0.000D+00 0.000D+00 0.000D+00 0.000D+00 0.269D+00
 Coeff-En:   0.731D+00
 Coeff:     -0.376D-02 0.140D-03 0.757D-02 0.926D-02 0.122D+00 0.477D+00
 Coeff:      0.388D+00
 Gap=     0.121 Goal=   None    Shift=    0.000
 RMSDP=6.08D-05 MaxDP=3.58D-03 DE=-2.30D-04 OVMax= 7.82D-03

 Cycle   8  Pass 0  IDiag  1:
 E= -661.779215868354     Delta-E=       -0.000122369145 Rises=F Damp=F
 DIIS: error= 7.28D-04 at cycle   8 NSaved=   8.
 NSaved= 8 IEnMin= 8 EnMin= -661.779215868354     IErMin= 8 ErrMin= 7.28D-04
 ErrMax= 7.28D-04  0.00D+00 EMaxC= 1.00D-01 BMatC= 2.97D-05 BMatP= 1.77D-04
 IDIUse=3 WtCom= 9.93D-01 WtEn= 7.28D-03
 Coeff-Com: -0.332D-02 0.266D-02-0.405D-03-0.478D-03 0.512D-01 0.234D+00
 Coeff-Com:  0.294D+00 0.422D+00
 Coeff-En:   0.000D+00 0.000D+00 0.000D+00 0.000D+00 0.000D+00 0.000D+00
 Coeff-En:   0.166D+00 0.834D+00
 Coeff:     -0.330D-02 0.264D-02-0.402D-03-0.474D-03 0.508D-01 0.232D+00
 Coeff:      0.293D+00 0.425D+00
 Gap=     0.121 Goal=   None    Shift=    0.000
 RMSDP=2.31D-05 MaxDP=1.44D-03 DE=-1.22D-04 OVMax= 2.80D-03

 Cycle   9  Pass 0  IDiag  1:
 E= -661.779238026227     Delta-E=       -0.000022157873 Rises=F Damp=F
 DIIS: error= 1.18D-04 at cycle   9 NSaved=   9.
 NSaved= 9 IEnMin= 9 EnMin= -661.779238026227     IErMin= 9 ErrMin= 1.18D-04
 ErrMax= 1.18D-04  0.00D+00 EMaxC= 1.00D-01 BMatC= 2.21D-06 BMatP= 2.97D-05
 IDIUse=3 WtCom= 9.99D-01 WtEn= 1.18D-03
 Coeff-Com: -0.196D-02 0.225D-02-0.107D-02-0.172D-02 0.183D-01 0.927D-01
 Coeff-Com:  0.147D+00 0.277D+00 0.468D+00
 Coeff-En:   0.000D+00 0.000D+00 0.000D+00 0.000D+00 0.000D+00 0.000D+00
 Coeff-En:   0.000D+00 0.320D-01 0.968D+00
 Coeff:     -0.195D-02 0.225D-02-0.107D-02-0.172D-02 0.182D-01 0.926D-01
 Coeff:      0.147D+00 0.276D+00 0.469D+00
 Gap=     0.121 Goal=   None    Shift=    0.000
 RMSDP=7.46D-06 MaxDP=2.59D-04 DE=-2.22D-05 OVMax= 7.97D-04

 Initial convergence to 1.0D-05 achieved.  Increase integral accuracy.
 Cycle  10  Pass 1  IDiag  1:
 E= -661.779178971713     Delta-E=        0.000059054514 Rises=F Damp=F
 DIIS: error= 2.46D-05 at cycle   1 NSaved=   1.
 NSaved= 1 IEnMin= 1 EnMin= -661.779178971713     IErMin= 1 ErrMin= 2.46D-05
 ErrMax= 2.46D-05  0.00D+00 EMaxC= 1.00D-01 BMatC= 2.94D-07 BMatP= 2.94D-07
 IDIUse=1 WtCom= 1.00D+00 WtEn= 0.00D+00
 Coeff-Com:  0.100D+01
 Coeff:      0.100D+01
 Gap=     0.121 Goal=   None    Shift=    0.000
 RMSDP=7.46D-06 MaxDP=2.59D-04 DE= 5.91D-05 OVMax= 4.47D-04

 Cycle  11  Pass 1  IDiag  1:
 E= -661.779178409731     Delta-E=        0.000000561982 Rises=F Damp=F
 DIIS: error= 6.96D-05 at cycle   2 NSaved=   2.
 NSaved= 2 IEnMin= 1 EnMin= -661.779178971713     IErMin= 1 ErrMin= 2.46D-05
 ErrMax= 6.96D-05  0.00D+00 EMaxC= 1.00D-01 BMatC= 9.64D-07 BMatP= 2.94D-07
 IDIUse=1 WtCom= 1.00D+00 WtEn= 0.00D+00
 Coeff-Com:  0.658D+00 0.342D+00
 Coeff:      0.658D+00 0.342D+00
 Gap=     0.121 Goal=   None    Shift=    0.000
 RMSDP=4.46D-06 MaxDP=2.02D-04 DE= 5.62D-07 OVMax= 4.33D-04

 Cycle  12  Pass 1  IDiag  1:
 E= -661.779179197823     Delta-E=       -0.000000788092 Rises=F Damp=F
 DIIS: error= 3.09D-05 at cycle   3 NSaved=   3.
 NSaved= 3 IEnMin= 3 EnMin= -661.779179197823     IErMin= 1 ErrMin= 2.46D-05
 ErrMax= 3.09D-05  0.00D+00 EMaxC= 1.00D-01 BMatC= 6.55D-08 BMatP= 2.94D-07
 IDIUse=1 WtCom= 1.00D+00 WtEn= 0.00D+00
 Coeff-Com:  0.277D+00 0.220D+00 0.504D+00
 Coeff:      0.277D+00 0.220D+00 0.504D+00
 Gap=     0.121 Goal=   None    Shift=    0.000
 RMSDP=1.55D-06 MaxDP=8.65D-05 DE=-7.88D-07 OVMax= 1.59D-04

 Cycle  13  Pass 1  IDiag  1:
 E= -661.779179233488     Delta-E=       -0.000000035664 Rises=F Damp=F
 DIIS: error= 1.81D-05 at cycle   4 NSaved=   4.
 NSaved= 4 IEnMin= 4 EnMin= -661.779179233488     IErMin= 4 ErrMin= 1.81D-05
 ErrMax= 1.81D-05  0.00D+00 EMaxC= 1.00D-01 BMatC= 2.83D-08 BMatP= 6.55D-08
 IDIUse=1 WtCom= 1.00D+00 WtEn= 0.00D+00
 Coeff-Com:  0.230D-01 0.763D-01 0.419D+00 0.482D+00
 Coeff:      0.230D-01 0.763D-01 0.419D+00 0.482D+00
 Gap=     0.121 Goal=   None    Shift=    0.000
 RMSDP=6.72D-07 MaxDP=3.74D-05 DE=-3.57D-08 OVMax= 6.51D-05

 Cycle  14  Pass 1  IDiag  1:
 E= -661.779179254882     Delta-E=       -0.000000021394 Rises=F Damp=F
 DIIS: error= 2.09D-06 at cycle   5 NSaved=   5.
 NSaved= 5 IEnMin= 5 EnMin= -661.779179254882     IErMin= 5 ErrMin= 2.09D-06
 ErrMax= 2.09D-06  0.00D+00 EMaxC= 1.00D-01 BMatC= 1.60D-09 BMatP= 2.83D-08
 IDIUse=1 WtCom= 1.00D+00 WtEn= 0.00D+00
 Coeff-Com: -0.107D-01 0.261D-01 0.213D+00 0.294D+00 0.478D+00
 Coeff:     -0.107D-01 0.261D-01 0.213D+00 0.294D+00 0.478D+00
 Gap=     0.121 Goal=   None    Shift=    0.000
 RMSDP=1.92D-07 MaxDP=6.47D-06 DE=-2.14D-08 OVMax= 1.53D-05

 Cycle  15  Pass 1  IDiag  1:
 E= -661.779179256185     Delta-E=       -0.000000001304 Rises=F Damp=F
 DIIS: error= 6.71D-07 at cycle   6 NSaved=   6.
 NSaved= 6 IEnMin= 6 EnMin= -661.779179256185     IErMin= 6 ErrMin= 6.71D-07
 ErrMax= 6.71D-07  0.00D+00 EMaxC= 1.00D-01 BMatC= 1.06D-10 BMatP= 1.60D-09
 IDIUse=1 WtCom= 1.00D+00 WtEn= 0.00D+00
 Coeff-Com: -0.815D-02 0.129D-01 0.117D+00 0.165D+00 0.302D+00 0.411D+00
 Coeff:     -0.815D-02 0.129D-01 0.117D+00 0.165D+00 0.302D+00 0.411D+00
 Gap=     0.121 Goal=   None    Shift=    0.000
 RMSDP=6.33D-08 MaxDP=2.75D-06 DE=-1.30D-09 OVMax= 7.16D-06

 Cycle  16  Pass 1  IDiag  1:
 E= -661.779179256263     Delta-E=       -0.000000000078 Rises=F Damp=F
 DIIS: error= 4.55D-07 at cycle   7 NSaved=   7.
 NSaved= 7 IEnMin= 7 EnMin= -661.779179256263     IErMin= 7 ErrMin= 4.55D-07
 ErrMax= 4.55D-07  0.00D+00 EMaxC= 1.00D-01 BMatC= 2.36D-11 BMatP= 1.06D-10
 IDIUse=1 WtCom= 1.00D+00 WtEn= 0.00D+00
 Coeff-Com: -0.375D-02 0.474D-02 0.470D-01 0.685D-01 0.139D+00 0.306D+00
 Coeff-Com:  0.439D+00
 Coeff:     -0.375D-02 0.474D-02 0.470D-01 0.685D-01 0.139D+00 0.306D+00
 Coeff:      0.439D+00
 Gap=     0.121 Goal=   None    Shift=    0.000
 RMSDP=2.77D-08 MaxDP=1.53D-06 DE=-7.80D-11 OVMax= 3.36D-06

 Cycle  17  Pass 1  IDiag  1:
 E= -661.779179256281     Delta-E=       -0.000000000018 Rises=F Damp=F
 DIIS: error= 1.62D-07 at cycle   8 NSaved=   8.
 NSaved= 8 IEnMin= 8 EnMin= -661.779179256281     IErMin= 8 ErrMin= 1.62D-07
 ErrMax= 1.62D-07  0.00D+00 EMaxC= 1.00D-01 BMatC= 2.90D-12 BMatP= 2.36D-11
 IDIUse=1 WtCom= 1.00D+00 WtEn= 0.00D+00
 Coeff-Com: -0.845D-03 0.328D-03 0.614D-02 0.107D-01 0.259D-01 0.102D+00
 Coeff-Com:  0.295D+00 0.561D+00
 Coeff:     -0.845D-03 0.328D-03 0.614D-02 0.107D-01 0.259D-01 0.102D+00
 Coeff:      0.295D+00 0.561D+00
 Gap=     0.121 Goal=   None    Shift=    0.000
 RMSDP=8.35D-09 MaxDP=3.05D-07 DE=-1.77D-11 OVMax= 7.94D-07

 SCF Done:  E(RB3LYP) =  -661.779179256     A.U. after   17 cycles
            NFock= 17  Conv=0.84D-08     -V/T= 2.0050
 KE= 6.585061070802D+02 PE=-3.164812013817D+03 EE= 1.034619776807D+03
 Leave Link  502 at Fri Aug 20 16:00:38 2021, MaxMem= 24159191040 cpu:       137.3
 (Enter /public/home/users/caep010/software/Gaussian09/g09/l601.exe)
 Copying SCF densities to generalized density rwf, IOpCl= 0 IROHF=0.

 **********************************************************************

            Population analysis using the SCF density.

 **********************************************************************

 Orbital symmetries:
       Occupied  (A) (A) (A) (A) (A) (A) (A) (A) (A) (A) (A) (A)
                 (A) (A) (A) (A) (A) (A) (A) (A) (A) (A) (A) (A)
                 (A) (A) (A) (A) (A) (A) (A) (A) (A) (A) (A) (A)
                 (A) (A) (A) (A) (A) (A) (A) (A) (A) (A) (A) (A)
       Virtual   (A) (A) (A) (A) (A) (A) (A) (A) (A) (A) (A) (A)
                 (A) (A) (A) (A) (A) (A) (A) (A) (A) (A) (A) (A)
                 (A) (A) (A) (A) (A) (A) (A) (A) (A) (A) (A) (A)
                 (A) (A) (A) (A) (A) (A) (A) (A) (A) (A) (A) (A)
                 (A) (A) (A) (A) (A) (A) (A) (A) (A) (A) (A) (A)
                 (A) (A) (A) (A) (A) (A) (A) (A) (A) (A) (A) (A)
                 (A) (A) (A) (A) (A) (A) (A) (A) (A) (A) (A) (A)
                 (A) (A) (A) (A) (A) (A) (A) (A) (A) (A) (A) (A)
                 (A) (A) (A) (A) (A) (A) (A) (A) (A) (A) (A) (A)
                 (A) (A) (A) (A) (A) (A) (A) (A) (A) (A) (A) (A)
                 (A) (A) (A) (A) (A) (A) (A) (A) (A) (A) (A) (A)
                 (A) (A) (A) (A) (A) (A) (A) (A) (A) (A) (A) (A)
                 (A) (A) (A) (A) (A) (A) (A) (A) (A) (A) (A) (A)
                 (A) (A) (A) (A) (A) (A) (A) (A) (A) (A) (A) (A)
                 (A) (A) (A) (A) (A) (A) (A) (A) (A) (A) (A) (A)
                 (A) (A) (A) (A) (A) (A) (A) (A) (A) (A) (A) (A)
 The electronic state is 1-A.
 Alpha  occ. eigenvalues --  -19.18360 -19.18283 -19.13077 -14.57581 -14.48639
 Alpha  occ. eigenvalues --  -14.36337 -10.29708 -10.26055 -10.23959 -10.22298
 Alpha  occ. eigenvalues --  -10.21392 -10.20816 -10.15997  -1.23261  -1.10993
 Alpha  occ. eigenvalues --   -1.05671  -0.99234  -0.92346  -0.84600  -0.82855
 Alpha  occ. eigenvalues --   -0.79617  -0.73668  -0.71261  -0.67654  -0.65215
 Alpha  occ. eigenvalues --   -0.58556  -0.57457  -0.54859  -0.53879  -0.52555
 Alpha  occ. eigenvalues --   -0.51385  -0.50299  -0.49960  -0.49383  -0.48355
 Alpha  occ. eigenvalues --   -0.44435  -0.43815  -0.43131  -0.41428  -0.40103
 Alpha  occ. eigenvalues --   -0.36438  -0.34637  -0.31334  -0.31279  -0.29465
 Alpha  occ. eigenvalues --   -0.26421  -0.25998  -0.21763
 Alpha virt. eigenvalues --   -0.09687  -0.03178  -0.00969   0.08634   0.10862
 Alpha virt. eigenvalues --    0.12351   0.13677   0.14207   0.15825   0.16671
 Alpha virt. eigenvalues --    0.17661   0.17827   0.18748   0.20327   0.20879
 Alpha virt. eigenvalues --    0.22270   0.23605   0.24427   0.26743   0.28089
 Alpha virt. eigenvalues --    0.29232   0.33576   0.35832   0.39334   0.43322
 Alpha virt. eigenvalues --    0.44627   0.47351   0.47444   0.48894   0.50019
 Alpha virt. eigenvalues --    0.50648   0.52879   0.54069   0.54757   0.55868
 Alpha virt. eigenvalues --    0.56511   0.59988   0.61018   0.62266   0.63133
 Alpha virt. eigenvalues --    0.65409   0.66445   0.67917   0.70420   0.74694
 Alpha virt. eigenvalues --    0.75621   0.76929   0.79432   0.80639   0.82223
 Alpha virt. eigenvalues --    0.83249   0.84834   0.86308   0.88127   0.90491
 Alpha virt. eigenvalues --    0.91994   0.92970   0.94188   0.94525   0.94842
 Alpha virt. eigenvalues --    0.96312   0.97043   0.98132   0.98804   0.99628
 Alpha virt. eigenvalues --    1.01081   1.03154   1.04921   1.06283   1.08054
 Alpha virt. eigenvalues --    1.09887   1.11163   1.12945   1.15368   1.18270
 Alpha virt. eigenvalues --    1.20174   1.23177   1.24552   1.26346   1.28249
 Alpha virt. eigenvalues --    1.31549   1.33570   1.34287   1.35328   1.38884
 Alpha virt. eigenvalues --    1.39498   1.41145   1.41652   1.46037   1.49677
 Alpha virt. eigenvalues --    1.54673   1.56045   1.59593   1.63727   1.66201
 Alpha virt. eigenvalues --    1.67639   1.68082   1.69104   1.72725   1.76842
 Alpha virt. eigenvalues --    1.78576   1.80312   1.81059   1.84073   1.84788
 Alpha virt. eigenvalues --    1.87619   1.88449   1.89491   1.91970   1.92516
 Alpha virt. eigenvalues --    1.94784   1.95837   1.99298   2.01035   2.02492
 Alpha virt. eigenvalues --    2.05238   2.08075   2.09257   2.10649   2.12294
 Alpha virt. eigenvalues --    2.14307   2.14814   2.18025   2.19332   2.20989
 Alpha virt. eigenvalues --    2.24348   2.26424   2.27346   2.29391   2.30273
 Alpha virt. eigenvalues --    2.32806   2.35166   2.36113   2.39308   2.41631
 Alpha virt. eigenvalues --    2.44346   2.45207   2.46289   2.48336   2.50978
 Alpha virt. eigenvalues --    2.52811   2.54858   2.56918   2.60148   2.61750
 Alpha virt. eigenvalues --    2.62585   2.67451   2.69844   2.72197   2.72583
 Alpha virt. eigenvalues --    2.75097   2.78236   2.82986   2.84278   2.87169
 Alpha virt. eigenvalues --    2.88100   2.89026   2.89987   2.94980   2.97504
 Alpha virt. eigenvalues --    3.00891   3.04653   3.09040   3.13670   3.17930
 Alpha virt. eigenvalues --    3.19787   3.22928   3.31041   3.38344   3.54653
 Alpha virt. eigenvalues --    3.56216   3.61245   3.63912   3.71657   3.74411
 Alpha virt. eigenvalues --    3.76985   3.79869   3.85554   3.92961   3.93822
 Alpha virt. eigenvalues --    3.99797   4.02375   4.05882   4.14796   4.15830
 Alpha virt. eigenvalues --    4.22158   4.32526   4.35785   4.46680   4.54224
 Alpha virt. eigenvalues --    4.63260   4.83532
          Condensed to atoms (all electrons):
               1          2          3          4          5          6
     1  O    8.413248   0.165066  -0.051067  -0.040709   0.005190  -0.000097
     2  N    0.165066   6.506089   0.288481   0.382256  -0.006899   0.004796
     3  C   -0.051067   0.288481   4.647191  -0.047572  -0.025218  -0.000032
     4  C   -0.040709   0.382256  -0.047572   4.771147   0.440248  -0.037677
     5  C    0.005190  -0.006899  -0.025218   0.440248   4.996165   0.368289
     6  H   -0.000097   0.004796  -0.000032  -0.037677   0.368289   0.591176
     7  H    0.004702  -0.048077   0.005428   0.382363  -0.034086  -0.006980
     8  C    0.000828  -0.046283  -0.019533  -0.023947   0.487529  -0.029107
     9  C    0.003971  -0.026643   0.426036  -0.035043  -0.099839   0.010462
    10  H   -0.000092   0.005699  -0.036255  -0.000547   0.010432  -0.000303
    11  N    0.000001   0.000137   0.003404   0.004220  -0.043778  -0.016543
    12  O    0.000000   0.000001   0.001168  -0.000053   0.007926   0.000252
    13  N   -0.017593  -0.067142   0.344229   0.003544   0.000890   0.000014
    14  C    0.000559   0.003732  -0.038509  -0.000051  -0.000037  -0.000000
    15  C   -0.000017  -0.000092  -0.000811   0.000009  -0.000002   0.000000
    16  H   -0.000018  -0.000014  -0.000944  -0.000001   0.000000  -0.000000
    17  H    0.043149  -0.020736  -0.028179   0.000630  -0.000216   0.000002
    18  H   -0.000054  -0.000088  -0.013931  -0.000014   0.000004  -0.000000
    19  H    0.000015  -0.000170   0.005670   0.000004   0.000000   0.000000
    20  O    0.000000  -0.000001  -0.000026   0.000890  -0.001456   0.022089
    21  H    0.000000   0.000002  -0.000029  -0.000000   0.000000   0.000000
    22  H   -0.000000  -0.000078   0.005123  -0.000004  -0.000006   0.000000
               7          8          9         10         11         12
     1  O    0.004702   0.000828   0.003971  -0.000092   0.000001   0.000000
     2  N   -0.048077  -0.046283  -0.026643   0.005699   0.000137   0.000001
     3  C    0.005428  -0.019533   0.426036  -0.036255   0.003404   0.001168
     4  C    0.382363  -0.023947  -0.035043  -0.000547   0.004220  -0.000053
     5  C   -0.034086   0.487529  -0.099839   0.010432  -0.043778   0.007926
     6  H   -0.006980  -0.029107   0.010462  -0.000303  -0.016543   0.000252
     7  H    0.575487   0.003779   0.001060   0.000044  -0.000159   0.000001
     8  C    0.003779   4.964004   0.452416  -0.032376   0.163210  -0.093124
     9  C    0.001060   0.452416   5.095755   0.354599  -0.035191  -0.006342
    10  H    0.000044  -0.032376   0.354599   0.606726  -0.018459   0.028229
    11  N   -0.000159   0.163210  -0.035191  -0.018459   5.969761   0.289420
    12  O    0.000001  -0.093124  -0.006342   0.028229   0.289420   8.285949
    13  N   -0.000218   0.003829  -0.069136  -0.010266  -0.000061  -0.000002
    14  C    0.000002   0.000690  -0.002283   0.002885  -0.000006   0.000003
    15  C   -0.000000  -0.000127  -0.001849   0.000225   0.000002  -0.000000
    16  H    0.000000   0.000007   0.000031  -0.000093   0.000000   0.000000
    17  H   -0.000050   0.000117   0.011044  -0.000239   0.000001   0.000000
    18  H    0.000000   0.000484   0.007430   0.000321  -0.000004  -0.000031
    19  H   -0.000000  -0.000023   0.000124  -0.000078  -0.000000  -0.000000
    20  O   -0.000003  -0.097082   0.008185   0.000394   0.298699  -0.108534
    21  H    0.000000   0.000003  -0.000117   0.000003  -0.000000  -0.000000
    22  H   -0.000000  -0.000249   0.001552   0.001203   0.000003  -0.000005
              13         14         15         16         17         18
     1  O   -0.017593   0.000559  -0.000017  -0.000018   0.043149  -0.000054
     2  N   -0.067142   0.003732  -0.000092  -0.000014  -0.020736  -0.000088
     3  C    0.344229  -0.038509  -0.000811  -0.000944  -0.028179  -0.013931
     4  C    0.003544  -0.000051   0.000009  -0.000001   0.000630  -0.000014
     5  C    0.000890  -0.000037  -0.000002   0.000000  -0.000216   0.000004
     6  H    0.000014  -0.000000   0.000000  -0.000000   0.000002  -0.000000
     7  H   -0.000218   0.000002  -0.000000   0.000000  -0.000050   0.000000
     8  C    0.003829   0.000690  -0.000127   0.000007   0.000117   0.000484
     9  C   -0.069136  -0.002283  -0.001849   0.000031   0.011044   0.007430
    10  H   -0.010266   0.002885   0.000225  -0.000093  -0.000239   0.000321
    11  N   -0.000061  -0.000006   0.000002   0.000000   0.000001  -0.000004
    12  O   -0.000002   0.000003  -0.000000   0.000000   0.000000  -0.000031
    13  N    6.767063   0.308580  -0.068458  -0.001003   0.362162  -0.032780
    14  C    0.308580   4.711442   0.397152  -0.035569  -0.031682   0.401902
    15  C   -0.068458   0.397152   4.870724   0.410131  -0.001670  -0.051424
    16  H   -0.001003  -0.035569   0.410131   0.570892   0.002527   0.008239
    17  H    0.362162  -0.031682  -0.001670   0.002527   0.430785   0.005564
    18  H   -0.032780   0.401902  -0.051424   0.008239   0.005564   0.590083
    19  H   -0.035292   0.410698  -0.046617  -0.006902  -0.004668  -0.035298
    20  O    0.000000  -0.000000   0.000000  -0.000000  -0.000000  -0.000000
    21  H    0.005942  -0.030018   0.389680  -0.028483  -0.000048  -0.001260
    22  H   -0.005882  -0.030787   0.409459  -0.041467  -0.000652  -0.009337
              19         20         21         22
     1  O    0.000015   0.000000   0.000000  -0.000000
     2  N   -0.000170  -0.000001   0.000002  -0.000078
     3  C    0.005670  -0.000026  -0.000029   0.005123
     4  C    0.000004   0.000890  -0.000000  -0.000004
     5  C    0.000000  -0.001456   0.000000  -0.000006
     6  H    0.000000   0.022089   0.000000   0.000000
     7  H   -0.000000  -0.000003   0.000000  -0.000000
     8  C   -0.000023  -0.097082   0.000003  -0.000249
     9  C    0.000124   0.008185  -0.000117   0.001552
    10  H   -0.000078   0.000394   0.000003   0.001203
    11  N   -0.000000   0.298699  -0.000000   0.000003
    12  O   -0.000000  -0.108534  -0.000000  -0.000005
    13  N   -0.035292   0.000000   0.005942  -0.005882
    14  C    0.410698  -0.000000  -0.030018  -0.030787
    15  C   -0.046617   0.000000   0.389680   0.409459
    16  H   -0.006902  -0.000000  -0.028483  -0.041467
    17  H   -0.004668  -0.000000  -0.000048  -0.000652
    18  H   -0.035298  -0.000000  -0.001260  -0.009337
    19  H    0.583574  -0.000000  -0.002741   0.007053
    20  O   -0.000000   8.275478  -0.000000  -0.000000
    21  H   -0.002741  -0.000000   0.574260  -0.026795
    22  H    0.007053  -0.000000  -0.026795   0.569031
 Mulliken charges:
               1
     1  O   -0.527079
     2  N   -0.140035
     3  C    0.535375
     4  C    0.200305
     5  C   -0.105137
     6  H    0.093660
     7  H    0.116708
     8  C    0.264957
     9  C   -0.096224
    10  H    0.087947
    11  N    0.385344
    12  O   -0.404860
    13  N   -0.488418
    14  C   -0.068702
    15  C   -0.306315
    16  H    0.122666
    17  H    0.232160
    18  H    0.130191
    19  H    0.124649
    20  O   -0.398633
    21  H    0.119602
    22  H    0.121839
 Sum of Mulliken charges =  -0.00000
 Mulliken charges with hydrogens summed into heavy atoms:
               1
     1  O   -0.527079
     2  N   -0.140035
     3  C    0.535375
     4  C    0.317012
     5  C   -0.011477
     8  C    0.264957
     9  C   -0.008278
    11  N    0.385344
    12  O   -0.404860
    13  N   -0.256258
    14  C    0.186138
    15  C    0.057793
    20  O   -0.398633
 Electronic spatial extent (au):  <R**2>=           2597.6743
 Charge=             -0.0000 electrons
 Dipole moment (field-independent basis, Debye):
    X=             -3.1576    Y=             -1.0468    Z=              0.4206  Tot=              3.3531
 Quadrupole moment (field-independent basis, Debye-Ang):
   XX=            -81.4922   YY=            -77.9450   ZZ=            -73.0909
   XY=             17.8755   XZ=              0.2056   YZ=              1.3175
 Traceless Quadrupole moment (field-independent basis, Debye-Ang):
   XX=             -3.9828   YY=             -0.4357   ZZ=              4.4185
   XY=             17.8755   XZ=              0.2056   YZ=              1.3175
 Octapole moment (field-independent basis, Debye-Ang**2):
  XXX=            -68.2744  YYY=             -5.4506  ZZZ=              0.2001  XYY=             11.0673
  XXY=             -7.5212  XXZ=              0.1710  XZZ=              4.7986  YZZ=             -2.8787
  YYZ=              2.5386  XYZ=             -1.6263
 Hexadecapole moment (field-independent basis, Debye-Ang**3):
 XXXX=          -2081.9428 YYYY=          -1085.7314 ZZZZ=           -135.8405 XXXY=             73.1759
 XXXZ=              1.6059 YYYX=             85.1990 YYYZ=             10.8715 ZZZX=             -2.4562
 ZZZY=              1.4653 XXYY=           -542.1866 XXZZ=           -344.5339 YYZZ=           -199.5639
 XXYZ=              5.4158 YYXZ=              9.8205 ZZXY=            -10.9138
 N-N= 8.099069506735D+02 E-N=-3.164812028556D+03  KE= 6.585061070802D+02
 No NMR shielding tensors so no spin-rotation constants.
 Leave Link  601 at Fri Aug 20 16:00:38 2021, MaxMem= 24159191040 cpu:        10.9
 (Enter /public/home/users/caep010/software/Gaussian09/g09/l701.exe)
 Compute integral first derivatives.
 ... and contract with generalized density number  0.
 Leave Link  701 at Fri Aug 20 16:00:39 2021, MaxMem= 24159191040 cpu:        11.4
 (Enter /public/home/users/caep010/software/Gaussian09/g09/l702.exe)
 L702 exits ... SP integral derivatives will be done elsewhere.
 Leave Link  702 at Fri Aug 20 16:00:39 2021, MaxMem= 24159191040 cpu:         0.6
 (Enter /public/home/users/caep010/software/Gaussian09/g09/l703.exe)
 Compute integral first derivatives, UseDBF=F ICtDFT=           0.
 Integral derivatives from FoFJK, PRISM(SPDF).
 Calling FoFJK, ICntrl=      2127 FMM=F ISym2X=0 I1Cent= 0 IOpClX= 0 NMat=1 NMatS=1 NMatT=0.
 FoFJK:  IHMeth= 1 ICntrl=    2127 DoSepK=F KAlg= 0 I1Cent=   0 FoldK=F
 IRaf=         0 NMat=   1 IRICut=       1 DoRegI=T DoRafI=F ISym2E= 0.
 FoFCou: FMM=F IPFlag=           0 FMFlag=      100000 FMFlg1=         800
         NFxFlg=           0 DoJE=F BraDBF=F KetDBF=F FulRan=T
         wScrn=  0.000000 ICntrl=    2127 IOpCl=  0 I1Cent=           0 NGrid=           0
         NMat0=    1 NMatS0=      1 NMatT0=    0 NMatD0=    1 NMtDS0=    0 NMtDT0=    0
 Symmetry not used in FoFCou.
 Leave Link  703 at Fri Aug 20 16:00:40 2021, MaxMem= 24159191040 cpu:        29.0
 (Enter /public/home/users/caep010/software/Gaussian09/g09/l716.exe)
 Dipole        =-1.24228975D+00-4.11848270D-01 1.65486986D-01
 ***** Axes restored to original set *****
 -------------------------------------------------------------------
 Center     Atomic                   Forces (Hartrees/Bohr)
 Number     Number              X              Y              Z
 -------------------------------------------------------------------
      1        8           0.021499149   -0.004554353   -0.006731129
      2        7          -0.038774906    0.009979115    0.006754434
      3        6           0.007273936   -0.014472388    0.003439061
      4        6           0.109917863    0.093921483   -0.045172421
      5        6          -0.026431260    0.143452405   -0.022328841
      6        1           0.039587944   -0.160745988    0.023937888
      7        1          -0.127007192   -0.098599148    0.050034562
      8        6           0.021609526   -0.010531151   -0.002892886
      9        6          -0.112829896   -0.084204320    0.044921264
     10        1           0.118610954    0.107425921   -0.051221737
     11        7          -0.004620449   -0.002115503    0.003120280
     12        8           0.003849123    0.011609887   -0.004391777
     13        7           0.258717302   -0.004985632    0.021709105
     14        6          -0.025821433   -0.099947995   -0.043968894
     15        6           0.103109934    0.006482504    0.112105730
     16        1          -0.193184668    0.000484886   -0.079102010
     17        1          -0.276207041    0.019196942   -0.021320664
     18        1           0.080567103    0.000974828    0.035292153
     19        1          -0.047064441    0.100906975    0.034494978
     20        8          -0.003112853   -0.009261949    0.002256468
     21        1           0.043120362    0.067058936   -0.034985024
     22        1           0.047190944   -0.072075456   -0.025950541
 -------------------------------------------------------------------
 Cartesian Forces:  Max     0.276207041 RMS     0.079336456
 Leave Link  716 at Fri Aug 20 16:00:40 2021, MaxMem= 24159191040 cpu:         0.8
 (Enter /public/home/users/caep010/software/Gaussian09/g09/l103.exe)

 GradGradGradGradGradGradGradGradGradGradGradGradGradGradGradGradGradGrad
 Berny optimization.
 FormGI is forming the generalized inverse of G from B-inverse, IUseBI=4.
 GSVD:  received Info=                   1 from GESDD.
 Internal  Forces:  Max     0.277492770 RMS     0.048449901
 Search for a local minimum.
 Step number   1 out of a maximum of  115
 All quantities printed in internal units (Hartrees-Bohrs-Radians)
 RMS Force = .48450D-01 SwitMx=.10000D-02 MixMth= 1
 Mixed Optimization -- RFO/linear search
 Second derivative matrix not updated -- first step.
 ITU=  0
     Eigenvalues ---    0.00756   0.00757   0.00758   0.00857   0.01966
     Eigenvalues ---    0.01984   0.02107   0.02188   0.02277   0.02388
     Eigenvalues ---    0.02438   0.02471   0.02505   0.02541   0.02542
     Eigenvalues ---    0.04396   0.05592   0.05965   0.06197   0.09652
     Eigenvalues ---    0.12920   0.14815   0.16000   0.16000   0.16000
     Eigenvalues ---    0.16000   0.16000   0.16000   0.22112   0.22367
     Eigenvalues ---    0.22375   0.23503   0.24597   0.24981   0.24999
     Eigenvalues ---    0.25000   0.25000   0.25000   0.32301   0.35664
     Eigenvalues ---    0.36578   0.44605   0.45948   0.48739   0.48932
     Eigenvalues ---    0.49125   0.49634   0.50095   0.52310   0.53562
     Eigenvalues ---    0.54207   0.58159   0.62344   0.62421   0.62534
     Eigenvalues ---    0.63119   0.67639   0.92482   0.92501   0.93465
 RFO step:  Lambda=-2.61679806D-01 EMin= 7.56286147D-03
 Linear search not attempted -- first point.
 Maximum step size (   0.300) exceeded in Quadratic search.
    -- Step size scaled by   0.562
 Iteration  1 RMS(Cart)=  0.03398666 RMS(Int)=  0.00022220
 Iteration  2 RMS(Cart)=  0.00026484 RMS(Int)=  0.00000382
 Iteration  3 RMS(Cart)=  0.00000014 RMS(Int)=  0.00000382
 ITry= 1 IFail=0 DXMaxC= 1.29D-01 DCOld= 1.00D+10 DXMaxT= 3.00D-01 DXLimC= 3.00D+00 Rises=F
 Variable       Old X    -DE/DX   Delta X   Delta X   Delta X     New X
                                 (Linear)    (Quad)   (Total)
    R1        2.48554  -0.02265   0.00000  -0.01426  -0.01426   2.47128
    R2        2.60615   0.00877   0.00000   0.00613   0.00613   2.61228
    R3        2.55127   0.01086   0.00000   0.00737   0.00736   2.55863
    R4        2.62476   0.01101   0.00000   0.00815   0.00815   2.63292
    R5        2.52427   0.02036   0.00000   0.01356   0.01356   2.53784
    R6        2.56889   0.02567   0.00000   0.01843   0.01843   2.58732
    R7        1.75775   0.16784   0.00000   0.10646   0.10646   1.86420
    R8        1.75832   0.16727   0.00000   0.10619   0.10619   1.86451
    R9        2.59838   0.01861   0.00000   0.01412   0.01413   2.61250
   R10        2.57858   0.02416   0.00000   0.01752   0.01753   2.59611
   R11        2.77911  -0.00388   0.00000  -0.00353  -0.00353   2.77558
   R12        1.75690   0.16802   0.00000   0.10644   0.10644   1.86333
   R13        2.31376   0.01184   0.00000   0.00556   0.00556   2.31932
   R14        2.31810   0.00854   0.00000   0.00404   0.00404   2.32214
   R15        2.76488   0.00798   0.00000   0.00715   0.00715   2.77202
   R16        1.58501   0.27749   0.00000   0.13139   0.13139   1.71640
   R17        2.83597   0.02774   0.00000   0.02666   0.02666   2.86263
   R18        1.87659   0.08767   0.00000   0.06560   0.06560   1.94219
   R19        1.83133   0.11651   0.00000   0.08211   0.08211   1.91344
   R20        1.72063   0.20861   0.00000   0.12496   0.12496   1.84558
   R21        1.87860   0.08670   0.00000   0.06503   0.06503   1.94363
   R22        1.87459   0.08963   0.00000   0.06689   0.06689   1.94148
    A1        2.06529  -0.00416   0.00000  -0.00419  -0.00418   2.06110
    A2        2.10335   0.00368   0.00000   0.00443   0.00443   2.10778
    A3        2.11453   0.00048   0.00000  -0.00025  -0.00026   2.11427
    A4        2.05934   0.00647   0.00000   0.00619   0.00619   2.06553
    A5        2.01350  -0.00790   0.00000  -0.00822  -0.00822   2.00528
    A6        2.20976   0.00144   0.00000   0.00205   0.00205   2.21181
    A7        2.12584  -0.00048   0.00000  -0.00039  -0.00039   2.12545
    A8        2.07916  -0.01175   0.00000  -0.01579  -0.01579   2.06337
    A9        2.07818   0.01223   0.00000   0.01618   0.01618   2.09436
   A10        2.11693   0.00018   0.00000  -0.00044  -0.00044   2.11649
   A11        2.04902  -0.00175   0.00000  -0.00097  -0.00096   2.04806
   A12        2.11724   0.00157   0.00000   0.00141   0.00140   2.11864
   A13        2.13473  -0.00182   0.00000  -0.00112  -0.00111   2.13362
   A14        2.08580  -0.00030   0.00000  -0.00077  -0.00077   2.08503
   A15        2.06264   0.00212   0.00000   0.00188   0.00188   2.06452
   A16        2.08254  -0.00288   0.00000  -0.00342  -0.00342   2.07912
   A17        2.09972   0.00203   0.00000   0.00249   0.00249   2.10221
   A18        2.10092   0.00085   0.00000   0.00093   0.00093   2.10185
   A19        2.06452  -0.00428   0.00000  -0.00469  -0.00469   2.05983
   A20        2.05718  -0.00383   0.00000  -0.00420  -0.00420   2.05298
   A21        2.16142   0.00812   0.00000   0.00892   0.00892   2.17034
   A22        2.14415  -0.00120   0.00000  -0.00115  -0.00115   2.14299
   A23        2.00854  -0.00278   0.00000  -0.00360  -0.00361   2.00494
   A24        2.01024   0.00531   0.00000   0.00742   0.00742   2.01766
   A25        1.98272  -0.00016   0.00000   0.00026   0.00026   1.98298
   A26        1.86173   0.00164   0.00000   0.00276   0.00276   1.86449
   A27        1.85627  -0.00060   0.00000  -0.00105  -0.00105   1.85522
   A28        1.91405   0.00116   0.00000   0.00195   0.00194   1.91600
   A29        1.92125   0.00081   0.00000   0.00093   0.00093   1.92219
   A30        1.92630  -0.00302   0.00000  -0.00514  -0.00514   1.92116
   A31        1.91569   0.00091   0.00000   0.00161   0.00161   1.91729
   A32        1.86388   0.00889   0.00000   0.01135   0.01135   1.87523
   A33        1.94417  -0.00242   0.00000  -0.00314  -0.00313   1.94104
   A34        1.94173  -0.00540   0.00000  -0.00737  -0.00738   1.93435
   A35        1.85075   0.00364   0.00000   0.00581   0.00581   1.85655
   A36        1.94875  -0.00589   0.00000  -0.00861  -0.00860   1.94015
    D1        3.12127   0.00160   0.00000   0.00322   0.00322   3.12449
    D2        0.01406   0.00133   0.00000   0.00271   0.00271   0.01677
    D3       -0.02718   0.00086   0.00000   0.00177   0.00177  -0.02540
    D4       -3.13439   0.00059   0.00000   0.00126   0.00126  -3.13312
    D5       -3.12851  -0.00103   0.00000  -0.00198  -0.00198  -3.13049
    D6        0.01306  -0.00097   0.00000  -0.00189  -0.00189   0.01117
    D7        0.02009  -0.00025   0.00000  -0.00047  -0.00046   0.01963
    D8       -3.12153  -0.00019   0.00000  -0.00038  -0.00038  -3.12190
    D9        0.01196  -0.00083   0.00000  -0.00166  -0.00166   0.01030
   D10       -3.12905  -0.00061   0.00000  -0.00126  -0.00126  -3.13031
   D11        3.11485  -0.00071   0.00000  -0.00129  -0.00129   3.11356
   D12       -0.02616  -0.00049   0.00000  -0.00089  -0.00089  -0.02705
   D13       -2.98775   0.00040   0.00000   0.00107   0.00108  -2.98667
   D14       -0.37904   0.00466   0.00000   0.00871   0.00870  -0.37034
   D15        0.19167   0.00002   0.00000   0.00044   0.00045   0.19212
   D16        2.80038   0.00427   0.00000   0.00807   0.00807   2.80845
   D17       -3.13879  -0.00011   0.00000  -0.00024  -0.00024  -3.13903
   D18        0.00277  -0.00054   0.00000  -0.00107  -0.00107   0.00170
   D19        0.00283  -0.00017   0.00000  -0.00033  -0.00033   0.00250
   D20       -3.13880  -0.00060   0.00000  -0.00116  -0.00116  -3.13996
   D21       -0.01819   0.00064   0.00000   0.00122   0.00122  -0.01697
   D22        3.12916   0.00063   0.00000   0.00122   0.00121   3.13037
   D23        3.12337   0.00021   0.00000   0.00038   0.00038   3.12375
   D24       -0.01247   0.00020   0.00000   0.00038   0.00038  -0.01209
   D25        0.01067   0.00010   0.00000   0.00020   0.00019   0.01086
   D26       -3.13151  -0.00012   0.00000  -0.00020  -0.00020  -3.13171
   D27       -3.13660   0.00011   0.00000   0.00019   0.00019  -3.13642
   D28        0.00440  -0.00011   0.00000  -0.00021  -0.00021   0.00419
   D29        3.09069  -0.00033   0.00000  -0.00069  -0.00069   3.09001
   D30       -0.06276   0.00099   0.00000   0.00206   0.00206  -0.06070
   D31       -0.04538  -0.00033   0.00000  -0.00068  -0.00068  -0.04606
   D32        3.08435   0.00099   0.00000   0.00207   0.00207   3.08642
   D33        1.33123   0.00153   0.00000   0.00328   0.00329   1.33452
   D34       -0.77966  -0.00096   0.00000  -0.00121  -0.00121  -0.78087
   D35       -2.83583   0.00202   0.00000   0.00388   0.00389  -2.83194
   D36       -1.27701  -0.00049   0.00000  -0.00130  -0.00131  -1.27832
   D37        2.89528  -0.00298   0.00000  -0.00580  -0.00581   2.88948
   D38        0.83912  -0.00000   0.00000  -0.00071  -0.00071   0.83840
   D39        0.95361   0.00057   0.00000   0.00101   0.00100   0.95462
   D40        3.06045  -0.00011   0.00000  -0.00017  -0.00016   3.06029
   D41       -1.09074  -0.00302   0.00000  -0.00526  -0.00526  -1.09601
   D42        3.03488   0.00336   0.00000   0.00605   0.00605   3.04092
   D43       -1.14147   0.00269   0.00000   0.00488   0.00489  -1.13658
   D44        0.99052  -0.00022   0.00000  -0.00021  -0.00022   0.99030
   D45       -1.12575   0.00087   0.00000   0.00152   0.00152  -1.12423
   D46        0.98109   0.00020   0.00000   0.00035   0.00036   0.98145
   D47        3.11308  -0.00271   0.00000  -0.00474  -0.00475   3.10834
         Item               Value     Threshold  Converged?
 Maximum Force            0.277493     0.000450     NO 
 RMS     Force            0.048450     0.000300     NO 
 Maximum Displacement     0.129210     0.001800     NO 
 RMS     Displacement     0.034005     0.001200     NO 
 Predicted change in Energy=-1.175519D-01
 Lowest energy point so far.  Saving SCF results.
 GradGradGradGradGradGradGradGradGradGradGradGradGradGradGradGradGradGrad

 Leave Link  103 at Fri Aug 20 16:00:40 2021, MaxMem= 24159191040 cpu:         4.7
 (Enter /public/home/users/caep010/software/Gaussian09/g09/l202.exe)
                          Input orientation:                          
 ---------------------------------------------------------------------
 Center     Atomic      Atomic             Coordinates (Angstroms)
 Number     Number       Type             X           Y           Z
 ---------------------------------------------------------------------
      1          8           0        4.831757    7.110850    0.778612
      2          7           0        6.054115    6.695751    0.569482
      3          6           0        6.990352    7.617978    0.140675
      4          6           0        6.386570    5.397036    0.759343
      5          6           0        7.662482    4.942629    0.559012
      6          1           0        7.895912    3.994054    0.697583
      7          1           0        5.680453    4.772388    1.049829
      8          6           0        8.609000    5.865385    0.154208
      9          6           0        8.299055    7.185886   -0.063833
     10          1           0        8.993906    7.819550   -0.360338
     11          7           0        9.995593    5.431212   -0.060619
     12          8           0       10.801864    6.259660   -0.472855
     13          7           0        6.527779    8.871318    0.003845
     14          6           0        7.312241    9.944161   -0.616959
     15          6           0        7.367447    9.858949   -2.128391
     16          1           0        6.461613    9.827419   -2.492119
     17          1           0        5.627025    8.937773   -0.092083
     18          1           0        8.262257    9.880177   -0.230087
     19          1           0        6.879003   10.814019   -0.332517
     20          8           0       10.272527    4.261578    0.194861
     21          1           0        7.868378   10.691377   -2.466025
     22          1           0        7.832971    8.996048   -2.435325
 ---------------------------------------------------------------------
                    Distance matrix (angstroms):
                    1          2          3          4          5
     1  O    0.000000
     2  N    1.307747   0.000000
     3  C    2.307309   1.382359   0.000000
     4  C    2.314081   1.353969   2.383251   0.000000
     5  C    3.572451   2.379157   2.790028   1.369149   0.000000
     6  H    4.371502   3.272277   3.776641   2.061623   0.986655
     7  H    2.502449   2.017346   3.261868   0.986493   2.048980
     8  C    4.025994   2.718344   2.385746   2.350475   1.382477
     9  C    3.568963   2.383500   1.393280   2.745032   2.413579
    10  H    4.372979   3.281746   2.075060   3.731013   3.300692
    11  N    5.494606   4.187043   3.722087   3.701155   2.462938
    12  O    6.158967   4.880344   4.092563   4.664467   3.557393
    13  N    2.564372   2.297257   1.342966   3.558279   4.126785
    14  C    4.015977   3.680039   2.467539   4.840187   5.149844
    15  C    4.736290   4.359952   3.211357   5.404609   5.610649
    16  H    4.553445   4.398500   3.477470   5.495992   5.883253
    17  H    2.174445   2.376287   1.911726   3.720034   4.530804
    18  H    4.522718   3.956737   2.621593   4.959408   5.036049
    19  H    4.374847   4.295832   3.232799   5.547824   5.990149
    20  O    6.169368   4.884725   4.694788   4.087612   2.721907
    21  H    5.706918   5.335811   4.124512   6.374072   6.499334
    22  H    4.784418   4.181454   3.040536   5.025024   5.042353
                    6          7          8          9         10
     6  H    0.000000
     7  H    2.374477   0.000000
     8  C    2.075002   3.251640   0.000000
     9  C    3.306066   3.731259   1.373801   0.000000
    10  H    4.118156   4.717281   2.057102   0.986034   0.000000
    11  N    2.654987   4.504173   1.468774   2.440723   2.607175
    12  O    3.866194   5.546116   2.314588   2.699861   2.390529
    13  N    5.112804   4.314310   3.659196   2.445951   2.705666
    14  C    6.121476   5.673460   4.348872   2.981246   2.721732
    15  C    6.531647   6.230581   4.764479   3.503649   3.151274
    16  H    6.801439   6.221652   5.226091   4.031186   3.871503
    17  H    5.496525   4.319405   4.288636   3.195254   3.557847
    18  H    5.970028   5.864589   4.048020   2.699667   2.190539
    19  H    6.971882   6.312584   5.264861   3.905392   3.666120
    20  O    2.443890   4.698834   2.311098   3.537385   3.821293
    21  H    7.406978   7.223758   5.541150   4.271356   3.734719
    22  H    5.902459   5.883786   4.136296   3.019585   2.652826
                   11         12         13         14         15
    11  N    0.000000
    12  O    1.227330   0.000000
    13  N    4.885101   5.031481   0.000000
    14  C    5.279829   5.076788   1.466892   0.000000
    15  C    5.548665   5.243176   2.495374   1.514838   0.000000
    16  H    6.142299   5.970269   2.673639   2.062383   0.976641
    17  H    5.601906   5.839199   0.908282   2.031813   2.832699
    18  H    4.777705   4.429073   2.020132   1.027761   2.098735
    19  H    6.225887   6.012547   2.002645   1.012549   2.091865
    20  O    1.228823   2.172182   5.942165   6.458645   6.720681
    21  H    6.162820   5.676107   3.348146   2.070427   1.028525
    22  H    4.798355   4.489257   2.769230   2.115782   1.027385
                   16         17         18         19         20
    16  H    0.000000
    17  H    2.692244   0.000000
    18  H    2.891693   2.802074   0.000000
    19  H    2.410700   2.268382   1.672108   0.000000
    20  O    7.260958   6.597714   5.982510   7.397879   0.000000
    21  H    1.651088   3.705994   2.410934   2.354944   7.362239
    22  H    1.604689   3.218754   2.414341   2.938856   5.940077
                   21         22
    21  H    0.000000
    22  H    1.695977   0.000000
 Stoichiometry    C7H9N3O3
 Framework group  C1[X(C7H9N3O3)]
 Deg. of freedom    60
 Full point group                 C1      NOp   1
 RotChk:  IX=0 Diff= 7.89D-03
 Largest Abelian subgroup         C1      NOp   1
 Largest concise Abelian subgroup C1      NOp   1
                         Standard orientation:                         
 ---------------------------------------------------------------------
 Center     Atomic      Atomic             Coordinates (Angstroms)
 Number     Number       Type             X           Y           Z
 ---------------------------------------------------------------------
      1          8           0       -1.838047    2.454943   -0.007793
      2          7           0       -0.783334    1.681838    0.001796
      3          6           0       -0.966249    0.328521   -0.212665
      4          6           0        0.449519    2.194940    0.225476
      5          6           0        1.569083    1.406814    0.227372
      6          1           0        2.463680    1.788425    0.393377
      7          1           0        0.528511    3.164379    0.390148
      8          6           0        1.395347    0.056240   -0.011386
      9          6           0        0.156033   -0.497058   -0.224204
     10          1           0        0.062273   -1.465558   -0.383831
     11          7           0        2.566463   -0.829916   -0.034033
     12          8           0        2.376889   -2.032015   -0.193278
     13          7           0       -2.238322   -0.042314   -0.431449
     14          6           0       -2.657313   -1.446864   -0.490259
     15          6           0       -2.756966   -2.107847    0.869118
     16          1           0       -3.345884   -1.587196    1.448710
     17          1           0       -2.864156    0.541575   -0.127505
     18          1           0       -1.964202   -1.940211   -1.066886
     19          1           0       -3.560034   -1.455109   -0.948824
     20          8           0        3.673923   -0.314173    0.098434
     21          1           0       -3.130246   -3.055291    0.724633
     22          1           0       -1.842433   -2.136777    1.336357
 ---------------------------------------------------------------------
 Rotational constants (GHZ):      1.1544330      0.5902985      0.4060483
 Leave Link  202 at Fri Aug 20 16:00:40 2021, MaxMem= 24159191040 cpu:         0.4
 (Enter /public/home/users/caep010/software/Gaussian09/g09/l301.exe)
 Standard basis: 6-31G(d,p) (6D, 7F)
 Ernie: Thresh=  0.10000D-02 Tol=  0.10000D-05 Strict=F.
 There are   240 symmetry adapted cartesian basis functions of A   symmetry.
 There are   240 symmetry adapted basis functions of A   symmetry.
   240 basis functions,   427 primitive gaussians,   240 cartesian basis functions
    48 alpha electrons       48 beta electrons
       nuclear repulsion energy       805.1058796822 Hartrees.
 IExCor=  402 DFT=T Ex+Corr=B3LYP ExCW=0 ScaHFX=  0.200000
 ScaDFX=  0.800000  0.720000  1.000000  0.810000 ScalE2=  1.000000  1.000000
 IRadAn=      0 IRanWt=     -1 IRanGd=            0 ICorTp=0 IEmpDi=  4
 NAtoms=   22 NActive=   22 NUniq=   22 SFac= 1.00D+00 NAtFMM=   60 NAOKFM=F Big=F
 Integral buffers will be    131072 words long.
 Raffenetti 2 integral format.
 Two-electron integral symmetry is turned on.
 Leave Link  301 at Fri Aug 20 16:00:40 2021, MaxMem= 24159191040 cpu:         1.6
 (Enter /public/home/users/caep010/software/Gaussian09/g09/l302.exe)
 NPDir=0 NMtPBC=     1 NCelOv=     1 NCel=       1 NClECP=     1 NCelD=      1
         NCelK=      1 NCelE2=     1 NClLst=     1 CellRange=     0.0.
 One-electron integrals computed using PRISM.
 NBasis=   240 RedAO= T EigKep=  5.17D-04  NBF=   240
 NBsUse=   240 1.00D-06 EigRej= -1.00D+00 NBFU=   240
 Precomputing XC quadrature grid using
 IXCGrd= 4 IRadAn=           0 IRanWt=          -1 IRanGd=           0 AccXCQ= 0.00D+00.
 Generated NRdTot=       0 NPtTot=           0 NUsed=           0 NTot=          32
 NSgBfM=   239   239   239   239   239 MxSgAt=    22 MxSgA2=    22.
 Leave Link  302 at Fri Aug 20 16:00:41 2021, MaxMem= 24159191040 cpu:        13.0
 (Enter /public/home/users/caep010/software/Gaussian09/g09/l303.exe)
 DipDrv:  MaxL=1.
 Leave Link  303 at Fri Aug 20 16:00:41 2021, MaxMem= 24159191040 cpu:         0.8
 (Enter /public/home/users/caep010/software/Gaussian09/g09/l401.exe)
 Initial guess from the checkpoint file:  "/public/home/users/caep010/.cache/gau_scr/Gau-110344.chk"
 B after Tr=    -0.000000   -0.000000   -0.000000
         Rot=    0.999998    0.000314    0.000202    0.002122 Ang=   0.25 deg.
 Guess basis will be translated and rotated to current coordinates.
 JPrj=2 DoOrth=T DoCkMO=T.
 Generating alternative initial guess.
 ExpMin= 1.61D-01 ExpMax= 5.48D+03 ExpMxC= 8.25D+02 IAcc=1 IRadAn=         1 AccDes= 0.00D+00
[...]
 7342,0.09141392,0.23584979,0.36926061,0.00104581,-0.00081631,0.0000047
 8,-0.00095425,0.00070810,0.00042919,0.00043932,0.00048585,-0.00067719,
 0.00061477,-0.00088223,-0.00094615,0.00023661,-0.00126179,0.00374533,-
 0.00042817,-0.00003000,0.00063649,0.00002394,-0.00024485,-0.00048982,0
 .02157860,0.00913708,0.01012323,-0.00098672,0.00275598,0.00133584,0.00
 034635,-0.00105345,-0.00021755,0.09970974,0.09396222,-0.11922408,-0.13
 302938,-0.13473400,0.09014070,0.01236431,-0.02123547,0.00221107,0.0006
 3547,-0.02737636,0.00623451,-0.16142451,0.09977769,0.00838619,-0.00782
 287,-0.00221309,0.00333077,0.00181078,0.00423497,-0.00182427,0.0003729
 2,-0.00014459,-0.00004042,0.00043791,-0.00144782,0.00031964,-0.0025341
 5,-0.00955579,0.00384783,-0.01779919,0.04928987,-0.00440088,0.00112726
 ,-0.00092799,-0.00056831,-0.00070132,0.00185639,-0.00015323,0.00003786
 ,0.00047525,-0.00010444,0.74511945,-0.00827020,0.00251797,0.00111398,-
 0.00121489,-0.07649737,0.01716656,0.08034141,-0.32962187,0.04524271,-0
 .00314823,0.00948449,-0.00103663,0.00415004,-0.00702313,0.00057469,-0.
 00015443,0.00051570,-0.00008692,0.00055886,-0.00073172,0.00012178,-0.0
 0490614,0.00338110,0.00089876,0.02692000,-0.01386837,-0.00309469,-0.00
 079152,-0.00102946,0.00010783,-0.00576550,0.00050764,0.00144075,0.0027
 6101,0.00082936,-0.00085936,-0.04046820,0.68465698,-0.00344716,0.00716
 816,-0.00220663,0.00252348,0.02101267,0.00167299,0.00585113,0.05483569
 ,-0.05017339,0.00386867,0.00133706,0.00340584,-0.00096183,-0.00119084,
 -0.00106421,-0.00014650,-0.00003359,-0.00024179,-0.00027053,0.00071749
 ,-0.00000317,0.00172513,0.00339895,0.00414277,0.00285578,-0.00675719,0
 .00727891,-0.00058506,-0.00012564,-0.00221825,0.00115338,-0.00022822,0
 .00056993,-0.00036662,-0.00025051,0.00017912,-0.11853220,-0.17042041,0
 .13956174,0.00134286,-0.00528828,0.00112226,-0.00610624,0.01020244,-0.
 00015322,0.01805334,-0.00280983,-0.00718235,0.00134419,-0.00098840,0.0
 0045136,-0.00020913,0.00124546,-0.00018516,-0.00007107,-0.00017962,-0.
 00017548,-0.00001697,0.00038391,-0.00012705,-0.00058731,-0.00034909,0.
 00094184,-0.00163546,0.00300161,-0.00084611,-0.00090285,0.00154290,-0.
 00036859,0.00215278,0.00033583,-0.00053236,-0.00105520,-0.00057929,0.0
 0032646,-0.14612889,-0.03773391,0.03454348,0.59443918,0.00198706,0.001
 55890,-0.00060039,0.00365799,0.00315010,0.00003778,-0.00835491,-0.0419
 7014,0.01096175,-0.00106271,-0.00130595,0.00111380,-0.00000368,0.00175
 324,-0.00039146,-0.00000222,-0.00014939,-0.00005956,0.00007897,-0.0001
 7791,-0.00004660,-0.00148648,-0.00104525,0.00058073,-0.00304174,0.0032
 7636,0.00017734,-0.00024175,-0.00019840,-0.00002837,0.00284683,-0.0000
 9084,-0.00069710,-0.00134777,-0.00040699,0.00044063,-0.04838980,-0.161
 86877,0.04756718,-0.05390944,0.55443264,0.00006062,-0.00136661,0.00091
 435,0.00089394,-0.00128460,0.00226077,-0.00248884,0.00053292,-0.006505
 35,0.00025269,-0.00056187,0.00151515,-0.00042031,-0.00012129,0.0001021
 4,-0.00003065,-0.00003569,-0.00009818,0.00001773,-0.00022509,-0.000017
 84,0.00053144,-0.00021043,-0.00043430,-0.00023504,-0.00187725,-0.00011
 166,-0.00011975,0.00026839,0.00050999,-0.00116346,0.00017197,0.0003112
 9,0.00052909,0.00009428,-0.00027181,0.03806559,0.05808444,-0.07761098,
 0.02404045,0.03169397,0.46425700,-0.00077517,0.00035318,-0.00025393,0.
 00048631,-0.00135183,-0.00014753,-0.00156876,0.00371311,0.00052397,0.0
 0003655,0.00033347,-0.00015502,-0.00006480,-0.00045744,0.00010519,0.00
 000118,0.00004626,0.00003626,0.00000986,-0.00000854,0.00002915,0.00005
 256,0.00046895,-0.00027151,0.00070229,-0.00076153,0.00020429,0.0000724
 4,-0.00019049,-0.00008943,-0.00047511,0.00002619,0.00005601,0.00025399
 ,0.00006916,-0.00002208,-0.00178020,-0.00904424,0.02180110,-0.08125174
 ,0.00373017,-0.00533573,0.58130578,0.00012322,-0.00014173,-0.00003816,
 -0.00117483,-0.00260966,0.00003949,-0.00295202,0.00754474,0.00318595,-
 0.00066073,0.00094914,-0.00042715,0.00071814,-0.00028603,-0.00003320,0
 .00001550,0.00004902,0.00004232,0.00001413,-0.00001822,0.00003838,0.00
 011307,-0.00043259,-0.00013182,0.00065910,0.00000598,-0.00100176,0.000
 33221,-0.00006408,0.00064735,-0.00066996,-0.00014074,0.00023485,0.0003
 0161,0.00018016,-0.00020922,-0.00607206,-0.01066942,0.03449797,0.00431
 212,-0.08025341,-0.01720203,0.00287178,0.58321721,0.00000798,-0.000115
 96,0.00001088,-0.00028409,-0.00065428,0.00046478,-0.00056938,-0.000363
 07,-0.00004772,-0.00035933,0.00033803,0.00001271,0.00025100,-0.0000648
 9,-0.00002019,0.00000592,0.00000670,0.00003378,-0.00000653,-0.00002272
 ,-0.00002262,-0.00005307,-0.00006039,-0.00014380,0.00018683,0.00012780
 ,-0.00050269,-0.00003089,0.00019710,0.00020089,0.00009355,-0.00007309,
 0.00000436,-0.00002726,-0.00000137,-0.00002486,0.00832206,0.01188851,-
 0.01511882,-0.00279164,-0.01318063,-0.18540757,0.00688082,0.00134545,0
 .46615760,0.00021608,-0.00001310,0.00002250,-0.00015076,0.00013205,-0.
 00003073,0.00013054,-0.00022066,-0.00014326,0.00001179,-0.00002237,0.0
 0001065,0.00001324,0.00007466,-0.00001762,0.00000521,0.00000092,-0.000
 00395,-0.00000086,0.00000226,-0.00000585,0.00008371,-0.00011356,0.0000
 0936,-0.00021803,0.00001050,-0.00001331,0.00007564,-0.00006396,0.00009
 261,-0.00004954,-0.00014252,0.00004416,0.00002887,0.00009303,-0.000044
 39,0.00155255,0.00092099,-0.00008271,0.00259535,-0.00085708,0.00202058
 ,-0.27792908,0.00610488,-0.09453418,0.29814056,-0.00019300,0.00011315,
 -0.00008503,0.00031786,0.00019602,-0.00004518,0.00024641,-0.00084885,0
 .00010784,0.00008190,-0.00013589,0.00001142,-0.00011766,-0.00002452,0.
 00002877,-0.00000674,-0.00000772,-0.00000254,-0.00000140,0.00000263,0.
 00000733,-0.00009624,0.00016963,0.00000572,0.00009031,-0.00003549,0.00
 019060,-0.00012417,0.00004032,-0.00018581,0.00014947,0.00006417,-0.000
 04971,-0.00005840,-0.00006397,0.00005225,0.00069234,0.00046734,-0.0004
 7818,-0.00212972,-0.00104846,-0.00008482,0.00642520,-0.04914949,0.0019
 8607,-0.00657324,0.04708984,0.00007981,0.00002450,0.00005574,-0.000134
 65,-0.00003419,-0.00005977,0.00002655,0.00065226,-0.00000445,0.0000798
 8,0.00000423,-0.00001711,-0.00003643,-0.00004799,0.00001086,0.00000360
 ,0.00000646,-0.00000677,-0.00000354,0.00000749,-0.00000405,0.00008978,
 0.00003276,-0.00002354,0.00002141,-0.00019273,0.00015059,0.00008991,-0
 .00012176,-0.00012349,-0.00008073,-0.00001017,0.00000439,0.00003395,0.
 00003417,0.00001210,0.00052939,-0.00117027,0.00347284,-0.03360887,0.00
 019884,-0.01520689,-0.09289736,0.00288548,-0.08611512,0.10309581,-0.00
 166989,0.09535272,-0.00902154,0.00194409,0.00072426,0.00421309,-0.0057
 4371,0.00078742,-0.01844561,0.01934715,-0.00233620,-0.00236124,0.00277
 152,-0.00056933,0.00022942,-0.00130827,0.00030128,-0.00015175,0.000103
 21,0.00009015,0.00016593,-0.00030117,0.00002419,-0.00183285,0.00288198
 ,0.00014411,0.00489717,-0.00328977,-0.00027652,-0.00022790,0.00000948,
 -0.00007555,0.00141062,-0.00014563,-0.00018035,-0.00034393,-0.00047261
 ,0.00017851,-0.41396217,0.02438888,0.05061065,-0.00303583,-0.00090240,
 -0.00133750,0.00046069,0.00039921,0.00017845,-0.00015964,-0.00004822,0
 .00012460,0.43633346,-0.00695161,0.00804765,-0.00179026,0.01323804,-0.
 00875015,-0.00058615,0.03501522,0.00419481,-0.00527508,-0.00112902,0.0
 0204737,-0.00058675,-0.00019018,-0.00097724,0.00034312,-0.00016171,0.0
 0005391,0.00008276,0.00001810,-0.00017089,0.00004745,-0.00058901,0.003
 41700,-0.00047434,0.00256276,-0.00907829,0.00196323,-0.00028642,0.0001
 9414,-0.00004032,0.00210151,-0.00091040,-0.00023303,-0.00064234,-0.000
 53172,0.00026540,0.02293749,-0.06623124,0.01390342,-0.02340801,0.00421
 524,-0.00062877,-0.00031114,-0.00057522,-0.00041199,0.00026311,0.00020
 691,0.00032319,-0.03993124,0.06720243,0.00350656,-0.00400399,-0.004529
 78,-0.00493149,0.00469914,0.00052466,-0.00024611,-0.00899075,0.0003476
 6,0.00077856,-0.00171279,-0.00065618,-0.00024715,0.00080574,0.00003616
 ,0.00012238,-0.00000891,0.00015182,-0.00002037,0.00012858,0.00004447,0
 .00126486,-0.00114281,0.00169314,-0.00199815,0.00270171,0.00157997,-0.
 00003369,-0.00023280,-0.00062204,-0.00065481,0.00019637,0.00028125,0.0
 0017904,0.00024026,-0.00011083,0.04256730,0.01791077,-0.01364293,0.009
 15583,-0.00251330,-0.00476698,0.00199794,0.00093390,-0.00001483,-0.000
 34758,0.00035290,-0.00065463,-0.04822725,-0.00865063,0.02067685,0.0000
 8632,-0.00074841,0.00039505,-0.00077031,-0.00076304,0.00035583,-0.0010
 9808,0.00395522,0.00031732,0.00005296,0.00019183,-0.00016316,-0.000000
 43,-0.00018910,0.00000146,0.00005491,0.00006128,0.00008282,0.00000397,
 -0.00001118,-0.00000970,0.00051044,-0.00009098,-0.00054416,0.00002021,
 0.00014932,0.00025432,0.00045674,0.00062960,0.00005804,-0.00048195,-0.
 00010353,0.00013297,0.00019050,0.00018078,-0.00006845,-0.02024071,-0.0
 0710445,0.00155740,-0.26597682,0.00070568,-0.09182767,0.00277474,0.000
 83735,0.00031371,0.00141806,0.00017603,0.00096128,0.00114512,-0.002648
 24,-0.00192687,0.29366077,0.00042984,-0.00104708,0.00039896,-0.0015627
 5,-0.00090289,0.00085072,-0.00167459,0.00398983,-0.00130961,-0.0002446
 8,0.00056406,0.00003905,0.00048130,0.00003466,-0.00012076,0.00000380,0
 .00000653,-0.00011814,-0.00000012,0.00000484,-0.00003554,0.00036975,-0
 .00029911,0.00060665,0.00017720,-0.00045184,-0.00016211,0.00068261,-0.
 00158307,-0.00069218,-0.00026234,-0.00015819,0.00009279,0.00009588,0.0
 0017465,-0.00004336,-0.03210545,-0.00546368,-0.00427569,0.00684557,-0.
 05159946,0.00045429,-0.00162132,0.00095355,-0.00186284,-0.00030629,0.0
 0098907,-0.00020493,-0.00054798,-0.00355864,-0.00081568,0.00442167,0.0
 5621052,-0.00000365,0.00077817,-0.00022517,0.00061196,-0.00015123,-0.0
 0033045,-0.00008423,-0.00101136,0.00096536,0.00010205,-0.00011300,-0.0
 0005090,-0.00025413,0.00000021,0.00003283,0.00002303,0.00002436,0.0000
 1898,0.00000496,-0.00000309,0.00001345,0.00019127,0.00026378,-0.000241
 05,-0.00067668,-0.00026851,0.00006784,0.00044580,-0.00022719,0.0002970
 0,0.00006030,-0.00021436,0.00005952,-0.00001339,0.00011281,-0.00003977
 ,0.01889366,0.00134197,0.00483848,-0.09536188,-0.00011104,-0.08862295,
 -0.03176610,0.00106276,-0.01473274,0.00110613,-0.00034273,-0.00679006,
 0.00052253,0.00225436,0.00011567,0.09643097,-0.00420169,0.09801588,0.0
 0004478,0.00029491,-0.00011678,0.00043192,-0.00139320,0.00061421,-0.00
 254473,-0.00142504,-0.00013894,-0.00042203,0.00029508,0.00015478,0.000
 18860,0.00005514,-0.00007361,0.00001971,0.00000999,-0.00004369,0.00000
 968,-0.00007877,-0.00000184,0.00033051,-0.00010568,0.00019335,-0.00016
 802,0.00023718,0.00010904,0.00036829,-0.00024161,-0.00024698,-0.000081
 53,-0.00017145,0.00006465,0.00002010,0.00011303,-0.00003368,0.00852012
 ,-0.02329890,-0.00257145,-0.11025595,0.10803748,0.03645804,0.00054202,
 -0.00030056,-0.00077602,0.00065532,-0.00063335,0.00030853,0.00085767,0
 .00010841,-0.00032769,-0.01261501,0.02526088,0.00927257,0.11290597,-0.
 00033015,0.00030651,-0.00004296,0.00125031,-0.00192091,0.00023010,-0.0
 0514219,-0.00037557,-0.00065151,-0.00046251,0.00021424,0.00026053,0.00
 005569,-0.00016142,-0.00000493,0.00000070,0.00001212,-0.00001180,0.000
 02761,-0.00011492,0.00002046,0.00014213,0.00004311,-0.00004219,0.00001
 626,0.00012027,0.00000441,-0.00000768,0.00003832,0.00000233,-0.0004308
 1,0.00007294,0.00008015,0.00020583,0.00002507,-0.00005028,0.01062289,-
 0.03100607,-0.00050495,0.09879017,-0.22955788,-0.06617857,0.00097811,0
 .00081814,-0.00142015,-0.00021554,0.00007360,0.00001177,0.00036112,0.0
 0067478,0.00024753,0.00038417,0.00185070,0.00063096,-0.10641039,0.2572
 4427,0.00010385,-0.00012917,-0.00002216,-0.00060062,0.00084187,0.00000
 380,0.00180548,0.00185902,0.00006257,0.00016962,0.00003805,-0.00014531
 ,0.00001018,0.00009778,-0.00001167,0.00000315,-0.00000503,-0.00001640,
 -0.00001042,0.00006251,-0.00002193,-0.00000800,0.00000232,0.00008280,0
 .00006307,0.00023999,0.00001990,0.00005059,-0.00014684,-0.00021339,0.0
 0025954,-0.00001021,-0.00007459,-0.00013187,-0.00002517,0.00007050,-0.
 00686792,0.01720082,0.00247990,0.03796577,-0.07047722,-0.07254803,0.01
 674344,-0.02857024,-0.01220648,-0.00058282,0.00001336,0.00158723,-0.00
 030621,-0.00055717,0.00050151,-0.00539333,0.01087739,0.00392223,-0.043
 17770,0.06759330,0.08223694,-0.00329536,0.00134905,0.00039345,0.003249
 26,0.00107174,-0.00088073,-0.00092321,-0.00082995,0.00019822,0.0011769
 5,0.00171715,-0.00079086,-0.00463667,0.00196152,0.00087738,-0.00318800
 ,0.00252845,0.00006008,-0.00008687,0.00005104,-0.00000196,-0.01320764,
 0.04928983,-0.00488791,-0.00564410,-0.00286453,0.00261083,0.00005941,0
 .00047807,-0.00000186,-0.15376332,0.10587468,-0.00721566,0.03385789,-0
 .05457292,0.01111898,-0.00094021,0.00232723,-0.00017254,-0.00073695,-0
 .00106299,0.00042277,0.00018212,0.00023139,-0.00002391,-0.00001289,-0.
 00003747,0.00002003,-0.00016113,-0.00020352,-0.00000574,0.00014246,0.0
 0004749,-0.00005807,0.00000833,0.00017041,-0.00009740,0.14793871,0.003
 69576,-0.00156340,-0.00045152,-0.00344569,0.00215504,0.00036138,0.0020
 2895,0.00139409,-0.00089046,0.00318567,-0.00248338,-0.00024942,-0.0099
 3515,-0.00337127,0.00333512,0.00215402,0.00203544,-0.00101256,0.000175
 55,-0.00020652,0.00000354,0.03915166,-0.03954714,0.00478682,0.00216095
 ,0.00455996,-0.00092320,-0.00129034,0.00149103,0.00007452,0.09318130,-
 0.50131221,0.08066248,-0.02408458,-0.08710480,0.03234436,0.00014560,-0
 .00096384,0.00007580,0.00013502,0.00059199,-0.00035002,-0.00006000,-0.
 00006981,0.00004704,0.00008413,-0.00000620,-0.00000670,0.00035851,0.00
 053296,-0.00020175,-0.00004741,0.00003888,0.00017628,0.00006495,-0.000
 12248,0.00005901,-0.10757293,0.62401629,-0.00013018,0.00006451,-0.0000
 0589,0.00016984,-0.00067249,0.00053013,-0.00036033,-0.00025552,-0.0002
 9377,-0.00115279,0.00007903,-0.00037163,0.00373101,0.00069743,0.000463
 67,0.00017312,-0.00106454,0.00004299,-0.00003077,0.00002807,-0.0000404
 1,-0.00244819,0.00234788,0.01719597,0.00141053,0.00031576,0.00261343,0
 .00041665,-0.00034445,0.00053081,-0.00421673,0.07783885,-0.09164597,0.
 00385829,0.03917079,0.01522723,0.00008163,-0.00038620,-0.00034974,0.00
 014214,0.00012941,0.00000198,-0.00002272,-0.00004121,-0.00000357,-0.00
 001159,0.00000527,-0.00000038,-0.00010122,-0.00010920,-0.00014053,-0.0
 0001496,-0.00002560,-0.00003002,-0.00002444,-0.00000796,0.00001047,-0.
 00148180,-0.11778121,0.05623756,-0.00001906,0.00009436,0.00006321,-0.0
 0003761,-0.00029255,0.00008636,-0.00032886,0.00097665,0.00009688,0.000
 00963,0.00009856,-0.00004762,0.00002300,-0.00010088,0.00002517,0.00000
 041,0.00000964,0.00000211,-0.00000325,0.00000037,-0.00001030,0.0000304
 2,0.00003289,-0.00002278,0.00014447,-0.00019084,-0.00005860,0.00006400
 ,0.00005525,0.00001093,-0.00010579,0.00004238,0.00001095,0.00004038,-0
 .00000157,-0.00001082,0.00164224,-0.00074556,0.00094832,-0.00158656,0.
 00026435,-0.00082754,-0.11734915,-0.10741905,0.04587802,-0.01372138,-0
 .02389331,0.01128567,0.00002928,0.00010372,-0.00059854,0.00021683,0.00
 014075,0.00030383,-0.00002601,0.00008951,0.00013637,0.00004457,-0.0000
 4759,0.00000152,0.12252602,-0.00005962,-0.00002565,0.00003469,0.000042
 15,0.00001068,-0.00004593,-0.00015662,0.00084027,-0.00049295,0.0000050
 7,0.00004995,0.00002057,-0.00000092,-0.00005162,-0.00001011,-0.0000083
 6,0.00000328,0.00000364,0.00000144,0.00000387,-0.00000092,0.00004911,0
 .00002473,-0.00001246,0.00009165,0.00008705,-0.00005646,-0.00017445,-0
 .00009896,0.00001524,-0.00032118,0.00003964,0.00005626,0.00016526,0.00
 003081,-0.00003943,0.00013953,0.00085978,0.00020527,0.00171813,0.00089
 712,-0.00182965,-0.10737113,-0.21520858,0.07177916,0.00164956,0.001571
 13,-0.00156141,0.00017695,0.00004582,0.00008268,0.00017379,0.00016327,
 0.00044764,0.00002189,0.00033037,0.00053601,0.00010915,-0.00005107,-0.
 00001093,0.11818123,0.23026506,0.00023462,-0.00003575,0.00006348,0.000
 15649,0.00130323,-0.00016185,0.00164229,-0.00345200,-0.00048983,0.0002
 0263,-0.00039450,0.00013646,-0.00018820,0.00028217,-0.00004163,0.00000
 298,-0.00002426,-0.00001054,-0.00000816,0.00001531,-0.00001640,-0.0000
 6089,-0.00006358,0.00007796,-0.00058998,0.00027568,0.00025606,-0.00001
 987,0.00001977,-0.00010568,0.00040827,-0.00001948,-0.00009486,-0.00020
 435,-0.00005488,0.00007060,0.00068902,0.00340784,-0.00792639,0.0165317
 8,0.02637615,-0.00653705,0.04490045,0.07032851,-0.07934242,-0.00561709
 ,-0.01125928,0.00448588,-0.00028642,0.00022345,-0.00073673,-0.00075876
 ,0.00018286,0.00114111,0.00039710,-0.00052586,0.00116558,-0.00015551,0
 .00007453,0.00001965,-0.05066560,-0.07860174,0.08465031,0.00003157,-0.
 00001505,-0.00005103,-0.00016165,-0.00016609,0.00016568,0.00012435,-0.
 00001174,0.00022837,-0.00004629,0.00003559,-0.00001833,0.00009185,-0.0
 0000295,-0.00000514,0.00000385,-0.00000303,0.00001220,-0.00000511,0.00
 000199,0.00000271,-0.00012024,-0.00007457,-0.00000877,0.00009470,0.000
 05955,-0.00020246,0.00012599,0.00013575,-0.00014953,0.00024928,0.00008
 968,-0.00006327,-0.00012880,-0.00008671,0.00006328,-0.00028663,0.00027
 775,-0.00030193,-0.00037073,-0.00064556,0.00049357,-0.10568651,0.10221
 548,0.03733796,-0.01268475,0.02573338,0.01001137,-0.00003887,0.0001040
 8,-0.00000704,0.00044927,-0.00063124,0.00024906,0.00121025,-0.00009565
 ,-0.00013475,-0.00006334,-0.00003839,0.00001099,0.00840641,-0.01443263
 ,-0.00661081,0.10880540,-0.00011019,0.00005715,0.00000861,0.00014507,0
 .00036496,-0.00016983,0.00033653,-0.00061193,0.00005159,0.00011356,-0.
 00013021,0.00002630,-0.00011146,-0.00000238,0.00000670,-0.00000516,-0.
 00000891,-0.00001130,-0.00000021,0.00001218,0.00001005,-0.00008728,0.0
 0007124,0.00005546,0.00026716,-0.00016171,0.00042786,-0.00007661,0.000
 02666,-0.00003569,0.00022152,0.00007740,-0.00007560,-0.00011196,-0.000
 08013,0.00007240,-0.00023541,0.00175458,-0.00045445,-0.00113758,-0.000
 20272,0.00065644,0.10216206,-0.23409893,-0.06948450,-0.00080776,0.0003
 3678,0.00083889,-0.00005110,-0.00004922,-0.00002614,-0.00016036,0.0000
 8342,-0.00044910,-0.00044000,0.00143482,0.00049962,-0.00006287,-0.0000
 1356,0.00002230,0.01260169,-0.01978695,-0.00805816,-0.11244964,0.25092
 748,-0.00022646,-0.00001516,0.00008933,0.00034662,0.00062069,-0.000329
 34,0.00056182,-0.00045752,0.00009020,0.00010003,-0.00020929,0.00000277
 ,-0.00019111,-0.00004188,0.00001004,-0.00002115,-0.00001515,0.00001009
 ,-0.00000049,0.00000856,-0.00000241,-0.00013575,0.00024695,0.00002351,
 0.00000402,0.00040094,-0.00018076,-0.00049218,0.00002099,-0.00034859,-
 0.00012062,0.00021677,-0.00000921,0.00007540,-0.00010875,0.00002695,-0
 .00098699,0.00055305,0.00295375,0.01611135,-0.03117192,-0.01173307,0.0
 3768278,-0.06758763,-0.07318156,-0.00496673,0.01144163,0.00387391,0.00
 001041,-0.00006268,-0.00007770,-0.00015409,0.00036544,0.00157477,-0.00
 003944,0.00035961,-0.00688346,0.00007222,-0.00013405,0.00000799,-0.006
 60754,0.00948082,0.00339629,-0.04102212,0.07608856,0.08068650\\0.00000
 784,-0.00000130,-0.00000224,-0.00000584,0.00001343,0.00000091,0.000005
 83,-0.00000984,-0.00000122,0.00001171,-0.00001278,0.00000331,-0.000006
 03,0.00000417,-0.00000732,0.00000480,-0.00000309,0.00000026,-0.0000016
 3,-0.00000247,-0.00000071,0.00000515,0.00000012,-0.00000154,-0.0000027
 1,-0.00000020,0.00000130,-0.00000020,0.00000149,-0.00000176,-0.0000115
 2,0.00000246,-0.00000086,0.00000900,-0.00000159,-0.00000493,-0.0000021
 6,0.00000883,0.00000183,-0.00001311,-0.00001053,-0.00000444,-0.0000061
 5,-0.00000437,0.00000817,-0.00000449,-0.00000121,0.00000133,-0.0000035
 4,0.00000170,0.00000469,0.00000561,-0.00000133,0.00000666,-0.00000218,
 0.00000608,0.00000487,0.00000960,0.00000187,-0.00000607,-0.00000075,0.
 00000795,0.00000118,0.00000079,0.00000063,-0.00000342\\\@


 ADVERTISING--  HE WHO HAS SOMETHING TO SELL AND GOES AND WHISPERS
                IN A WELL, IS NOT SO APT TO GET THE DOLLARS AS HE
                WHO CLIMBS A TREE AND HOLLERS.

                   -- FROM THE BACK OF A SUGAR PACKET
 Job cpu time:       0 days  0 hours 18 minutes 29.7 seconds.
 File lengths (MBytes):  RWF=    150 Int=      0 D2E=      0 Chk=      6 Scr=      1
 Normal termination of Gaussian 09 at Fri Aug 20 16:04:46 2021.
