 Entering Gaussian System, Link 0=g09
 Input=B3LYP6-31G.JERVUY.gjf
 Output=B3LYP6-31G.JERVUY.log
 Initial command:
 /public/home/users/caep010/software/Gaussian09/g09/l1.exe "/public/home/users/caep010/.cache/gau_scr/Gau-197442.inp" -scrdir="/public/home/users/caep010/.cache/gau_scr/"
 Entering Link 1 = /public/home/users/caep010/software/Gaussian09/g09/l1.exe PID=    197443.
  
 Copyright (c) 1988,1990,1992,1993,1995,1998,2003,2009,2015,
            Gaussian, Inc.  All Rights Reserved.
  
 This is part of the Gaussian(R) 09 program.  It is based on
 the Gaussian(R) 03 system (copyright 2003, Gaussian, Inc.),
 the Gaussian(R) 98 system (copyright 1998, Gaussian, Inc.),
 the Gaussian(R) 94 system (copyright 1995, Gaussian, Inc.),
 the Gaussian 92(TM) system (copyright 1992, Gaussian, Inc.),
 the Gaussian 90(TM) system (copyright 1990, Gaussian, Inc.),
 the Gaussian 88(TM) system (copyright 1988, Gaussian, Inc.),
 the Gaussian 86(TM) system (copyright 1986, Carnegie Mellon
 University), and the Gaussian 82(TM) system (copyright 1983,
 Carnegie Mellon University). Gaussian is a federally registered
 trademark of Gaussian, Inc.
  
 This software contains proprietary and confidential information,
 including trade secrets, belonging to Gaussian, Inc.
  
 This software is provided under written license and may be
 used, copied, transmitted, or stored only in accord with that
 written license.
  
 The following legend is applicable only to US Government
 contracts under FAR:
  
                    RESTRICTED RIGHTS LEGEND
  
 Use, reproduction and disclosure by the US Government is
 subject to restrictions as set forth in subparagraphs (a)
 and (c) of the Commercial Computer Software - Restricted
 Rights clause in FAR 52.227-19.
  
 Gaussian, Inc.
 340 Quinnipiac St., Bldg. 40, Wallingford CT 06492
  
  
 ---------------------------------------------------------------
 Warning -- This program may not be used in any manner that
 competes with the business of Gaussian, Inc. or will provide
 assistance to any competitor of Gaussian, Inc.  The licensee
 of this program is prohibited from giving any competitor of
 Gaussian, Inc. access to this program.  By using this program,
 the user acknowledges that Gaussian, Inc. is engaged in the
 business of creating and licensing software in the field of
 computational chemistry and represents and warrants to the
 licensee that it is not a competitor of Gaussian, Inc. and that
 it will not use this program in any manner prohibited above.
 ---------------------------------------------------------------
  

 Cite this work as:
 Gaussian 09, Revision E.01,
 M. J. Frisch, G. W. Trucks, H. B. Schlegel, G. E. Scuseria, 
 M. A. Robb, J. R. Cheeseman, G. Scalmani, V. Barone, B. Mennucci, 
 G. A. Petersson, H. Nakatsuji, M. Caricato, X. Li, H. P. Hratchian, 
 A. F. Izmaylov, J. Bloino, G. Zheng, J. L. Sonnenberg, M. Hada, 
 M. Ehara, K. Toyota, R. Fukuda, J. Hasegawa, M. Ishida, T. Nakajima, 
 Y. Honda, O. Kitao, H. Nakai, T. Vreven, J. A. Montgomery, Jr., 
 J. E. Peralta, F. Ogliaro, M. Bearpark, J. J. Heyd, E. Brothers, 
 K. N. Kudin, V. N. Staroverov, T. Keith, R. Kobayashi, J. Normand, 
 K. Raghavachari, A. Rendell, J. C. Burant, S. S. Iyengar, J. Tomasi, 
 M. Cossi, N. Rega, J. M. Millam, M. Klene, J. E. Knox, J. B. Cross, 
 V. Bakken, C. Adamo, J. Jaramillo, R. Gomperts, R. E. Stratmann, 
 O. Yazyev, A. J. Austin, R. Cammi, C. Pomelli, J. W. Ochterski, 
 R. L. Martin, K. Morokuma, V. G. Zakrzewski, G. A. Voth, 
 P. Salvador, J. J. Dannenberg, S. Dapprich, A. D. Daniels, 
 O. Farkas, J. B. Foresman, J. V. Ortiz, J. Cioslowski, 
 and D. J. Fox, Gaussian, Inc., Wallingford CT, 2013.
 
 ******************************************
 Gaussian 09:  ES64L-G09RevE.01 30-Nov-2015
                20-Aug-2021 
 ******************************************
 %nproc=32
 Will use up to   32 processors via shared memory.
 %mem=180GB
 -------------------------
 #P OPT Freq B3LYP/6-31G**
 -------------------------
 1/14=-1,18=20,19=15,26=3,38=1/1,3;
 2/9=110,12=2,17=6,18=5,40=1/2;
 3/5=1,6=6,7=101,11=2,16=1,25=1,30=1,71=1,74=-5/1,2,3;
 4//1;
 5/5=2,38=5/2;
 6/7=2,8=2,9=2,10=2,28=1/1;
 7//1,2,3,16;
 1/14=-1,18=20,19=15,26=3/3(2);
 2/9=110/2;
 99//99;
 2/9=110/2;
 3/5=1,6=6,7=101,11=2,16=1,25=1,30=1,71=1,74=-5/1,2,3;
 4/5=5,16=3,69=1/1;
 5/5=2,38=5/2;
 7//1,2,3,16;
 1/14=-1,18=20,19=15,26=3/3(-5);
 2/9=110/2;
 6/7=2,8=2,9=2,10=2,19=2,28=1/1;
 99/9=1/99;
 Leave Link    1 at Fri Aug 20 15:56:01 2021, MaxMem= 24159191040 cpu:         2.6
 (Enter /public/home/users/caep010/software/Gaussian09/g09/l101.exe)
 ------
 JERVUY
 ------
 Symbolic Z-matrix:
 Charge =  0 Multiplicity = 1
 N                     5.6797    1.3278    4.4383 
 C                     4.7512    1.3963    5.4763 
 H                     6.2205    0.6601    4.447 
 O                     4.7778    0.5599    6.3686 
 C                     3.8457    2.5266    5.3203 
 N                     2.7919    2.7357    6.3112 
 O                     2.823     2.1199    7.3567 
 C                     3.9521    3.4189    4.2966 
 O                     1.9236    3.5557    6.0473 
 H                     3.3601    4.1329    4.2283 
 C                     4.9601    3.2464    3.3556 
 N                     5.1003    4.1473    2.2327 
 O                     4.3313    5.0868    2.1345 
 O                     5.9796    3.9007    1.4133 
 C                     5.8118    2.1903    3.4405 
 H                     6.4808    2.0727    2.8047 
 
 NAtoms=     16 NQM=       16 NQMF=       0 NMMI=      0 NMMIF=      0
                NMic=       0 NMicF=      0.
                    Isotopes and Nuclear Properties:
 (Nuclear quadrupole moments (NQMom) in fm**2, nuclear magnetic moments (NMagM)
  in nuclear magnetons)

  Atom         1           2           3           4           5           6           7           8           9          10
 IAtWgt=          14          12           1          16          12          14          16          12          16           1
 AtmWgt=  14.0030740  12.0000000   1.0078250  15.9949146  12.0000000  14.0030740  15.9949146  12.0000000  15.9949146   1.0078250
 NucSpn=           2           0           1           0           0           2           0           0           0           1
 AtZEff=   0.0000000   0.0000000   0.0000000   0.0000000   0.0000000   0.0000000   0.0000000   0.0000000   0.0000000   0.0000000
 NQMom=    2.0440000   0.0000000   0.0000000   0.0000000   0.0000000   2.0440000   0.0000000   0.0000000   0.0000000   0.0000000
 NMagM=    0.4037610   0.0000000   2.7928460   0.0000000   0.0000000   0.4037610   0.0000000   0.0000000   0.0000000   2.7928460
 AtZNuc=   7.0000000   6.0000000   1.0000000   8.0000000   6.0000000   7.0000000   8.0000000   6.0000000   8.0000000   1.0000000

  Atom        11          12          13          14          15          16
 IAtWgt=          12          14          16          16          12           1
 AtmWgt=  12.0000000  14.0030740  15.9949146  15.9949146  12.0000000   1.0078250
 NucSpn=           0           2           0           0           0           1
 AtZEff=   0.0000000   0.0000000   0.0000000   0.0000000   0.0000000   0.0000000
 NQMom=    0.0000000   2.0440000   0.0000000   0.0000000   0.0000000   0.0000000
 NMagM=    0.0000000   0.4037610   0.0000000   0.0000000   0.0000000   2.7928460
 AtZNuc=   6.0000000   7.0000000   8.0000000   8.0000000   6.0000000   1.0000000
 Leave Link  101 at Fri Aug 20 15:56:01 2021, MaxMem= 24159191040 cpu:        10.5
 (Enter /public/home/users/caep010/software/Gaussian09/g09/l103.exe)

 GradGradGradGradGradGradGradGradGradGradGradGradGradGradGradGradGradGrad
 Berny optimization.
 Initialization pass.
                           ----------------------------
                           !    Initial Parameters    !
                           ! (Angstroms and Degrees)  !
 --------------------------                            --------------------------
 ! Name  Definition              Value          Derivative Info.                !
 --------------------------------------------------------------------------------
 ! R1    R(1,2)                  1.3944         estimate D2E/DX2                !
 ! R2    R(1,3)                  0.8593         estimate D2E/DX2                !
 ! R3    R(1,15)                 1.3255         estimate D2E/DX2                !
 ! R4    R(2,4)                  1.2233         estimate D2E/DX2                !
 ! R5    R(2,5)                  1.4567         estimate D2E/DX2                !
 ! R6    R(5,6)                  1.4615         estimate D2E/DX2                !
 ! R7    R(5,8)                  1.3622         estimate D2E/DX2                !
 ! R8    R(6,7)                  1.2138         estimate D2E/DX2                !
 ! R9    R(6,9)                  1.2231         estimate D2E/DX2                !
 ! R10   R(8,10)                 0.93           estimate D2E/DX2                !
 ! R11   R(8,11)                 1.3897         estimate D2E/DX2                !
 ! R12   R(11,12)                1.4464         estimate D2E/DX2                !
 ! R13   R(11,15)                1.3594         estimate D2E/DX2                !
 ! R14   R(12,13)                1.2181         estimate D2E/DX2                !
 ! R15   R(12,14)                1.2269         estimate D2E/DX2                !
 ! R16   R(15,16)                0.9304         estimate D2E/DX2                !
 ! A1    A(2,1,3)              116.7261         estimate D2E/DX2                !
 ! A2    A(2,1,15)             126.4968         estimate D2E/DX2                !
 ! A3    A(3,1,15)             116.777          estimate D2E/DX2                !
 ! A4    A(1,2,4)              119.6651         estimate D2E/DX2                !
 ! A5    A(1,2,5)              111.8598         estimate D2E/DX2                !
 ! A6    A(4,2,5)              128.4749         estimate D2E/DX2                !
 ! A7    A(2,5,6)              119.1183         estimate D2E/DX2                !
 ! A8    A(2,5,8)              122.6991         estimate D2E/DX2                !
 ! A9    A(6,5,8)              118.1722         estimate D2E/DX2                !
 ! A10   A(5,6,7)              119.5334         estimate D2E/DX2                !
 ! A11   A(5,6,9)              117.4837         estimate D2E/DX2                !
 ! A12   A(7,6,9)              122.9683         estimate D2E/DX2                !
 ! A13   A(5,8,10)             120.5561         estimate D2E/DX2                !
 ! A14   A(5,8,11)             118.9613         estimate D2E/DX2                !
 ! A15   A(10,8,11)            120.4826         estimate D2E/DX2                !
 ! A16   A(8,11,12)            121.2421         estimate D2E/DX2                !
 ! A17   A(8,11,15)            120.5696         estimate D2E/DX2                !
 ! A18   A(12,11,15)           118.1405         estimate D2E/DX2                !
 ! A19   A(11,12,13)           118.8028         estimate D2E/DX2                !
 ! A20   A(11,12,14)           117.5639         estimate D2E/DX2                !
 ! A21   A(13,12,14)           123.6165         estimate D2E/DX2                !
 ! A22   A(1,15,11)            119.3467         estimate D2E/DX2                !
 ! A23   A(1,15,16)            120.2538         estimate D2E/DX2                !
 ! A24   A(11,15,16)           120.3994         estimate D2E/DX2                !
 ! D1    D(3,1,2,4)              3.1404         estimate D2E/DX2                !
 ! D2    D(3,1,2,5)           -177.0115         estimate D2E/DX2                !
 ! D3    D(15,1,2,4)          -176.8027         estimate D2E/DX2                !
 ! D4    D(15,1,2,5)             3.0454         estimate D2E/DX2                !
 ! D5    D(2,1,15,11)           -1.8182         estimate D2E/DX2                !
 ! D6    D(2,1,15,16)          178.2283         estimate D2E/DX2                !
 ! D7    D(3,1,15,11)          178.2388         estimate D2E/DX2                !
 ! D8    D(3,1,15,16)           -1.7147         estimate D2E/DX2                !
 ! D9    D(1,2,5,6)            178.9921         estimate D2E/DX2                !
 ! D10   D(1,2,5,8)             -2.2024         estimate D2E/DX2                !
 ! D11   D(4,2,5,6)             -1.1765         estimate D2E/DX2                !
 ! D12   D(4,2,5,8)            177.6291         estimate D2E/DX2                !
 ! D13   D(2,5,6,7)             12.6287         estimate D2E/DX2                !
 ! D14   D(2,5,6,9)           -168.7231         estimate D2E/DX2                !
 ! D15   D(8,5,6,7)           -166.2311         estimate D2E/DX2                !
 ! D16   D(8,5,6,9)             12.4171         estimate D2E/DX2                !
 ! D17   D(2,5,8,10)          -179.6696         estimate D2E/DX2                !
 ! D18   D(2,5,8,11)             0.288          estimate D2E/DX2                !
 ! D19   D(6,5,8,10)            -0.8533         estimate D2E/DX2                !
 ! D20   D(6,5,8,11)           179.1044         estimate D2E/DX2                !
 ! D21   D(5,8,11,12)          178.6381         estimate D2E/DX2                !
 ! D22   D(5,8,11,15)            1.1996         estimate D2E/DX2                !
 ! D23   D(10,8,11,12)          -1.4042         estimate D2E/DX2                !
 ! D24   D(10,8,11,15)        -178.8428         estimate D2E/DX2                !
 ! D25   D(8,11,12,13)           1.4692         estimate D2E/DX2                !
 ! D26   D(8,11,12,14)        -177.0942         estimate D2E/DX2                !
 ! D27   D(15,11,12,13)        178.9681         estimate D2E/DX2                !
 ! D28   D(15,11,12,14)          0.4047         estimate D2E/DX2                !
 ! D29   D(8,11,15,1)           -0.5285         estimate D2E/DX2                !
 ! D30   D(8,11,15,16)         179.4249         estimate D2E/DX2                !
 ! D31   D(12,11,15,1)        -178.0449         estimate D2E/DX2                !
 ! D32   D(12,11,15,16)          1.9085         estimate D2E/DX2                !
 --------------------------------------------------------------------------------
 Trust Radius=3.00D-01 FncErr=1.00D-07 GrdErr=1.00D-06
 Number of steps in this run=     82 maximum allowed number of steps=    100.
 GradGradGradGradGradGradGradGradGradGradGradGradGradGradGradGradGradGrad

 Leave Link  103 at Fri Aug 20 15:56:01 2021, MaxMem= 24159191040 cpu:         0.5
 (Enter /public/home/users/caep010/software/Gaussian09/g09/l202.exe)
                          Input orientation:                          
 ---------------------------------------------------------------------
 Center     Atomic      Atomic             Coordinates (Angstroms)
 Number     Number       Type             X           Y           Z
 ---------------------------------------------------------------------
      1          7           0        5.679700    1.327800    4.438300
      2          6           0        4.751200    1.396300    5.476300
      3          1           0        6.220500    0.660100    4.447000
      4          8           0        4.777800    0.559900    6.368600
      5          6           0        3.845700    2.526600    5.320300
      6          7           0        2.791900    2.735700    6.311200
      7          8           0        2.823000    2.119900    7.356700
      8          6           0        3.952100    3.418900    4.296600
      9          8           0        1.923600    3.555700    6.047300
     10          1           0        3.360100    4.132900    4.228300
     11          6           0        4.960100    3.246400    3.355600
     12          7           0        5.100300    4.147300    2.232700
     13          8           0        4.331300    5.086800    2.134500
     14          8           0        5.979600    3.900700    1.413300
     15          6           0        5.811800    2.190300    3.440500
     16          1           0        6.480800    2.072700    2.804700
 ---------------------------------------------------------------------
                    Distance matrix (angstroms):
                    1          2          3          4          5
     1  N    0.000000
     2  C    1.394363   0.000000
     3  H    0.859281   1.939147   0.000000
     4  O    2.264763   1.223304   2.404989   0.000000
     5  C    2.361906   1.456655   3.144225   2.415709   0.000000
     6  N    3.718780   2.515931   4.420255   2.946387   1.461540
     7  O    4.159954   2.788809   4.705356   2.689086   2.314788
     8  C    2.716133   2.474099   3.574806   3.626134   1.362161
     9  O    4.654106   3.603383   5.422989   4.150242   2.298270
    10  H    3.645988   3.313856   4.504449   4.399669   2.002117
    11  C    2.317561   2.822034   3.077127   4.040877   2.370664
    12  N    3.626287   4.267413   4.280016   5.484443   3.705936
    13  O    4.610397   4.996372   5.339701   6.214482   4.115793
    14  O    3.982509   4.928383   4.445543   6.095922   4.659005
    15  C    1.325504   2.428948   1.876590   3.507297   2.740857
    16  H    1.966033   3.253687   2.181821   4.229676   3.671242
                    6          7          8          9         10
     6  N    0.000000
     7  O    1.213774   0.000000
     8  C    2.423105   3.510909   0.000000
     9  O    1.223106   2.141254   2.682998   0.000000
    10  H    2.571671   3.758661   0.930013   2.388609   0.000000
    11  C    3.701010   4.673863   1.389713   4.069551   2.026694
    12  N    4.894434   5.962535   2.471561   4.999259   2.647815
    13  O    5.034108   6.192644   2.756875   4.842653   2.497429
    14  O    5.958866   6.961277   3.557570   6.167991   3.852262
    15  C    4.202163   4.926916   2.387645   4.876251   3.225702
    16  H    5.132552   5.839729   3.229914   5.786347   4.001228
                   11         12         13         14         15
    11  C    0.000000
    12  N    1.446437   0.000000
    13  O    2.296420   1.218058   0.000000
    14  O    2.289109   1.226946   2.154961   0.000000
    15  C    1.359393   2.407252   3.505314   2.657662   0.000000
    16  H    1.998397   2.556742   3.762222   2.351336   0.930394
                   16
    16  H    0.000000
 Stoichiometry    C5H3N3O5
 Framework group  C1[X(C5H3N3O5)]
 Deg. of freedom    42
 Full point group                 C1      NOp   1
 Largest Abelian subgroup         C1      NOp   1
 Largest concise Abelian subgroup C1      NOp   1
                         Standard orientation:                         
 ---------------------------------------------------------------------
 Center     Atomic      Atomic             Coordinates (Angstroms)
 Number     Number       Type             X           Y           Z
 ---------------------------------------------------------------------
      1          7           0        0.005272    1.974537   -0.057364
      2          6           0        1.215573    1.282715   -0.029013
      3          1           0        0.050877    2.831124   -0.107801
      4          8           0        2.268621    1.905153   -0.017459
      5          6           0        1.015365   -0.160032   -0.013442
      6          7           0        2.182323   -1.039948   -0.005802
      7          8           0        3.280811   -0.574955    0.218592
      8          6           0       -0.220899   -0.731106    0.018285
      9          8           0        1.992032   -2.231609   -0.205103
     10          1           0       -0.314099   -1.656334    0.032113
     11          6           0       -1.341603    0.090584    0.030582
     12          7           0       -2.677839   -0.463165    0.034693
     13          8           0       -2.811367   -1.673720    0.054524
     14          8           0       -3.618494    0.323355   -0.009461
     15          6           0       -1.208050    1.442691   -0.013218
     16          1           0       -1.960195    1.990332   -0.012915
 ---------------------------------------------------------------------
 Rotational constants (GHZ):      1.5308813      0.5638674      0.4131604
 Leave Link  202 at Fri Aug 20 15:56:01 2021, MaxMem= 24159191040 cpu:         0.9
 (Enter /public/home/users/caep010/software/Gaussian09/g09/l301.exe)
 Standard basis: 6-31G(d,p) (6D, 7F)
 Ernie: Thresh=  0.10000D-02 Tol=  0.10000D-05 Strict=F.
 There are   210 symmetry adapted cartesian basis functions of A   symmetry.
 There are   210 symmetry adapted basis functions of A   symmetry.
   210 basis functions,   385 primitive gaussians,   210 cartesian basis functions
    47 alpha electrons       47 beta electrons
       nuclear repulsion energy       789.7021725065 Hartrees.
 IExCor=  402 DFT=T Ex+Corr=B3LYP ExCW=0 ScaHFX=  0.200000
 ScaDFX=  0.800000  0.720000  1.000000  0.810000 ScalE2=  1.000000  1.000000
 IRadAn=      0 IRanWt=     -1 IRanGd=            0 ICorTp=0 IEmpDi=  4
 NAtoms=   16 NActive=   16 NUniq=   16 SFac= 1.00D+00 NAtFMM=   60 NAOKFM=F Big=F
 Integral buffers will be    131072 words long.
 Raffenetti 2 integral format.
 Two-electron integral symmetry is turned on.
 Leave Link  301 at Fri Aug 20 15:56:02 2021, MaxMem= 24159191040 cpu:         1.9
 (Enter /public/home/users/caep010/software/Gaussian09/g09/l302.exe)
 NPDir=0 NMtPBC=     1 NCelOv=     1 NCel=       1 NClECP=     1 NCelD=      1
         NCelK=      1 NCelE2=     1 NClLst=     1 CellRange=     0.0.
 One-electron integrals computed using PRISM.
 NBasis=   210 RedAO= T EigKep=  4.99D-04  NBF=   210
 NBsUse=   210 1.00D-06 EigRej= -1.00D+00 NBFU=   210
 Precomputing XC quadrature grid using
 IXCGrd= 4 IRadAn=           0 IRanWt=          -1 IRanGd=           0 AccXCQ= 0.00D+00.
 Generated NRdTot=       0 NPtTot=           0 NUsed=           0 NTot=          32
 NSgBfM=   209   209   209   209   209 MxSgAt=    16 MxSgA2=    16.
 Leave Link  302 at Fri Aug 20 15:56:02 2021, MaxMem= 24159191040 cpu:        11.8
 (Enter /public/home/users/caep010/software/Gaussian09/g09/l303.exe)
 DipDrv:  MaxL=1.
 Leave Link  303 at Fri Aug 20 15:56:02 2021, MaxMem= 24159191040 cpu:         0.7
 (Enter /public/home/users/caep010/software/Gaussian09/g09/l401.exe)
 ExpMin= 1.61D-01 ExpMax= 5.48D+03 ExpMxC= 8.25D+02 IAcc=1 IRadAn=         1 AccDes= 0.00D+00
 Harris functional with IExCor=  402 and IRadAn=       1 diagonalized for initial guess.
 HarFok:  IExCor=  402 AccDes= 0.00D+00 IRadAn=         1 IDoV= 1 UseB2=F ITyADJ=14
 ICtDFT=  3500011 ScaDFX=  1.000000  1.000000  1.000000  1.000000
 FoFCou: FMM=F IPFlag=           0 FMFlag=      100000 FMFlg1=           0
         NFxFlg=           0 DoJE=T BraDBF=F KetDBF=T FulRan=T
         wScrn=  0.000000 ICntrl=     500 IOpCl=  0 I1Cent=   200000004 NGrid=           0
         NMat0=    1 NMatS0=      1 NMatT0=    0 NMatD0=    1 NMtDS0=    0 NMtDT0=    0
 Petite list used in FoFCou.
 Harris En= -732.502688741367    
 JPrj=0 DoOrth=F DoCkMO=F.
 Leave Link  401 at Fri Aug 20 15:56:02 2021, MaxMem= 24159191040 cpu:        11.8
 (Enter /public/home/users/caep010/software/Gaussian09/g09/l502.exe)
 Closed shell SCF:
 Using DIIS extrapolation, IDIIS=  1040.
 Integral symmetry usage will be decided dynamically.
 Keep R1 ints in memory in canonical form, NReq=250289083.
 IVT=      159133 IEndB=      159133 NGot= 24159191040 MDV= 23913598818
 LenX= 23913598818 LenY= 23913554277
 Requested convergence on RMS density matrix=1.00D-08 within 128 cycles.
 Requested convergence on MAX density matrix=1.00D-06.
 Requested convergence on             energy=1.00D-06.
 No special actions if energy rises.
 FoFCou: FMM=F IPFlag=           0 FMFlag=           0 FMFlg1=           0
         NFxFlg=           0 DoJE=F BraDBF=F KetDBF=F FulRan=T
         wScrn=  0.000000 ICntrl=     600 IOpCl=  0 I1Cent=           0 NGrid=           0
         NMat0=    1 NMatS0=  22155 NMatT0=    0 NMatD0=    1 NMtDS0=    0 NMtDT0=    0
 Symmetry not used in FoFCou.
 Integral accuracy reduced to 1.0D-05 until final iterations.

 Cycle   1  Pass 0  IDiag  1:
 E= -731.991387987649    
 DIIS: error= 4.67D-02 at cycle   1 NSaved=   1.
 NSaved= 1 IEnMin= 1 EnMin= -731.991387987649     IErMin= 1 ErrMin= 4.67D-02
 ErrMax= 4.67D-02  0.00D+00 EMaxC= 1.00D-01 BMatC= 5.98D-01 BMatP= 5.98D-01
 IDIUse=3 WtCom= 5.33D-01 WtEn= 4.67D-01
 Coeff-Com:  0.100D+01
 Coeff-En:   0.100D+01
 Coeff:      0.100D+01
 Gap=     0.146 Goal=   None    Shift=    0.000
 GapD=    0.146 DampG=1.000 DampE=0.500 DampFc=0.5000 IDamp=-1.
 Damping current iteration by 5.00D-01
 RMSDP=9.86D-03 MaxDP=3.43D-01              OVMax= 3.91D-01

 Cycle   2  Pass 0  IDiag  1:
 E= -732.000703529655     Delta-E=       -0.009315542006 Rises=F Damp=T
 DIIS: error= 1.84D-02 at cycle   2 NSaved=   2.
 NSaved= 2 IEnMin= 2 EnMin= -732.000703529655     IErMin= 2 ErrMin= 1.84D-02
 ErrMax= 1.84D-02  0.00D+00 EMaxC= 1.00D-01 BMatC= 1.72D-01 BMatP= 5.98D-01
 IDIUse=3 WtCom= 8.16D-01 WtEn= 1.84D-01
 Coeff-Com:  0.326D+00 0.674D+00
 Coeff-En:   0.492D+00 0.508D+00
 Coeff:      0.357D+00 0.643D+00
 Gap=     0.179 Goal=   None    Shift=    0.000
 RMSDP=3.04D-03 MaxDP=1.21D-01 DE=-9.32D-03 OVMax= 2.74D-01

 Cycle   3  Pass 0  IDiag  1:
 E= -732.397014198796     Delta-E=       -0.396310669141 Rises=F Damp=F
 DIIS: error= 1.15D-02 at cycle   3 NSaved=   3.
 NSaved= 3 IEnMin= 3 EnMin= -732.397014198796     IErMin= 3 ErrMin= 1.15D-02
 ErrMax= 1.15D-02  0.00D+00 EMaxC= 1.00D-01 BMatC= 4.09D-02 BMatP= 1.72D-01
 IDIUse=3 WtCom= 8.85D-01 WtEn= 1.15D-01
 Coeff-Com:  0.161D+00 0.338D+00 0.501D+00
 Coeff-En:   0.000D+00 0.000D+00 0.100D+01
 Coeff:      0.143D+00 0.299D+00 0.559D+00
 Gap=     0.165 Goal=   None    Shift=    0.000
 RMSDP=1.69D-03 MaxDP=6.24D-02 DE=-3.96D-01 OVMax= 1.23D-01

 Cycle   4  Pass 0  IDiag  1:
 E= -732.413483314885     Delta-E=       -0.016469116089 Rises=F Damp=F
 DIIS: error= 7.68D-03 at cycle   4 NSaved=   4.
 NSaved= 4 IEnMin= 4 EnMin= -732.413483314885     IErMin= 4 ErrMin= 7.68D-03
 ErrMax= 7.68D-03  0.00D+00 EMaxC= 1.00D-01 BMatC= 2.59D-02 BMatP= 4.09D-02
 IDIUse=3 WtCom= 9.23D-01 WtEn= 7.68D-02
 Coeff-Com:  0.556D-01 0.988D-01 0.413D+00 0.433D+00
 Coeff-En:   0.000D+00 0.000D+00 0.387D+00 0.613D+00
 Coeff:      0.513D-01 0.912D-01 0.411D+00 0.447D+00
 Gap=     0.163 Goal=   None    Shift=    0.000
 RMSDP=9.02D-04 MaxDP=3.12D-02 DE=-1.65D-02 OVMax= 6.78D-02

 Cycle   5  Pass 0  IDiag  1:
 E= -732.431714009856     Delta-E=       -0.018230694971 Rises=F Damp=F
 DIIS: error= 3.92D-03 at cycle   5 NSaved=   5.
 NSaved= 5 IEnMin= 5 EnMin= -732.431714009856     IErMin= 5 ErrMin= 3.92D-03
 ErrMax= 3.92D-03  0.00D+00 EMaxC= 1.00D-01 BMatC= 3.60D-03 BMatP= 2.59D-02
 IDIUse=3 WtCom= 9.61D-01 WtEn= 3.92D-02
 Coeff-Com:  0.209D-01 0.251D-01 0.232D+00 0.322D+00 0.400D+00
 Coeff-En:   0.000D+00 0.000D+00 0.000D+00 0.110D+00 0.890D+00
 Coeff:      0.201D-01 0.241D-01 0.223D+00 0.314D+00 0.419D+00
 Gap=     0.159 Goal=   None    Shift=    0.000
 RMSDP=3.36D-04 MaxDP=1.74D-02 DE=-1.82D-02 OVMax= 3.81D-02

 Cycle   6  Pass 0  IDiag  1:
 E= -732.434088248932     Delta-E=       -0.002374239076 Rises=F Damp=F
 DIIS: error= 1.90D-03 at cycle   6 NSaved=   6.
 NSaved= 6 IEnMin= 6 EnMin= -732.434088248932     IErMin= 6 ErrMin= 1.90D-03
 ErrMax= 1.90D-03  0.00D+00 EMaxC= 1.00D-01 BMatC= 7.50D-04 BMatP= 3.60D-03
 IDIUse=3 WtCom= 9.81D-01 WtEn= 1.90D-02
 Coeff-Com:  0.474D-02-0.232D-02 0.875D-01 0.149D+00 0.325D+00 0.436D+00
 Coeff-En:   0.000D+00 0.000D+00 0.000D+00 0.000D+00 0.209D+00 0.791D+00
 Coeff:      0.465D-02-0.228D-02 0.859D-01 0.147D+00 0.323D+00 0.443D+00
 Gap=     0.158 Goal=   None    Shift=    0.000
 RMSDP=1.27D-04 MaxDP=6.02D-03 DE=-2.37D-03 OVMax= 1.31D-02

 Cycle   7  Pass 0  IDiag  1:
 E= -732.434637250413     Delta-E=       -0.000549001481 Rises=F Damp=F
 DIIS: error= 2.97D-04 at cycle   7 NSaved=   7.
 NSaved= 7 IEnMin= 7 EnMin= -732.434637250413     IErMin= 7 ErrMin= 2.97D-04
 ErrMax= 2.97D-04  0.00D+00 EMaxC= 1.00D-01 BMatC= 4.45D-05 BMatP= 7.50D-04
 IDIUse=3 WtCom= 9.97D-01 WtEn= 2.97D-03
 Coeff-Com:  0.953D-03-0.334D-02 0.307D-01 0.563D-01 0.154D+00 0.275D+00
 Coeff-Com:  0.487D+00
 Coeff-En:   0.000D+00 0.000D+00 0.000D+00 0.000D+00 0.000D+00 0.162D-01
 Coeff-En:   0.984D+00
 Coeff:      0.950D-03-0.333D-02 0.306D-01 0.561D-01 0.154D+00 0.274D+00
 Coeff:      0.488D+00
 Gap=     0.158 Goal=   None    Shift=    0.000
 RMSDP=3.55D-05 MaxDP=1.02D-03 DE=-5.49D-04 OVMax= 1.69D-03

 Cycle   8  Pass 0  IDiag  1:
 E= -732.434671502517     Delta-E=       -0.000034252104 Rises=F Damp=F
 DIIS: error= 1.45D-04 at cycle   8 NSaved=   8.
 NSaved= 8 IEnMin= 8 EnMin= -732.434671502517     IErMin= 8 ErrMin= 1.45D-04
 ErrMax= 1.45D-04  0.00D+00 EMaxC= 1.00D-01 BMatC= 2.79D-06 BMatP= 4.45D-05
 IDIUse=3 WtCom= 9.99D-01 WtEn= 1.45D-03
 Coeff-Com:  0.110D-03-0.167D-02 0.867D-02 0.161D-01 0.540D-01 0.111D+00
 Coeff-Com:  0.264D+00 0.548D+00
 Coeff-En:   0.000D+00 0.000D+00 0.000D+00 0.000D+00 0.000D+00 0.000D+00
 Coeff-En:   0.000D+00 0.100D+01
 Coeff:      0.110D-03-0.167D-02 0.866D-02 0.161D-01 0.539D-01 0.111D+00
 Coeff:      0.263D+00 0.549D+00
 Gap=     0.158 Goal=   None    Shift=    0.000
 RMSDP=1.12D-05 MaxDP=4.57D-04 DE=-3.43D-05 OVMax= 9.75D-04

 Cycle   9  Pass 0  IDiag  1:
 E= -732.434672857360     Delta-E=       -0.000001354843 Rises=F Damp=F
 DIIS: error= 1.68D-04 at cycle   9 NSaved=   9.
 NSaved= 9 IEnMin= 9 EnMin= -732.434672857360     IErMin= 8 ErrMin= 1.45D-04
 ErrMax= 1.68D-04  0.00D+00 EMaxC= 1.00D-01 BMatC= 1.46D-06 BMatP= 2.79D-06
 IDIUse=3 WtCom= 9.99D-01 WtEn= 1.45D-03
 Coeff-Com: -0.439D-04-0.908D-03 0.277D-02 0.499D-02 0.214D-01 0.499D-01
 Coeff-Com:  0.138D+00 0.427D+00 0.356D+00
 Coeff-En:   0.000D+00 0.000D+00 0.000D+00 0.000D+00 0.000D+00 0.000D+00
 Coeff-En:   0.000D+00 0.339D+00 0.661D+00
 Coeff:     -0.438D-04-0.907D-03 0.277D-02 0.498D-02 0.214D-01 0.499D-01
 Coeff:      0.138D+00 0.427D+00 0.357D+00
 Gap=     0.158 Goal=   None    Shift=    0.000
 RMSDP=5.61D-06 MaxDP=3.30D-04 DE=-1.35D-06 OVMax= 6.55D-04

 Initial convergence to 1.0D-05 achieved.  Increase integral accuracy.
 Cycle  10  Pass 1  IDiag  1:
 E= -732.434765090881     Delta-E=       -0.000092233520 Rises=F Damp=F
 DIIS: error= 3.45D-05 at cycle   1 NSaved=   1.
 NSaved= 1 IEnMin= 1 EnMin= -732.434765090881     IErMin= 1 ErrMin= 3.45D-05
 ErrMax= 3.45D-05  0.00D+00 EMaxC= 1.00D-01 BMatC= 1.96D-07 BMatP= 1.96D-07
 IDIUse=1 WtCom= 1.00D+00 WtEn= 0.00D+00
 Coeff-Com:  0.100D+01
 Coeff:      0.100D+01
 Gap=     0.158 Goal=   None    Shift=    0.000
 RMSDP=5.61D-06 MaxDP=3.30D-04 DE=-9.22D-05 OVMax= 4.75D-04

 Cycle  11  Pass 1  IDiag  1:
 E= -732.434764731873     Delta-E=        0.000000359008 Rises=F Damp=F
 DIIS: error= 1.08D-04 at cycle   2 NSaved=   2.
 NSaved= 2 IEnMin= 1 EnMin= -732.434765090881     IErMin= 1 ErrMin= 3.45D-05
 ErrMax= 1.08D-04  0.00D+00 EMaxC= 1.00D-01 BMatC= 6.78D-07 BMatP= 1.96D-07
 IDIUse=3 WtCom= 4.90D-01 WtEn= 5.10D-01
 Coeff-Com:  0.676D+00 0.324D+00
 Coeff-En:   0.745D+00 0.255D+00
 Coeff:      0.711D+00 0.289D+00
 Gap=     0.158 Goal=   None    Shift=    0.000
 RMSDP=3.68D-06 MaxDP=1.97D-04 DE= 3.59D-07 OVMax= 4.25D-04

 Cycle  12  Pass 1  IDiag  1:
 E= -732.434765254580     Delta-E=       -0.000000522708 Rises=F Damp=F
 DIIS: error= 1.88D-05 at cycle   3 NSaved=   3.
 NSaved= 3 IEnMin= 3 EnMin= -732.434765254580     IErMin= 3 ErrMin= 1.88D-05
 ErrMax= 1.88D-05  0.00D+00 EMaxC= 1.00D-01 BMatC= 2.03D-08 BMatP= 1.96D-07
 IDIUse=1 WtCom= 1.00D+00 WtEn= 0.00D+00
 Coeff-Com:  0.127D+00 0.141D+00 0.732D+00
 Coeff:      0.127D+00 0.141D+00 0.732D+00
 Gap=     0.158 Goal=   None    Shift=    0.000
 RMSDP=1.18D-06 MaxDP=4.31D-05 DE=-5.23D-07 OVMax= 8.90D-05

 Cycle  13  Pass 1  IDiag  1:
 E= -732.434765253894     Delta-E=        0.000000000686 Rises=F Damp=F
 DIIS: error= 1.03D-05 at cycle   4 NSaved=   4.
 NSaved= 4 IEnMin= 3 EnMin= -732.434765254580     IErMin= 4 ErrMin= 1.03D-05
 ErrMax= 1.03D-05  0.00D+00 EMaxC= 1.00D-01 BMatC= 1.99D-08 BMatP= 2.03D-08
 IDIUse=1 WtCom= 1.00D+00 WtEn= 0.00D+00
 Coeff-Com: -0.597D-02 0.576D-01 0.543D+00 0.405D+00
 Coeff:     -0.597D-02 0.576D-01 0.543D+00 0.405D+00
 Gap=     0.158 Goal=   None    Shift=    0.000
 RMSDP=6.99D-07 MaxDP=2.46D-05 DE= 6.86D-10 OVMax= 4.20D-05

 Cycle  14  Pass 1  IDiag  1:
 E= -732.434765271393     Delta-E=       -0.000000017498 Rises=F Damp=F
 DIIS: error= 1.05D-06 at cycle   5 NSaved=   5.
 NSaved= 5 IEnMin= 5 EnMin= -732.434765271393     IErMin= 5 ErrMin= 1.05D-06
 ErrMax= 1.05D-06  0.00D+00 EMaxC= 1.00D-01 BMatC= 6.04D-10 BMatP= 1.99D-08
 IDIUse=1 WtCom= 1.00D+00 WtEn= 0.00D+00
 Coeff-Com: -0.103D-01 0.276D-01 0.284D+00 0.238D+00 0.461D+00
 Coeff:     -0.103D-01 0.276D-01 0.284D+00 0.238D+00 0.461D+00
 Gap=     0.158 Goal=   None    Shift=    0.000
 RMSDP=1.42D-07 MaxDP=5.36D-06 DE=-1.75D-08 OVMax= 8.55D-06

 Cycle  15  Pass 1  IDiag  1:
 E= -732.434765271786     Delta-E=       -0.000000000393 Rises=F Damp=F
 DIIS: error= 5.79D-07 at cycle   6 NSaved=   6.
 NSaved= 6 IEnMin= 6 EnMin= -732.434765271786     IErMin= 6 ErrMin= 5.79D-07
 ErrMax= 5.79D-07  0.00D+00 EMaxC= 1.00D-01 BMatC= 1.03D-10 BMatP= 6.04D-10
 IDIUse=1 WtCom= 1.00D+00 WtEn= 0.00D+00
 Coeff-Com: -0.628D-02 0.133D-01 0.138D+00 0.119D+00 0.316D+00 0.420D+00
 Coeff:     -0.628D-02 0.133D-01 0.138D+00 0.119D+00 0.316D+00 0.420D+00
 Gap=     0.158 Goal=   None    Shift=    0.000
 RMSDP=5.50D-08 MaxDP=2.56D-06 DE=-3.93D-10 OVMax= 5.64D-06

 Cycle  16  Pass 1  IDiag  1:
 E= -732.434765271859     Delta-E=       -0.000000000073 Rises=F Damp=F
 DIIS: error= 2.51D-07 at cycle   7 NSaved=   7.
 NSaved= 7 IEnMin= 7 EnMin= -732.434765271859     IErMin= 7 ErrMin= 2.51D-07
 ErrMax= 2.51D-07  0.00D+00 EMaxC= 1.00D-01 BMatC= 1.57D-11 BMatP= 1.03D-10
 IDIUse=1 WtCom= 1.00D+00 WtEn= 0.00D+00
 Coeff-Com: -0.274D-02 0.503D-02 0.505D-01 0.429D-01 0.147D+00 0.302D+00
 Coeff-Com:  0.455D+00
 Coeff:     -0.274D-02 0.503D-02 0.505D-01 0.429D-01 0.147D+00 0.302D+00
 Coeff:      0.455D+00
 Gap=     0.158 Goal=   None    Shift=    0.000
 RMSDP=2.20D-08 MaxDP=1.07D-06 DE=-7.25D-11 OVMax= 2.26D-06

 Cycle  17  Pass 1  IDiag  1:
 E= -732.434765271872     Delta-E=       -0.000000000014 Rises=F Damp=F
 DIIS: error= 1.01D-07 at cycle   8 NSaved=   8.
 NSaved= 8 IEnMin= 8 EnMin= -732.434765271872     IErMin= 8 ErrMin= 1.01D-07
 ErrMax= 1.01D-07  0.00D+00 EMaxC= 1.00D-01 BMatC= 3.74D-12 BMatP= 1.57D-11
 IDIUse=1 WtCom= 1.00D+00 WtEn= 0.00D+00
 Coeff-Com: -0.109D-03-0.175D-03-0.420D-02-0.528D-02 0.162D-01 0.113D+00
 Coeff-Com:  0.359D+00 0.522D+00
 Coeff:     -0.109D-03-0.175D-03-0.420D-02-0.528D-02 0.162D-01 0.113D+00
 Coeff:      0.359D+00 0.522D+00
 Gap=     0.158 Goal=   None    Shift=    0.000
 RMSDP=1.18D-08 MaxDP=4.11D-07 DE=-1.36D-11 OVMax= 8.65D-07

 Cycle  18  Pass 1  IDiag  1:
 E= -732.434765271877     Delta-E=       -0.000000000004 Rises=F Damp=F
 DIIS: error= 2.65D-08 at cycle   9 NSaved=   9.
 NSaved= 9 IEnMin= 9 EnMin= -732.434765271877     IErMin= 9 ErrMin= 2.65D-08
 ErrMax= 2.65D-08  0.00D+00 EMaxC= 1.00D-01 BMatC= 3.35D-13 BMatP= 3.74D-12
 IDIUse=1 WtCom= 1.00D+00 WtEn= 0.00D+00
 Coeff-Com:  0.193D-03-0.603D-03-0.772D-02-0.794D-02-0.423D-02 0.368D-01
 Coeff-Com:  0.162D+00 0.322D+00 0.499D+00
 Coeff:      0.193D-03-0.603D-03-0.772D-02-0.794D-02-0.423D-02 0.368D-01
 Coeff:      0.162D+00 0.322D+00 0.499D+00
 Gap=     0.158 Goal=   None    Shift=    0.000
 RMSDP=3.56D-09 MaxDP=1.14D-07 DE=-4.32D-12 OVMax= 2.58D-07

 SCF Done:  E(RB3LYP) =  -732.434765272     A.U. after   18 cycles
            NFock= 18  Conv=0.36D-08     -V/T= 2.0069
 KE= 7.274362432592D+02 PE=-3.293294390565D+03 EE= 1.043721209527D+03
 Leave Link  502 at Fri Aug 20 15:56:12 2021, MaxMem= 24159191040 cpu:        97.6
 (Enter /public/home/users/caep010/software/Gaussian09/g09/l601.exe)
 Copying SCF densities to generalized density rwf, IOpCl= 0 IROHF=0.

 **********************************************************************

            Population analysis using the SCF density.

 **********************************************************************

 Orbital symmetries:
       Occupied  (A) (A) (A) (A) (A) (A) (A) (A) (A) (A) (A) (A)
                 (A) (A) (A) (A) (A) (A) (A) (A) (A) (A) (A) (A)
                 (A) (A) (A) (A) (A) (A) (A) (A) (A) (A) (A) (A)
                 (A) (A) (A) (A) (A) (A) (A) (A) (A) (A) (A)
       Virtual   (A) (A) (A) (A) (A) (A) (A) (A) (A) (A) (A) (A)
                 (A) (A) (A) (A) (A) (A) (A) (A) (A) (A) (A) (A)
                 (A) (A) (A) (A) (A) (A) (A) (A) (A) (A) (A) (A)
                 (A) (A) (A) (A) (A) (A) (A) (A) (A) (A) (A) (A)
                 (A) (A) (A) (A) (A) (A) (A) (A) (A) (A) (A) (A)
                 (A) (A) (A) (A) (A) (A) (A) (A) (A) (A) (A) (A)
                 (A) (A) (A) (A) (A) (A) (A) (A) (A) (A) (A) (A)
                 (A) (A) (A) (A) (A) (A) (A) (A) (A) (A) (A) (A)
                 (A) (A) (A) (A) (A) (A) (A) (A) (A) (A) (A) (A)
                 (A) (A) (A) (A) (A) (A) (A) (A) (A) (A) (A) (A)
                 (A) (A) (A) (A) (A) (A) (A) (A) (A) (A) (A) (A)
                 (A) (A) (A) (A) (A) (A) (A) (A) (A) (A) (A) (A)
                 (A) (A) (A) (A) (A) (A) (A) (A) (A) (A) (A) (A)
                 (A) (A) (A) (A) (A) (A) (A)
 The electronic state is 1-A.
 Alpha  occ. eigenvalues --  -19.21017 -19.20613 -19.19110 -19.18786 -19.16106
 Alpha  occ. eigenvalues --  -14.60534 -14.58923 -14.45172 -10.35008 -10.31001
 Alpha  occ. eigenvalues --  -10.29221 -10.29107 -10.26590  -1.26368  -1.24883
 Alpha  occ. eigenvalues --   -1.10518  -1.08516  -1.06789  -1.03846  -0.92527
 Alpha  occ. eigenvalues --   -0.87100  -0.78208  -0.76133  -0.74361  -0.63606
 Alpha  occ. eigenvalues --   -0.62900  -0.59260  -0.58812  -0.57085  -0.56559
 Alpha  occ. eigenvalues --   -0.55358  -0.54676  -0.53345  -0.50646  -0.50368
 Alpha  occ. eigenvalues --   -0.47994  -0.45356  -0.40344  -0.37777  -0.34303
 Alpha  occ. eigenvalues --   -0.33715  -0.33265  -0.31956  -0.31837  -0.30674
 Alpha  occ. eigenvalues --   -0.28728  -0.28364
 Alpha virt. eigenvalues --   -0.12588  -0.11139  -0.05618  -0.01072   0.05753
 Alpha virt. eigenvalues --    0.10247   0.10665   0.12912   0.14845   0.17530
 Alpha virt. eigenvalues --    0.18368   0.22992   0.24678   0.25078   0.26124
 Alpha virt. eigenvalues --    0.29750   0.30765   0.34891   0.37761   0.38236
 Alpha virt. eigenvalues --    0.43268   0.43636   0.45870   0.48697   0.51182
 Alpha virt. eigenvalues --    0.52553   0.53249   0.55517   0.57090   0.59822
 Alpha virt. eigenvalues --    0.60051   0.61784   0.63121   0.66862   0.67084
 Alpha virt. eigenvalues --    0.69856   0.72461   0.73933   0.75415   0.75937
 Alpha virt. eigenvalues --    0.77822   0.78687   0.81257   0.82972   0.85171
 Alpha virt. eigenvalues --    0.87309   0.88427   0.90342   0.91146   0.91965
 Alpha virt. eigenvalues --    0.94773   0.95419   0.96126   0.97351   0.98327
 Alpha virt. eigenvalues --    0.98894   1.00636   1.01587   1.02690   1.05818
 Alpha virt. eigenvalues --    1.07770   1.14473   1.15580   1.18664   1.19970
 Alpha virt. eigenvalues --    1.21326   1.22060   1.25547   1.27488   1.28973
 Alpha virt. eigenvalues --    1.30256   1.32854   1.34164   1.36280   1.38147
 Alpha virt. eigenvalues --    1.38568   1.41732   1.42763   1.48996   1.54218
 Alpha virt. eigenvalues --    1.61098   1.63744   1.65166   1.67029   1.67475
 Alpha virt. eigenvalues --    1.69826   1.71819   1.74185   1.75397   1.76423
 Alpha virt. eigenvalues --    1.77874   1.78350   1.80819   1.81892   1.83289
 Alpha virt. eigenvalues --    1.85530   1.86073   1.87673   1.90132   1.91585
 Alpha virt. eigenvalues --    1.92070   1.95173   1.97976   2.03389   2.04045
 Alpha virt. eigenvalues --    2.06630   2.09372   2.09691   2.10558   2.12919
 Alpha virt. eigenvalues --    2.16179   2.20568   2.23774   2.24753   2.32278
 Alpha virt. eigenvalues --    2.36703   2.40559   2.42632   2.43835   2.44937
 Alpha virt. eigenvalues --    2.46189   2.47594   2.49810   2.53807   2.55662
 Alpha virt. eigenvalues --    2.60072   2.62227   2.65358   2.67079   2.69159
 Alpha virt. eigenvalues --    2.70574   2.71568   2.76870   2.83835   2.84200
 Alpha virt. eigenvalues --    2.86400   2.87447   2.89199   2.92042   2.92701
 Alpha virt. eigenvalues --    2.98546   3.02535   3.09624   3.17951   3.26242
 Alpha virt. eigenvalues --    3.30734   3.54129   3.65088   3.67977   3.76796
 Alpha virt. eigenvalues --    3.78379   3.86317   3.93629   3.95349   3.99842
 Alpha virt. eigenvalues --    4.04363   4.07016   4.11768   4.20854   4.27996
 Alpha virt. eigenvalues --    4.39225   4.65522   4.87585
          Condensed to atoms (all electrons):
               1          2          3          4          5          6
     1  N    6.895801   0.201299   0.370043  -0.099318  -0.086275   0.002549
     2  C    0.201299   4.544195  -0.013479   0.615937   0.196584  -0.031862
     3  H    0.370043  -0.013479   0.409447   0.008163   0.013505  -0.000049
     4  O   -0.099318   0.615937   0.008163   8.024633  -0.090905  -0.002069
     5  C   -0.086275   0.196584   0.013505  -0.090905   5.528789   0.156520
     6  N    0.002549  -0.031862  -0.000049  -0.002069   0.156520   5.925700
     7  O    0.000032  -0.002687   0.000020  -0.009142  -0.080242   0.306798
     8  C   -0.034286  -0.048785  -0.001241   0.004179   0.392667  -0.037757
     9  O   -0.000036   0.004485   0.000001  -0.000011  -0.107697   0.308298
    10  H   -0.001031   0.007058   0.000034  -0.000030  -0.034907  -0.014643
    11  C    0.010632  -0.034645   0.005584  -0.000170   0.007467   0.004094
    12  N    0.003076   0.000169  -0.000051   0.000000   0.004476  -0.000046
    13  O   -0.000026  -0.000005   0.000002  -0.000000   0.001612  -0.000003
    14  O    0.000772   0.000009   0.000009   0.000000   0.000003   0.000000
    15  C    0.281623  -0.022183  -0.032757   0.003303  -0.040165   0.000375
    16  H   -0.042101   0.003769  -0.009225  -0.000104  -0.001417   0.000004
               7          8          9         10         11         12
     1  N    0.000032  -0.034286  -0.000036  -0.001031   0.010632   0.003076
     2  C   -0.002687  -0.048785   0.004485   0.007058  -0.034645   0.000169
     3  H    0.000020  -0.001241   0.000001   0.000034   0.005584  -0.000051
     4  O   -0.009142   0.004179  -0.000011  -0.000030  -0.000170   0.000000
     5  C   -0.080242   0.392667  -0.107697  -0.034907   0.007467   0.004476
     6  N    0.306798  -0.037757   0.308298  -0.014643   0.004094  -0.000046
     7  O    8.237649   0.007189  -0.109367   0.000360   0.000037   0.000000
     8  C    0.007189   5.051625   0.000012   0.352890   0.358277  -0.031153
     9  O   -0.109367   0.000012   8.275384   0.023990   0.001797  -0.000003
    10  H    0.000360   0.352890   0.023990   0.544752  -0.030271  -0.014832
    11  C    0.000037   0.358277   0.001797  -0.030271   5.113764   0.165824
    12  N    0.000000  -0.031153  -0.000003  -0.014832   0.165824   5.949849
    13  O   -0.000000   0.000110   0.000001   0.019141  -0.099846   0.303225
    14  O   -0.000000   0.007657  -0.000000   0.000216  -0.102895   0.294843
    15  C   -0.000007  -0.099510  -0.000013   0.010812   0.471609  -0.039670
    16  H   -0.000000   0.009255  -0.000000  -0.000221  -0.027907  -0.015937
              13         14         15         16
     1  N   -0.000026   0.000772   0.281623  -0.042101
     2  C   -0.000005   0.000009  -0.022183   0.003769
     3  H    0.000002   0.000009  -0.032757  -0.009225
     4  O   -0.000000   0.000000   0.003303  -0.000104
     5  C    0.001612   0.000003  -0.040165  -0.001417
     6  N   -0.000003   0.000000   0.000375   0.000004
     7  O   -0.000000  -0.000000  -0.000007  -0.000000
     8  C    0.000110   0.007657  -0.099510   0.009255
     9  O    0.000001  -0.000000  -0.000013  -0.000000
    10  H    0.019141   0.000216   0.010812  -0.000221
    11  C   -0.099846  -0.102895   0.471609  -0.027907
    12  N    0.303225   0.294843  -0.039670  -0.015937
    13  O    8.257452  -0.108335   0.008485   0.000337
    14  O   -0.108335   8.285413  -0.002593   0.028877
    15  C    0.008485  -0.002593   4.858356   0.361474
    16  H    0.000337   0.028877   0.361474   0.537875
 Mulliken charges:
               1
     1  N   -0.502754
     2  C    0.580142
     3  H    0.249995
     4  O   -0.454467
     5  C    0.139983
     6  N    0.382092
     7  O   -0.350639
     8  C    0.068871
     9  O   -0.396841
    10  H    0.136682
    11  C    0.156648
    12  N    0.380230
    13  O   -0.382150
    14  O   -0.403975
    15  C    0.240862
    16  H    0.155320
 Sum of Mulliken charges =  -0.00000
 Mulliken charges with hydrogens summed into heavy atoms:
               1
     1  N   -0.252759
     2  C    0.580142
     4  O   -0.454467
     5  C    0.139983
     6  N    0.382092
     7  O   -0.350639
     8  C    0.205553
     9  O   -0.396841
    11  C    0.156648
    12  N    0.380230
    13  O   -0.382150
    14  O   -0.403975
    15  C    0.396182
 Electronic spatial extent (au):  <R**2>=           2396.6930
 Charge=             -0.0000 electrons
 Dipole moment (field-independent basis, Debye):
    X=             -2.9874    Y=              4.1767    Z=             -0.0757  Tot=              5.1357
 Quadrupole moment (field-independent basis, Debye-Ang):
   XX=            -99.6702   YY=            -69.6761   ZZ=            -67.5962
   XY=             -5.9777   XZ=             -0.4966   YZ=             -0.9493
 Traceless Quadrupole moment (field-independent basis, Debye-Ang):
   XX=            -20.6894   YY=              9.3047   ZZ=             11.3846
   XY=             -5.9777   XZ=             -0.4966   YZ=             -0.9493
 Octapole moment (field-independent basis, Debye-Ang**2):
  XXX=              4.6431  YYY=             35.5768  ZZZ=              0.1422  XYY=            -20.5733
  XXY=              4.4814  XXZ=             -2.2945  XZZ=              0.7053  YZZ=             -2.8889
  YYZ=              0.5096  XYZ=             -1.1716
 Hexadecapole moment (field-independent basis, Debye-Ang**3):
 XXXX=          -2316.7409 YYYY=           -733.8808 ZZZZ=            -58.7694 XXXY=            -26.3525
 XXXZ=             -9.5465 YYYX=            -25.1095 YYYZ=             -6.9765 ZZZX=              0.3377
 ZZZY=              0.0240 XXYY=           -522.5341 XXZZ=           -316.4094 YYZZ=           -136.7022
 XXYZ=              0.2616 YYXZ=              4.2323 ZZXY=              1.0101
 N-N= 7.897021725065D+02 E-N=-3.293294390031D+03  KE= 7.274362432592D+02
 No NMR shielding tensors so no spin-rotation constants.
 Leave Link  601 at Fri Aug 20 15:56:13 2021, MaxMem= 24159191040 cpu:        11.8
 (Enter /public/home/users/caep010/software/Gaussian09/g09/l701.exe)
 Compute integral first derivatives.
 ... and contract with generalized density number  0.
 Leave Link  701 at Fri Aug 20 15:56:13 2021, MaxMem= 24159191040 cpu:        10.6
 (Enter /public/home/users/caep010/software/Gaussian09/g09/l702.exe)
 L702 exits ... SP integral derivatives will be done elsewhere.
 Leave Link  702 at Fri Aug 20 15:56:13 2021, MaxMem= 24159191040 cpu:         0.5
 (Enter /public/home/users/caep010/software/Gaussian09/g09/l703.exe)
 Compute integral first derivatives, UseDBF=F ICtDFT=           0.
 Integral derivatives from FoFJK, PRISM(SPDF).
 Calling FoFJK, ICntrl=      2127 FMM=F ISym2X=0 I1Cent= 0 IOpClX= 0 NMat=1 NMatS=1 NMatT=0.
 FoFJK:  IHMeth= 1 ICntrl=    2127 DoSepK=F KAlg= 0 I1Cent=   0 FoldK=F
 IRaf=         0 NMat=   1 IRICut=       1 DoRegI=T DoRafI=F ISym2E= 0.
 FoFCou: FMM=F IPFlag=           0 FMFlag=      100000 FMFlg1=         800
         NFxFlg=           0 DoJE=F BraDBF=F KetDBF=F FulRan=T
         wScrn=  0.000000 ICntrl=    2127 IOpCl=  0 I1Cent=           0 NGrid=           0
         NMat0=    1 NMatS0=      1 NMatT0=    0 NMatD0=    1 NMtDS0=    0 NMtDT0=    0
 Symmetry not used in FoFCou.
 Leave Link  703 at Fri Aug 20 15:56:14 2021, MaxMem= 24159191040 cpu:        25.3
 (Enter /public/home/users/caep010/software/Gaussian09/g09/l716.exe)
 Dipole        =-1.17531539D+00 1.64324524D+00-2.98018992D-02
 ***** Axes restored to original set *****
 -------------------------------------------------------------------
 Center     Atomic                   Forces (Hartrees/Bohr)
 Number     Number              X              Y              Z
 -------------------------------------------------------------------
      1        7          -0.124204069    0.161557673   -0.011166058
      2        6          -0.011323143   -0.011190049    0.029230599
      3        1           0.141525344   -0.179621092    0.010299476
      4        8           0.002286340    0.004012718   -0.011282338
      5        6          -0.001385296   -0.000136924    0.002686800
      6        7          -0.002973557    0.003303424    0.003442216
      7        8           0.008325938   -0.013632558    0.012253650
      8        6           0.091564557   -0.121960288    0.022282953
      9        8          -0.008847865    0.014424299   -0.014776090
     10        1          -0.109291323    0.130504612   -0.011803532
     11        6           0.004674314    0.004454100   -0.010784501
     12        7           0.002948459   -0.001078306   -0.006857811
     13        8          -0.014115434    0.010821380    0.007630944
     14        8           0.011978113   -0.007032755   -0.004100649
     15        6          -0.114037372    0.031627529    0.096844276
     16        1           0.122874994   -0.026053764   -0.113899935
 -------------------------------------------------------------------
 Cartesian Forces:  Max     0.179621092 RMS     0.064881635
 Leave Link  716 at Fri Aug 20 15:56:14 2021, MaxMem= 24159191040 cpu:         0.7
 (Enter /public/home/users/caep010/software/Gaussian09/g09/l103.exe)

 GradGradGradGradGradGradGradGradGradGradGradGradGradGradGradGradGradGrad
 Berny optimization.
 FormGI is forming the generalized inverse of G from B-inverse, IUseBI=4.
 Internal  Forces:  Max     0.228748742 RMS     0.039865412
 Search for a local minimum.
 Step number   1 out of a maximum of   82
 All quantities printed in internal units (Hartrees-Bohrs-Radians)
 RMS Force = .39865D-01 SwitMx=.10000D-02 MixMth= 1
 Mixed Optimization -- RFO/linear search
 Second derivative matrix not updated -- first step.
 ITU=  0
     Eigenvalues ---    0.00878   0.00882   0.01078   0.01082   0.01514
     Eigenvalues ---    0.01654   0.01771   0.02049   0.02220   0.02329
     Eigenvalues ---    0.02400   0.02530   0.02652   0.16000   0.16000
     Eigenvalues ---    0.16000   0.22338   0.23491   0.24567   0.24976
     Eigenvalues ---    0.24995   0.25000   0.25000   0.25000   0.25000
     Eigenvalues ---    0.25000   0.36393   0.36772   0.38715   0.43636
     Eigenvalues ---    0.46999   0.49780   0.52270   0.58986   0.62362
     Eigenvalues ---    0.62457   0.84292   0.92371   0.93934   0.94020
     Eigenvalues ---    0.96249   0.98196
 RFO step:  Lambda=-1.36595288D-01 EMin= 8.77720062D-03
 Linear search not attempted -- first point.
 Maximum step size (   0.300) exceeded in Quadratic search.
    -- Step size scaled by   0.732
 Iteration  1 RMS(Cart)=  0.04225961 RMS(Int)=  0.00037470
 Iteration  2 RMS(Cart)=  0.00041528 RMS(Int)=  0.00001021
 Iteration  3 RMS(Cart)=  0.00000027 RMS(Int)=  0.00001021
 ITry= 1 IFail=0 DXMaxC= 1.63D-01 DCOld= 1.00D+10 DXMaxT= 3.00D-01 DXLimC= 3.00D+00 Rises=F
 Variable       Old X    -DE/DX   Delta X   Delta X   Delta X     New X
                                 (Linear)    (Quad)   (Total)
    R1        2.63496   0.02335   0.00000   0.02872   0.02872   2.66368
    R2        1.62381   0.22875   0.00000   0.17091   0.17091   1.79471
    R3        2.50484   0.02246   0.00000   0.02287   0.02288   2.52772
    R4        2.31171  -0.01092   0.00000  -0.00743  -0.00743   2.30428
    R5        2.75268   0.01150   0.00000   0.01570   0.01569   2.76837
    R6        2.76191   0.00373   0.00000   0.00541   0.00541   2.76732
    R7        2.57411   0.00668   0.00000   0.00657   0.00656   2.58067
    R8        2.29370   0.01768   0.00000   0.01157   0.01157   2.30527
    R9        2.31134   0.01914   0.00000   0.01301   0.01301   2.32434
   R10        1.75747   0.17063   0.00000   0.16405   0.16405   1.92153
   R11        2.62618   0.02200   0.00000   0.02614   0.02614   2.65232
   R12        2.73337   0.00435   0.00000   0.00608   0.00608   2.73945
   R13        2.56888   0.01451   0.00000   0.01650   0.01650   2.58538
   R14        2.30180   0.01664   0.00000   0.01108   0.01108   2.31288
   R15        2.31859   0.01274   0.00000   0.00879   0.00879   2.32738
   R16        1.75819   0.16948   0.00000   0.16316   0.16316   1.92135
    A1        2.03726  -0.00588   0.00000  -0.01587  -0.01588   2.02138
    A2        2.20779  -0.00183   0.00000  -0.00180  -0.00179   2.20600
    A3        2.03814   0.00771   0.00000   0.01767   0.01767   2.05581
    A4        2.08855  -0.00604   0.00000  -0.01117  -0.01117   2.07738
    A5        1.95232   0.00060   0.00000   0.00060   0.00059   1.95291
    A6        2.24231   0.00545   0.00000   0.01058   0.01058   2.25289
    A7        2.07901   0.00687   0.00000   0.01418   0.01419   2.09320
    A8        2.14150   0.00195   0.00000   0.00134   0.00133   2.14283
    A9        2.06249  -0.00881   0.00000  -0.01550  -0.01549   2.04700
   A10        2.08625  -0.00565   0.00000  -0.01068  -0.01068   2.07557
   A11        2.05048  -0.01073   0.00000  -0.02029  -0.02029   2.03019
   A12        2.14620   0.01640   0.00000   0.03106   0.03106   2.17726
   A13        2.10410  -0.00201   0.00000  -0.00356  -0.00355   2.10055
   A14        2.07627   0.00214   0.00000   0.00247   0.00246   2.07872
   A15        2.10282  -0.00013   0.00000   0.00108   0.00109   2.10391
   A16        2.11607  -0.00309   0.00000  -0.00616  -0.00616   2.10991
   A17        2.10434   0.00007   0.00000   0.00081   0.00081   2.10515
   A18        2.06194   0.00304   0.00000   0.00546   0.00545   2.06740
   A19        2.07350  -0.00982   0.00000  -0.01852  -0.01854   2.05496
   A20        2.05188  -0.00282   0.00000  -0.00527  -0.00530   2.04658
   A21        2.15752   0.01270   0.00000   0.02410   0.02408   2.18159
   A22        2.08299  -0.00292   0.00000  -0.00336  -0.00335   2.07965
   A23        2.09883  -0.00298   0.00000  -0.00926  -0.00927   2.08955
   A24        2.10137   0.00589   0.00000   0.01263   0.01262   2.11398
    D1        0.05481  -0.00122   0.00000  -0.00587  -0.00584   0.04897
    D2       -3.08943  -0.00045   0.00000  -0.00224  -0.00224  -3.09168
    D3       -3.08579  -0.00108   0.00000  -0.00510  -0.00507  -3.09086
    D4        0.05315  -0.00032   0.00000  -0.00147  -0.00147   0.05168
    D5       -0.03173   0.00033   0.00000   0.00129   0.00129  -0.03044
    D6        3.11067   0.00029   0.00000   0.00103   0.00103   3.11170
    D7        3.11085   0.00047   0.00000   0.00208   0.00209   3.11294
    D8       -0.02993   0.00043   0.00000   0.00182   0.00183  -0.02810
    D9        3.12400  -0.00003   0.00000  -0.00030  -0.00032   3.12368
   D10       -0.03844   0.00018   0.00000   0.00104   0.00104  -0.03740
   D11       -0.02053   0.00080   0.00000   0.00368   0.00369  -0.01685
   D12        3.10021   0.00100   0.00000   0.00502   0.00505   3.10526
   D13        0.22041  -0.00010   0.00000  -0.00054  -0.00054   0.21988
   D14       -2.94477   0.00085   0.00000   0.00421   0.00421  -2.94056
   D15       -2.90128  -0.00041   0.00000  -0.00200  -0.00200  -2.90328
   D16        0.21672   0.00053   0.00000   0.00275   0.00275   0.21947
   D17       -3.13583  -0.00004   0.00000  -0.00033  -0.00033  -3.13616
   D18        0.00503  -0.00009   0.00000  -0.00046  -0.00045   0.00457
   D19       -0.01489   0.00034   0.00000   0.00133   0.00133  -0.01356
   D20        3.12596   0.00029   0.00000   0.00121   0.00120   3.12716
   D21        3.11782   0.00077   0.00000   0.00316   0.00315   3.12097
   D22        0.02094   0.00008   0.00000   0.00017   0.00017   0.02110
   D23       -0.02451   0.00071   0.00000   0.00303   0.00303  -0.02148
   D24       -3.12139   0.00003   0.00000   0.00004   0.00004  -3.12136
   D25        0.02564   0.00095   0.00000   0.00478   0.00478   0.03043
   D26       -3.09088  -0.00187   0.00000  -0.00920  -0.00920  -3.10008
   D27        3.12358   0.00155   0.00000   0.00760   0.00760   3.13118
   D28        0.00706  -0.00127   0.00000  -0.00639  -0.00639   0.00068
   D29       -0.00922  -0.00006   0.00000  -0.00038  -0.00038  -0.00960
   D30        3.13156  -0.00002   0.00000  -0.00013  -0.00012   3.13143
   D31       -3.10747  -0.00057   0.00000  -0.00299  -0.00300  -3.11048
   D32        0.03331  -0.00053   0.00000  -0.00274  -0.00275   0.03056
         Item               Value     Threshold  Converged?
 Maximum Force            0.228749     0.000450     NO 
 RMS     Force            0.039865     0.000300     NO 
 Maximum Displacement     0.162743     0.001800     NO 
 RMS     Displacement     0.042265     0.001200     NO 
 Predicted change in Energy=-6.955976D-02
 Lowest energy point so far.  Saving SCF results.
 GradGradGradGradGradGradGradGradGradGradGradGradGradGradGradGradGradGrad

 Leave Link  103 at Fri Aug 20 15:56:14 2021, MaxMem= 24159191040 cpu:         2.9
 (Enter /public/home/users/caep010/software/Gaussian09/g09/l202.exe)
                          Input orientation:                          
 ---------------------------------------------------------------------
 Center     Atomic      Atomic             Coordinates (Angstroms)
 Number     Number       Type             X           Y           Z
 ---------------------------------------------------------------------
      1          7           0        5.688798    1.316064    4.440917
      2          6           0        4.750702    1.387234    5.490571
      3          1           0        6.280997    0.573980    4.465086
      4          8           0        4.785565    0.546645    6.373215
      5          6           0        3.839921    2.523800    5.333089
      6          7           0        2.778275    2.751021    6.315820
      7          8           0        2.807577    2.135832    7.368831
      8          6           0        3.943602    3.417400    4.305626
      9          8           0        1.922331    3.580456    6.012054
     10          1           0        3.293833    4.196300    4.234537
     11          6           0        4.958739    3.245979    3.351660
     12          7           0        5.088581    4.156641    2.231244
     13          8           0        4.305095    5.094640    2.165745
     14          8           0        5.974810    3.917885    1.410008
     15          6           0        5.819063    2.185292    3.432614
     16          1           0        6.551612    2.048831    2.740881
 ---------------------------------------------------------------------
                    Distance matrix (angstroms):
                    1          2          3          4          5
     1  N    0.000000
     2  C    1.409561   0.000000
     3  H    0.949722   2.013655   0.000000
     4  O    2.267512   1.219372   2.424463   0.000000
     5  C    2.381794   1.464958   3.242542   2.425953   0.000000
     6  N    3.747734   2.536024   4.520375   2.981909   1.464405
     7  O    4.188811   2.804282   4.789130   2.725657   2.315275
     8  C    2.734890   2.485372   3.684274   3.636628   1.365633
     9  O    4.667142   3.616883   5.516337   4.187190   2.292306
    10  H    3.751561   3.404546   4.700798   4.485442   2.074195
    11  C    2.333247   2.841329   3.182399   4.055391   2.387333
    12  N    3.648533   4.290336   4.387182   5.502710   3.721124
    13  O    4.622627   4.999789   5.443117   6.214332   4.105810
    14  O    4.004708   4.955161   4.539708   6.116616   4.678866
    15  C    1.337610   2.452239   1.968682   3.521422   2.764669
    16  H    2.042430   3.352877   2.285017   4.309215   3.781324
                    6          7          8          9         10
     6  N    0.000000
     7  O    1.219896   0.000000
     8  C    2.417215   3.509444   0.000000
     9  O    1.229990   2.170585   2.650287   0.000000
    10  H    2.585802   3.782297   1.016827   2.328057   0.000000
    11  C    3.712904   4.690159   1.403545   4.050845   2.110567
    12  N    4.898678   5.973395   2.482038   4.965043   2.689958
    13  O    5.004683   6.170025   2.742791   4.771207   2.471754
    14  O    5.970461   6.979588   3.572239   6.141276   3.904243
    15  C    4.228394   4.956339   2.407819   4.876937   3.326261
    16  H    5.245125   5.953427   3.335135   5.871686   4.178008
                   11         12         13         14         15
    11  C    0.000000
    12  N    1.449653   0.000000
    13  O    2.291548   1.223921   0.000000
    14  O    2.292132   1.231598   2.178036   0.000000
    15  C    1.368126   2.421386   3.515873   2.667784   0.000000
    16  H    2.084097   2.615923   3.828130   2.365858   1.016733
                   16
    16  H    0.000000
 Stoichiometry    C5H3N3O5
 Framework group  C1[X(C5H3N3O5)]
 Deg. of freedom    42
 Full point group                 C1      NOp   1
 RotChk:  IX=0 Diff= 2.20D-03
 Largest Abelian subgroup         C1      NOp   1
 Largest concise Abelian subgroup C1      NOp   1
                         Standard orientation:                         
 ---------------------------------------------------------------------
 Center     Atomic      Atomic             Coordinates (Angstroms)
 Number     Number       Type             X           Y           Z
 ---------------------------------------------------------------------
      1          7           0        0.008916    1.995119   -0.056979
      2          6           0        1.230740    1.292892   -0.027205
      3          1           0        0.076659    2.940922   -0.110259
      4          8           0        2.274932    1.922533   -0.018087
      5          6           0        1.026854   -0.157735   -0.012647
      6          7           0        2.181899   -1.057893   -0.004296
      7          8           0        3.287914   -0.596346    0.223417
      8          6           0       -0.212858   -0.729785    0.016086
      9          8           0        1.947888   -2.247336   -0.212473
     10          1           0       -0.311609   -1.741709    0.030150
     11          6           0       -1.346439    0.097750    0.026959
     12          7           0       -2.681028   -0.468239    0.031669
     13          8           0       -2.782605   -1.687637    0.058802
     14          8           0       -3.627676    0.318785   -0.004185
     15          6           0       -1.215842    1.458959   -0.015750
     16          1           0       -2.031914    2.065400   -0.017076
 ---------------------------------------------------------------------
 Rotational constants (GHZ):      1.4981578      0.5647682      0.4112726
 Leave Link  202 at Fri Aug 20 15:56:14 2021, MaxMem= 24159191040 cpu:         0.3
 (Enter /public/home/users/caep010/software/Gaussian09/g09/l301.exe)
 Standard basis: 6-31G(d,p) (6D, 7F)
 Ernie: Thresh=  0.10000D-02 Tol=  0.10000D-05 Strict=F.
 There are   210 symmetry adapted cartesian basis functions of A   symmetry.
 There are   210 symmetry adapted basis functions of A   symmetry.
   210 basis functions,   385 primitive gaussians,   210 cartesian basis functions
    47 alpha electrons       47 beta electrons
       nuclear repulsion energy       784.9223641583 Hartrees.
 IExCor=  402 DFT=T Ex+Corr=B3LYP ExCW=0 ScaHFX=  0.200000
 ScaDFX=  0.800000  0.720000  1.000000  0.810000 ScalE2=  1.000000  1.000000
 IRadAn=      0 IRanWt=     -1 IRanGd=            0 ICorTp=0 IEmpDi=  4
 NAtoms=   16 NActive=   16 NUniq=   16 SFac= 1.00D+00 NAtFMM=   60 NAOKFM=F Big=F
 Integral buffers will be    131072 words long.
 Raffenetti 2 integral format.
 Two-electron integral symmetry is turned on.
 Leave Link  301 at Fri Aug 20 15:56:14 2021, MaxMem= 24159191040 cpu:         1.8
 (Enter /public/home/users/caep010/software/Gaussian09/g09/l302.exe)
 NPDir=0 NMtPBC=     1 NCelOv=     1 NCel=       1 NClECP=     1 NCelD=      1
         NCelK=      1 NCelE2=     1 NClLst=     1 CellRange=     0.0.
 One-electron integrals computed using PRISM.
 NBasis=   210 RedAO= T EigKep=  5.35D-04  NBF=   210
 NBsUse=   210 1.00D-06 EigRej= -1.00D+00 NBFU=   210
 Precomputing XC quadrature grid using
 IXCGrd= 4 IRadAn=           0 IRanWt=          -1 IRanGd=           0 AccXCQ= 0.00D+00.
 Generated NRdTot=       0 NPtTot=           0 NUsed=           0 NTot=          32
 NSgBfM=   209   209   209   209   209 MxSgAt=    16 MxSgA2=    16.
 Leave Link  302 at Fri Aug 20 15:56:15 2021, MaxMem= 24159191040 cpu:        11.6
 (Enter /public/home/users/caep010/software/Gaussian09/g09/l303.exe)
 DipDrv:  MaxL=1.
 Leave Link  303 at Fri Aug 20 15:56:15 2021, MaxMem= 24159191040 cpu:         0.8
 (Enter /public/home/users/caep010/software/Gaussian09/g09/l401.exe)
 Initial guess from the checkpoint file:  "/public/home/users/caep010/.cache/gau_scr/Gau-197443.chk"
 B after Tr=     0.000000    0.000000   -0.000000
         Rot=    1.000000   -0.000267   -0.000205    0.000696 Ang=  -0.09 deg.
 Guess basis will be translated and rotated to current coordinates.
 JPrj=2 DoOrth=T DoCkMO=T.
 Generating alternative initial guess.
 ExpMin= 1.61D-01 ExpMax= 5.48D+03 ExpMxC= 8.25D+02 IAcc=1 IRadAn=         1 AccDes= 0.00D+00
 Harris functional with IExCor=  402 and IRadAn=       1 diagonalized for initial guess.
 HarFok:  IExCor=  402 AccDes= 0.00D+00 IRadAn=         1 IDoV= 1 UseB2=F ITyADJ=14
 ICtDFT=  3500011 ScaDFX=  1.000000  1.000000  1.000000  1.000000
 FoFCou: FMM=F IPFlag=           0 FMFlag=      100000 FMFlg1=           0
         NFxFlg=           0 DoJE=T BraDBF=F KetDBF=T FulRan=T
         wScrn=  0.000000 ICntrl=     500 IOpCl=  0 I1Cent=   200000004 NGrid=           0
         NMat0=    1 NMatS0=      1 NMatT0=    0 NMatD0=    1 NMtDS0=    0 NMtDT0=    0
 Petite list used in FoFCou.
 Harris En= -732.546371092529    
 Leave Link  401 at Fri Aug 20 15:56:15 2021, MaxMem= 24159191040 cpu:        14.0
 (Enter /public/home/users/caep010/software/Gaussian09/g09/l502.exe)
 Closed shell SCF:
 Using DIIS extrapolation, IDIIS=  1040.
 Integral symmetry usage will be decided dynamically.
 Keep R1 ints in memory in canonical form, NReq=250289083.
 IVT=      159133 IEndB=      159133 NGot= 24159191040 MDV= 23913598818
 LenX= 23913598818 LenY= 23913554277
 Requested convergence on RMS density matrix=1.00D-08 within 128 cycles.
 Requested convergence on MAX density matrix=1.00D-06.
 Requested convergence on             energy=1.00D-06.
 No special actions if energy rises.
 FoFCou: FMM=F IPFlag=           0 FMFlag=           0 FMFlg1=           0
         NFxFlg=           0 DoJE=F BraDBF=F KetDBF=F FulRan=T
         wScrn=  0.000000 ICntrl=     600 IOpCl=  0 I1Cent=           0 NGrid=           0
         NMat0=    1 NMatS0=  22155 NMatT0=    0 NMatD0=    1 NMtDS0=    0 NMtDT0=    0
 Symmetry not used in FoFCou.
 Integral accuracy reduced to 1.0D-05 until final iterations.

 Cycle   1  Pass 0  IDiag  1:
 E= -732.491438657763    
 DIIS: error= 3.29D-03 at cycle   1 NSaved=   1.
 NSaved= 1 IEnMin= 1 EnMin= -732.491438657763     IErMin= 1 ErrMin= 3.29D-03
 ErrMax= 3.29D-03  0.00D+00 EMaxC= 1.00D-01 BMatC= 5.59D-03 BMatP= 5.59D-03
 IDIUse=3 WtCom= 9.67D-01 WtEn= 3.29D-02
 Coeff-Com:  0.100D+01
 Coeff-En:   0.100D+01
 Coeff:      0.100D+01
 Gap=     1.745 Goal=   None    Shift=    0.000
 GapD=    1.745 DampG=2.000 DampE=1.000 DampFc=2.0000 IDamp=-1.
 RMSDP=7.79D-04 MaxDP=1.89D-02              OVMax= 2.31D-02

 Cycle   2  Pass 0  IDiag  1:
 E= -732.496406347321     Delta-E=       -0.004967689558 Rises=F Damp=F
 DIIS: error= 2.00D-03 at cycle   2 NSaved=   2.
 NSaved= 2 IEnMin= 2 EnMin= -732.496406347321     IErMin= 2 ErrMin= 2.00D-03
 ErrMax= 2.00D-03  0.00D+00 EMaxC= 1.00D-01 BMatC= 1.74D-03 BMatP= 5.59D-03
 IDIUse=3 WtCom= 9.80D-01 WtEn= 2.00D-02
 Coeff-Com:  0.301D+00 0.699D+00
 Coeff-En:   0.000D+00 0.100D+01
 Coeff:      0.295D+00 0.705D+00
 Gap=     0.155 Goal=   None    Shift=    0.000
 RMSDP=4.17D-04 MaxDP=1.71D-02 DE=-4.97D-03 OVMax= 3.47D-02

 Cycle   3  Pass 0  IDiag  1:
 E= -732.496226530090     Delta-E=        0.000179817230 Rises=F Damp=F
 DIIS: error= 2.18D-03 at cycle   3 NSaved=   3.
 NSaved= 3 IEnMin= 2 EnMin= -732.496406347321     IErMin= 2 ErrMin= 2.00D-03
 ErrMax= 2.18D-03  0.00D+00 EMaxC= 1.00D-01 BMatC= 2.07D-03 BMatP= 1.74D-03
 IDIUse=3 WtCom= 1.76D-01 WtEn= 8.24D-01
 Coeff-Com:  0.456D-01 0.512D+00 0.443D+00
 Coeff-En:   0.000D+00 0.520D+00 0.480D+00
 Coeff:      0.804D-02 0.519D+00 0.473D+00
 Gap=     0.159 Goal=   None    Shift=    0.000
 RMSDP=2.57D-04 MaxDP=1.05D-02 DE= 1.80D-04 OVMax= 2.09D-02

 Cycle   4  Pass 0  IDiag  1:
 E= -732.497992817864     Delta-E=       -0.001766287773 Rises=F Damp=F
 DIIS: error= 5.35D-04 at cycle   4 NSaved=   4.
 NSaved= 4 IEnMin= 4 EnMin= -732.497992817864     IErMin= 4 ErrMin= 5.35D-04
 ErrMax= 5.35D-04  0.00D+00 EMaxC= 1.00D-01 BMatC= 1.33D-04 BMatP= 1.74D-03
 IDIUse=3 WtCom= 9.95D-01 WtEn= 5.35D-03
 Coeff-Com:  0.830D-02 0.279D+00 0.281D+00 0.432D+00
 Coeff-En:   0.000D+00 0.000D+00 0.000D+00 0.100D+01
 Coeff:      0.825D-02 0.277D+00 0.280D+00 0.435D+00
 Gap=     0.158 Goal=   None    Shift=    0.000
 RMSDP=7.02D-05 MaxDP=3.02D-03 DE=-1.77D-03 OVMax= 4.02D-03

 Cycle   5  Pass 0  IDiag  1:
 E= -732.498078753444     Delta-E=       -0.000085935580 Rises=F Damp=F
 DIIS: error= 3.32D-04 at cycle   5 NSaved=   5.
 NSaved= 5 IEnMin= 5 EnMin= -732.498078753444     IErMin= 5 ErrMin= 3.32D-04
 ErrMax= 3.32D-04  0.00D+00 EMaxC= 1.00D-01 BMatC= 2.36D-05 BMatP= 1.33D-04
 IDIUse=3 WtCom= 9.97D-01 WtEn= 3.32D-03
 Coeff-Com: -0.265D-02 0.956D-01 0.109D+00 0.305D+00 0.493D+00
 Coeff-En:   0.000D+00 0.000D+00 0.000D+00 0.174D+00 0.826D+00
 Coeff:     -0.264D-02 0.953D-01 0.109D+00 0.305D+00 0.494D+00
 Gap=     0.158 Goal=   None    Shift=    0.000
 RMSDP=2.69D-05 MaxDP=1.15D-03 DE=-8.59D-05 OVMax= 1.86D-03

 Cycle   6  Pass 0  IDiag  1:
 E= -732.498092442146     Delta-E=       -0.000013688702 Rises=F Damp=F
 DIIS: error= 2.02D-04 at cycle   6 NSaved=   6.
 NSaved= 6 IEnMin= 6 EnMin= -732.498092442146     IErMin= 6 ErrMin= 2.02D-04
 ErrMax= 2.02D-04  0.00D+00 EMaxC= 1.00D-01 BMatC= 6.62D-06 BMatP= 2.36D-05
 IDIUse=3 WtCom= 9.98D-01 WtEn= 2.02D-03
 Coeff-Com: -0.301D-02 0.397D-01 0.497D-01 0.181D+00 0.382D+00 0.351D+00
 Coeff-En:   0.000D+00 0.000D+00 0.000D+00 0.000D+00 0.240D+00 0.760D+00
 Coeff:     -0.301D-02 0.396D-01 0.496D-01 0.180D+00 0.381D+00 0.352D+00
 Gap=     0.158 Goal=   None    Shift=    0.000
 RMSDP=1.12D-05 MaxDP=5.53D-04 DE=-1.37D-05 OVMax= 9.41D-04

 Cycle   7  Pass 0  IDiag  1:
 E= -732.498097571099     Delta-E=       -0.000005128953 Rises=F Damp=F
 DIIS: error= 2.93D-05 at cycle   7 NSaved=   7.
 NSaved= 7 IEnMin= 7 EnMin= -732.498097571099     IErMin= 7 ErrMin= 2.93D-05
 ErrMax= 2.93D-05  0.00D+00 EMaxC= 1.00D-01 BMatC= 2.45D-07 BMatP= 6.62D-06
 IDIUse=1 WtCom= 1.00D+00 WtEn= 0.00D+00
 Coeff-Com: -0.141D-02 0.112D-01 0.158D-01 0.657D-01 0.160D+00 0.207D+00
 Coeff-Com:  0.542D+00
 Coeff:     -0.141D-02 0.112D-01 0.158D-01 0.657D-01 0.160D+00 0.207D+00
 Coeff:      0.542D+00
 Gap=     0.158 Goal=   None    Shift=    0.000
 RMSDP=2.96D-06 MaxDP=1.03D-04 DE=-5.13D-06 OVMax= 1.91D-04

 Initial convergence to 1.0D-05 achieved.  Increase integral accuracy.
 Cycle   8  Pass 1  IDiag  1:
 E= -732.498184294090     Delta-E=       -0.000086722991 Rises=F Damp=F
 DIIS: error= 1.86D-05 at cycle   1 NSaved=   1.
 NSaved= 1 IEnMin= 1 EnMin= -732.498184294090     IErMin= 1 ErrMin= 1.86D-05
 ErrMax= 1.86D-05  0.00D+00 EMaxC= 1.00D-01 BMatC= 1.38D-07 BMatP= 1.38D-07
 IDIUse=1 WtCom= 1.00D+00 WtEn= 0.00D+00
 Coeff-Com:  0.100D+01
 Coeff:      0.100D+01
 Gap=     0.158 Goal=   None    Shift=    0.000
 RMSDP=2.96D-06 MaxDP=1.03D-04 DE=-8.67D-05 OVMax= 2.20D-04

 Cycle   9  Pass 1  IDiag  1:
 E= -732.498184245387     Delta-E=        0.000000048703 Rises=F Damp=F
 DIIS: error= 2.97D-05 at cycle   2 NSaved=   2.
 NSaved= 2 IEnMin= 1 EnMin= -732.498184294090     IErMin= 1 ErrMin= 1.86D-05
 ErrMax= 2.97D-05  0.00D+00 EMaxC= 1.00D-01 BMatC= 2.20D-07 BMatP= 1.38D-07
 IDIUse=1 WtCom= 1.00D+00 WtEn= 0.00D+00
 Coeff-Com:  0.577D+00 0.423D+00
 Coeff:      0.577D+00 0.423D+00
 Gap=     0.158 Goal=   None    Shift=    0.000
 RMSDP=3.01D-06 MaxDP=1.24D-04 DE= 4.87D-08 OVMax= 2.10D-04

 Cycle  10  Pass 1  IDiag  1:
 E= -732.498184378044     Delta-E=       -0.000000132657 Rises=F Damp=F
 DIIS: error= 2.17D-05 at cycle   3 NSaved=   3.
 NSaved= 3 IEnMin= 3 EnMin= -732.498184378044     IErMin= 1 ErrMin= 1.86D-05
 ErrMax= 2.17D-05  0.00D+00 EMaxC= 1.00D-01 BMatC= 7.33D-08 BMatP= 1.38D-07
 IDIUse=1 WtCom= 1.00D+00 WtEn= 0.00D+00
 Coeff-Com:  0.112D+00 0.345D+00 0.543D+00
 Coeff:      0.112D+00 0.345D+00 0.543D+00
 Gap=     0.158 Goal=   None    Shift=    0.000
 RMSDP=1.46D-06 MaxDP=6.90D-05 DE=-1.33D-07 OVMax= 1.26D-04

 Cycle  11  Pass 1  IDiag  1:
 E= -732.498184415211     Delta-E=       -0.000000037167 Rises=F Damp=F
 DIIS: error= 1.05D-05 at cycle   4 NSaved=   4.
 NSaved= 4 IEnMin= 4 EnMin= -732.498184415211     IErMin= 4 ErrMin= 1.05D-05
 ErrMax= 1.05D-05  0.00D+00 EMaxC= 1.00D-01 BMatC= 2.31D-08 BMatP= 7.33D-08
 IDIUse=1 WtCom= 1.00D+00 WtEn= 0.00D+00
 Coeff-Com: -0.111D-01 0.195D+00 0.430D+00 0.386D+00
 Coeff:     -0.111D-01 0.195D+00 0.430D+00 0.386D+00
 Gap=     0.158 Goal=   None    Shift=    0.000
 RMSDP=7.31D-07 MaxDP=2.58D-05 DE=-3.72D-08 OVMax= 5.33D-05

 Cycle  12  Pass 1  IDiag  1:
 E= -732.498184436318     Delta-E=       -0.000000021107 Rises=F Damp=F
 DIIS: error= 1.13D-06 at cycle   5 NSaved=   5.
 NSaved= 5 IEnMin= 5 EnMin= -732.498184436318     IErMin= 5 ErrMin= 1.13D-06
 ErrMax= 1.13D-06  0.00D+00 EMaxC= 1.00D-01 BMatC= 6.67D-10 BMatP= 2.31D-08
 IDIUse=1 WtCom= 1.00D+00 WtEn= 0.00D+00
 Coeff-Com: -0.111D-01 0.111D+00 0.255D+00 0.247D+00 0.398D+00
 Coeff:     -0.111D-01 0.111D+00 0.255D+00 0.247D+00 0.398D+00
 Gap=     0.158 Goal=   None    Shift=    0.000
 RMSDP=1.09D-07 MaxDP=3.96D-06 DE=-2.11D-08 OVMax= 6.33D-06

 Cycle  13  Pass 1  IDiag  1:
 E= -732.498184436811     Delta-E=       -0.000000000493 Rises=F Damp=F
 DIIS: error= 1.79D-07 at cycle   6 NSaved=   6.
 NSaved= 6 IEnMin= 6 EnMin= -732.498184436811     IErMin= 6 ErrMin= 1.79D-07
 ErrMax= 1.79D-07  0.00D+00 EMaxC= 1.00D-01 BMatC= 1.81D-11 BMatP= 6.67D-10
 IDIUse=1 WtCom= 1.00D+00 WtEn= 0.00D+00
 Coeff-Com: -0.471D-02 0.372D-01 0.894D-01 0.901D-01 0.189D+00 0.599D+00
 Coeff:     -0.471D-02 0.372D-01 0.894D-01 0.901D-01 0.189D+00 0.599D+00
 Gap=     0.158 Goal=   None    Shift=    0.000
 RMSDP=2.95D-08 MaxDP=1.11D-06 DE=-4.93D-10 OVMax= 1.80D-06

 Cycle  14  Pass 1  IDiag  1:
 E= -732.498184436813     Delta-E=       -0.000000000002 Rises=F Damp=F
 DIIS: error= 2.08D-07 at cycle   7 NSaved=   7.
 NSaved= 7 IEnMin= 7 EnMin= -732.498184436813     IErMin= 6 ErrMin= 1.79D-07
 ErrMax= 2.08D-07  0.00D+00 EMaxC= 1.00D-01 BMatC= 8.52D-12 BMatP= 1.81D-11
 IDIUse=1 WtCom= 1.00D+00 WtEn= 0.00D+00
 Coeff-Com: -0.128D-02 0.683D-02 0.194D-01 0.215D-01 0.634D-01 0.426D+00
 Coeff-Com:  0.464D+00
 Coeff:     -0.128D-02 0.683D-02 0.194D-01 0.215D-01 0.634D-01 0.426D+00
 Coeff:      0.464D+00
 Gap=     0.158 Goal=   None    Shift=    0.000
 RMSDP=1.71D-08 MaxDP=5.69D-07 DE=-1.82D-12 OVMax= 1.17D-06

 Cycle  15  Pass 1  IDiag  1:
 E= -732.498184436826     Delta-E=       -0.000000000013 Rises=F Damp=F
 DIIS: error= 1.22D-07 at cycle   8 NSaved=   8.
 NSaved= 8 IEnMin= 8 EnMin= -732.498184436826     IErMin= 8 ErrMin= 1.22D-07
 ErrMax= 1.22D-07  0.00D+00 EMaxC= 1.00D-01 BMatC= 1.17D-12 BMatP= 8.52D-12
 IDIUse=1 WtCom= 1.00D+00 WtEn= 0.00D+00
 Coeff-Com: -0.318D-03 0.210D-03 0.278D-02 0.422D-02 0.207D-01 0.215D+00
 Coeff-Com:  0.324D+00 0.433D+00
 Coeff:     -0.318D-03 0.210D-03 0.278D-02 0.422D-02 0.207D-01 0.215D+00
 Coeff:      0.324D+00 0.433D+00
 Gap=     0.158 Goal=   None    Shift=    0.000
 RMSDP=5.70D-09 MaxDP=2.60D-07 DE=-1.34D-11 OVMax= 5.71D-07

 SCF Done:  E(RB3LYP) =  -732.498184437     A.U. after   15 cycles
            NFock= 15  Conv=0.57D-08     -V/T= 2.0080
 KE= 7.266558611692D+02 PE=-3.283501735135D+03 EE= 1.039425325370D+03
 Leave Link  502 at Fri Aug 20 15:56:24 2021, MaxMem= 24159191040 cpu:        99.6
 (Enter /public/home/users/caep010/software/Gaussian09/g09/l701.exe)
 Compute integral first derivatives.
 ... and contract with generalized density number  0.
 Leave Link  701 at Fri Aug 20 15:56:25 2021, MaxMem= 24159191040 cpu:        11.1
 (Enter /public/home/users/caep010/software/Gaussian09/g09/l702.exe)
 L702 exits ... SP integral derivatives will be done elsewhere.
 Leave Link  702 at Fri Aug 20 15:56:25 2021, MaxMem= 24159191040 cpu:         0.7
 (Enter /public/home/users/caep010/software/Gaussian09/g09/l703.exe)
 Compute integral first derivatives, UseDBF=F ICtDFT=           0.
 Integral derivatives from FoFJK, PRISM(SPDF).
 Calling FoFJK, ICntrl=      2127 FMM=F ISym2X=0 I1Cent= 0 IOpClX= 0 NMat=1 NMatS=1 NMatT=0.
 FoFJK:  IHMeth= 1 ICntrl=    2127 DoSepK=F KAlg= 0 I1Cent=   0 FoldK=F
 IRaf=         0 NMat=   1 IRICut=       1 DoRegI=T DoRafI=F ISym2E= 0.
 FoFCou: FMM=F IPFlag=           0 FMFlag=      100000 FMFlg1=         800
         NFxFlg=           0 DoJE=F BraDBF=F KetDBF=F FulRan=T
         wScrn=  0.000000 ICntrl=    2127 IOpCl=  0 I1Cent=           0 NGrid=           0
         NMat0=    1 NMatS0=      1 NMatT0=    0 NMatD0=    1 NMtDS0=    0 NMtDT0=    0
 Symmetry not used in FoFCou.
 Leave Link  703 at Fri Aug 20 15:56:26 2021, MaxMem= 24159191040 cpu:        23.0
 (Enter /public/home/users/caep010/software/Gaussian09/g09/l716.exe)
 Dipole        =-1.14654473D+00 1.68703775D+00-3.65580950D-02
 ***** Axes restored to original set *****
 -------------------------------------------------------------------
 Center     Atomic                   Forces (Hartrees/Bohr)
 Number     Number              X              Y              Z
 -------------------------------------------------------------------
      1        7          -0.032370586    0.050699310   -0.012141947
      2        6          -0.006958181   -0.007081504    0.018865875
      3        1           0.041896417   -0.055532180    0.007419201
      4        8           0.000282421    0.002913826   -0.007001374
      5        6           0.001102430    0.000589619   -0.000452453
      6        7          -0.001140743    0.002109156    0.000780317
      7        8           0.002522428   -0.004621072    0.004186551
      8        6           0.031315624   -0.042170973    0.008341976
      9        8          -0.004476058    0.004552143   -0.003322461
     10        1          -0.036326545    0.042978797   -0.003906714
     11        6           0.001970031    0.000868986   -0.005153071
     12        7           0.002387700   -0.001278265   -0.002349690
     13        8          -0.005255056    0.004932162    0.001938293
     14        8           0.003592258   -0.001173105   -0.001666469
     15        6          -0.039460109    0.012075445    0.032099369
     16        1           0.040917970   -0.009862345   -0.037637403
 -------------------------------------------------------------------
 Cartesian Forces:  Max     0.055532180 RMS     0.021078244
 Leave Link  716 at Fri Aug 20 15:56:26 2021, MaxMem= 24159191040 cpu:         0.6
 (Enter /public/home/users/caep010/software/Gaussian09/g09/l103.exe)

 GradGradGradGradGradGradGradGradGradGradGradGradGradGradGradGradGradGrad
 Berny optimization.
 Using GEDIIS/GDIIS optimizer.
 FormGI is forming the generalized inverse of G from B-inverse, IUseBI=4.
 Internal  Forces:  Max     0.069704389 RMS     0.012880098
 Search for a local minimum.
 Step number   2 out of a maximum of   82
 All quantities printed in internal units (Hartrees-Bohrs-Radians)
 RMS Force = .12880D-01 SwitMx=.10000D-02 MixMth= 1
 Mixed Optimization -- RFO/linear search
 Update second derivatives using D2CorX and points    1    2
 DE= -6.34D-02 DEPred=-6.96D-02 R= 9.12D-01
 TightC=F SS=  1.41D+00  RLast= 3.01D-01 DXNew= 5.0454D-01 9.0194D-01
 Trust test= 9.12D-01 RLast= 3.01D-01 DXMaxT set to 5.05D-01
 ITU=  1  0
[...]
 ! D5    D(2,1,15,11)           -0.07           -DE/DX =    0.0                 !
 ! D6    D(2,1,15,16)          180.004          -DE/DX =    0.0                 !
 ! D7    D(3,1,15,11)          179.1435         -DE/DX =    0.0                 !
 ! D8    D(3,1,15,16)           -0.7825         -DE/DX =    0.0                 !
 ! D9    D(1,2,5,6)           -177.783          -DE/DX =    0.0                 !
 ! D10   D(1,2,5,8)              1.9585         -DE/DX =    0.0                 !
 ! D11   D(4,2,5,6)              3.8375         -DE/DX =    0.0                 !
 ! D12   D(4,2,5,8)           -176.421          -DE/DX =    0.0                 !
 ! D13   D(2,5,6,7)             22.2527         -DE/DX =    0.0                 !
 ! D14   D(2,5,6,9)           -159.0864         -DE/DX =    0.0                 !
 ! D15   D(8,5,6,7)           -157.5023         -DE/DX =    0.0                 !
 ! D16   D(8,5,6,9)             21.1586         -DE/DX =    0.0                 !
 ! D17   D(2,5,8,10)           178.2388         -DE/DX =    0.0                 !
 ! D18   D(2,5,8,11)            -1.8944         -DE/DX =    0.0                 !
 ! D19   D(6,5,8,10)            -2.0153         -DE/DX =    0.0                 !
 ! D20   D(6,5,8,11)           177.8515         -DE/DX =    0.0                 !
 ! D21   D(5,8,11,12)         -179.1452         -DE/DX =    0.0                 !
 ! D22   D(5,8,11,15)            0.6633         -DE/DX =    0.0                 !
 ! D23   D(10,8,11,12)           0.7215         -DE/DX =    0.0                 !
 ! D24   D(10,8,11,15)        -179.47           -DE/DX =    0.0                 !
 ! D25   D(8,11,12,13)           0.0129         -DE/DX =    0.0                 !
 ! D26   D(8,11,12,14)        -179.9726         -DE/DX =    0.0                 !
 ! D27   D(15,11,12,13)       -179.7973         -DE/DX =    0.0                 !
 ! D28   D(15,11,12,14)          0.2171         -DE/DX =    0.0                 !
 ! D29   D(8,11,15,1)            0.3071         -DE/DX =    0.0                 !
 ! D30   D(8,11,15,16)        -179.7692         -DE/DX =    0.0                 !
 ! D31   D(12,11,15,1)        -179.8811         -DE/DX =    0.0                 !
 ! D32   D(12,11,15,16)          0.0426         -DE/DX =    0.0                 !
 --------------------------------------------------------------------------------
 GradGradGradGradGradGradGradGradGradGradGradGradGradGradGradGradGradGrad

 Leave Link  103 at Fri Aug 20 15:59:16 2021, MaxMem= 24159191040 cpu:         1.7
 (Enter /public/home/users/caep010/software/Gaussian09/g09/l9999.exe)
 1\1\GINC-B1164\Freq\RB3LYP\6-31G(d,p)\C5H3N3O5\ROOT\20-Aug-2021\0\\#P 
 Geom=AllCheck Guess=TCheck SCRF=Check GenChk RB3LYP/6-31G(d,p) Freq\\J
 ERVUY\\0,1\N,5.6954786306,1.3179654542,4.4419861978\C,4.7130231546,1.3
 616820338,5.4867346597\H,6.3234276971,0.5251627863,4.5229642213\O,4.70
 22674425,0.4741751064,6.3123002096\C,3.8314514696,2.5237973018,5.33578
 74412\N,2.7868563477,2.7732088065,6.3379198964\O,2.9364492823,2.280088
 281,7.4485664311\C,3.9359273482,3.4039609061,4.2973557292\O,1.84349823
 25,3.4864442867,5.9906616613\H,3.2405882672,4.2309805289,4.2172290342\
 C,4.9521371826,3.2377973379,3.3293945514\N,5.0910580043,4.1746474382,2
 .2270548146\O,4.2925136722,5.1076117158,2.1770013765\O,5.9996275371,3.
 9680309649,1.4193622891\C,5.8264850955,2.1836296783,3.4248654664\H,6.6
 187106359,2.0288173734,2.7027160202\\Version=ES64L-G09RevE.01\State=1-
 A\HF=-732.510199\RMSD=6.842e-09\RMSF=1.253e-05\ZeroPoint=0.0986204\The
 rmal=0.1089442\Dipole=1.5941423,-0.8410322,-0.9305382\DipoleDeriv=-0.2
 980626,-0.321685,0.3127622,0.1989733,-0.5621857,0.0408375,-0.2163906,0
 .6313293,-0.6429121,0.4586135,0.0123737,-0.1641386,-0.0275916,1.087984
 5,-0.6499367,-0.0758866,-0.7183914,1.0361131,0.284064,-0.0533956,0.068
 0165,-0.0184934,0.2760566,0.0419765,0.0420747,0.0669988,0.1830459,-0.3
 538193,0.0556387,-0.0519333,0.0141515,-0.9455809,0.549939,0.0107703,0.
 4817882,-0.7747475,-0.2182756,0.2466605,0.0153543,-0.0941427,-0.346045
 7,0.47207,0.3717398,0.1030444,-0.54196,1.4150889,-0.4137553,-0.4922028
 ,-0.5027437,0.529589,-0.1456868,-0.3626985,-0.1610064,1.4638394,-0.481
 0147,0.0444836,0.200458,0.0794775,-0.2905689,0.1473737,0.056893,0.2074
 026,-0.9094397,0.2402948,0.1103044,-0.3430357,0.1076348,0.0825163,-0.1
 763183,-0.4279359,-0.1869161,0.6769326,-0.8729434,0.3090115,0.0705832,
 0.3610235,-0.44599,0.0372215,0.0680963,0.03264,-0.5171707,0.1563266,-0
 .0041501,-0.0212513,0.013414,0.1449988,-0.0344344,-0.0114401,-0.004503
 2,0.1579392,-0.4449699,0.1696648,0.3131635,0.2773434,-0.5584019,0.2219
 155,0.1842738,0.3523684,-0.5741031,0.9117877,-0.2937179,-0.400694,-0.2
 615646,1.3778491,-0.7972285,-0.420948,-0.7718993,1.541469,-0.5210078,0
 .3135766,-0.00194,0.2837374,-0.8259772,0.266248,0.0230084,0.2361472,-0
 .5103093,-0.639148,0.0046583,0.4223308,0.0323407,-0.4543893,0.1598062,
 0.3891061,0.1914969,-0.8915694,0.2321591,-0.1834476,0.0673865,-0.46536
 27,0.797284,-0.1370788,0.3559185,-0.4662962,0.1827802,0.1309068,0.0037
 794,0.0051406,0.0018025,0.1328614,0.0032956,0.0134189,0.0057968,0.1200
 924\Polar=81.7904203,-21.7064042,88.4711147,-29.0456623,-35.1996562,10
 8.1103086\PG=C01 [X(C5H3N3O5)]\NImag=0\\0.44732790,-0.27178864,0.64673
 803,-0.14255028,-0.25938225,0.49084263,-0.13043132,0.06818406,0.013434
 12,0.35875261,0.03781749,-0.12559983,0.02499758,-0.13184299,0.71517559
 ,0.04361401,-0.00841823,-0.09431669,-0.06234916,-0.34684767,0.57709556
 ,-0.19851199,0.19893297,0.00271820,-0.01123480,0.02165895,-0.00507628,
 0.20119585,0.19794253,-0.27906813,0.03505226,0.00066026,0.00438547,-0.
 00193120,-0.20743269,0.28931843,0.00367969,0.03311358,-0.05660454,0.01
 604572,-0.02523239,0.00987507,0.00086509,-0.03574897,0.05347852,0.0070
 4822,-0.03688085,0.04926501,-0.08639962,0.01054026,0.00545303,0.001834
 86,-0.00101159,-0.00572661,0.07015168,-0.02278195,0.00918748,0.0330024
 1,0.01445381,-0.43508343,0.31913086,-0.00379478,-0.00278549,0.00272196
 ,-0.00808332,0.47150273,0.03464379,0.04913454,-0.06467105,0.00437180,0
 .32256539,-0.37025150,-0.00294246,-0.00018490,-0.00057331,-0.03667417,
 -0.39402919,0.43630251,-0.02518766,0.01340098,0.01591115,-0.12976105,0
 .06524169,0.01189215,-0.00094837,0.00192272,0.00401056,0.01477512,0.01
 593974,-0.01305713,0.37117086,0.01809224,0.01573364,-0.03150166,0.0553
 5913,-0.15086091,0.01746182,0.00132136,0.00004620,0.00213574,0.0230651
 3,-0.04094291,0.03186790,-0.15565234,0.50480162,0.01498655,-0.02975564
 ,0.01660178,0.01869011,0.01110404,-0.10388296,0.00452483,0.00150821,-0
 .00289015,-0.01831605,0.03734413,0.00353836,-0.12253704,-0.23758100,0.
 52727260,0.00099206,0.00192655,0.00494706,-0.01857084,0.00670038,0.008
 76967,-0.00090641,-0.00007559,0.00015839,0.00220635,-0.00569654,0.0013
 1307,-0.10670003,0.01721892,0.01874412,0.60311333,0.00639464,-0.001774
 01,0.00155310,0.01484004,0.00580964,-0.02701957,0.00084275,-0.00033435
 ,-0.00137859,-0.00395028,-0.00107445,0.00457120,0.01832499,-0.10365959
 ,0.00373492,-0.25434513,0.48230456,-0.00053398,0.00630296,-0.00218317,
 0.00200262,-0.02531044,0.02260291,-0.00079032,-0.00002731,0.00081563,0
 .00341441,0.00979397,-0.01554981,0.02119841,0.00249372,-0.09442509,0.0
 4084211,-0.23757741,0.76363230,0.00072989,0.00031106,-0.00143250,-0.00
 104556,0.00223165,0.00004595,0.00029356,-0.00017685,-0.00002936,-0.003
 27749,0.00335715,0.00422740,0.01427766,-0.00846066,0.02528759,-0.11534
 866,0.03115582,-0.01433079,0.10485970,0.00013370,0.00073027,-0.0025259
 8,-0.00038342,-0.00668607,0.00635023,-0.00011584,0.00006766,0.00023597
 ,0.00656457,-0.00064556,-0.00749812,-0.00532091,0.01812014,0.01562229,
 0.03956543,-0.15830477,0.16493473,-0.07012902,0.15880817,-0.00104441,-
 0.00166432,0.00336236,-0.00128967,0.00907741,-0.00898488,-0.00013366,0
 .00006906,-0.00021439,0.00036977,-0.00624094,0.00575271,0.01707714,0.0
 2043816,-0.06174547,-0.02974709,0.17367505,-0.50029603,0.05093492,-0.2
 3611525,0.59034723,-0.00675079,-0.01568645,0.02273610,0.02911086,-0.00
 435324,-0.03016297,-0.00128691,0.00024293,-0.00007252,-0.00685474,0.01
 049223,0.00207635,-0.09758015,0.02694133,0.01875537,-0.00998785,-0.018
 75675,0.02512396,-0.00099151,0.00260630,0.00515015,0.48900406,-0.00079
 648,-0.00437808,0.00392293,0.00342904,-0.02356037,0.01930171,-0.001095
 48,0.00062766,-0.00018517,0.00384420,0.00135993,-0.00204581,0.00739141
 ,-0.23421565,0.17963715,-0.01534730,0.01294084,0.00271810,0.00373326,0
 .00057188,-0.00500499,-0.21176155,0.57259772,0.00806928,0.02061450,-0.
 03214519,-0.03801613,0.02773161,0.01461256,0.00187353,-0.00172107,-0.0
 0062417,0.00898491,-0.00907151,0.00259308,0.03804749,0.15566610,-0.257
 46155,0.02949023,0.00716607,-0.03611091,0.00054669,-0.00149170,0.00137
 590,-0.17209936,-0.20638483,0.54808769,-0.00312017,0.00234463,0.000413
 39,0.00043382,-0.00498062,0.00544391,-0.00037206,-0.00014881,0.0005444
 8,-0.00103806,0.00200281,0.00020284,-0.04890676,0.03881742,0.01091847,
 -0.36376921,0.20614519,-0.07138521,0.00272521,0.02800654,-0.04271125,-
 0.00026325,0.00459087,-0.00571248,0.41929245,-0.00023789,-0.00141289,-
 0.00036049,0.00190282,0.00122587,0.00103085,0.00008863,0.00018415,-0.0
 0007328,0.00031096,-0.00002507,-0.00135783,0.03352216,0.00146594,-0.00
 603410,0.20221784,-0.22904179,0.07347309,0.04034235,-0.01318319,0.0441
 6222,-0.00237056,-0.00427302,0.00842866,-0.27681909,0.24198411,0.00000
 544,-0.00204433,0.00017274,0.00272524,0.00735788,-0.00604054,0.0001921
 0,0.00004485,-0.00036738,-0.00127707,-0.00245866,0.00427992,0.01835771
 ,-0.01116811,0.01534960,-0.05907459,0.06473163,-0.14509890,-0.06832219
 ,0.05983033,-0.02577162,0.00592371,0.00197237,-0.00547852,0.09795586,-
 0.11429306,0.16262374,0.00034461,-0.00087456,0.00011578,0.00274975,0.0
 0286229,0.00459294,-0.00016309,-0.00000945,-0.00009502,-0.00038826,-0.
 00131072,-0.00065493,0.01035146,-0.00112447,-0.00018960,-0.00264655,-0
 .00231686,-0.00169690,-0.00014607,0.00091793,-0.00144931,-0.17150075,0
 .14950506,-0.01102354,-0.00272698,0.00021461,0.00309499,0.17383978,-0.
 00041680,0.00028405,-0.00013876,0.00183446,0.00278728,0.00503778,-0.00
 007891,-0.00014505,-0.00003059,-0.00024953,-0.00130328,-0.00069928,0.0
 1385052,-0.00911232,0.00354396,-0.00047877,-0.00370418,-0.00137913,0.0
 0016562,0.00110362,-0.00121725,0.14910924,-0.22462473,0.01945948,-0.00
 013343,0.00149704,-0.00181960,-0.16525709,0.23076734,-0.00019176,0.000
 39750,-0.00032786,0.00518431,0.00392382,-0.00092325,-0.00005609,-0.000
 08098,-0.00010784,-0.00164319,0.00054030,-0.00067475,-0.01291790,0.019
 22388,0.00427018,-0.00636159,-0.00036541,-0.00194273,0.00104182,0.0002
 4840,0.00086162,-0.01111854,0.01897091,-0.05382006,0.00232811,-0.00178
 845,-0.00011636,0.00747517,-0.02490897,0.04806331,0.01836500,0.0292490
 8,-0.04042760,-0.03152729,0.01638251,0.01424221,0.00483718,-0.00212385
 ,0.00385573,0.00585556,-0.00579436,-0.00054230,0.00324963,-0.03214230,
 0.03524524,0.01408461,0.00169490,-0.00543781,-0.00188155,-0.00247131,0
 .00308164,-0.19217495,0.05716567,0.09304054,-0.00274790,0.00167000,-0.
 00054312,-0.00821648,0.00208286,0.01333277,0.50681647,0.00968080,-0.05
 195095,0.05182053,0.02460662,-0.01528430,-0.01853123,-0.00184165,0.003
 77826,0.00410865,-0.00597109,0.00216465,0.00468083,-0.01892846,0.02279
 568,0.00203027,0.00317840,-0.00079929,0.00907146,-0.00144692,0.0008250
 2,0.00010390,0.03203960,-0.10320083,0.01171653,0.00002523,0.00096204,-
 0.00225381,0.01535496,0.00390098,-0.01570354,-0.24833729,0.51221454,-0
 .01988937,0.02975052,0.00192368,0.00449123,-0.00811302,-0.00199787,0.0
 0317863,0.00445983,-0.00234766,-0.00041136,0.00448481,-0.00393489,0.01
 978815,0.02026908,-0.03957929,-0.00554155,0.00918843,0.00536159,0.0010
 7900,-0.00064443,-0.00177796,0.11964857,-0.01821014,-0.17132918,0.0024
 1457,-0.00359666,0.00136061,-0.00032860,-0.00036799,0.00716727,-0.1881
 3266,-0.12773220,0.45303033,-0.00264841,0.01047872,0.00068646,-0.00257
 510,0.00035701,0.00092071,0.00209964,0.00149815,-0.00030966,0.00010191
 ,0.00000581,-0.00027782,-0.00342043,0.00337436,0.00496248,0.00286521,-
 0.00117846,0.00183869,-0.00097637,-0.00004972,0.00021494,0.00299524,-0
 .02202953,0.01236166,-0.00070072,0.00084463,-0.00063080,-0.00280451,-0
 .00044279,0.00038271,-0.09589677,0.01192679,0.01883768,0.68972813,0.00
 875626,0.00444207,-0.00654244,-0.00224093,-0.00364658,0.00431491,0.001
 49810,0.00029547,0.00123287,0.00044434,0.00333471,-0.00390313,0.005453
 21,0.00529660,-0.00777697,-0.00541156,0.00429115,0.00308958,0.00150398
 ,-0.00053404,-0.00156752,-0.01859669,0.00328718,0.01259939,0.00311674,
 -0.00267651,-0.00008573,0.00203142,-0.00142375,-0.00359070,0.01013007,
 -0.10912834,0.03011866,-0.28454008,0.61757311,0.00208093,-0.00879690,0
 .01396199,0.00368556,0.00204734,-0.00720284,-0.00028184,0.00115990,0.0
 0216953,-0.00091331,-0.00362583,0.00431639,0.00339348,-0.00475009,0.00
 549748,0.00503860,0.00002369,-0.00224706,-0.00146210,-0.00019402,0.001
 11492,0.00938302,0.01545869,-0.03213140,-0.00251458,0.00100427,0.00067
 382,-0.00184674,-0.00093708,0.00035011,0.02063653,0.02812909,-0.119768
 97,-0.23213847,-0.07890576,0.56459299,0.00057209,-0.00051992,-0.001301
 71,-0.00082144,0.00004445,0.00122699,-0.00032440,-0.00040652,-0.000364
 48,0.00050824,0.00011966,-0.00071410,0.00167034,0.00039035,-0.00282226
 ,-0.00186428,0.00111019,-0.00002605,0.00047483,-0.00020225,0.00012273,
 -0.00465604,-0.00119789,0.00794659,0.00094070,-0.00087907,0.00035303,0
 .00174343,-0.00113238,-0.00121007,0.00534699,0.02657778,-0.01282231,-0
 .27471423,0.21926789,0.00101346,0.32270605,-0.00012173,-0.00336428,0.0
 0237599,0.00199502,0.00088067,-0.00269696,-0.00087259,-0.00024528,0.00
 023878,-0.00060894,-0.00122850,0.00187844,-0.00095875,-0.00187321,0.00
 284622,0.00293945,-0.00139262,-0.00132860,-0.00077583,0.00021180,0.000
 54960,0.00549047,0.00012455,-0.00526462,-0.00161826,0.00119850,0.00010
 840,-0.00109456,-0.00138887,0.00225727,0.03360106,-0.04641477,0.027503
 27,0.22681125,-0.36649605,0.04045876,-0.30733011,0.41790117,-0.0016528
 4,0.00293492,-0.00218344,-0.00085385,-0.00070423,0.00170727,0.00012146
 ,-0.00028454,-0.00081310,0.00009764,0.00114537,-0.00111442,-0.00129872
 ,0.00117258,0.00008635,-0.00105887,0.00002420,0.00106093,0.00036574,0.
 00000534,-0.00053022,0.00093432,0.00239492,-0.00235852,0.00071391,-0.0
 0009635,-0.00041730,-0.00130453,0.00231226,-0.00135610,-0.01992748,0.0
 3534587,0.00446492,-0.00668145,0.04894437,-0.11763189,-0.01846919,-0.0
 5013569,0.09973958,0.00118818,-0.00388767,0.00215490,0.00026181,0.0007
 3392,-0.00064642,-0.00059856,0.00002542,0.00026920,0.00016599,-0.00071
 150,0.00046043,-0.00018278,-0.00082164,0.00037780,0.00025327,-0.000539
 28,-0.00113612,-0.00011397,0.00008191,0.00062776,0.00271752,-0.0002969
 8,0.00193820,-0.00026563,0.00001463,0.00034651,0.00092105,0.00056013,-
 0.00106148,-0.00482406,-0.01131879,0.03584025,-0.32054329,0.05988252,0
 .21305210,-0.05520907,0.04658649,0.04349491,0.38042926,-0.00247299,0.0
 0134804,0.00095216,0.00005539,0.00120313,-0.00078148,-0.00009706,0.000
 04036,-0.00023760,-0.00005673,-0.00103557,0.00099859,-0.00168665,-0.00
 045830,0.00187808,0.00133490,-0.00129818,-0.00100744,-0.00040486,0.000
 14225,0.00056448,0.00398187,-0.00165266,0.00124759,-0.00078995,0.00065
 236,0.00013450,-0.00032858,-0.00007477,0.00088341,-0.01657966,0.015954
 57,0.01960701,0.05099384,-0.12004350,-0.01241378,0.06486790,-0.0025747
 1,-0.04400582,-0.09940658,0.11383268,0.00080091,0.00260901,-0.00389155
 ,-0.00001567,-0.00180467,0.00192928,0.00041486,-0.00037898,-0.00036146
 ,-0.00011453,0.00182925,-0.00161574,0.00122323,0.00071747,-0.00249250,
 -0.00279432,0.00086213,0.00121048,0.00091333,0.00005260,-0.00126071,-0
 .00239366,0.00631978,0.00064027,0.00114665,-0.00047402,-0.00041235,-0.
 00024104,-0.00012760,0.00074695,0.04111209,0.01364664,-0.04287262,0.22
 212173,-0.02233698,-0.30184555,0.02492759,-0.02352883,0.02155617,-0.29
 244792,0.02558343,0.33059350,-0.11491447,0.00501883,0.07295907,0.01748
 277,-0.02576567,0.00130246,0.00487248,0.01079148,-0.02136208,-0.004406
 83,0.00196621,0.00798791,-0.00375394,0.01336318,-0.00794899,-0.0026572
 4,0.00091827,0.00094005,0.00031244,0.00065438,-0.00106910,-0.03199201,
 0.01805134,0.02374864,0.00030612,-0.00073045,0.00070914,-0.00087254,0.
 00093174,0.00437864,-0.21566440,0.16224112,0.00787807,0.01027107,0.000
 31774,-0.01959418,0.00287884,-0.00397870,0.00558875,-0.00567293,0.0025
 2425,0.00533911,0.55958189,0.03912709,-0.21680037,0.12595962,-0.057856
 84,0.02944367,0.03255689,-0.00714178,-0.01588755,0.02040439,0.01322639
 ,-0.00241877,-0.00738857,0.00761084,-0.02724081,0.02116859,0.00665602,
 -0.00345729,-0.00509747,-0.00139037,-0.00141322,0.00339010,0.03629870,
 0.00704435,-0.04395631,-0.00053318,0.00118110,-0.00000391,0.00095358,0
 .00130708,0.00119457,0.13901206,-0.24142770,0.02818737,0.00123290,-0.0
 3350020,0.02598709,0.00034856,0.00364859,0.00013563,0.01111691,-0.0055
 7511,-0.00540984,-0.23102273,0.56741560,0.03825541,0.16611031,-0.25463
 442,0.03372220,-0.00514960,-0.03837709,-0.00327350,-0.00050574,-0.0006
 6962,-0.00316089,0.00498327,0.00347589,-0.00150307,0.01378468,-0.01045
 449,-0.00440036,0.00132955,0.00366729,0.00121218,0.00111232,-0.0023013
 5,0.00509737,-0.02166887,0.02288001,0.00021655,-0.00010179,-0.00099350
 ,0.00394847,0.00148360,-0.00242471,0.03086129,0.00254107,-0.09807978,-
 0.02035363,0.02652990,-0.01134837,0.00120980,0.00502240,-0.00206822,-0
 .00341301,0.00426142,0.00088959,-0.22713261,-0.16958284,0.56790308,0.0
 0499685,-0.00020877,0.00037085,0.00357540,0.00237190,0.00073081,-0.000
 78699,-0.00169815,-0.00146914,-0.00028294,-0.00016425,-0.00042068,0.00
 094610,0.00025799,-0.00067861,-0.00106377,-0.00034002,-0.00002309,0.00
 010788,0.00014171,-0.00013458,0.00021126,0.00481436,0.00080375,0.00021
 244,-0.00009157,0.00018404,-0.00048486,-0.00034487,0.00043706,-0.00562
 205,0.00221290,0.01396971,-0.00378136,-0.00161300,0.00046753,0.0007479
 3,-0.00006429,-0.00006979,0.00147321,-0.00193508,0.00000764,-0.2157712
 6,0.04236185,0.14871378,0.21552215,-0.01932826,0.00588497,0.02081499,0
 .00500354,-0.00018981,0.00104129,-0.00187197,-0.00027781,-0.00130534,-
 0.00118352,-0.00100647,0.00140994,-0.00011117,0.00010389,0.00072985,-0
 .00038301,-0.00050568,-0.00014981,-0.00001637,0.00018603,-0.00021972,0
 .00432256,-0.00264876,0.00326010,-0.00002611,0.00026136,-0.00005276,0.
 00047644,0.00012955,-0.00120200,0.01646057,0.00561046,-0.01490456,0.00
 071713,-0.00107132,-0.00464536,-0.00105863,0.00101302,0.00081115,-0.00
 201950,-0.00046059,0.00244063,0.04471899,-0.06231938,-0.03014968,-0.04
 570071,0.05529054,0.01972660,-0.00090619,-0.01590726,-0.00182842,0.004
 35695,0.00415495,-0.00133453,-0.00143041,-0.00076512,0.00065241,0.0004
 4980,-0.00187338,0.00041440,-0.00023026,0.00031516,-0.00032488,-0.0005
 1898,-0.00049744,-0.00007769,0.00007728,0.00006790,0.00101814,0.002803
 23,0.00126998,0.00002477,0.00007692,0.00023604,-0.00039714,-0.00021082
 ,0.00023422,-0.00039709,0.00102593,0.00837981,-0.00193524,-0.00212044,
 -0.00050115,0.00092997,-0.00028442,-0.00014201,0.00014288,0.00233544,-
 0.00281376,0.14627512,-0.02754532,-0.17746431,-0.16288929,0.02212129,0
 .18530639\\0.00003588,-0.00003145,0.00001948,-0.00000522,0.00000347,-0
 .00000121,-0.00002624,0.00003173,-0.00001025,0.00000004,-0.00000054,-0
 .00000458,0.00000294,0.00000723,-0.00000938,0.00000127,-0.00000210,-0.
 00000704,-0.00000974,0.00000804,0.00000231,0.00000945,-0.00001831,0.00
 000192,0.00000188,-0.00000378,0.00000432,-0.00001033,0.00001363,-0.000
 00458,0.00000729,-0.00001036,0.00000916,0.00000231,0.00000443,-0.00000
 364,0.00000342,-0.00000850,0.00000364,0.00000038,0.00000077,-0.0000003
 6,-0.00002953,0.00000750,0.00001215,0.00001621,-0.00000174,-0.00001194
 \\\@


 A MAN IS NEVER SO BRILLIANT AS WHEN HE TAKES THE WORDS RIGHT OUT
 OF YOUR MOUTH. -- ARNOT SHEPPARD, JR.
 Job cpu time:       0 days  0 hours 12 minutes 23.1 seconds.
 File lengths (MBytes):  RWF=     92 Int=      0 D2E=      0 Chk=      4 Scr=      1
 Normal termination of Gaussian 09 at Fri Aug 20 15:59:16 2021.
