 Entering Gaussian System, Link 0=g09
 Input=B3LYP6-31G.NANILI29.gjf
 Output=B3LYP6-31G.NANILI29.log
 Initial command:
 /public/home/users/caep010/software/Gaussian09/g09/l1.exe "/public/home/users/caep010/.cache/gau_scr/Gau-170733.inp" -scrdir="/public/home/users/caep010/.cache/gau_scr/"
 Entering Link 1 = /public/home/users/caep010/software/Gaussian09/g09/l1.exe PID=    170734.
  
 Copyright (c) 1988,1990,1992,1993,1995,1998,2003,2009,2015,
            Gaussian, Inc.  All Rights Reserved.
  
 This is part of the Gaussian(R) 09 program.  It is based on
 the Gaussian(R) 03 system (copyright 2003, Gaussian, Inc.),
 the Gaussian(R) 98 system (copyright 1998, Gaussian, Inc.),
 the Gaussian(R) 94 system (copyright 1995, Gaussian, Inc.),
 the Gaussian 92(TM) system (copyright 1992, Gaussian, Inc.),
 the Gaussian 90(TM) system (copyright 1990, Gaussian, Inc.),
 the Gaussian 88(TM) system (copyright 1988, Gaussian, Inc.),
 the Gaussian 86(TM) system (copyright 1986, Carnegie Mellon
 University), and the Gaussian 82(TM) system (copyright 1983,
 Carnegie Mellon University). Gaussian is a federally registered
 trademark of Gaussian, Inc.
  
 This software contains proprietary and confidential information,
 including trade secrets, belonging to Gaussian, Inc.
  
 This software is provided under written license and may be
 used, copied, transmitted, or stored only in accord with that
 written license.
  
 The following legend is applicable only to US Government
 contracts under FAR:
  
                    RESTRICTED RIGHTS LEGEND
  
 Use, reproduction and disclosure by the US Government is
 subject to restrictions as set forth in subparagraphs (a)
 and (c) of the Commercial Computer Software - Restricted
 Rights clause in FAR 52.227-19.
  
 Gaussian, Inc.
 340 Quinnipiac St., Bldg. 40, Wallingford CT 06492
  
  
 ---------------------------------------------------------------
 Warning -- This program may not be used in any manner that
 competes with the business of Gaussian, Inc. or will provide
 assistance to any competitor of Gaussian, Inc.  The licensee
 of this program is prohibited from giving any competitor of
 Gaussian, Inc. access to this program.  By using this program,
 the user acknowledges that Gaussian, Inc. is engaged in the
 business of creating and licensing software in the field of
 computational chemistry and represents and warrants to the
 licensee that it is not a competitor of Gaussian, Inc. and that
 it will not use this program in any manner prohibited above.
 ---------------------------------------------------------------
  

 Cite this work as:
 Gaussian 09, Revision E.01,
 M. J. Frisch, G. W. Trucks, H. B. Schlegel, G. E. Scuseria, 
 M. A. Robb, J. R. Cheeseman, G. Scalmani, V. Barone, B. Mennucci, 
 G. A. Petersson, H. Nakatsuji, M. Caricato, X. Li, H. P. Hratchian, 
 A. F. Izmaylov, J. Bloino, G. Zheng, J. L. Sonnenberg, M. Hada, 
 M. Ehara, K. Toyota, R. Fukuda, J. Hasegawa, M. Ishida, T. Nakajima, 
 Y. Honda, O. Kitao, H. Nakai, T. Vreven, J. A. Montgomery, Jr., 
 J. E. Peralta, F. Ogliaro, M. Bearpark, J. J. Heyd, E. Brothers, 
 K. N. Kudin, V. N. Staroverov, T. Keith, R. Kobayashi, J. Normand, 
 K. Raghavachari, A. Rendell, J. C. Burant, S. S. Iyengar, J. Tomasi, 
 M. Cossi, N. Rega, J. M. Millam, M. Klene, J. E. Knox, J. B. Cross, 
 V. Bakken, C. Adamo, J. Jaramillo, R. Gomperts, R. E. Stratmann, 
 O. Yazyev, A. J. Austin, R. Cammi, C. Pomelli, J. W. Ochterski, 
 R. L. Martin, K. Morokuma, V. G. Zakrzewski, G. A. Voth, 
 P. Salvador, J. J. Dannenberg, S. Dapprich, A. D. Daniels, 
 O. Farkas, J. B. Foresman, J. V. Ortiz, J. Cioslowski, 
 and D. J. Fox, Gaussian, Inc., Wallingford CT, 2013.
 
 ******************************************
 Gaussian 09:  ES64L-G09RevE.01 30-Nov-2015
                20-Aug-2021 
 ******************************************
 %nproc=32
 Will use up to   32 processors via shared memory.
 %mem=180GB
 -------------------------
 #P OPT Freq B3LYP/6-31G**
 -------------------------
 1/14=-1,18=20,19=15,26=3,38=1/1,3;
 2/9=110,12=2,17=6,18=5,40=1/2;
 3/5=1,6=6,7=101,11=2,16=1,25=1,30=1,71=1,74=-5/1,2,3;
 4//1;
 5/5=2,38=5/2;
 6/7=2,8=2,9=2,10=2,28=1/1;
 7//1,2,3,16;
 1/14=-1,18=20,19=15,26=3/3(2);
 2/9=110/2;
 99//99;
 2/9=110/2;
 3/5=1,6=6,7=101,11=2,16=1,25=1,30=1,71=1,74=-5/1,2,3;
 4/5=5,16=3,69=1/1;
 5/5=2,38=5/2;
 7//1,2,3,16;
 1/14=-1,18=20,19=15,26=3/3(-5);
 2/9=110/2;
 6/7=2,8=2,9=2,10=2,19=2,28=1/1;
 99/9=1/99;
 Leave Link    1 at Fri Aug 20 15:41:42 2021, MaxMem= 24159191040 cpu:         1.9
 (Enter /public/home/users/caep010/software/Gaussian09/g09/l101.exe)
 --------
 NANILI29
 --------
 Symbolic Z-matrix:
 Charge =  0 Multiplicity = 1
 O                     6.1554    3.5569   -0.8711 
 N                     6.4867    4.7025   -0.5464 
 O                     7.3902    5.3052   -1.1234 
 C                     5.7968    5.3433    0.5378 
 C                     6.1827    6.6192    0.9433 
 C                     5.5255    7.2155    1.9896 
 C                     4.4766    6.5553    2.6522 
 N                     3.8353    7.1293    3.6968 
 C                     4.0976    5.2708    2.21 
 C                     4.7519    4.6729    1.1622 
 H                     4.5094    3.8031    0.8751 
 H                     5.7773    8.0952    2.2524 
 H                     3.3737    4.8113    2.6349 
 H                     6.9275    7.0569    0.5165 
 H                     3.2167    6.6887    4.1098 
 H                     4.0615    7.9443    3.9115 
 
 NAtoms=     16 NQM=       16 NQMF=       0 NMMI=      0 NMMIF=      0
                NMic=       0 NMicF=      0.
                    Isotopes and Nuclear Properties:
 (Nuclear quadrupole moments (NQMom) in fm**2, nuclear magnetic moments (NMagM)
  in nuclear magnetons)

  Atom         1           2           3           4           5           6           7           8           9          10
 IAtWgt=          16          14          16          12          12          12          12          14          12          12
 AtmWgt=  15.9949146  14.0030740  15.9949146  12.0000000  12.0000000  12.0000000  12.0000000  14.0030740  12.0000000  12.0000000
 NucSpn=           0           2           0           0           0           0           0           2           0           0
 AtZEff=   0.0000000   0.0000000   0.0000000   0.0000000   0.0000000   0.0000000   0.0000000   0.0000000   0.0000000   0.0000000
 NQMom=    0.0000000   2.0440000   0.0000000   0.0000000   0.0000000   0.0000000   0.0000000   2.0440000   0.0000000   0.0000000
 NMagM=    0.0000000   0.4037610   0.0000000   0.0000000   0.0000000   0.0000000   0.0000000   0.4037610   0.0000000   0.0000000
 AtZNuc=   8.0000000   7.0000000   8.0000000   6.0000000   6.0000000   6.0000000   6.0000000   7.0000000   6.0000000   6.0000000

  Atom        11          12          13          14          15          16
 IAtWgt=           1           1           1           1           1           1
 AtmWgt=   1.0078250   1.0078250   1.0078250   1.0078250   1.0078250   1.0078250
 NucSpn=           1           1           1           1           1           1
 AtZEff=   0.0000000   0.0000000   0.0000000   0.0000000   0.0000000   0.0000000
 NQMom=    0.0000000   0.0000000   0.0000000   0.0000000   0.0000000   0.0000000
 NMagM=    2.7928460   2.7928460   2.7928460   2.7928460   2.7928460   2.7928460
 AtZNuc=   1.0000000   1.0000000   1.0000000   1.0000000   1.0000000   1.0000000
 Leave Link  101 at Fri Aug 20 15:41:42 2021, MaxMem= 24159191040 cpu:        10.0
 (Enter /public/home/users/caep010/software/Gaussian09/g09/l103.exe)

 GradGradGradGradGradGradGradGradGradGradGradGradGradGradGradGradGradGrad
 Berny optimization.
 Initialization pass.
                           ----------------------------
                           !    Initial Parameters    !
                           ! (Angstroms and Degrees)  !
 --------------------------                            --------------------------
 ! Name  Definition              Value          Derivative Info.                !
 --------------------------------------------------------------------------------
 ! R1    R(1,2)                  1.236          estimate D2E/DX2                !
 ! R2    R(2,3)                  1.2298         estimate D2E/DX2                !
 ! R3    R(2,4)                  1.436          estimate D2E/DX2                !
 ! R4    R(4,5)                  1.3933         estimate D2E/DX2                !
 ! R5    R(4,10)                 1.3897         estimate D2E/DX2                !
 ! R6    R(5,6)                  1.3719         estimate D2E/DX2                !
 ! R7    R(5,14)                 0.9636         estimate D2E/DX2                !
 ! R8    R(6,7)                  1.4054         estimate D2E/DX2                !
 ! R9    R(6,12)                 0.952          estimate D2E/DX2                !
 ! R10   R(7,8)                  1.3535         estimate D2E/DX2                !
 ! R11   R(7,9)                  1.4104         estimate D2E/DX2                !
 ! R12   R(8,15)                 0.8645         estimate D2E/DX2                !
 ! R13   R(8,16)                 0.8726         estimate D2E/DX2                !
 ! R14   R(9,10)                 1.3724         estimate D2E/DX2                !
 ! R15   R(9,13)                 0.9569         estimate D2E/DX2                !
 ! R16   R(10,11)                0.9475         estimate D2E/DX2                !
 ! A1    A(1,2,3)              121.8642         estimate D2E/DX2                !
 ! A2    A(1,2,4)              118.8939         estimate D2E/DX2                !
 ! A3    A(3,2,4)              119.2417         estimate D2E/DX2                !
 ! A4    A(2,4,5)              119.6905         estimate D2E/DX2                !
 ! A5    A(2,4,10)             119.0265         estimate D2E/DX2                !
 ! A6    A(5,4,10)             121.2829         estimate D2E/DX2                !
 ! A7    A(4,5,6)              119.1631         estimate D2E/DX2                !
 ! A8    A(4,5,14)             120.0761         estimate D2E/DX2                !
 ! A9    A(6,5,14)             120.7062         estimate D2E/DX2                !
 ! A10   A(5,6,7)              120.8577         estimate D2E/DX2                !
 ! A11   A(5,6,12)             119.0418         estimate D2E/DX2                !
 ! A12   A(7,6,12)             120.0883         estimate D2E/DX2                !
 ! A13   A(6,7,8)              121.217          estimate D2E/DX2                !
 ! A14   A(6,7,9)              118.7234         estimate D2E/DX2                !
 ! A15   A(8,7,9)              120.0596         estimate D2E/DX2                !
 ! A16   A(7,8,15)             119.4461         estimate D2E/DX2                !
 ! A17   A(7,8,16)             117.5905         estimate D2E/DX2                !
 ! A18   A(15,8,16)            122.9524         estimate D2E/DX2                !
 ! A19   A(7,9,10)             120.5336         estimate D2E/DX2                !
 ! A20   A(7,9,13)             120.0926         estimate D2E/DX2                !
 ! A21   A(10,9,13)            119.3712         estimate D2E/DX2                !
 ! A22   A(4,10,9)             119.4298         estimate D2E/DX2                !
 ! A23   A(4,10,11)            119.9437         estimate D2E/DX2                !
 ! A24   A(9,10,11)            120.6137         estimate D2E/DX2                !
 ! D1    D(1,2,4,5)            178.1268         estimate D2E/DX2                !
 ! D2    D(1,2,4,10)            -1.9238         estimate D2E/DX2                !
 ! D3    D(3,2,4,5)             -1.7293         estimate D2E/DX2                !
 ! D4    D(3,2,4,10)           178.2201         estimate D2E/DX2                !
 ! D5    D(2,4,5,6)           -179.3101         estimate D2E/DX2                !
 ! D6    D(2,4,5,14)            -1.9757         estimate D2E/DX2                !
 ! D7    D(10,4,5,6)             0.7417         estimate D2E/DX2                !
 ! D8    D(10,4,5,14)          178.0761         estimate D2E/DX2                !
 ! D9    D(2,4,10,9)           179.2024         estimate D2E/DX2                !
 ! D10   D(2,4,10,11)            0.4953         estimate D2E/DX2                !
 ! D11   D(5,4,10,9)            -0.849          estimate D2E/DX2                !
 ! D12   D(5,4,10,11)         -179.5561         estimate D2E/DX2                !
 ! D13   D(4,5,6,7)              0.1125         estimate D2E/DX2                !
 ! D14   D(4,5,6,12)          -178.617          estimate D2E/DX2                !
 ! D15   D(14,5,6,7)          -177.2047         estimate D2E/DX2                !
 ! D16   D(14,5,6,12)            4.0658         estimate D2E/DX2                !
 ! D17   D(5,6,7,8)            179.096          estimate D2E/DX2                !
 ! D18   D(5,6,7,9)             -0.8297         estimate D2E/DX2                !
 ! D19   D(12,6,7,8)            -2.1877         estimate D2E/DX2                !
 ! D20   D(12,6,7,9)           177.8865         estimate D2E/DX2                !
 ! D21   D(6,7,8,15)          -177.3248         estimate D2E/DX2                !
 ! D22   D(6,7,8,16)             3.8498         estimate D2E/DX2                !
 ! D23   D(9,7,8,15)             2.6            estimate D2E/DX2                !
 ! D24   D(9,7,8,16)          -176.2255         estimate D2E/DX2                !
 ! D25   D(6,7,9,10)             0.7202         estimate D2E/DX2                !
 ! D26   D(6,7,9,13)          -178.6949         estimate D2E/DX2                !
 ! D27   D(8,7,9,10)          -179.2064         estimate D2E/DX2                !
 ! D28   D(8,7,9,13)             1.3785         estimate D2E/DX2                !
 ! D29   D(7,9,10,4)             0.1024         estimate D2E/DX2                !
 ! D30   D(7,9,10,11)          178.8006         estimate D2E/DX2                !
 ! D31   D(13,9,10,4)          179.5217         estimate D2E/DX2                !
 ! D32   D(13,9,10,11)          -1.78           estimate D2E/DX2                !
 --------------------------------------------------------------------------------
 Trust Radius=3.00D-01 FncErr=1.00D-07 GrdErr=1.00D-06
 Number of steps in this run=     82 maximum allowed number of steps=    100.
 GradGradGradGradGradGradGradGradGradGradGradGradGradGradGradGradGradGrad

 Leave Link  103 at Fri Aug 20 15:41:42 2021, MaxMem= 24159191040 cpu:         0.6
 (Enter /public/home/users/caep010/software/Gaussian09/g09/l202.exe)
                          Input orientation:                          
 ---------------------------------------------------------------------
 Center     Atomic      Atomic             Coordinates (Angstroms)
 Number     Number       Type             X           Y           Z
 ---------------------------------------------------------------------
      1          8           0        6.155400    3.556900   -0.871100
      2          7           0        6.486700    4.702500   -0.546400
      3          8           0        7.390200    5.305200   -1.123400
      4          6           0        5.796800    5.343300    0.537800
      5          6           0        6.182700    6.619200    0.943300
      6          6           0        5.525500    7.215500    1.989600
      7          6           0        4.476600    6.555300    2.652200
      8          7           0        3.835300    7.129300    3.696800
      9          6           0        4.097600    5.270800    2.210000
     10          6           0        4.751900    4.672900    1.162200
     11          1           0        4.509400    3.803100    0.875100
     12          1           0        5.777300    8.095200    2.252400
     13          1           0        3.373700    4.811300    2.634900
     14          1           0        6.927500    7.056900    0.516500
     15          1           0        3.216700    6.688700    4.109800
     16          1           0        4.061500    7.944300    3.911500
 ---------------------------------------------------------------------
                    Distance matrix (angstroms):
                    1          2          3          4          5
     1  O    0.000000
     2  N    1.235957   0.000000
     3  O    2.155212   1.229833   0.000000
     4  C    2.303219   1.435993   2.302164   0.000000
     5  C    3.559561   2.446500   2.730550   1.393295   0.000000
     6  C    4.686761   3.697346   4.100868   2.384630   1.371944
     7  C    4.921627   4.207661   4.930210   2.771743   2.415616
     8  N    6.245848   5.560938   6.260909   4.125113   3.654073
     9  C    4.082300   3.691680   4.685505   2.385118   2.787535
    10  C    2.711010   2.435102   3.547449   1.389650   2.425529
    11  H    2.412290   2.596016   3.814356   2.035531   3.276431
    12  H    5.522262   4.454991   4.667073   3.242405   2.014117
    13  H    4.647947   4.452334   5.522774   3.248425   3.744395
    14  H    3.843380   2.620546   2.443730   2.053134   0.963570
    15  H    6.576739   6.026449   6.835097   4.607190   4.339206
    16  H    6.819601   6.021938   6.587512   4.599817   3.881442
                    6          7          8          9         10
     6  C    0.000000
     7  C    1.405380   0.000000
     8  N    2.403901   1.353488   0.000000
     9  C    2.422671   1.410362   2.394451   0.000000
    10  C    2.783498   2.416468   3.646677   1.372399   0.000000
    11  H    3.730823   3.276243   4.413616   2.026248   0.947515
    12  H    0.952018   2.054982   2.605881   3.286400   3.735253
    13  H    3.290415   2.063546   2.591106   0.956928   2.021741
    14  H    2.039799   3.289335   4.436356   3.750524   3.291446
    15  H    3.178573   1.931254   0.864502   2.528965   3.886983
    16  H    2.523518   1.920277   0.872633   3.169228   4.328667
                   11         12         13         14         15
    11  H    0.000000
    12  H    4.682590   0.000000
    13  H    2.324474   4.087493   0.000000
    14  H    4.069769   2.326881   4.707423   0.000000
    15  H    4.523389   3.461914   2.392616   5.178553   0.000000
    16  H    5.154598   2.391517   3.452313   4.530724   1.526283
                   16
    16  H    0.000000
 Stoichiometry    C6H6N2O2
 Framework group  C1[X(C6H6N2O2)]
 Deg. of freedom    42
 Full point group                 C1      NOp   1
 Largest Abelian subgroup         C1      NOp   1
 Largest concise Abelian subgroup C1      NOp   1
                         Standard orientation:                         
 ---------------------------------------------------------------------
 Center     Atomic      Atomic             Coordinates (Angstroms)
 Number     Number       Type             X           Y           Z
 ---------------------------------------------------------------------
      1          8           0        2.725822   -1.084555    0.033927
      2          7           0        2.133803   -0.000041    0.003373
      3          8           0        2.739637    1.070066   -0.014619
      4          6           0        0.697872    0.006528   -0.008200
      5          6           0        0.013231    1.219998   -0.002988
      6          6           0       -1.358693    1.213561    0.000269
      7          6           0       -2.073856    0.003752    0.000777
      8          7           0       -3.427091   -0.011178    0.022243
      9          6           0       -1.354223   -1.209020   -0.020041
     10          6           0        0.018160   -1.205421   -0.025524
     11          1           0        0.502833   -2.019588   -0.022435
     12          1           0       -1.824787    2.043514   -0.016259
     13          1           0       -1.821455   -2.043915   -0.038941
     14          1           0        0.501474    2.049746    0.037073
     15          1           0       -3.843258   -0.768110    0.057205
     16          1           0       -3.840403    0.756406   -0.016175
 ---------------------------------------------------------------------
 Rotational constants (GHZ):      4.0228528      0.8353493      0.6918082
 Leave Link  202 at Fri Aug 20 15:41:43 2021, MaxMem= 24159191040 cpu:         0.8
 (Enter /public/home/users/caep010/software/Gaussian09/g09/l301.exe)
 Standard basis: 6-31G(d,p) (6D, 7F)
 Ernie: Thresh=  0.10000D-02 Tol=  0.10000D-05 Strict=F.
 There are   180 symmetry adapted cartesian basis functions of A   symmetry.
 There are   180 symmetry adapted basis functions of A   symmetry.
   180 basis functions,   322 primitive gaussians,   180 cartesian basis functions
    36 alpha electrons       36 beta electrons
       nuclear repulsion energy       502.3093780721 Hartrees.
 IExCor=  402 DFT=T Ex+Corr=B3LYP ExCW=0 ScaHFX=  0.200000
 ScaDFX=  0.800000  0.720000  1.000000  0.810000 ScalE2=  1.000000  1.000000
 IRadAn=      0 IRanWt=     -1 IRanGd=            0 ICorTp=0 IEmpDi=  4
 NAtoms=   16 NActive=   16 NUniq=   16 SFac= 1.00D+00 NAtFMM=   60 NAOKFM=F Big=F
 Integral buffers will be    131072 words long.
 Raffenetti 2 integral format.
 Two-electron integral symmetry is turned on.
 Leave Link  301 at Fri Aug 20 15:41:43 2021, MaxMem= 24159191040 cpu:         2.0
 (Enter /public/home/users/caep010/software/Gaussian09/g09/l302.exe)
 NPDir=0 NMtPBC=     1 NCelOv=     1 NCel=       1 NClECP=     1 NCelD=      1
         NCelK=      1 NCelE2=     1 NClLst=     1 CellRange=     0.0.
 One-electron integrals computed using PRISM.
 NBasis=   180 RedAO= T EigKep=  3.67D-04  NBF=   180
 NBsUse=   180 1.00D-06 EigRej= -1.00D+00 NBFU=   180
 Precomputing XC quadrature grid using
 IXCGrd= 4 IRadAn=           0 IRanWt=          -1 IRanGd=           0 AccXCQ= 0.00D+00.
 Generated NRdTot=       0 NPtTot=           0 NUsed=           0 NTot=          32
 NSgBfM=   179   179   179   179   179 MxSgAt=    16 MxSgA2=    16.
 Leave Link  302 at Fri Aug 20 15:41:43 2021, MaxMem= 24159191040 cpu:        11.5
 (Enter /public/home/users/caep010/software/Gaussian09/g09/l303.exe)
 DipDrv:  MaxL=1.
 Leave Link  303 at Fri Aug 20 15:41:43 2021, MaxMem= 24159191040 cpu:         0.8
 (Enter /public/home/users/caep010/software/Gaussian09/g09/l401.exe)
 ExpMin= 1.61D-01 ExpMax= 5.48D+03 ExpMxC= 8.25D+02 IAcc=1 IRadAn=         1 AccDes= 0.00D+00
 Harris functional with IExCor=  402 and IRadAn=       1 diagonalized for initial guess.
 HarFok:  IExCor=  402 AccDes= 0.00D+00 IRadAn=         1 IDoV= 1 UseB2=F ITyADJ=14
 ICtDFT=  3500011 ScaDFX=  1.000000  1.000000  1.000000  1.000000
 FoFCou: FMM=F IPFlag=           0 FMFlag=      100000 FMFlg1=           0
         NFxFlg=           0 DoJE=T BraDBF=F KetDBF=T FulRan=T
         wScrn=  0.000000 ICntrl=     500 IOpCl=  0 I1Cent=   200000004 NGrid=           0
         NMat0=    1 NMatS0=      1 NMatT0=    0 NMatD0=    1 NMtDS0=    0 NMtDT0=    0
 Petite list used in FoFCou.
 Harris En= -492.113708878617    
 JPrj=0 DoOrth=F DoCkMO=F.
 Leave Link  401 at Fri Aug 20 15:41:44 2021, MaxMem= 24159191040 cpu:        10.7
 (Enter /public/home/users/caep010/software/Gaussian09/g09/l502.exe)
 Closed shell SCF:
 Using DIIS extrapolation, IDIIS=  1040.
 Integral symmetry usage will be decided dynamically.
 Keep R1 ints in memory in canonical form, NReq=135777835.
 IVT=      122860 IEndB=      122860 NGot= 24159191040 MDV= 24026377986
 LenX= 24026377986 LenY= 24026345145
 Requested convergence on RMS density matrix=1.00D-08 within 128 cycles.
 Requested convergence on MAX density matrix=1.00D-06.
 Requested convergence on             energy=1.00D-06.
 No special actions if energy rises.
 FoFCou: FMM=F IPFlag=           0 FMFlag=           0 FMFlg1=           0
         NFxFlg=           0 DoJE=F BraDBF=F KetDBF=F FulRan=T
         wScrn=  0.000000 ICntrl=     600 IOpCl=  0 I1Cent=           0 NGrid=           0
         NMat0=    1 NMatS0=  16290 NMatT0=    0 NMatD0=    1 NMtDS0=    0 NMtDT0=    0
 Symmetry not used in FoFCou.
 Integral accuracy reduced to 1.0D-05 until final iterations.

 Cycle   1  Pass 0  IDiag  1:
 E= -491.671836461429    
 DIIS: error= 5.33D-02 at cycle   1 NSaved=   1.
 NSaved= 1 IEnMin= 1 EnMin= -491.671836461429     IErMin= 1 ErrMin= 5.33D-02
 ErrMax= 5.33D-02  0.00D+00 EMaxC= 1.00D-01 BMatC= 4.18D-01 BMatP= 4.18D-01
 IDIUse=3 WtCom= 4.67D-01 WtEn= 5.33D-01
 Coeff-Com:  0.100D+01
 Coeff-En:   0.100D+01
 Coeff:      0.100D+01
 Gap=     0.091 Goal=   None    Shift=    0.000
 GapD=    0.091 DampG=0.500 DampE=0.500 DampFc=0.2500 IDamp=-1.
 Damping current iteration by 2.50D-01
 RMSDP=7.04D-03 MaxDP=2.56D-01              OVMax= 3.47D-01

 Cycle   2  Pass 0  IDiag  1:
 E= -491.797277493725     Delta-E=       -0.125441032297 Rises=F Damp=T
 DIIS: error= 2.19D-02 at cycle   2 NSaved=   2.
 NSaved= 2 IEnMin= 2 EnMin= -491.797277493725     IErMin= 2 ErrMin= 2.19D-02
 ErrMax= 2.19D-02  0.00D+00 EMaxC= 1.00D-01 BMatC= 7.97D-02 BMatP= 4.18D-01
 IDIUse=3 WtCom= 7.81D-01 WtEn= 2.19D-01
 Coeff-Com: -0.566D+00 0.157D+01
 Coeff-En:   0.000D+00 0.100D+01
 Coeff:     -0.442D+00 0.144D+01
 Gap=     0.168 Goal=   None    Shift=    0.000
 RMSDP=2.55D-03 MaxDP=6.12D-02 DE=-1.25D-01 OVMax= 2.27D-01

 Cycle   3  Pass 0  IDiag  1:
 E= -491.998706908562     Delta-E=       -0.201429414837 Rises=F Damp=F
 DIIS: error= 8.60D-03 at cycle   3 NSaved=   3.
 NSaved= 3 IEnMin= 3 EnMin= -491.998706908562     IErMin= 3 ErrMin= 8.60D-03
 ErrMax= 8.60D-03  0.00D+00 EMaxC= 1.00D-01 BMatC= 1.89D-02 BMatP= 7.97D-02
 IDIUse=3 WtCom= 9.14D-01 WtEn= 8.60D-02
 Coeff-Com: -0.241D+00 0.679D+00 0.562D+00
 Coeff-En:   0.000D+00 0.000D+00 0.100D+01
 Coeff:     -0.220D+00 0.620D+00 0.600D+00
 Gap=     0.159 Goal=   None    Shift=    0.000
 RMSDP=1.24D-03 MaxDP=3.19D-02 DE=-2.01D-01 OVMax= 7.34D-02

 Cycle   4  Pass 0  IDiag  1:
 E= -492.012811500133     Delta-E=       -0.014104591571 Rises=F Damp=F
 DIIS: error= 4.70D-03 at cycle   4 NSaved=   4.
 NSaved= 4 IEnMin= 4 EnMin= -492.012811500133     IErMin= 4 ErrMin= 4.70D-03
 ErrMax= 4.70D-03  0.00D+00 EMaxC= 1.00D-01 BMatC= 5.29D-03 BMatP= 1.89D-02
 IDIUse=3 WtCom= 9.53D-01 WtEn= 4.70D-02
 Coeff-Com: -0.557D-01 0.190D+00 0.352D+00 0.514D+00
 Coeff-En:   0.000D+00 0.000D+00 0.216D+00 0.784D+00
 Coeff:     -0.531D-01 0.181D+00 0.346D+00 0.526D+00
 Gap=     0.160 Goal=   None    Shift=    0.000
 RMSDP=5.39D-04 MaxDP=1.41D-02 DE=-1.41D-02 OVMax= 3.49D-02

 Cycle   5  Pass 0  IDiag  1:
 E= -492.017403727358     Delta-E=       -0.004592227226 Rises=F Damp=F
 DIIS: error= 3.09D-03 at cycle   5 NSaved=   5.
 NSaved= 5 IEnMin= 5 EnMin= -492.017403727358     IErMin= 5 ErrMin= 3.09D-03
 ErrMax= 3.09D-03  0.00D+00 EMaxC= 1.00D-01 BMatC= 9.21D-04 BMatP= 5.29D-03
 IDIUse=3 WtCom= 9.69D-01 WtEn= 3.09D-02
 Coeff-Com:  0.900D-03 0.207D-01 0.144D+00 0.345D+00 0.490D+00
 Coeff-En:   0.000D+00 0.000D+00 0.000D+00 0.134D+00 0.866D+00
 Coeff:      0.872D-03 0.200D-01 0.139D+00 0.338D+00 0.501D+00
 Gap=     0.159 Goal=   None    Shift=    0.000
 RMSDP=2.07D-04 MaxDP=8.05D-03 DE=-4.59D-03 OVMax= 1.69D-02

 Cycle   6  Pass 0  IDiag  1:
 E= -492.018050433069     Delta-E=       -0.000646705711 Rises=F Damp=F
 DIIS: error= 2.37D-03 at cycle   6 NSaved=   6.
 NSaved= 6 IEnMin= 6 EnMin= -492.018050433069     IErMin= 6 ErrMin= 2.37D-03
 ErrMax= 2.37D-03  0.00D+00 EMaxC= 1.00D-01 BMatC= 2.61D-04 BMatP= 9.21D-04
 IDIUse=3 WtCom= 9.76D-01 WtEn= 2.37D-02
 Coeff-Com:  0.513D-02-0.115D-02 0.715D-01 0.200D+00 0.378D+00 0.347D+00
 Coeff-En:   0.000D+00 0.000D+00 0.000D+00 0.000D+00 0.206D+00 0.794D+00
 Coeff:      0.501D-02-0.113D-02 0.698D-01 0.195D+00 0.374D+00 0.357D+00
 Gap=     0.159 Goal=   None    Shift=    0.000
 RMSDP=8.83D-05 MaxDP=4.55D-03 DE=-6.47D-04 OVMax= 8.64D-03

 Cycle   7  Pass 0  IDiag  1:
 E= -492.018244176856     Delta-E=       -0.000193743787 Rises=F Damp=F
 DIIS: error= 4.91D-04 at cycle   7 NSaved=   7.
 NSaved= 7 IEnMin= 7 EnMin= -492.018244176856     IErMin= 7 ErrMin= 4.91D-04
 ErrMax= 4.91D-04  0.00D+00 EMaxC= 1.00D-01 BMatC= 1.75D-05 BMatP= 2.61D-04
 IDIUse=3 WtCom= 9.95D-01 WtEn= 4.91D-03
 Coeff-Com:  0.255D-02-0.268D-02 0.226D-01 0.694D-01 0.164D+00 0.239D+00
 Coeff-Com:  0.506D+00
 Coeff-En:   0.000D+00 0.000D+00 0.000D+00 0.000D+00 0.000D+00 0.670D-01
 Coeff-En:   0.933D+00
 Coeff:      0.254D-02-0.266D-02 0.224D-01 0.691D-01 0.163D+00 0.238D+00
 Coeff:      0.508D+00
 Gap=     0.160 Goal=   None    Shift=    0.000
 RMSDP=2.73D-05 MaxDP=1.02D-03 DE=-1.94D-04 OVMax= 1.85D-03

 Cycle   8  Pass 0  IDiag  1:
 E= -492.018259328655     Delta-E=       -0.000015151799 Rises=F Damp=F
 DIIS: error= 8.16D-05 at cycle   8 NSaved=   8.
 NSaved= 8 IEnMin= 8 EnMin= -492.018259328655     IErMin= 8 ErrMin= 8.16D-05
 ErrMax= 8.16D-05  0.00D+00 EMaxC= 1.00D-01 BMatC= 1.24D-06 BMatP= 1.75D-05
 IDIUse=1 WtCom= 1.00D+00 WtEn= 0.00D+00
 Coeff-Com:  0.131D-02-0.235D-02 0.572D-02 0.213D-01 0.596D-01 0.105D+00
 Coeff-Com:  0.297D+00 0.513D+00
 Coeff:      0.131D-02-0.235D-02 0.572D-02 0.213D-01 0.596D-01 0.105D+00
 Coeff:      0.297D+00 0.513D+00
 Gap=     0.160 Goal=   None    Shift=    0.000
 RMSDP=7.81D-06 MaxDP=2.35D-04 DE=-1.52D-05 OVMax= 6.13D-04

 Initial convergence to 1.0D-05 achieved.  Increase integral accuracy.
 Cycle   9  Pass 1  IDiag  1:
 E= -492.018247514240     Delta-E=        0.000011814415 Rises=F Damp=F
 DIIS: error= 4.12D-05 at cycle   1 NSaved=   1.
 NSaved= 1 IEnMin= 1 EnMin= -492.018247514240     IErMin= 1 ErrMin= 4.12D-05
 ErrMax= 4.12D-05  0.00D+00 EMaxC= 1.00D-01 BMatC= 1.42D-07 BMatP= 1.42D-07
 IDIUse=1 WtCom= 1.00D+00 WtEn= 0.00D+00
 Coeff-Com:  0.100D+01
 Coeff:      0.100D+01
 Gap=     0.160 Goal=   None    Shift=    0.000
 RMSDP=7.81D-06 MaxDP=2.35D-04 DE= 1.18D-05 OVMax= 1.57D-04

 Cycle  10  Pass 1  IDiag  1:
 E= -492.018247654210     Delta-E=       -0.000000139970 Rises=F Damp=F
 DIIS: error= 1.72D-05 at cycle   2 NSaved=   2.
 NSaved= 2 IEnMin= 2 EnMin= -492.018247654210     IErMin= 2 ErrMin= 1.72D-05
 ErrMax= 1.72D-05  0.00D+00 EMaxC= 1.00D-01 BMatC= 3.80D-08 BMatP= 1.42D-07
 IDIUse=1 WtCom= 1.00D+00 WtEn= 0.00D+00
 Coeff-Com:  0.275D+00 0.725D+00
 Coeff:      0.275D+00 0.725D+00
 Gap=     0.160 Goal=   None    Shift=    0.000
 RMSDP=2.32D-06 MaxDP=6.36D-05 DE=-1.40D-07 OVMax= 1.85D-04

 Cycle  11  Pass 1  IDiag  1:
 E= -492.018247665049     Delta-E=       -0.000000010839 Rises=F Damp=F
 DIIS: error= 1.34D-05 at cycle   3 NSaved=   3.
 NSaved= 3 IEnMin= 3 EnMin= -492.018247665049     IErMin= 3 ErrMin= 1.34D-05
 ErrMax= 1.34D-05  0.00D+00 EMaxC= 1.00D-01 BMatC= 2.53D-08 BMatP= 3.80D-08
 IDIUse=1 WtCom= 1.00D+00 WtEn= 0.00D+00
 Coeff-Com:  0.203D-02 0.447D+00 0.551D+00
 Coeff:      0.203D-02 0.447D+00 0.551D+00
 Gap=     0.160 Goal=   None    Shift=    0.000
 RMSDP=1.15D-06 MaxDP=3.73D-05 DE=-1.08D-08 OVMax= 9.94D-05

 Cycle  12  Pass 1  IDiag  1:
 E= -492.018247686926     Delta-E=       -0.000000021877 Rises=F Damp=F
 DIIS: error= 3.55D-06 at cycle   4 NSaved=   4.
 NSaved= 4 IEnMin= 4 EnMin= -492.018247686926     IErMin= 4 ErrMin= 3.55D-06
 ErrMax= 3.55D-06  0.00D+00 EMaxC= 1.00D-01 BMatC= 1.81D-09 BMatP= 2.53D-08
 IDIUse=1 WtCom= 1.00D+00 WtEn= 0.00D+00
 Coeff-Com: -0.108D-01 0.228D+00 0.329D+00 0.453D+00
 Coeff:     -0.108D-01 0.228D+00 0.329D+00 0.453D+00
 Gap=     0.160 Goal=   None    Shift=    0.000
 RMSDP=2.68D-07 MaxDP=9.88D-06 DE=-2.19D-08 OVMax= 1.87D-05

 Cycle  13  Pass 1  IDiag  1:
 E= -492.018247688227     Delta-E=       -0.000000001301 Rises=F Damp=F
 DIIS: error= 2.57D-06 at cycle   5 NSaved=   5.
 NSaved= 5 IEnMin= 5 EnMin= -492.018247688227     IErMin= 5 ErrMin= 2.57D-06
 ErrMax= 2.57D-06  0.00D+00 EMaxC= 1.00D-01 BMatC= 3.40D-10 BMatP= 1.81D-09
 IDIUse=1 WtCom= 1.00D+00 WtEn= 0.00D+00
 Coeff-Com: -0.755D-02 0.119D+00 0.183D+00 0.322D+00 0.384D+00
 Coeff:     -0.755D-02 0.119D+00 0.183D+00 0.322D+00 0.384D+00
 Gap=     0.160 Goal=   None    Shift=    0.000
 RMSDP=1.10D-07 MaxDP=5.37D-06 DE=-1.30D-09 OVMax= 1.04D-05

 Cycle  14  Pass 1  IDiag  1:
 E= -492.018247688466     Delta-E=       -0.000000000239 Rises=F Damp=F
 DIIS: error= 8.99D-07 at cycle   6 NSaved=   6.
 NSaved= 6 IEnMin= 6 EnMin= -492.018247688466     IErMin= 6 ErrMin= 8.99D-07
 ErrMax= 8.99D-07  0.00D+00 EMaxC= 1.00D-01 BMatC= 4.69D-11 BMatP= 3.40D-10
 IDIUse=1 WtCom= 1.00D+00 WtEn= 0.00D+00
 Coeff-Com: -0.386D-02 0.533D-01 0.853D-01 0.166D+00 0.282D+00 0.417D+00
 Coeff:     -0.386D-02 0.533D-01 0.853D-01 0.166D+00 0.282D+00 0.417D+00
 Gap=     0.160 Goal=   None    Shift=    0.000
 RMSDP=3.57D-08 MaxDP=1.43D-06 DE=-2.39D-10 OVMax= 2.98D-06

 Cycle  15  Pass 1  IDiag  1:
 E= -492.018247688509     Delta-E=       -0.000000000043 Rises=F Damp=F
 DIIS: error= 7.53D-08 at cycle   7 NSaved=   7.
 NSaved= 7 IEnMin= 7 EnMin= -492.018247688509     IErMin= 7 ErrMin= 7.53D-08
 ErrMax= 7.53D-08  0.00D+00 EMaxC= 1.00D-01 BMatC= 1.23D-12 BMatP= 4.69D-11
 IDIUse=1 WtCom= 1.00D+00 WtEn= 0.00D+00
 Coeff-Com: -0.776D-03 0.850D-02 0.145D-01 0.306D-01 0.723D-01 0.186D+00
 Coeff-Com:  0.689D+00
 Coeff:     -0.776D-03 0.850D-02 0.145D-01 0.306D-01 0.723D-01 0.186D+00
 Coeff:      0.689D+00
 Gap=     0.160 Goal=   None    Shift=    0.000
 RMSDP=7.41D-09 MaxDP=1.68D-07 DE=-4.26D-11 OVMax= 4.28D-07

 SCF Done:  E(RB3LYP) =  -492.018247689     A.U. after   15 cycles
            NFock= 15  Conv=0.74D-08     -V/T= 2.0055
 KE= 4.893318918534D+02 PE=-2.153242477460D+03 EE= 6.695829598458D+02
 Leave Link  502 at Fri Aug 20 15:41:49 2021, MaxMem= 24159191040 cpu:        66.6
 (Enter /public/home/users/caep010/software/Gaussian09/g09/l601.exe)
 Copying SCF densities to generalized density rwf, IOpCl= 0 IROHF=0.

 **********************************************************************

            Population analysis using the SCF density.

 **********************************************************************

 Orbital symmetries:
       Occupied  (A) (A) (A) (A) (A) (A) (A) (A) (A) (A) (A) (A)
                 (A) (A) (A) (A) (A) (A) (A) (A) (A) (A) (A) (A)
                 (A) (A) (A) (A) (A) (A) (A) (A) (A) (A) (A) (A)
       Virtual   (A) (A) (A) (A) (A) (A) (A) (A) (A) (A) (A) (A)
                 (A) (A) (A) (A) (A) (A) (A) (A) (A) (A) (A) (A)
                 (A) (A) (A) (A) (A) (A) (A) (A) (A) (A) (A) (A)
                 (A) (A) (A) (A) (A) (A) (A) (A) (A) (A) (A) (A)
                 (A) (A) (A) (A) (A) (A) (A) (A) (A) (A) (A) (A)
                 (A) (A) (A) (A) (A) (A) (A) (A) (A) (A) (A) (A)
                 (A) (A) (A) (A) (A) (A) (A) (A) (A) (A) (A) (A)
                 (A) (A) (A) (A) (A) (A) (A) (A) (A) (A) (A) (A)
                 (A) (A) (A) (A) (A) (A) (A) (A) (A) (A) (A) (A)
                 (A) (A) (A) (A) (A) (A) (A) (A) (A) (A) (A) (A)
                 (A) (A) (A) (A) (A) (A) (A) (A) (A) (A) (A) (A)
                 (A) (A) (A) (A) (A) (A) (A) (A) (A) (A) (A) (A)
 The electronic state is 1-A.
 Alpha  occ. eigenvalues --  -19.15670 -19.15502 -14.55027 -14.35175 -10.25776
 Alpha  occ. eigenvalues --  -10.23051 -10.20064 -10.19782 -10.19088 -10.19083
 Alpha  occ. eigenvalues --   -1.20431  -1.02455  -0.98557  -0.88200  -0.79798
 Alpha  occ. eigenvalues --   -0.78550  -0.69936  -0.66568  -0.61174  -0.59615
 Alpha  occ. eigenvalues --   -0.57287  -0.53166  -0.51339  -0.49399  -0.48659
 Alpha  occ. eigenvalues --   -0.46300  -0.45477  -0.42302  -0.41251  -0.37793
 Alpha  occ. eigenvalues --   -0.33982  -0.29138  -0.28817  -0.27439  -0.26616
 Alpha  occ. eigenvalues --   -0.22837
 Alpha virt. eigenvalues --   -0.06857  -0.01880   0.02696   0.08650   0.12716
 Alpha virt. eigenvalues --    0.12825   0.15730   0.18637   0.18960   0.21570
 Alpha virt. eigenvalues --    0.21986   0.24053   0.27719   0.29858   0.31820
 Alpha virt. eigenvalues --    0.33619   0.34740   0.38882   0.48739   0.49836
 Alpha virt. eigenvalues --    0.50248   0.51728   0.55672   0.56004   0.56916
 Alpha virt. eigenvalues --    0.57080   0.57878   0.59251   0.60885   0.64407
 Alpha virt. eigenvalues --    0.65146   0.65461   0.66972   0.72117   0.72817
 Alpha virt. eigenvalues --    0.74678   0.78517   0.79667   0.82323   0.84940
 Alpha virt. eigenvalues --    0.87809   0.89404   0.91872   0.93043   0.94079
 Alpha virt. eigenvalues --    0.95444   0.96805   0.97666   0.97799   0.98379
 Alpha virt. eigenvalues --    1.00087   1.01509   1.08366   1.08825   1.11838
 Alpha virt. eigenvalues --    1.17410   1.19722   1.21965   1.24301   1.26525
 Alpha virt. eigenvalues --    1.29981   1.35338   1.35769   1.36779   1.37409
 Alpha virt. eigenvalues --    1.42373   1.43879   1.45017   1.45650   1.47356
 Alpha virt. eigenvalues --    1.54480   1.60513   1.70942   1.72215   1.75803
 Alpha virt. eigenvalues --    1.76212   1.79898   1.83339   1.84629   1.85234
 Alpha virt. eigenvalues --    1.86137   1.91401   1.94160   1.95875   1.96337
 Alpha virt. eigenvalues --    1.98300   1.98804   2.06421   2.07567   2.11614
 Alpha virt. eigenvalues --    2.12337   2.13790   2.17896   2.20394   2.21779
 Alpha virt. eigenvalues --    2.22667   2.23907   2.30788   2.39466   2.39825
 Alpha virt. eigenvalues --    2.45600   2.46009   2.48269   2.50667   2.50975
 Alpha virt. eigenvalues --    2.52594   2.53705   2.56223   2.56827   2.65244
 Alpha virt. eigenvalues --    2.67385   2.68965   2.71324   2.74242   2.79179
 Alpha virt. eigenvalues --    2.82888   2.87440   2.88200   2.90084   2.91010
 Alpha virt. eigenvalues --    2.97599   2.99838   3.07767   3.21519   3.22119
 Alpha virt. eigenvalues --    3.26139   3.33410   3.54436   3.62044   3.67485
 Alpha virt. eigenvalues --    3.75016   3.76505   3.85670   3.93799   3.94858
 Alpha virt. eigenvalues --    4.01892   4.08804   4.11684   4.13168   4.20227
 Alpha virt. eigenvalues --    4.25615   4.43163   4.53368   4.91389
          Condensed to atoms (all electrons):
               1          2          3          4          5          6
     1  O    8.305270   0.293496  -0.113974  -0.094119   0.007594  -0.000039
     2  N    0.293496   5.991126   0.295775   0.166592  -0.043191   0.004668
     3  O   -0.113974   0.295775   8.301815  -0.094912  -0.001444   0.001164
     4  C   -0.094119   0.166592  -0.094912   4.977524   0.478989  -0.021985
     5  C    0.007594  -0.043191  -0.001444   0.478989   4.905330   0.503521
     6  C   -0.000039   0.004668   0.001164  -0.021985   0.503521   4.935561
     7  C   -0.000008   0.000311  -0.000009  -0.043331  -0.011762   0.511235
     8  N    0.000000   0.000000   0.000000   0.000562   0.005218  -0.076629
     9  C    0.001200   0.004825  -0.000041  -0.021603  -0.042817  -0.053439
    10  C   -0.002838  -0.041707   0.007773   0.481779  -0.086686  -0.041973
    11  H    0.023582  -0.016354   0.000307  -0.038434   0.008614   0.000263
    12  H    0.000001  -0.000147  -0.000003   0.005297  -0.040199   0.371588
    13  H   -0.000005  -0.000143   0.000001   0.005338   0.000784   0.007485
    14  H    0.000262  -0.015054   0.021528  -0.036672   0.367345  -0.042020
    15  H    0.000000  -0.000000   0.000000  -0.000011  -0.000176   0.008472
    16  H    0.000000  -0.000000   0.000000  -0.000009  -0.000226  -0.015352
               7          8          9         10         11         12
     1  O   -0.000008   0.000000   0.001200  -0.002838   0.023582   0.000001
     2  N    0.000311   0.000000   0.004825  -0.041707  -0.016354  -0.000147
     3  O   -0.000009   0.000000  -0.000041   0.007773   0.000307  -0.000003
     4  C   -0.043331   0.000562  -0.021603   0.481779  -0.038434   0.005297
     5  C   -0.011762   0.005218  -0.042817  -0.086686   0.008614  -0.040199
     6  C    0.511235  -0.076629  -0.053439  -0.041973   0.000263   0.371588
     7  C    4.552378   0.354989   0.508753  -0.012357   0.005851  -0.054592
     8  N    0.354989   6.602010  -0.077659   0.005255  -0.000150  -0.011069
     9  C    0.508753  -0.077659   4.942200   0.504524  -0.043395   0.007674
    10  C   -0.012357   0.005255   0.504524   4.891049   0.367449   0.000817
    11  H    0.005851  -0.000150  -0.043395   0.367449   0.605606   0.000032
    12  H   -0.054592  -0.011069   0.007674   0.000817   0.000032   0.661211
    13  H   -0.054787  -0.010965   0.372078  -0.039040  -0.009159  -0.000292
    14  H    0.005466  -0.000136   0.000308   0.008080  -0.000260  -0.008902
    15  H   -0.013835   0.385560  -0.015443  -0.000184  -0.000006  -0.000160
    16  H   -0.013816   0.381510   0.008557  -0.000194   0.000005   0.005450
              13         14         15         16
     1  O   -0.000005   0.000262   0.000000   0.000000
     2  N   -0.000143  -0.015054  -0.000000  -0.000000
     3  O    0.000001   0.021528   0.000000   0.000000
     4  C    0.005338  -0.036672  -0.000011  -0.000009
     5  C    0.000784   0.367345  -0.000176  -0.000226
     6  C    0.007485  -0.042020   0.008472  -0.015352
     7  C   -0.054787   0.005466  -0.013835  -0.013816
     8  N   -0.010965  -0.000136   0.385560   0.381510
     9  C    0.372078   0.000308  -0.015443   0.008557
    10  C   -0.039040   0.008080  -0.000184  -0.000194
    11  H   -0.009159  -0.000260  -0.000006   0.000005
    12  H   -0.000292  -0.008902  -0.000160   0.005450
    13  H    0.658450   0.000030   0.005138  -0.000131
    14  H    0.000030   0.597500   0.000005  -0.000006
    15  H    0.005138   0.000005   0.424982  -0.037765
    16  H   -0.000131  -0.000006  -0.037765   0.425017
 Mulliken charges:
               1
     1  O   -0.420423
     2  N    0.359802
     3  O   -0.417980
     4  C    0.234996
     5  C   -0.050893
     6  C   -0.092520
     7  C    0.265514
     8  N   -0.558496
     9  C   -0.095722
    10  C   -0.041746
    11  H    0.096047
    12  H    0.063293
    13  H    0.065216
    14  H    0.102527
    15  H    0.243423
    16  H    0.246962
 Sum of Mulliken charges =  -0.00000
 Mulliken charges with hydrogens summed into heavy atoms:
               1
     1  O   -0.420423
     2  N    0.359802
     3  O   -0.417980
     4  C    0.234996
     5  C    0.051634
     6  C   -0.029228
     7  C    0.265514
     8  N   -0.068111
     9  C   -0.030505
    10  C    0.054300
 Electronic spatial extent (au):  <R**2>=           1524.7658
 Charge=             -0.0000 electrons
 Dipole moment (field-independent basis, Debye):
    X=             -7.6251    Y=              0.0511    Z=             -0.0257  Tot=              7.6253
 Quadrupole moment (field-independent basis, Debye-Ang):
   XX=            -54.9221   YY=            -52.1965   ZZ=            -57.5014
   XY=              0.1214   XZ=             -0.0397   YZ=              0.0616
 Traceless Quadrupole moment (field-independent basis, Debye-Ang):
   XX=             -0.0488   YY=              2.6769   ZZ=             -2.6281
   XY=              0.1214   XZ=             -0.0397   YZ=              0.0616
 Octapole moment (field-independent basis, Debye-Ang**2):
  XXX=            -97.8867  YYY=              0.0956  ZZZ=              0.1855  XYY=            -15.1703
  XXY=              0.0089  XXZ=             -0.1199  XZZ=             10.7435  YZZ=             -0.0478
  YYZ=             -0.0004  XYZ=              0.8153
 Hexadecapole moment (field-independent basis, Debye-Ang**3):
 XXXX=          -1292.8135 YYYY=           -344.1309 ZZZZ=            -53.0256 XXXY=              1.1224
 XXXZ=             -1.4780 YYYX=              0.5916 YYYZ=              0.3064 ZZZX=              0.2068
 ZZZY=             -0.2831 XXYY=           -289.4371 XXZZ=           -253.0070 YYZZ=            -73.7586
 XXYZ=             -1.1824 YYXZ=              0.1069 ZZXY=              0.0380
 N-N= 5.023093780721D+02 E-N=-2.153242490201D+03  KE= 4.893318918534D+02
 No NMR shielding tensors so no spin-rotation constants.
 Leave Link  601 at Fri Aug 20 15:41:49 2021, MaxMem= 24159191040 cpu:        15.5
 (Enter /public/home/users/caep010/software/Gaussian09/g09/l701.exe)
 Compute integral first derivatives.
 ... and contract with generalized density number  0.
 Leave Link  701 at Fri Aug 20 15:41:50 2021, MaxMem= 24159191040 cpu:        11.1
 (Enter /public/home/users/caep010/software/Gaussian09/g09/l702.exe)
 L702 exits ... SP integral derivatives will be done elsewhere.
 Leave Link  702 at Fri Aug 20 15:41:50 2021, MaxMem= 24159191040 cpu:         0.5
 (Enter /public/home/users/caep010/software/Gaussian09/g09/l703.exe)
 Compute integral first derivatives, UseDBF=F ICtDFT=           0.
 Integral derivatives from FoFJK, PRISM(SPDF).
 Calling FoFJK, ICntrl=      2127 FMM=F ISym2X=0 I1Cent= 0 IOpClX= 0 NMat=1 NMatS=1 NMatT=0.
 FoFJK:  IHMeth= 1 ICntrl=    2127 DoSepK=F KAlg= 0 I1Cent=   0 FoldK=F
 IRaf=         0 NMat=   1 IRICut=       1 DoRegI=T DoRafI=F ISym2E= 0.
 FoFCou: FMM=F IPFlag=           0 FMFlag=      100000 FMFlg1=         800
         NFxFlg=           0 DoJE=F BraDBF=F KetDBF=F FulRan=T
         wScrn=  0.000000 ICntrl=    2127 IOpCl=  0 I1Cent=           0 NGrid=           0
         NMat0=    1 NMatS0=      1 NMatT0=    0 NMatD0=    1 NMtDS0=    0 NMtDT0=    0
 Symmetry not used in FoFCou.
 Leave Link  703 at Fri Aug 20 15:41:51 2021, MaxMem= 24159191040 cpu:        16.8
 (Enter /public/home/users/caep010/software/Gaussian09/g09/l716.exe)
 Dipole        =-2.99995487D+00 2.01117027D-02-1.01210584D-02
 ***** Axes restored to original set *****
 -------------------------------------------------------------------
 Center     Atomic                   Forces (Hartrees/Bohr)
 Number     Number              X              Y              Z
 -------------------------------------------------------------------
      1        8          -0.007405657   -0.003432252    0.005104891
      2        7           0.005301059   -0.011712731   -0.011525446
      3        8           0.006243087    0.012409948    0.000961179
      4        6           0.000800257    0.002143729   -0.000440260
      5        6          -0.082464228   -0.058434986    0.045471927
      6        6          -0.038350148   -0.112689211   -0.030916445
      7        6           0.002409095   -0.012107005   -0.011228049
      8        7           0.097719721   -0.064038308   -0.140655052
      9        6           0.090360419    0.063737711   -0.049278709
     10        6           0.037529186    0.119657538    0.038342158
     11        1          -0.036189790   -0.129598068   -0.044554979
     12        1           0.036725079    0.125676284    0.039988052
     13        1          -0.097755465   -0.061794180    0.058684371
     14        1           0.090384896    0.054225112   -0.055157231
     15        1          -0.149236333   -0.100794831    0.101734965
     16        1           0.043928824    0.176751249    0.053468629
 -------------------------------------------------------------------
 Cartesian Forces:  Max     0.176751249 RMS     0.071030676
 Leave Link  716 at Fri Aug 20 15:41:51 2021, MaxMem= 24159191040 cpu:         0.7
 (Enter /public/home/users/caep010/software/Gaussian09/g09/l103.exe)

 GradGradGradGradGradGradGradGradGradGradGradGradGradGradGradGradGradGrad
 Berny optimization.
 FormGI is forming the generalized inverse of G from B-inverse, IUseBI=4.
 Internal  Forces:  Max     0.206759760 RMS     0.045660289
 Search for a local minimum.
 Step number   1 out of a maximum of   82
 All quantities printed in internal units (Hartrees-Bohrs-Radians)
 RMS Force = .45660D-01 SwitMx=.10000D-02 MixMth= 1
 Mixed Optimization -- RFO/linear search
 Second derivative matrix not updated -- first step.
 ITU=  0
     Eigenvalues ---    0.01216   0.01216   0.01903   0.02026   0.02126
     Eigenvalues ---    0.02180   0.02214   0.02274   0.02296   0.02307
     Eigenvalues ---    0.02309   0.02348   0.02358   0.15982   0.15996
     Eigenvalues ---    0.15997   0.15999   0.16000   0.16000   0.22000
     Eigenvalues ---    0.22967   0.24001   0.25000   0.25000   0.25000
     Eigenvalues ---    0.25000   0.40140   0.41390   0.42751   0.45720
     Eigenvalues ---    0.46332   0.48531   0.50562   0.54286   0.54713
     Eigenvalues ---    0.56139   0.57226   0.58248   0.79468   0.82360
     Eigenvalues ---    0.88649   0.91156
 RFO step:  Lambda=-1.76413366D-01 EMin= 1.21566010D-02
 Linear search not attempted -- first point.
 Maximum step size (   0.300) exceeded in Quadratic search.
    -- Step size scaled by   0.651
 Iteration  1 RMS(Cart)=  0.03836015 RMS(Int)=  0.00018034
 Iteration  2 RMS(Cart)=  0.00017312 RMS(Int)=  0.00000125
 Iteration  3 RMS(Cart)=  0.00000005 RMS(Int)=  0.00000125
 ITry= 1 IFail=0 DXMaxC= 1.31D-01 DCOld= 1.00D+10 DXMaxT= 3.00D-01 DXLimC= 3.00D+00 Rises=F
 Variable       Old X    -DE/DX   Delta X   Delta X   Delta X     New X
                                 (Linear)    (Quad)   (Total)
    R1        2.33562   0.00383   0.00000   0.00234   0.00234   2.33796
    R2        2.32405   0.01022   0.00000   0.00611   0.00611   2.33016
    R3        2.71363   0.00733   0.00000   0.00826   0.00826   2.72189
    R4        2.63295   0.00422   0.00000   0.00428   0.00428   2.63722
    R5        2.62606   0.00799   0.00000   0.00801   0.00801   2.63407
    R6        2.59260   0.01535   0.00000   0.01465   0.01465   2.60725
    R7        1.82088   0.11893   0.00000   0.10703   0.10703   1.92791
    R8        2.65578   0.00728   0.00000   0.00760   0.00760   2.66338
    R9        1.79905   0.13688   0.00000   0.11905   0.11905   1.91811
   R10        2.55772   0.01988   0.00000   0.01800   0.01800   2.57572
   R11        2.66520   0.00475   0.00000   0.00500   0.00500   2.67020
   R12        1.63367   0.20676   0.00000   0.13463   0.13463   1.76830
   R13        1.64904   0.18962   0.00000   0.12715   0.12715   1.77618
   R14        2.59346   0.01448   0.00000   0.01383   0.01383   2.60729
   R15        1.80833   0.12968   0.00000   0.11445   0.11445   1.92278
   R16        1.79054   0.14173   0.00000   0.12161   0.12161   1.91215
    A1        2.12693   0.01420   0.00000   0.02169   0.02169   2.14862
    A2        2.07509  -0.00642   0.00000  -0.00980  -0.00980   2.06529
    A3        2.08116  -0.00778   0.00000  -0.01189  -0.01189   2.06927
    A4        2.08899  -0.00170   0.00000  -0.00262  -0.00262   2.08638
    A5        2.07740   0.00179   0.00000   0.00272   0.00272   2.08012
    A6        2.11679  -0.00009   0.00000  -0.00010  -0.00010   2.11669
    A7        2.07979   0.00091   0.00000   0.00155   0.00155   2.08134
    A8        2.09572  -0.00152   0.00000  -0.00281  -0.00281   2.09291
    A9        2.10672   0.00065   0.00000   0.00140   0.00140   2.10812
   A10        2.10936  -0.00148   0.00000  -0.00241  -0.00241   2.10695
   A11        2.07767   0.00184   0.00000   0.00333   0.00333   2.08100
   A12        2.09594  -0.00035   0.00000  -0.00090  -0.00090   2.09504
   A13        2.11564  -0.00310   0.00000  -0.00473  -0.00474   2.11090
   A14        2.07211   0.00111   0.00000   0.00169   0.00169   2.07380
   A15        2.09543   0.00199   0.00000   0.00305   0.00304   2.09848
   A16        2.08473   0.00135   0.00000   0.00261   0.00261   2.08733
   A17        2.05234   0.00639   0.00000   0.01237   0.01237   2.06471
   A18        2.14592  -0.00773   0.00000  -0.01496  -0.01496   2.13096
   A19        2.10371  -0.00015   0.00000  -0.00026  -0.00026   2.10345
   A20        2.09601  -0.00084   0.00000  -0.00164  -0.00164   2.09437
   A21        2.08342   0.00099   0.00000   0.00190   0.00190   2.08533
   A22        2.08444  -0.00028   0.00000  -0.00045  -0.00045   2.08400
   A23        2.09341  -0.00093   0.00000  -0.00185  -0.00185   2.09156
   A24        2.10511   0.00123   0.00000   0.00234   0.00234   2.10745
    D1        3.10890   0.00035   0.00000   0.00121   0.00121   3.11011
    D2       -0.03358   0.00033   0.00000   0.00114   0.00114  -0.03244
    D3       -0.03018   0.00011   0.00000   0.00039   0.00039  -0.02980
    D4        3.11053   0.00009   0.00000   0.00031   0.00031   3.11084
    D5       -3.12955  -0.00031   0.00000  -0.00099  -0.00099  -3.13054
    D6       -0.03448   0.00078   0.00000   0.00252   0.00252  -0.03196
    D7        0.01294  -0.00028   0.00000  -0.00092  -0.00092   0.01202
    D8        3.10801   0.00081   0.00000   0.00260   0.00259   3.11060
    D9        3.12767   0.00045   0.00000   0.00144   0.00144   3.12911
   D10        0.00864  -0.00030   0.00000  -0.00096  -0.00096   0.00768
   D11       -0.01482   0.00042   0.00000   0.00137   0.00137  -0.01345
   D12       -3.13385  -0.00033   0.00000  -0.00104  -0.00104  -3.13488
   D13        0.00196  -0.00010   0.00000  -0.00032  -0.00032   0.00164
   D14       -3.11746  -0.00044   0.00000  -0.00145  -0.00145  -3.11890
   D15       -3.09281  -0.00114   0.00000  -0.00374  -0.00375  -3.09655
   D16        0.07096  -0.00148   0.00000  -0.00487  -0.00487   0.06609
   D17        3.12581   0.00026   0.00000   0.00085   0.00085   3.12667
   D18       -0.01448   0.00032   0.00000   0.00106   0.00106  -0.01342
   D19       -0.03818   0.00063   0.00000   0.00204   0.00204  -0.03614
   D20        3.10471   0.00069   0.00000   0.00225   0.00225   3.10695
   D21       -3.09490  -0.00042   0.00000  -0.00139  -0.00139  -3.09629
   D22        0.06719  -0.00058   0.00000  -0.00190  -0.00190   0.06529
   D23        0.04538  -0.00049   0.00000  -0.00160  -0.00160   0.04378
   D24       -3.07571  -0.00065   0.00000  -0.00211  -0.00211  -3.07782
   D25        0.01257  -0.00018   0.00000  -0.00060  -0.00060   0.01197
   D26       -3.11881  -0.00031   0.00000  -0.00100  -0.00100  -3.11981
   D27       -3.12774  -0.00011   0.00000  -0.00039  -0.00039  -3.12813
   D28        0.02406  -0.00024   0.00000  -0.00079  -0.00079   0.02327
   D29        0.00179  -0.00018   0.00000  -0.00057  -0.00057   0.00121
   D30        3.12066   0.00055   0.00000   0.00180   0.00180   3.12246
   D31        3.13324  -0.00006   0.00000  -0.00020  -0.00020   3.13305
   D32       -0.03107   0.00066   0.00000   0.00217   0.00217  -0.02889
         Item               Value     Threshold  Converged?
 Maximum Force            0.206760     0.000450     NO 
 RMS     Force            0.045660     0.000300     NO 
 Maximum Displacement     0.130516     0.001800     NO 
 RMS     Displacement     0.038371     0.001200     NO 
 Predicted change in Energy=-8.541955D-02
 Lowest energy point so far.  Saving SCF results.
 GradGradGradGradGradGradGradGradGradGradGradGradGradGradGradGradGradGrad

 Leave Link  103 at Fri Aug 20 15:41:51 2021, MaxMem= 24159191040 cpu:         3.3
 (Enter /public/home/users/caep010/software/Gaussian09/g09/l202.exe)
                          Input orientation:                          
 ---------------------------------------------------------------------
 Center     Atomic      Atomic             Coordinates (Angstroms)
 Number     Number       Type             X           Y           Z
 ---------------------------------------------------------------------
      1          8           0        6.156722    3.550662   -0.878970
      2          7           0        6.495562    4.696870   -0.559516
      3          8           0        7.398687    5.315146   -1.127456
      4          6           0        5.802133    5.336323    0.529019
      5          6           0        6.188899    6.614228    0.935163
      6          6           0        5.529232    7.215833    1.987055
      7          6           0        4.476970    6.553226    2.650462
      8          7           0        3.833599    7.136127    3.701224
      9          6           0        4.096808    5.265954    2.208865
     10          6           0        4.754494    4.663821    1.156011
     11          1           0        4.496028    3.735411    0.847585
     12          1           0        5.797485    8.153173    2.269361
     13          1           0        3.327014    4.779243    2.662539
     14          1           0        6.976076    7.076415    0.479578
     15          1           0        3.162141    6.664601    4.151141
     16          1           0        4.072950    8.013366    3.939139
 ---------------------------------------------------------------------
                    Distance matrix (angstroms):
                    1          2          3          4          5
     1  O    0.000000
     2  N    1.237197   0.000000
     3  O    2.172010   1.233069   0.000000
     4  C    2.301467   1.440365   2.300727   0.000000
     5  C    3.560555   2.450382   2.721324   1.395559   0.000000
     6  C    4.694819   3.709986   4.099714   2.394349   1.379697
     7  C    4.928879   4.221934   4.933755   2.781624   2.424184
     8  N    6.263436   5.584793   6.272318   4.144551   3.670273
     9  C    4.089034   3.706994   4.694237   2.394779   2.795890
    10  C    2.710445   2.444472   3.553900   1.393888   2.431127
    11  H    2.402712   2.627255   3.849907   2.090529   3.340819
    12  H    5.587857   4.520606   4.707081   3.311111   2.074039
    13  H    4.696695   4.519747   5.588361   3.314884   3.813316
    14  H    3.866254   2.640614   2.421410   2.099644   1.020207
    15  H    6.630697   6.097044   6.901663   4.674789   4.416595
    16  H    6.889993   6.091477   6.634102   4.667500   3.931755
                    6          7          8          9         10
     6  C    0.000000
     7  C    1.409401   0.000000
     8  N    2.412446   1.363011   0.000000
     9  C    2.429623   1.413011   2.407064   0.000000
    10  C    2.793496   2.424924   3.665849   1.379716   0.000000
    11  H    3.805160   3.345267   4.488533   2.086869   1.011868
    12  H    1.015018   2.109224   2.634665   3.351416   3.808274
    13  H    3.353060   2.114133   2.624956   1.017492   2.078616
    14  H    2.094107   3.351417   4.500859   3.815545   3.348671
    15  H    3.254266   1.998304   0.935745   2.569485   3.938212
    16  H    2.562703   1.988952   0.939916   3.246951   4.407920
                   11         12         13         14         15
    11  H    0.000000
    12  H    4.819943   0.000000
    13  H    2.397965   4.200144   0.000000
    14  H    4.177125   2.398293   4.833008   0.000000
    15  H    4.612255   3.563984   2.407840   5.309997   0.000000
    16  H    5.295055   2.404522   3.556076   4.612438   1.641245
                   16
    16  H    0.000000
 Stoichiometry    C6H6N2O2
 Framework group  C1[X(C6H6N2O2)]
 Deg. of freedom    42
 Full point group                 C1      NOp   1
 RotChk:  IX=0 Diff= 6.30D-04
 Largest Abelian subgroup         C1      NOp   1
 Largest concise Abelian subgroup C1      NOp   1
                         Standard orientation:                         
 ---------------------------------------------------------------------
 Center     Atomic      Atomic             Coordinates (Angstroms)
 Number     Number       Type             X           Y           Z
 ---------------------------------------------------------------------
      1          8           0        2.729815   -1.090011    0.032712
      2          7           0        2.145588    0.000161    0.003381
      3          8           0        2.737969    1.081455   -0.015198
      4          6           0        0.705268    0.003768   -0.007379
      5          6           0        0.020185    1.219588   -0.002111
      6          6           0       -1.359505    1.216018    0.000822
      7          6           0       -2.076344    0.002530    0.000544
      8          7           0       -3.439174   -0.006468    0.020883
      9          6           0       -1.357021   -1.213519   -0.019412
     10          6           0        0.022686   -1.211439   -0.024051
     11          1           0        0.541334   -2.080275   -0.021685
     12          1           0       -1.857522    2.100312   -0.015444
     13          1           0       -1.856488   -2.099766   -0.039137
     14          1           0        0.540182    2.096430    0.037548
     15          1           0       -3.895444   -0.822629    0.057164
     16          1           0       -3.890853    0.816847   -0.018880
 ---------------------------------------------------------------------
 Rotational constants (GHZ):      3.9585261      0.8304667      0.6865409
 Leave Link  202 at Fri Aug 20 15:41:51 2021, MaxMem= 24159191040 cpu:         0.5
 (Enter /public/home/users/caep010/software/Gaussian09/g09/l301.exe)
 Standard basis: 6-31G(d,p) (6D, 7F)
 Ernie: Thresh=  0.10000D-02 Tol=  0.10000D-05 Strict=F.
 There are   180 symmetry adapted cartesian basis functions of A   symmetry.
 There are   180 symmetry adapted basis functions of A   symmetry.
   180 basis functions,   322 primitive gaussians,   180 cartesian basis functions
    36 alpha electrons       36 beta electrons
       nuclear repulsion energy       498.6200699049 Hartrees.
 IExCor=  402 DFT=T Ex+Corr=B3LYP ExCW=0 ScaHFX=  0.200000
 ScaDFX=  0.800000  0.720000  1.000000  0.810000 ScalE2=  1.000000  1.000000
 IRadAn=      0 IRanWt=     -1 IRanGd=            0 ICorTp=0 IEmpDi=  4
 NAtoms=   16 NActive=   16 NUniq=   16 SFac= 1.00D+00 NAtFMM=   60 NAOKFM=F Big=F
 Integral buffers will be    131072 words long.
 Raffenetti 2 integral format.
 Two-electron integral symmetry is turned on.
 Leave Link  301 at Fri Aug 20 15:41:51 2021, MaxMem= 24159191040 cpu:         1.8
 (Enter /public/home/users/caep010/software/Gaussian09/g09/l302.exe)
 NPDir=0 NMtPBC=     1 NCelOv=     1 NCel=       1 NClECP=     1 NCelD=      1
         NCelK=      1 NCelE2=     1 NClLst=     1 CellRange=     0.0.
 One-electron integrals computed using PRISM.
 NBasis=   180 RedAO= T EigKep=  3.90D-04  NBF=   180
 NBsUse=   180 1.00D-06 EigRej= -1.00D+00 NBFU=   180
 Precomputing XC quadrature grid using
 IXCGrd= 4 IRadAn=           0 IRanWt=          -1 IRanGd=           0 AccXCQ= 0.00D+00.
 Generated NRdTot=       0 NPtTot=           0 NUsed=           0 NTot=          32
 NSgBfM=   179   179   179   179   179 MxSgAt=    16 MxSgA2=    16.
 Leave Link  302 at Fri Aug 20 15:41:52 2021, MaxMem= 24159191040 cpu:        12.7
 (Enter /public/home/users/caep010/software/Gaussian09/g09/l303.exe)
 DipDrv:  MaxL=1.
 Leave Link  303 at Fri Aug 20 15:41:52 2021, MaxMem= 24159191040 cpu:         0.7
 (Enter /public/home/users/caep010/software/Gaussian09/g09/l401.exe)
 Initial guess from the checkpoint file:  "/public/home/users/caep010/.cache/gau_scr/Gau-170734.chk"
 B after Tr=    -0.000000   -0.000000   -0.000000
         Rot=    1.000000   -0.000005    0.000002   -0.000020 Ang=  -0.00 deg.
 Guess basis will be translated and rotated to current coordinates.
 JPrj=2 DoOrth=T DoCkMO=T.
 Generating alternative initial guess.
 ExpMin= 1.61D-01 ExpMax= 5.48D+03 ExpMxC= 8.25D+02 IAcc=1 IRadAn=         1 AccDes= 0.00D+00
 Harris functional with IExCor=  402 and IRadAn=       1 diagonalized for initial guess.
 HarFok:  IExCor=  402 AccDes= 0.00D+00 IRadAn=         1 IDoV= 1 UseB2=F ITyADJ=14
 ICtDFT=  3500011 ScaDFX=  1.000000  1.000000  1.000000  1.000000
 FoFCou: FMM=F IPFlag=           0 FMFlag=      100000 FMFlg1=           0
         NFxFlg=           0 DoJE=T BraDBF=F KetDBF=T FulRan=T
         wScrn=  0.000000 ICntrl=     500 IOpCl=  0 I1Cent=   200000004 NGrid=           0
         NMat0=    1 NMatS0=      1 NMatT0=    0 NMatD0=    1 NMtDS0=    0 NMtDT0=    0
 Petite list used in FoFCou.
 Harris En= -492.156254147439    
 Leave Link  401 at Fri Aug 20 15:41:52 2021, MaxMem= 24159191040 cpu:        12.9
 (Enter /public/home/users/caep010/software/Gaussian09/g09/l502.exe)
 Closed shell SCF:
 Using DIIS extrapolation, IDIIS=  1040.
 Integral symmetry usage will be decided dynamically.
 Keep R1 ints in memory in canonical form, NReq=135777835.
 IVT=      122860 IEndB=      122860 NGot= 24159191040 MDV= 24026377986
 LenX= 24026377986 LenY= 24026345145
 Requested convergence on RMS density matrix=1.00D-08 within 128 cycles.
 Requested convergence on MAX density matrix=1.00D-06.
 Requested convergence on             energy=1.00D-06.
 No special actions if energy rises.
 FoFCou: FMM=F IPFlag=           0 FMFlag=           0 FMFlg1=           0
         NFxFlg=           0 DoJE=F BraDBF=F KetDBF=F FulRan=T
         wScrn=  0.000000 ICntrl=     600 IOpCl=  0 I1Cent=           0 NGrid=           0
         NMat0=    1 NMatS0=  16290 NMatT0=    0 NMatD0=    1 NMtDS0=    0 NMtDT0=    0
 Symmetry not used in FoFCou.
 Integral accuracy reduced to 1.0D-05 until final iterations.

 Cycle   1  Pass 0  IDiag  1:
 E= -492.092209097561    
 DIIS: error= 4.86D-03 at cycle   1 NSaved=   1.
 NSaved= 1 IEnMin= 1 EnMin= -492.092209097561     IErMin= 1 ErrMin= 4.86D-03
 ErrMax= 4.86D-03  0.00D+00 EMaxC= 1.00D-01 BMatC= 4.68D-03 BMatP= 4.68D-03
 IDIUse=3 WtCom= 9.51D-01 WtEn= 4.86D-02
 Coeff-Com:  0.100D+01
 Coeff-En:   0.100D+01
 Coeff:      0.100D+01
 Gap=     1.878 Goal=   None    Shift=    0.000
 GapD=    1.878 DampG=2.000 DampE=1.000 DampFc=2.0000 IDamp=-1.
 RMSDP=7.51D-04 MaxDP=2.24D-02              OVMax= 2.04D-02

 Cycle   2  Pass 0  IDiag  1:
 E= -492.096072839634     Delta-E=       -0.003863742073 Rises=F Damp=F
 DIIS: error= 3.16D-03 at cycle   2 NSaved=   2.
 NSaved= 2 IEnMin= 2 EnMin= -492.096072839634     IErMin= 2 ErrMin= 3.16D-03
 ErrMax= 3.16D-03  0.00D+00 EMaxC= 1.00D-01 BMatC= 1.51D-03 BMatP= 4.68D-03
 IDIUse=3 WtCom= 9.68D-01 WtEn= 3.16D-02
 Coeff-Com:  0.316D+00 0.684D+00
 Coeff-En:   0.000D+00 0.100D+01
 Coeff:      0.306D+00 0.694D+00
 Gap=     0.162 Goal=   None    Shift=    0.000
 RMSDP=3.14D-04 MaxDP=1.93D-02 DE=-3.86D-03 OVMax= 2.87D-02

 Cycle   3  Pass 0  IDiag  1:
 E= -492.096706343667     Delta-E=       -0.000633504033 Rises=F Damp=F
 DIIS: error= 2.70D-03 at cycle   3 NSaved=   3.
 NSaved= 3 IEnMin= 3 EnMin= -492.096706343667     IErMin= 3 ErrMin= 2.70D-03
 ErrMax= 2.70D-03  0.00D+00 EMaxC= 1.00D-01 BMatC= 7.96D-04 BMatP= 1.51D-03
 IDIUse=3 WtCom= 9.73D-01 WtEn= 2.70D-02
 Coeff-Com:  0.382D-01 0.418D+00 0.543D+00
 Coeff-En:   0.000D+00 0.362D+00 0.638D+00
 Coeff:      0.372D-01 0.417D+00 0.546D+00
 Gap=     0.157 Goal=   None    Shift=    0.000
 RMSDP=1.67D-04 MaxDP=8.32D-03 DE=-6.34D-04 OVMax= 1.66D-02

 Cycle   4  Pass 0  IDiag  1:
 E= -492.097382120141     Delta-E=       -0.000675776474 Rises=F Damp=F
 DIIS: error= 5.12D-04 at cycle   4 NSaved=   4.
 NSaved= 4 IEnMin= 4 EnMin= -492.097382120141     IErMin= 4 ErrMin= 5.12D-04
 ErrMax= 5.12D-04  0.00D+00 EMaxC= 1.00D-01 BMatC= 3.66D-05 BMatP= 7.96D-04
 IDIUse=3 WtCom= 9.95D-01 WtEn= 5.12D-03
 Coeff-Com:  0.781D-02 0.193D+00 0.289D+00 0.511D+00
 Coeff-En:   0.000D+00 0.000D+00 0.000D+00 0.100D+01
 Coeff:      0.777D-02 0.192D+00 0.288D+00 0.513D+00
 Gap=     0.158 Goal=   None    Shift=    0.000
 RMSDP=5.23D-05 MaxDP=1.47D-03 DE=-6.76D-04 OVMax= 4.49D-03

 Cycle   5  Pass 0  IDiag  1:
 E= -492.097415374593     Delta-E=       -0.000033254452 Rises=F Damp=F
 DIIS: error= 2.45D-04 at cycle   5 NSaved=   5.
 NSaved= 5 IEnMin= 5 EnMin= -492.097415374593     IErMin= 5 ErrMin= 2.45D-04
 ErrMax= 2.45D-04  0.00D+00 EMaxC= 1.00D-01 BMatC= 8.16D-06 BMatP= 3.66D-05
 IDIUse=3 WtCom= 9.98D-01 WtEn= 2.45D-03
 Coeff-Com: -0.119D-02 0.566D-01 0.955D-01 0.333D+00 0.516D+00
 Coeff-En:   0.000D+00 0.000D+00 0.000D+00 0.192D+00 0.808D+00
 Coeff:     -0.118D-02 0.564D-01 0.953D-01 0.333D+00 0.517D+00
 Gap=     0.158 Goal=   None    Shift=    0.000
 RMSDP=1.77D-05 MaxDP=4.92D-04 DE=-3.33D-05 OVMax= 1.14D-03

 Cycle   6  Pass 0  IDiag  1:
 E= -492.097423180854     Delta-E=       -0.000007806261 Rises=F Damp=F
 DIIS: error= 8.05D-05 at cycle   6 NSaved=   6.
 NSaved= 6 IEnMin= 6 EnMin= -492.097423180854     IErMin= 6 ErrMin= 8.05D-05
 ErrMax= 8.05D-05  0.00D+00 EMaxC= 1.00D-01 BMatC= 8.50D-07 BMatP= 8.16D-06
 IDIUse=1 WtCom= 1.00D+00 WtEn= 0.00D+00
 Coeff-Com: -0.142D-02 0.193D-01 0.347D-01 0.166D+00 0.321D+00 0.460D+00
 Coeff:     -0.142D-02 0.193D-01 0.347D-01 0.166D+00 0.321D+00 0.460D+00
 Gap=     0.158 Goal=   None    Shift=    0.000
 RMSDP=5.68D-06 MaxDP=2.88D-04 DE=-7.81D-06 OVMax= 4.87D-04

 Initial convergence to 1.0D-05 achieved.  Increase integral accuracy.
 Cycle   7  Pass 1  IDiag  1:
 E= -492.097432621468     Delta-E=       -0.000009440613 Rises=F Damp=F
 DIIS: error= 5.98D-05 at cycle   1 NSaved=   1.
 NSaved= 1 IEnMin= 1 EnMin= -492.097432621468     IErMin= 1 ErrMin= 5.98D-05
 ErrMax= 5.98D-05  0.00D+00 EMaxC= 1.00D-01 BMatC= 3.19D-07 BMatP= 3.19D-07
 IDIUse=1 WtCom= 1.00D+00 WtEn= 0.00D+00
 Coeff-Com:  0.100D+01
 Coeff:      0.100D+01
 Gap=     0.158 Goal=   None    Shift=    0.000
 RMSDP=5.68D-06 MaxDP=2.88D-04 DE=-9.44D-06 OVMax= 8.20D-04

 Cycle   8  Pass 1  IDiag  1:
 E= -492.097431491616     Delta-E=        0.000001129852 Rises=F Damp=F
 DIIS: error= 1.87D-04 at cycle   2 NSaved=   2.
 NSaved= 2 IEnMin= 1 EnMin= -492.097432621468     IErMin= 1 ErrMin= 5.98D-05
 ErrMax= 1.87D-04  0.00D+00 EMaxC= 1.00D-01 BMatC= 1.79D-06 BMatP= 3.19D-07
 IDIUse=3 WtCom= 4.22D-01 WtEn= 5.78D-01
 Coeff-Com:  0.723D+00 0.277D+00
 Coeff-En:   0.794D+00 0.206D+00
 Coeff:      0.764D+00 0.236D+00
 Gap=     0.158 Goal=   None    Shift=    0.000
 RMSDP=5.75D-06 MaxDP=2.81D-04 DE= 1.13D-06 OVMax= 5.96D-04

 Cycle   9  Pass 1  IDiag  1:
 E= -492.097432926207     Delta-E=       -0.000001434591 Rises=F Damp=F
 DIIS: error= 6.32D-06 at cycle   3 NSaved=   3.
 NSaved= 3 IEnMin= 3 EnMin= -492.097432926207     IErMin= 3 ErrMin= 6.32D-06
 ErrMax= 6.32D-06  0.00D+00 EMaxC= 1.00D-01 BMatC= 1.02D-08 BMatP= 3.19D-07
 IDIUse=1 WtCom= 1.00D+00 WtEn= 0.00D+00
 Coeff-Com:  0.890D-01-0.970D-02 0.921D+00
 Coeff:      0.890D-01-0.970D-02 0.921D+00
 Gap=     0.158 Goal=   None    Shift=    0.000
 RMSDP=9.46D-07 MaxDP=3.43D-05 DE=-1.43D-06 OVMax= 4.48D-05

 Cycle  10  Pass 1  IDiag  1:
 E= -492.097432924955     Delta-E=        0.000000001252 Rises=F Damp=F
 DIIS: error= 7.05D-06 at cycle   4 NSaved=   4.
 NSaved= 4 IEnMin= 3 EnMin= -492.097432926207     IErMin= 3 ErrMin= 6.32D-06
 ErrMax= 7.05D-06  0.00D+00 EMaxC= 1.00D-01 BMatC= 1.14D-08 BMatP= 1.02D-08
 IDIUse=1 WtCom= 1.00D+00 WtEn= 0.00D+00
 Coeff-Com: -0.952D-02-0.317D-01 0.594D+00 0.447D+00
 Coeff:     -0.952D-02-0.317D-01 0.594D+00 0.447D+00
 Gap=     0.158 Goal=   None    Shift=    0.000
 RMSDP=5.72D-07 MaxDP=1.92D-05 DE= 1.25D-09 OVMax= 3.29D-05

 Cycle  11  Pass 1  IDiag  1:
 E= -492.097432935022     Delta-E=       -0.000000010066 Rises=F Damp=F
 DIIS: error= 1.27D-06 at cycle   5 NSaved=   5.
 NSaved= 5 IEnMin= 5 EnMin= -492.097432935022     IErMin= 5 ErrMin= 1.27D-06
 ErrMax= 1.27D-06  0.00D+00 EMaxC= 1.00D-01 BMatC= 3.05D-10 BMatP= 1.02D-08
 IDIUse=1 WtCom= 1.00D+00 WtEn= 0.00D+00
 Coeff-Com: -0.850D-02-0.156D-01 0.262D+00 0.235D+00 0.527D+00
 Coeff:     -0.850D-02-0.156D-01 0.262D+00 0.235D+00 0.527D+00
 Gap=     0.158 Goal=   None    Shift=    0.000
 RMSDP=1.35D-07 MaxDP=3.01D-06 DE=-1.01D-08 OVMax= 1.13D-05

 Cycle  12  Pass 1  IDiag  1:
 E= -492.097432935313     Delta-E=       -0.000000000292 Rises=F Damp=F
 DIIS: error= 3.45D-07 at cycle   6 NSaved=   6.
 NSaved= 6 IEnMin= 6 EnMin= -492.097432935313     IErMin= 6 ErrMin= 3.45D-07
 ErrMax= 3.45D-07  0.00D+00 EMaxC= 1.00D-01 BMatC= 2.54D-11 BMatP= 3.05D-10
 IDIUse=1 WtCom= 1.00D+00 WtEn= 0.00D+00
 Coeff-Com: -0.374D-02-0.594D-02 0.956D-01 0.935D-01 0.282D+00 0.539D+00
 Coeff:     -0.374D-02-0.594D-02 0.956D-01 0.935D-01 0.282D+00 0.539D+00
 Gap=     0.158 Goal=   None    Shift=    0.000
 RMSDP=3.49D-08 MaxDP=1.13D-06 DE=-2.92D-10 OVMax= 3.04D-06

 Cycle  13  Pass 1  IDiag  1:
 E= -492.097432935328     Delta-E=       -0.000000000014 Rises=F Damp=F
 DIIS: error= 9.04D-08 at cycle   7 NSaved=   7.
 NSaved= 7 IEnMin= 7 EnMin= -492.097432935328     IErMin= 7 ErrMin= 9.04D-08
 ErrMax= 9.04D-08  0.00D+00 EMaxC= 1.00D-01 BMatC= 2.01D-12 BMatP= 2.54D-11
 IDIUse=1 WtCom= 1.00D+00 WtEn= 0.00D+00
 Coeff-Com: -0.135D-02-0.201D-02 0.315D-01 0.327D-01 0.111D+00 0.282D+00
 Coeff-Com:  0.546D+00
 Coeff:     -0.135D-02-0.201D-02 0.315D-01 0.327D-01 0.111D+00 0.282D+00
 Coeff:      0.546D+00
 Gap=     0.158 Goal=   None    Shift=    0.000
 RMSDP=1.03D-08 MaxDP=3.05D-07 DE=-1.43D-11 OVMax= 7.92D-07

 Cycle  14  Pass 1  IDiag  1:
 E= -492.097432935331     Delta-E=       -0.000000000003 Rises=F Damp=F
 DIIS: error= 6.24D-08 at cycle   8 NSaved=   8.
 NSaved= 8 IEnMin= 8 EnMin= -492.097432935331     IErMin= 8 ErrMin= 6.24D-08
 ErrMax= 6.24D-08  0.00D+00 EMaxC= 1.00D-01 BMatC= 5.51D-13 BMatP= 2.01D-12
 IDIUse=1 WtCom= 1.00D+00 WtEn= 0.00D+00
 Coeff-Com: -0.200D-03-0.226D-03 0.306D-02 0.410D-02 0.178D-01 0.816D-01
 Coeff-Com:  0.364D+00 0.530D+00
 Coeff:     -0.200D-03-0.226D-03 0.306D-02 0.410D-02 0.178D-01 0.816D-01
 Coeff:      0.364D+00 0.530D+00
 Gap=     0.158 Goal=   None    Shift=    0.000
 RMSDP=4.49D-09 MaxDP=1.27D-07 DE=-3.30D-12 OVMax= 2.65D-07

 SCF Done:  E(RB3LYP) =  -492.097432935     A.U. after   14 cycles
            NFock= 14  Conv=0.45D-08     -V/T= 2.0075
 KE= 4.884271357708D+02 PE=-2.145446170843D+03 EE= 6.663015322318D+02
 Leave Link  502 at Fri Aug 20 15:41:57 2021, MaxMem= 24159191040 cpu:        66.5
 (Enter /public/home/users/caep010/software/Gaussian09/g09/l701.exe)
 Compute integral first derivatives.
 ... and contract with generalized density number  0.
 Leave Link  701 at Fri Aug 20 15:41:58 2021, MaxMem= 24159191040 cpu:        11.0
 (Enter /public/home/users/caep010/software/Gaussian09/g09/l702.exe)
 L702 exits ... SP integral derivatives will be done elsewhere.
 Leave Link  702 at Fri Aug 20 15:41:58 2021, MaxMem= 24159191040 cpu:         0.5
 (Enter /public/home/users/caep010/software/Gaussian09/g09/l703.exe)
 Compute integral first derivatives, UseDBF=F ICtDFT=           0.
 Integral derivatives from FoFJK, PRISM(SPDF).
 Calling FoFJK, ICntrl=      2127 FMM=F ISym2X=0 I1Cent= 0 IOpClX= 0 NMat=1 NMatS=1 NMatT=0.
 FoFJK:  IHMeth= 1 ICntrl=    2127 DoSepK=F KAlg= 0 I1Cent=   0 FoldK=F
 IRaf=         0 NMat=   1 IRICut=       1 DoRegI=T DoRafI=F ISym2E= 0.
 FoFCou: FMM=F IPFlag=           0 FMFlag=      100000 FMFlg1=         800
         NFxFlg=           0 DoJE=F BraDBF=F KetDBF=F FulRan=T
         wScrn=  0.000000 ICntrl=    2127 IOpCl=  0 I1Cent=           0 NGrid=           0
         NMat0=    1 NMatS0=      1 NMatT0=    0 NMatD0=    1 NMtDS0=    0 NMtDT0=    0
 Symmetry not used in FoFCou.
 Leave Link  703 at Fri Aug 20 15:41:58 2021, MaxMem= 24159191040 cpu:        17.4
 (Enter /public/home/users/caep010/software/Gaussian09/g09/l716.exe)
 Dipole        =-2.98450521D+00 1.14821063D-02-8.98497746D-03
 ***** Axes restored to original set *****
 -------------------------------------------------------------------
 Center     Atomic                   Forces (Hartrees/Bohr)
 Number     Number              X              Y              Z
 -------------------------------------------------------------------
      1        8          -0.002526017    0.000098557    0.002241083
      2        7           0.003376050   -0.007733069   -0.007453174
      3        8           0.002612329    0.005018096    0.000426771
      4        6          -0.000268670    0.001628903    0.000501567
      5        6          -0.036540223   -0.025896810    0.022430993
      6        6          -0.016812322   -0.048910512   -0.014964362
      7        6          -0.000402115   -0.006166055   -0.004469778
      8        7           0.040903594   -0.027176404   -0.059450021
      9        6           0.040684629    0.028319201   -0.022606423
     10        6           0.015752132    0.051754033    0.018560571
     11        1          -0.015378364   -0.055452068   -0.019987815
     12        1           0.016255777    0.054633543    0.018535128
     13        1          -0.043010929   -0.026992705    0.026461971
     14        1           0.039165696    0.023837822   -0.025587225
     15        1          -0.058216403   -0.035650042    0.040994895
     16        1           0.014404836    0.068687511    0.024365820
 -------------------------------------------------------------------
 Cartesian Forces:  Max     0.068687511 RMS     0.029938722
 Leave Link  716 at Fri Aug 20 15:41:58 2021, MaxMem= 24159191040 cpu:         0.6
 (Enter /public/home/users/caep010/software/Gaussian09/g09/l103.exe)

 GradGradGradGradGradGradGradGradGradGradGradGradGradGradGradGradGradGrad
 Berny optimization.
 Using GEDIIS/GDIIS optimizer.
 FormGI is forming the generalized inverse of G from B-inverse, IUseBI=4.
 Internal  Forces:  Max     0.079449022 RMS     0.018821460
 Search for a local minimum.
 Step number   2 out of a maximum of   82
 All quantities printed in internal units (Hartrees-Bohrs-Radians)
 RMS Force = .18821D-01 SwitMx=.10000D-02 MixMth= 1
 Mixed Optimization -- RFO/linear search
 Update second derivatives using D2CorX and points    1    2
 DE= -7.92D-02 DEPred=-8.54D-02 R= 9.27D-01
 TightC=F SS=  1.41D+00  RLast= 3.00D-01 DXNew= 5.0454D-01 9.0048D-01
 Trust test= 9.27D-01 RLast= 3.00D-01 DXMaxT set to 5.05D-01
 ITU=  1  0
 Use linear search instead of GDIIS.
     Eigenvalues ---    0.01216   0.01216   0.01903   0.02026   0.02125
     Eigenvalues ---    0.02181   0.02214   0.02274   0.02296   0.02307
     Eigenvalues ---    0.02309   0.02348   0.02358   0.15970   0.15986
     Eigenvalues ---    0.15997   0.15997   0.15999   0.16001   0.22000
     Eigenvalues ---    0.22969   0.24000   0.24999   0.25000   0.25000
     Eigenvalues ---    0.25058   0.40103   0.41413   0.42768   0.45726
     Eigenvalues ---    0.46339   0.48534   0.50585   0.54293   0.54998
     Eigenvalues ---    0.56443   0.57621   0.60231   0.80477   0.87794
     Eigenvalues ---    0.88946   0.91162
 RFO step:  Lambda=-4.24019575D-03 EMin= 1.21566091D-02
 Quartic linear search produced a step of  1.10259.
 Iteration  1 RMS(Cart)=  0.05434926 RMS(Int)=  0.00183359
 Iteration  2 RMS(Cart)=  0.00169139 RMS(Int)=  0.00021268
 Iteration  3 RMS(Cart)=  0.00000379 RMS(Int)=  0.00021264
 Iteration  4 RMS(Cart)=  0.00000000 RMS(Int)=  0.00021264
 ITry= 1 IFail=0 DXMaxC= 1.75D-01 DCOld= 1.00D+10 DXMaxT= 5.05D-01 DXLimC= 3.00D+00 Rises=F
 Variable       Old X    -DE/DX   Delta X   Delta X   Delta X     New X
                                 (Linear)    (Quad)   (Total)
    R1        2.33796   0.00002   0.00258  -0.00390  -0.00132   2.33665
    R2        2.33016   0.00423   0.00674  -0.00060   0.00615   2.33631
    R3        2.72189   0.00644   0.00911   0.01948   0.02859   2.75048
    R4        2.63722   0.00190   0.00472   0.00134   0.00615   2.64338
    R5        2.63407   0.00381   0.00883   0.00331   0.01217   2.64624
    R6        2.60725   0.00654   0.01616   0.00225   0.01847   2.62572
    R7        1.92791   0.05245   0.11801   0.01953   0.13753   2.06545
    R8        2.66338   0.00316   0.00838   0.00185   0.01020   2.67358
    R9        1.91811   0.05990   0.13126   0.01773   0.14899   2.06710
   R10        2.57572   0.00844   0.01984   0.00208   0.02192   2.59764
   R11        2.67020   0.00138   0.00552  -0.00198   0.00344   2.67365
   R12        1.76830   0.07945   0.14844  -0.02529   0.12315   1.89146
   R13        1.77618   0.07394   0.14019  -0.01985   0.12034   1.89653
   R14        2.60729   0.00612   0.01525   0.00194   0.01712   2.62441
   R15        1.92278   0.05725   0.12619   0.01983   0.14602   2.06880
   R16        1.91215   0.06090   0.13409   0.01317   0.14726   2.05941
    A1        2.14862   0.00556   0.02391   0.00944   0.03329   2.18191
    A2        2.06529  -0.00232  -0.01080  -0.00264  -0.01350   2.05179
    A3        2.06927  -0.00324  -0.01311  -0.00677  -0.01994   2.04934
    A4        2.08638  -0.00047  -0.00288   0.00051  -0.00249   2.08389
    A5        2.08012   0.00154   0.00299   0.00814   0.01102   2.09114
    A6        2.11669  -0.00107  -0.00011  -0.00865  -0.00853   2.10815
    A7        2.08134   0.00098   0.00171   0.00710   0.00839   2.08973
    A8        2.09291  -0.00156  -0.00310  -0.01269  -0.01660   2.07631
    A9        2.10812   0.00061   0.00154   0.00804   0.00875   2.11686
   A10        2.10695  -0.00062  -0.00266  -0.00194  -0.00453   2.10243
   A11        2.08100   0.00132   0.00368   0.01047   0.01400   2.09501
   A12        2.09504  -0.00069  -0.00099  -0.00815  -0.00929   2.08575
   A13        2.11090  -0.00163  -0.00522  -0.00531  -0.01052   2.10038
   A14        2.07380   0.00018   0.00186  -0.00179   0.00006   2.07387
   A15        2.09848   0.00145   0.00336   0.00709   0.01045   2.10893
   A16        2.08733   0.00200   0.00287   0.02119   0.02406   2.11140
   A17        2.06471   0.00536   0.01364   0.04784   0.06148   2.12619
   A18        2.13096  -0.00736  -0.01650  -0.06899  -0.08549   2.04547
[...]
    D7       -0.00080   0.00000   0.00000   0.00003   0.00003  -0.00077
    D8       -3.13968  -0.00000   0.00000  -0.00016  -0.00016  -3.13984
    D9       -3.13812  -0.00000   0.00000  -0.00015  -0.00015  -3.13827
   D10        0.00082   0.00000   0.00000  -0.00003  -0.00003   0.00079
   D11        0.00091  -0.00000   0.00000  -0.00014  -0.00014   0.00077
   D12        3.13986   0.00000   0.00000  -0.00002  -0.00002   3.13983
   D13        0.00021   0.00000   0.00000   0.00010   0.00010   0.00032
   D14        3.13848  -0.00000   0.00000  -0.00010  -0.00010   3.13838
   D15        3.13903   0.00001   0.00000   0.00029   0.00029   3.13933
   D16       -0.00589   0.00000   0.00000   0.00009   0.00009  -0.00580
   D17        3.10307  -0.00000   0.00000   0.00002   0.00002   3.10309
   D18        0.00024  -0.00000   0.00000  -0.00012  -0.00012   0.00012
   D19       -0.03521   0.00000   0.00000   0.00023   0.00023  -0.03498
   D20       -3.13803   0.00000   0.00000   0.00009   0.00009  -3.13795
   D21        2.83977   0.00001   0.00000   0.00159   0.00159   2.84135
   D22        0.33953  -0.00000   0.00000   0.00004   0.00004   0.33957
   D23       -0.34131   0.00002   0.00000   0.00173   0.00173  -0.33958
   D24       -2.84154  -0.00000   0.00000   0.00019   0.00019  -2.84136
   D25       -0.00013   0.00000   0.00000   0.00000   0.00000  -0.00012
   D26        3.13801  -0.00000   0.00000  -0.00006  -0.00006   3.13795
   D27       -3.10296  -0.00000   0.00000  -0.00014  -0.00014  -3.10309
   D28        0.03518  -0.00000   0.00000  -0.00020  -0.00020   0.03498
   D29       -0.00044   0.00000   0.00000   0.00013   0.00013  -0.00032
   D30       -3.13933  -0.00000   0.00000   0.00000   0.00000  -3.13932
   D31       -3.13857   0.00000   0.00000   0.00019   0.00019  -3.13838
   D32        0.00573  -0.00000   0.00000   0.00006   0.00006   0.00580
         Item               Value     Threshold  Converged?
 Maximum Force            0.000039     0.000450     YES
 RMS     Force            0.000012     0.000300     YES
 Maximum Displacement     0.002005     0.001800     NO 
 RMS     Displacement     0.000556     0.001200     YES
 Predicted change in Energy=-5.676661D-08
 GradGradGradGradGradGradGradGradGradGradGradGradGradGradGradGradGradGrad

 Leave Link  103 at Fri Aug 20 15:45:44 2021, MaxMem= 24159191040 cpu:         1.7
 (Enter /public/home/users/caep010/software/Gaussian09/g09/l9999.exe)
 1\1\GINC-B1128\Freq\RB3LYP\6-31G(d,p)\C6H6N2O2\ROOT\20-Aug-2021\0\\#P 
 Geom=AllCheck Guess=TCheck SCRF=Check GenChk RB3LYP/6-31G(d,p) Freq\\N
 ANILI29\\0,1\O,6.115189308,3.5744919956,-0.9439458425\N,6.4865693,4.70
 05510782,-0.6004187014\O,7.3944697224,5.3294675673,-1.1518895795\C,5.8
 104374091,5.3268420848,0.5264665711\C,6.2037082945,6.6007122871,0.9432
 706831\C,5.557326584,7.1974679812,2.0128118537\C,4.5085333816,6.531168
 5125,2.6826348645\N,3.8965074053,7.1065484873,3.7747681116\C,4.1305583
 317,5.2444224861,2.242223177\C,4.7760330959,4.6462387869,1.1729259201\
 H,4.4941349906,3.66069028,0.824267071\H,5.8602371399,8.1867969481,2.34
 38338899\H,3.3271782913,4.7193386317,2.7511280633\H,7.0079192597,7.102
 2348673,0.4197621106\H,2.9997453623,6.7407040342,4.0562759036\H,3.9962
 521235,8.1027239717,3.8970859037\\Version=ES64L-G09RevE.01\State=1-A\H
 F=-492.1218983\RMSD=3.130e-09\RMSF=1.759e-05\ZeroPoint=0.1200112\Therm
 al=0.1282641\Dipole=-1.5190665,1.339807,1.9559741\DipoleDeriv=-0.41119
 65,-0.1058792,0.0745343,-0.0288306,-1.0077597,-0.449306,0.1258617,-0.3
 683639,-0.6484173,1.1061371,0.0602681,-0.8245352,0.0602844,1.3538006,0
 .6310668,-0.8232398,0.6302366,1.5790817,-0.8121913,-0.1181229,0.492709
 1,-0.1948591,-0.498008,0.0617119,0.4430098,-0.0204797,-0.7571857,-0.27
 97402,0.1261911,0.3910823,0.125664,-0.3017927,-0.3391946,0.3871446,-0.
 3362975,-0.6263598,0.0254561,-0.0169314,-0.0846647,-0.135358,0.2480568
 ,0.3327293,-0.155605,0.2034276,0.2643024,-0.3467683,0.3136415,0.382268
 7,0.014677,0.0798515,0.1706089,0.1688944,-0.136213,-0.4550735,0.471883
 9,-0.3631388,-0.5572546,-0.3679862,0.3974893,0.546133,-0.5985336,0.576
 3452,1.2494587,-0.4730846,0.2842791,0.1587517,0.324133,-0.3800443,-0.2
 843627,0.4998241,-0.5340122,-1.5499883,-0.0485071,0.0808003,-0.1018235
 ,0.3760762,-0.3025694,-0.4841735,0.080358,-0.1545981,-0.3708951,0.2068
 361,-0.0955803,-0.3250453,0.0243981,0.0185355,0.0173828,-0.2422288,0.1
 378754,0.31242,0.111729,-0.0159829,-0.0034575,-0.0294043,0.0474245,-0.
 0155468,-0.0114957,-0.0313274,0.111184,0.0775815,-0.0337529,0.0222264,
 -0.0409111,-0.0643266,-0.0743072,0.0174591,-0.0781218,0.0507237,-0.010
 0047,-0.0606478,0.0946273,-0.0539233,0.0453007,0.0077123,0.0958009,0.0
 141458,0.0287463,0.0720711,-0.0381947,0.0241947,-0.0245436,0.0979012,0
 .0127396,0.0346898,0.0267866,0.1003648,0.1573127,-0.0346866,0.0831321,
 -0.0065168,0.1173581,-0.1307707,-0.0491409,-0.0119917,0.3691892,0.1524
 851,0.0177374,0.1732543,-0.0428997,0.1487825,-0.0024232,0.0272015,0.08
 25881,0.342449\Polar=74.5290965,6.2978767,89.1990144,-42.7884605,31.86
 5153,95.3298576\PG=C01 [X(C6H6N2O2)]\NImag=0\\0.13501904,0.17375586,0.
 55331680,0.00063103,0.15945134,0.13202715,-0.13544505,-0.11558842,-0.0
 1245462,0.57474530,-0.10795394,-0.45447103,-0.13341636,0.25993877,0.78
 451135,-0.00748345,-0.12541083,-0.15001952,-0.19822059,0.08916174,0.49
 599551,-0.01640981,-0.05811783,0.00679938,-0.32709968,-0.15826787,0.16
 297485,0.37127191,-0.07802964,-0.05819230,0.02768865,-0.15063240,-0.21
 085148,0.07140394,0.22637768,0.25299398,-0.00619586,0.00663527,0.03683
 350,0.16790352,0.07944146,-0.20198825,-0.21557135,-0.09304058,0.196084
 44,0.01939444,-0.00025377,-0.00232827,-0.09934817,-0.00635676,0.025245
 23,-0.02915149,-0.00396746,0.04673593,0.43716719,0.00684172,-0.0426963
 2,-0.04657605,-0.00636484,-0.10960357,-0.01823183,-0.01106430,0.018997
 31,0.01282661,0.20744679,0.61269093,0.00231821,-0.03900319,-0.01063316
 ,0.02521791,-0.01820773,-0.11032258,0.04204156,0.00528642,-0.02377068,
 -0.19400581,0.09970054,0.39545055,-0.00008163,0.00251135,0.00614593,0.
 00693432,0.02064988,0.00063014,-0.00059912,0.00055584,0.00270750,-0.11
 454503,-0.09846689,-0.00619329,0.48855802,-0.00145705,0.00543499,0.002
 38110,0.01792492,-0.01645108,-0.02636698,-0.00814683,-0.00842522,0.002
 08436,-0.06511377,-0.27892418,-0.07457488,0.16508075,0.59802878,0.0035
 5818,-0.00188809,-0.00080223,-0.00125590,-0.02917880,-0.02308824,-0.00
 295253,-0.00712191,0.00010084,0.01541307,-0.03946970,-0.10196257,-0.26
 560259,0.12765840,0.49938455,0.00022612,0.00294307,0.00073822,0.007106
 74,-0.00821677,-0.00545536,-0.00228088,-0.00034408,0.00165599,0.028483
 06,0.04028024,0.00275912,-0.14717027,0.00954102,0.10586384,0.42551072,
 0.00174441,-0.00037708,-0.00148754,-0.00635101,-0.00546638,-0.00147430
 ,0.00075609,0.00201087,0.00084762,0.00918000,-0.01923831,-0.02630710,0
 .04870967,-0.16113073,-0.12153126,0.14395843,0.63071818,-0.00007811,-0
 .00260499,-0.00256616,-0.00382410,0.00036797,0.01151550,0.00220202,0.0
 0189007,-0.00164017,-0.01712759,-0.05795925,-0.01352590,0.13151761,-0.
 08152136,-0.24507577,-0.23205118,0.18480272,0.48353181,0.00049460,-0.0
 0256091,-0.00184908,-0.00545616,0.00085443,0.00465639,0.00151066,0.001
 09601,-0.00052172,-0.02267454,-0.03239173,-0.00319253,-0.02237404,0.03
 268185,0.04440188,-0.19179380,-0.10541859,0.06360648,0.47066075,0.0008
 7093,0.00157766,-0.00012279,0.00097546,-0.00622299,-0.00406336,-0.0024
 0182,0.00019210,0.00244633,-0.03253181,-0.04146394,0.01092092,0.004257
 73,0.05509774,0.03124482,-0.06434011,-0.16716799,0.00226490,0.12823678
 ,0.60797040,0.00043871,0.00412363,0.00253916,0.00563922,-0.00478847,-0
 .01071322,-0.00333512,-0.00141019,0.00290962,-0.00440500,0.01180308,0.
 00656021,0.02741985,0.00130931,-0.02709585,0.08898806,0.04322771,-0.13
 000729,-0.23529604,0.15052681,0.50151823,0.00008211,0.00148266,0.00087
 623,0.00173755,-0.00151507,-0.00314707,-0.00080366,-0.00002339,0.00081
 290,-0.00018062,0.00505066,0.00275372,0.00108687,-0.00923474,-0.002042
 74,-0.01920694,0.01402215,0.04015495,-0.13848463,0.02383183,0.13007072
 ,0.56283736,0.00015503,-0.00099290,-0.00078924,-0.00197219,0.00203222,
 0.00358594,0.00154428,0.00051048,-0.00129679,0.00555200,0.00175300,-0.
 00421503,-0.00439656,-0.00586900,-0.00092885,-0.00746431,0.01586856,0.
 01351684,0.02012244,-0.15371368,-0.10529825,0.15817908,0.72826125,-0.0
 0014931,-0.00460060,-0.00282106,-0.00708075,0.00646328,0.01115561,0.00
 390511,0.00100255,-0.00344308,0.00700397,-0.00732748,-0.01249891,-0.00
 211278,0.00490678,0.01010545,0.03040460,-0.00636188,-0.02931489,0.0981
 6024,-0.08194619,-0.21353982,-0.29234071,0.15580100,0.32913780,0.00127
 712,0.00156403,-0.00086644,0.00002327,-0.00797031,0.00223145,-0.001270
 29,0.00141384,0.00130053,-0.02072712,-0.00177895,0.02724018,-0.0029608
 6,0.00782934,0.00448271,-0.00019351,-0.02442254,-0.00794197,-0.1188802
 9,-0.08904792,-0.00094012,0.01170330,0.02038930,0.00792966,0.47014683,
 0.00045809,-0.00246230,-0.00176220,-0.00976463,0.00349087,0.00802043,0
 .00259540,0.00149161,-0.00118715,0.02924277,0.04289610,-0.00684826,0.0
 0154842,-0.03424971,-0.02160789,-0.04250981,-0.01706337,0.02892261,-0.
 04802617,-0.25904155,-0.07307708,-0.00142388,-0.02505461,-0.02782280,0
 .15378349,0.57404911,-0.00151557,-0.00273516,-0.00072512,0.00123601,0.
 00571628,0.00964153,0.00192972,0.00006226,-0.00293730,0.04659842,0.025
 20542,-0.02644835,0.00036116,-0.02776018,-0.02197471,-0.01984778,0.009
 70083,0.03417293,0.02405309,-0.03183502,-0.11107892,-0.00472083,-0.045
 58695,-0.01929884,-0.27320647,0.13670173,0.49558210,-0.00481935,-0.009
 09681,0.00083434,-0.01979933,0.01203300,0.02328681,0.00480317,-0.00038
 046,-0.00092538,-0.20073845,-0.08421224,0.09392577,-0.00452313,-0.0516
 7701,-0.02023025,-0.02849556,0.00210384,0.02721198,0.03486159,0.045500
 94,-0.00663151,-0.00156246,-0.01016229,-0.00249557,-0.14848050,0.00934
 402,0.10757928,0.44454000,-0.00037964,-0.00309287,-0.00269168,0.014726
 99,0.01745805,-0.00068231,0.00359033,-0.00074457,-0.00703544,-0.117575
 05,-0.16976015,0.05192844,-0.02572113,-0.02507891,0.00559158,-0.004121
 28,-0.00198626,0.00529368,0.01684329,-0.01739468,-0.03014977,-0.004756
 67,-0.00264687,0.00307652,0.04835158,-0.15956634,-0.12083101,0.1553950
 3,0.65422782,0.00651547,0.00649051,-0.00101612,0.02502040,0.00224886,-
 0.03026271,0.00174741,-0.00282212,0.00049166,0.07215176,0.01693726,-0.
 12493537,-0.00353073,0.03262046,0.03315585,0.02355638,-0.00120349,-0.0
 2870509,-0.02560039,-0.05863126,-0.01184062,0.00228736,0.00535990,0.00
 953199,0.13189564,-0.07983869,-0.24532352,-0.22450442,0.17578772,0.487
 20845,0.00038535,0.00255574,0.00108607,-0.00205795,-0.00217486,-0.0038
 7049,0.00106378,0.00105078,0.00007419,-0.00067305,-0.02127579,-0.00793
 628,-0.00164780,-0.00247563,0.00462725,-0.00064490,0.00042361,0.000355
 04,0.00228587,-0.00097973,0.00586685,0.00032050,0.00071799,-0.00004444
 ,0.00803627,0.01427209,0.00491282,-0.07075803,-0.07666400,-0.01672707,
 0.06546317,0.00285335,0.00125149,-0.00208402,0.00075505,-0.00383869,-0
 .00042409,-0.00006115,0.00053800,0.00009392,-0.00412355,-0.00992265,-0
 .00544167,-0.00293134,0.00091715,0.00089807,0.00038171,0.00047689,0.00
 025295,-0.00101061,0.00227803,-0.00292682,-0.00017244,-0.00034853,0.00
 008769,-0.00366434,-0.00538577,-0.00218270,-0.07788321,-0.29730349,-0.
 08719392,0.08429463,0.31196020,0.00127149,-0.00177670,-0.00267744,-0.0
 0198493,0.00267192,-0.00053207,-0.00063267,-0.00106324,0.00046264,0.00
 338649,0.01268477,0.00976284,0.00433965,0.00043181,-0.00004120,0.00038
 862,0.00025803,-0.00078287,0.00574419,-0.00302372,0.00026090,-0.000429
 21,-0.00098715,-0.00007696,-0.00686349,-0.02090234,-0.00270813,-0.0175
 6642,-0.08856884,-0.07839218,0.01465286,0.09788222,0.07560853,-0.00044
 957,0.00044545,0.00006693,0.00129572,0.00042427,0.00056849,-0.00008828
 ,-0.00006296,-0.00001069,0.00203501,-0.00073917,0.00500584,0.00693776,
 0.01537721,0.00419170,-0.07005527,-0.07968428,-0.01229298,-0.00231179,
 -0.02152624,-0.00828409,0.00011702,0.00002100,-0.00246442,-0.00109987,
 -0.00252244,0.00458205,-0.00089923,0.00026125,0.00082735,-0.00025975,0
 .00021370,-0.00035479,0.06728304,0.00033637,-0.00040888,-0.00018464,-0
 .00114589,-0.00001006,0.00017684,0.00021613,-0.00000411,-0.00019469,0.
 00015609,0.00262218,-0.00328977,-0.00409367,-0.00919298,-0.00262215,-0
 .07957142,-0.28513904,-0.08253842,-0.00158743,-0.01114924,-0.00758939,
 0.00185235,0.00120068,0.00073809,-0.00315602,0.00111979,0.00092407,-0.
 00000073,0.00040231,0.00046316,0.00019120,-0.00017489,0.00015536,0.086
 48678,0.30124387,-0.00001195,-0.00026506,-0.00083255,-0.00040728,-0.00
 147768,0.00105435,0.00016073,0.00010169,-0.00016536,0.00563109,-0.0021
 7690,-0.00005792,-0.00851731,-0.02290330,-0.00477034,-0.01226706,-0.08
 307161,-0.07307334,0.00492205,0.01372729,0.00679167,-0.00196242,0.0014
 1985,0.00018871,0.00414691,0.00013656,0.00048794,0.00052067,0.00017463
 ,-0.00075041,-0.00036145,0.00014063,-0.00024103,0.01036602,0.09189351,
 0.07195493,-0.00004501,0.00022710,0.00013507,0.00048218,-0.00133165,0.
 00028154,-0.00059829,0.00030354,0.00012620,0.00364172,0.00052271,0.004
 24427,0.00016705,0.00025045,-0.00032590,0.00275171,-0.00230020,0.00065
 807,-0.00406586,-0.00201085,0.00621785,0.00015962,0.00188762,-0.001776
 23,-0.19866405,-0.10790657,0.10631361,-0.00836847,-0.00748796,0.005409
 25,-0.00149680,0.00148167,-0.00236535,-0.00019242,-0.00015913,0.000184
 16,0.20668754,-0.00005307,-0.00005749,0.00005738,0.00024504,0.00101319
 ,-0.00062105,0.00040769,-0.00022677,-0.00014984,-0.00038575,0.00059272
 ,-0.00388841,0.00049215,-0.00093446,-0.00096024,-0.00165702,-0.0037387
 0,-0.00383896,-0.02195317,-0.00902966,0.01514666,0.00008933,0.00126758
 ,0.00197143,-0.10795346,-0.12162476,0.05609008,0.01195601,0.01015761,-
 0.00690733,0.00125779,-0.00006631,0.00163444,-0.00113950,-0.00055266,0
 .00079037,0.11717247,0.12403475,-0.00005296,-0.00022764,-0.00015505,0.
 00131799,0.00098941,0.00084421,0.00016017,-0.00003716,-0.00086558,0.00
 351610,-0.00492459,0.00036484,-0.00018284,-0.00055138,-0.00047975,0.00
 118103,-0.00311479,0.00149533,-0.00702565,-0.00614349,0.00643239,-0.00
 199058,0.00108627,0.00007976,0.10684635,0.05621381,-0.10797530,0.01788
 244,0.01354442,-0.00881403,-0.00246171,0.00141727,-0.00106343,-0.00046
 269,-0.00025275,0.00036615,-0.11838365,-0.05860870,0.10975193,0.000382
 40,-0.00020963,-0.00002284,-0.00364472,0.00040211,-0.00052644,0.000022
 16,0.00276963,0.00160825,-0.00226442,-0.00448076,0.00478118,-0.2102335
 4,-0.10871916,0.11024682,-0.00481553,-0.00650703,0.00489639,0.00386107
 ,-0.00065650,0.00436377,-0.00036253,-0.00034756,-0.00001369,0.00008882
 ,0.00053875,-0.00031400,0.00241261,-0.00203324,0.00063564,0.00020084,-
 0.00023705,0.00047684,-0.00150567,0.00148508,-0.00232041,-0.00035829,0
 .00019201,-0.00026598,0.21636590,0.00089412,0.00140018,-0.00034978,-0.
 00252427,-0.00183102,0.00434092,0.00247160,0.00171944,-0.00138187,-0.0
 2161860,-0.00790996,0.01442219,-0.10749697,-0.12028500,0.06068687,0.01
 139465,0.01087493,-0.00746142,-0.00063304,0.00028871,-0.00470124,0.000
 58769,0.00051196,-0.00013964,0.00058635,-0.00045772,-0.00053269,-0.001
 57476,-0.00423001,-0.00388774,-0.00138343,-0.00031752,0.00073044,0.001
 25489,-0.00005156,0.00164614,0.00016910,-0.00005078,0.00025709,0.11766
 719,0.12046268,0.00069227,0.00081035,0.00028178,-0.00244907,0.00126329
 ,-0.00095276,0.00142183,-0.00168605,-0.00278094,-0.00642510,-0.0037907
 0,0.00934170,0.11112290,0.06203757,-0.11593054,0.01639689,0.01146083,-
 0.00611612,0.00441040,-0.00455059,0.00067553,0.00075604,0.00065406,-0.
 00025538,-0.00031509,-0.00056313,-0.00058224,0.00092380,-0.00342444,0.
 00104541,-0.00027556,-0.00048129,0.00076384,-0.00246182,0.00146243,-0.
 00106918,-0.00027429,0.00024380,-0.00026674,-0.12357176,-0.06348546,0.
 11619636,-0.00001065,-0.00004002,-0.00000540,-0.00020511,0.00018610,-0
 .00000507,0.00011076,0.00004286,-0.00004257,0.00054044,0.00034002,-0.0
 0021618,0.00075597,-0.00152446,0.00046586,0.00108234,0.00169821,0.0019
 0631,-0.01166628,-0.00481386,-0.00258362,-0.36568463,-0.14820318,0.129
 74229,0.00136604,-0.00089901,-0.00222953,-0.00045066,-0.00006844,0.000
 74893,0.00003430,-0.00002400,-0.00002179,-0.00023856,0.00015754,-0.000
 43690,-0.00002383,0.00092279,0.00017461,-0.00017079,0.00020352,-0.0000
 3429,0.37448270,-0.00005781,-0.00054909,-0.00023936,-0.00078212,0.0006
 8883,0.00109375,0.00033305,0.00007346,-0.00025121,0.00055733,-0.000868
 66,-0.00114732,-0.00057289,0.00176191,0.00033418,0.00136124,-0.0007296
 2,-0.00408860,0.01377296,0.00971839,0.00247450,-0.13043377,-0.11464989
 ,0.01586104,0.00247201,0.00012847,-0.00170890,-0.00029861,-0.00028652,
 0.00106558,0.00000098,-0.00000323,-0.00008560,0.00035455,0.00016874,0.
 00004695,-0.00104090,-0.00080999,-0.00000416,0.00015479,-0.00015316,-0
 .00000852,0.14625259,0.11235849,-0.00002107,0.00046524,0.00030124,0.00
 078513,-0.00064768,-0.00126459,-0.00052297,-0.00021507,0.00040211,-0.0
 0070859,0.00079470,0.00144034,0.00206856,0.00022131,-0.00053659,0.0009
 8861,-0.00538514,-0.00102210,0.02912857,0.01315862,-0.01468701,0.10157
 893,0.01426405,-0.04924277,-0.00110604,0.00353322,0.00120289,-0.000095
 53,0.00005719,-0.00125530,0.00004067,-0.00003760,0.00008975,-0.0002457
 4,0.00022675,-0.00013423,-0.00010743,-0.00105770,0.00043940,-0.0000332
 6,-0.00012515,-0.00042104,-0.12471184,-0.02482580,0.06514994,-0.000000
 11,0.00038214,0.00021344,0.00073108,-0.00070134,-0.00116643,-0.0004809
 5,-0.00016979,0.00034258,-0.00095896,0.00029253,0.00125633,-0.00030456
 ,-0.00033688,-0.00084141,-0.00050403,0.00208724,0.00080707,0.00403284,
 0.01463517,-0.00752954,-0.05175887,-0.03602266,0.03133203,-0.00036517,
 0.00126948,0.00426802,0.00227779,-0.00036107,-0.00043299,-0.00025181,0
 .00012760,-0.00004145,-0.00056812,-0.00116725,0.00035314,-0.00007677,0
 .00040670,-0.00025262,0.00002169,0.00000195,0.00008286,0.00007794,-0.0
 3207341,-0.00703801,0.04812802,0.00002126,0.00031913,0.00012521,0.0005
 5954,-0.00044821,-0.00050880,-0.00023243,-0.00008280,0.00016201,-0.000
 20846,0.00083550,0.00066484,-0.00012633,-0.00069931,-0.00110503,-0.001
 63557,0.00208805,0.00270126,-0.00002612,-0.01193927,0.00132950,-0.0575
 3580,-0.44813025,-0.06170982,0.00160361,0.00173019,-0.00122806,-0.0010
 4672,-0.00015515,-0.00048892,0.00018862,-0.00006068,-0.00004138,0.0008
 3549,-0.00007415,-0.00018307,0.00022261,0.00002572,0.00035639,-0.00001
 864,0.00002883,0.00005784,0.00576934,-0.00684813,-0.00042694,0.0516296
 1,0.46341052,0.00008292,0.00053593,0.00026558,0.00055708,-0.00060747,-
 0.00106277,-0.00032813,-0.00003925,0.00030654,-0.00068174,0.00050412,0
 .00123499,-0.00017377,0.00002697,-0.00098890,-0.00329999,-0.00036063,0
 .00111412,-0.00559788,-0.03397326,-0.00872500,0.02734272,-0.03658566,-
 0.02970760,0.00516620,0.00008118,-0.00203497,0.00028399,-0.00207070,-0
 .00013802,0.00006124,-0.00000063,-0.00043319,0.00096884,0.00063160,0.0
 0025062,-0.00033715,0.00009805,-0.00015413,0.00005949,-0.00001868,0.00
 007032,-0.00275081,0.01148347,-0.00046203,-0.02135301,0.06029497,0.040
 46442\\-0.00000712,-0.00001178,-0.00000753,0.00001373,0.00001036,0.000
 04159,0.00000592,0.00000646,-0.00002964,0.00000432,-0.00002375,-0.0000
 4476,0.00002379,0.00002140,0.00001107,0.00001296,0.00002559,0.00001049
 ,-0.00002972,0.00001098,0.00001105,-0.00000507,-0.00000204,0.00001714,
 -0.00001531,-0.00000853,0.00002220,-0.00000882,-0.00002028,0.00000654,
 -0.00000100,0.00001298,0.00000620,-0.00000817,-0.00001517,-0.00000769,
 0.00000580,0.00000741,-0.00000956,-0.00001334,-0.00000229,0.00000318,0
 .00002629,0.00002487,-0.00002347,-0.00000425,-0.00003622,-0.00000681\\
 \@


 CHEMISTRY BEGAN BY SAYING IT WOULD CHANGE THE BASER
 METALS INTO GOLD.  BY NOT DOING THAT IT HAS DONE MUCH
 GREATER THINGS.  --  RALPH WALDO EMERSON
 Job cpu time:       0 days  0 hours  8 minutes 53.9 seconds.
 File lengths (MBytes):  RWF=     64 Int=      0 D2E=      0 Chk=      4 Scr=      1
 Normal termination of Gaussian 09 at Fri Aug 20 15:45:44 2021.
