 Entering Gaussian System, Link 0=g09
 Input=B3LYP6-31G.AFOVUP.gjf
 Output=B3LYP6-31G.AFOVUP.log
 Initial command:
 /public/home/users/caep010/software/Gaussian09/g09/l1.exe "/public/home/users/caep010/.cache/gau_scr/Gau-119025.inp" -scrdir="/public/home/users/caep010/.cache/gau_scr/"
 Entering Link 1 = /public/home/users/caep010/software/Gaussian09/g09/l1.exe PID=    119026.
  
 Copyright (c) 1988,1990,1992,1993,1995,1998,2003,2009,2015,
            Gaussian, Inc.  All Rights Reserved.
  
 This is part of the Gaussian(R) 09 program.  It is based on
 the Gaussian(R) 03 system (copyright 2003, Gaussian, Inc.),
 the Gaussian(R) 98 system (copyright 1998, Gaussian, Inc.),
 the Gaussian(R) 94 system (copyright 1995, Gaussian, Inc.),
 the Gaussian 92(TM) system (copyright 1992, Gaussian, Inc.),
 the Gaussian 90(TM) system (copyright 1990, Gaussian, Inc.),
 the Gaussian 88(TM) system (copyright 1988, Gaussian, Inc.),
 the Gaussian 86(TM) system (copyright 1986, Carnegie Mellon
 University), and the Gaussian 82(TM) system (copyright 1983,
 Carnegie Mellon University). Gaussian is a federally registered
 trademark of Gaussian, Inc.
  
 This software contains proprietary and confidential information,
 including trade secrets, belonging to Gaussian, Inc.
  
 This software is provided under written license and may be
 used, copied, transmitted, or stored only in accord with that
 written license.
  
 The following legend is applicable only to US Government
 contracts under FAR:
  
                    RESTRICTED RIGHTS LEGEND
  
 Use, reproduction and disclosure by the US Government is
 subject to restrictions as set forth in subparagraphs (a)
 and (c) of the Commercial Computer Software - Restricted
 Rights clause in FAR 52.227-19.
  
 Gaussian, Inc.
 340 Quinnipiac St., Bldg. 40, Wallingford CT 06492
  
  
 ---------------------------------------------------------------
 Warning -- This program may not be used in any manner that
 competes with the business of Gaussian, Inc. or will provide
 assistance to any competitor of Gaussian, Inc.  The licensee
 of this program is prohibited from giving any competitor of
 Gaussian, Inc. access to this program.  By using this program,
 the user acknowledges that Gaussian, Inc. is engaged in the
 business of creating and licensing software in the field of
 computational chemistry and represents and warrants to the
 licensee that it is not a competitor of Gaussian, Inc. and that
 it will not use this program in any manner prohibited above.
 ---------------------------------------------------------------
  

 Cite this work as:
 Gaussian 09, Revision E.01,
 M. J. Frisch, G. W. Trucks, H. B. Schlegel, G. E. Scuseria, 
 M. A. Robb, J. R. Cheeseman, G. Scalmani, V. Barone, B. Mennucci, 
 G. A. Petersson, H. Nakatsuji, M. Caricato, X. Li, H. P. Hratchian, 
 A. F. Izmaylov, J. Bloino, G. Zheng, J. L. Sonnenberg, M. Hada, 
 M. Ehara, K. Toyota, R. Fukuda, J. Hasegawa, M. Ishida, T. Nakajima, 
 Y. Honda, O. Kitao, H. Nakai, T. Vreven, J. A. Montgomery, Jr., 
 J. E. Peralta, F. Ogliaro, M. Bearpark, J. J. Heyd, E. Brothers, 
 K. N. Kudin, V. N. Staroverov, T. Keith, R. Kobayashi, J. Normand, 
 K. Raghavachari, A. Rendell, J. C. Burant, S. S. Iyengar, J. Tomasi, 
 M. Cossi, N. Rega, J. M. Millam, M. Klene, J. E. Knox, J. B. Cross, 
 V. Bakken, C. Adamo, J. Jaramillo, R. Gomperts, R. E. Stratmann, 
 O. Yazyev, A. J. Austin, R. Cammi, C. Pomelli, J. W. Ochterski, 
 R. L. Martin, K. Morokuma, V. G. Zakrzewski, G. A. Voth, 
 P. Salvador, J. J. Dannenberg, S. Dapprich, A. D. Daniels, 
 O. Farkas, J. B. Foresman, J. V. Ortiz, J. Cioslowski, 
 and D. J. Fox, Gaussian, Inc., Wallingford CT, 2013.
 
 ******************************************
 Gaussian 09:  ES64L-G09RevE.01 30-Nov-2015
                20-Aug-2021 
 ******************************************
 %nproc=32
 Will use up to   32 processors via shared memory.
 %mem=180GB
 -------------------------
 #P OPT Freq B3LYP/6-31G**
 -------------------------
 1/14=-1,18=20,19=15,26=3,38=1/1,3;
 2/9=110,12=2,17=6,18=5,40=1/2;
 3/5=1,6=6,7=101,11=2,16=1,25=1,30=1,71=1,74=-5/1,2,3;
 4//1;
 5/5=2,38=5/2;
 6/7=2,8=2,9=2,10=2,28=1/1;
 7//1,2,3,16;
 1/14=-1,18=20,19=15,26=3/3(2);
 2/9=110/2;
 99//99;
 2/9=110/2;
 3/5=1,6=6,7=101,11=2,16=1,25=1,30=1,71=1,74=-5/1,2,3;
 4/5=5,16=3,69=1/1;
 5/5=2,38=5/2;
 7//1,2,3,16;
 1/14=-1,18=20,19=15,26=3/3(-5);
 2/9=110/2;
 6/7=2,8=2,9=2,10=2,19=2,28=1/1;
 99/9=1/99;
 Leave Link    1 at Fri Aug 20 15:43:26 2021, MaxMem= 24159191040 cpu:         3.3
 (Enter /public/home/users/caep010/software/Gaussian09/g09/l101.exe)
 ------
 AFOVUP
 ------
 Symbolic Z-matrix:
 Charge =  0 Multiplicity = 1
 C                     3.6086    4.8154    8.7466 
 H                     4.1195    4.7097    9.5522 
 H                     2.6766    4.8884    8.966 
 N                     3.8174    3.648     7.8765 
 C                     3.4288    3.6575    6.5649 
 C                     2.7496    4.7541    5.9959 
 C                     4.4195    2.4532    8.4697 
 H                     2.5527    5.4921    6.5261 
 H                     3.7959    1.7246    8.425 
 H                     5.2162    2.2227    7.9859 
 C                     3.7074    2.5568    5.7234 
 H                     4.1484    1.8134    6.0664 
 H                     4.6414    2.6276    9.3872 
 C                     2.3737    4.7551    4.6792 
 H                     3.8928    5.6095    8.2894 
 C                     2.6615    3.6649    3.8803 
 N                     2.2201    3.6692    2.5222 
 O                     1.6743    4.6515    2.0571 
 O                     2.415     2.6498    1.852 
 H                     1.9252    5.4879    4.3238 
 C                     3.3331    2.5758    4.4037 
 H                     3.5324    1.8515    3.8569 
 
 NAtoms=     22 NQM=       22 NQMF=       0 NMMI=      0 NMMIF=      0
                NMic=       0 NMicF=      0.
                    Isotopes and Nuclear Properties:
 (Nuclear quadrupole moments (NQMom) in fm**2, nuclear magnetic moments (NMagM)
  in nuclear magnetons)

  Atom         1           2           3           4           5           6           7           8           9          10
 IAtWgt=          12           1           1          14          12          12          12           1           1           1
 AtmWgt=  12.0000000   1.0078250   1.0078250  14.0030740  12.0000000  12.0000000  12.0000000   1.0078250   1.0078250   1.0078250
 NucSpn=           0           1           1           2           0           0           0           1           1           1
 AtZEff=   0.0000000   0.0000000   0.0000000   0.0000000   0.0000000   0.0000000   0.0000000   0.0000000   0.0000000   0.0000000
 NQMom=    0.0000000   0.0000000   0.0000000   2.0440000   0.0000000   0.0000000   0.0000000   0.0000000   0.0000000   0.0000000
 NMagM=    0.0000000   2.7928460   2.7928460   0.4037610   0.0000000   0.0000000   0.0000000   2.7928460   2.7928460   2.7928460
 AtZNuc=   6.0000000   1.0000000   1.0000000   7.0000000   6.0000000   6.0000000   6.0000000   1.0000000   1.0000000   1.0000000

  Atom        11          12          13          14          15          16          17          18          19          20
 IAtWgt=          12           1           1          12           1          12          14          16          16           1
 AtmWgt=  12.0000000   1.0078250   1.0078250  12.0000000   1.0078250  12.0000000  14.0030740  15.9949146  15.9949146   1.0078250
 NucSpn=           0           1           1           0           1           0           2           0           0           1
 AtZEff=   0.0000000   0.0000000   0.0000000   0.0000000   0.0000000   0.0000000   0.0000000   0.0000000   0.0000000   0.0000000
 NQMom=    0.0000000   0.0000000   0.0000000   0.0000000   0.0000000   0.0000000   2.0440000   0.0000000   0.0000000   0.0000000
 NMagM=    0.0000000   2.7928460   2.7928460   0.0000000   2.7928460   0.0000000   0.4037610   0.0000000   0.0000000   2.7928460
 AtZNuc=   6.0000000   1.0000000   1.0000000   6.0000000   1.0000000   6.0000000   7.0000000   8.0000000   8.0000000   1.0000000

  Atom        21          22
 IAtWgt=          12           1
 AtmWgt=  12.0000000   1.0078250
 NucSpn=           0           1
 AtZEff=   0.0000000   0.0000000
 NQMom=    0.0000000   0.0000000
 NMagM=    0.0000000   2.7928460
 AtZNuc=   6.0000000   1.0000000
 Leave Link  101 at Fri Aug 20 15:43:26 2021, MaxMem= 24159191040 cpu:        10.6
 (Enter /public/home/users/caep010/software/Gaussian09/g09/l103.exe)

 GradGradGradGradGradGradGradGradGradGradGradGradGradGradGradGradGradGrad
 Berny optimization.
 Initialization pass.
                           ----------------------------
                           !    Initial Parameters    !
                           ! (Angstroms and Degrees)  !
 --------------------------                            --------------------------
 ! Name  Definition              Value          Derivative Info.                !
 --------------------------------------------------------------------------------
 ! R1    R(1,2)                  0.9598         estimate D2E/DX2                !
 ! R2    R(1,3)                  0.9603         estimate D2E/DX2                !
 ! R3    R(1,4)                  1.4709         estimate D2E/DX2                !
 ! R4    R(1,15)                 0.9594         estimate D2E/DX2                !
 ! R5    R(4,5)                  1.368          estimate D2E/DX2                !
 ! R6    R(4,7)                  1.4635         estimate D2E/DX2                !
 ! R7    R(5,6)                  1.4098         estimate D2E/DX2                !
 ! R8    R(5,11)                 1.4133         estimate D2E/DX2                !
 ! R9    R(6,8)                  0.9298         estimate D2E/DX2                !
 ! R10   R(6,14)                 1.3693         estimate D2E/DX2                !
 ! R11   R(7,9)                  0.9601         estimate D2E/DX2                !
 ! R12   R(7,10)                 0.9602         estimate D2E/DX2                !
 ! R13   R(7,13)                 0.9599         estimate D2E/DX2                !
 ! R14   R(11,12)                0.9299         estimate D2E/DX2                !
 ! R15   R(11,21)                1.3719         estimate D2E/DX2                !
 ! R16   R(14,16)                1.3819         estimate D2E/DX2                !
 ! R17   R(14,20)                0.9298         estimate D2E/DX2                !
 ! R18   R(16,17)                1.428          estimate D2E/DX2                !
 ! R19   R(16,21)                1.3824         estimate D2E/DX2                !
 ! R20   R(17,18)                1.2162         estimate D2E/DX2                !
 ! R21   R(17,19)                1.2354         estimate D2E/DX2                !
 ! R22   R(21,22)                0.9292         estimate D2E/DX2                !
 ! A1    A(2,1,3)              109.4656         estimate D2E/DX2                !
 ! A2    A(2,1,4)              109.4844         estimate D2E/DX2                !
 ! A3    A(2,1,15)             109.4797         estimate D2E/DX2                !
 ! A4    A(3,1,4)              109.4675         estimate D2E/DX2                !
 ! A5    A(3,1,15)             109.4801         estimate D2E/DX2                !
 ! A6    A(4,1,15)             109.45           estimate D2E/DX2                !
 ! A7    A(1,4,5)              121.4215         estimate D2E/DX2                !
 ! A8    A(1,4,7)              117.8119         estimate D2E/DX2                !
 ! A9    A(5,4,7)              120.7401         estimate D2E/DX2                !
 ! A10   A(4,5,6)              121.9524         estimate D2E/DX2                !
 ! A11   A(4,5,11)             120.6294         estimate D2E/DX2                !
 ! A12   A(6,5,11)             117.4168         estimate D2E/DX2                !
 ! A13   A(5,6,8)              119.2916         estimate D2E/DX2                !
 ! A14   A(5,6,14)             121.3934         estimate D2E/DX2                !
 ! A15   A(8,6,14)             119.315          estimate D2E/DX2                !
 ! A16   A(4,7,9)              109.4789         estimate D2E/DX2                !
 ! A17   A(4,7,10)             109.4577         estimate D2E/DX2                !
 ! A18   A(4,7,13)             109.5229         estimate D2E/DX2                !
 ! A19   A(9,7,10)             109.4698         estimate D2E/DX2                !
 ! A20   A(9,7,13)             109.4223         estimate D2E/DX2                !
 ! A21   A(10,7,13)            109.4757         estimate D2E/DX2                !
 ! A22   A(5,11,12)            119.7674         estimate D2E/DX2                !
 ! A23   A(5,11,21)            120.5449         estimate D2E/DX2                !
 ! A24   A(12,11,21)           119.6877         estimate D2E/DX2                !
 ! A25   A(6,14,16)            119.8786         estimate D2E/DX2                !
 ! A26   A(6,14,20)            120.0371         estimate D2E/DX2                !
 ! A27   A(16,14,20)           120.0843         estimate D2E/DX2                !
 ! A28   A(14,16,17)           118.8855         estimate D2E/DX2                !
 ! A29   A(14,16,21)           120.2529         estimate D2E/DX2                !
 ! A30   A(17,16,21)           120.8371         estimate D2E/DX2                !
 ! A31   A(16,17,18)           120.3208         estimate D2E/DX2                !
 ! A32   A(16,17,19)           117.6883         estimate D2E/DX2                !
 ! A33   A(18,17,19)           121.9908         estimate D2E/DX2                !
 ! A34   A(11,21,16)           120.5082         estimate D2E/DX2                !
 ! A35   A(11,21,22)           119.7878         estimate D2E/DX2                !
 ! A36   A(16,21,22)           119.7039         estimate D2E/DX2                !
 ! D1    D(2,1,4,5)           -166.68           estimate D2E/DX2                !
 ! D2    D(2,1,4,7)             15.1824         estimate D2E/DX2                !
 ! D3    D(3,1,4,5)             73.3211         estimate D2E/DX2                !
 ! D4    D(3,1,4,7)           -104.8165         estimate D2E/DX2                !
 ! D5    D(15,1,4,5)           -46.6745         estimate D2E/DX2                !
 ! D6    D(15,1,4,7)           135.1879         estimate D2E/DX2                !
 ! D7    D(1,4,5,6)             -3.2788         estimate D2E/DX2                !
 ! D8    D(1,4,5,11)           176.2834         estimate D2E/DX2                !
 ! D9    D(7,4,5,6)            174.8046         estimate D2E/DX2                !
 ! D10   D(7,4,5,11)            -5.6332         estimate D2E/DX2                !
 ! D11   D(1,4,7,9)            117.2711         estimate D2E/DX2                !
 ! D12   D(1,4,7,10)          -122.7342         estimate D2E/DX2                !
 ! D13   D(1,4,7,13)            -2.7054         estimate D2E/DX2                !
 ! D14   D(5,4,7,9)            -60.8798         estimate D2E/DX2                !
 ! D15   D(5,4,7,10)            59.1149         estimate D2E/DX2                !
 ! D16   D(5,4,7,13)           179.1437         estimate D2E/DX2                !
 ! D17   D(4,5,6,8)             -0.4489         estimate D2E/DX2                !
 ! D18   D(4,5,6,14)           179.5613         estimate D2E/DX2                !
 ! D19   D(11,5,6,8)           179.9754         estimate D2E/DX2                !
 ! D20   D(11,5,6,14)           -0.0144         estimate D2E/DX2                !
 ! D21   D(4,5,11,12)            0.8688         estimate D2E/DX2                !
 ! D22   D(4,5,11,21)         -179.1027         estimate D2E/DX2                !
 ! D23   D(6,5,11,12)         -179.5497         estimate D2E/DX2                !
 ! D24   D(6,5,11,21)            0.4789         estimate D2E/DX2                !
 ! D25   D(5,6,14,16)           -0.0689         estimate D2E/DX2                !
 ! D26   D(5,6,14,20)          179.8936         estimate D2E/DX2                !
 ! D27   D(8,6,14,16)          179.9414         estimate D2E/DX2                !
 ! D28   D(8,6,14,20)           -0.0962         estimate D2E/DX2                !
 ! D29   D(5,11,21,16)          -0.8634         estimate D2E/DX2                !
 ! D30   D(5,11,21,22)         179.122          estimate D2E/DX2                !
 ! D31   D(12,11,21,16)        179.1651         estimate D2E/DX2                !
 ! D32   D(12,11,21,22)         -0.8495         estimate D2E/DX2                !
 ! D33   D(6,14,16,17)         177.9082         estimate D2E/DX2                !
 ! D34   D(6,14,16,21)          -0.3065         estimate D2E/DX2                !
 ! D35   D(20,14,16,17)         -2.0542         estimate D2E/DX2                !
 ! D36   D(20,14,16,21)        179.7311         estimate D2E/DX2                !
 ! D37   D(14,16,17,18)          4.54           estimate D2E/DX2                !
 ! D38   D(14,16,17,19)       -175.5397         estimate D2E/DX2                !
 ! D39   D(21,16,17,18)       -177.256          estimate D2E/DX2                !
 ! D40   D(21,16,17,19)          2.6642         estimate D2E/DX2                !
 ! D41   D(14,16,21,11)          0.7758         estimate D2E/DX2                !
 ! D42   D(14,16,21,22)       -179.2095         estimate D2E/DX2                !
 ! D43   D(17,16,21,11)       -177.4036         estimate D2E/DX2                !
 ! D44   D(17,16,21,22)          2.611          estimate D2E/DX2                !
 --------------------------------------------------------------------------------
 Trust Radius=3.00D-01 FncErr=1.00D-07 GrdErr=1.00D-06
 Number of steps in this run=    112 maximum allowed number of steps=    132.
 GradGradGradGradGradGradGradGradGradGradGradGradGradGradGradGradGradGrad

 Leave Link  103 at Fri Aug 20 15:43:26 2021, MaxMem= 24159191040 cpu:         0.4
 (Enter /public/home/users/caep010/software/Gaussian09/g09/l202.exe)
                          Input orientation:                          
 ---------------------------------------------------------------------
 Center     Atomic      Atomic             Coordinates (Angstroms)
 Number     Number       Type             X           Y           Z
 ---------------------------------------------------------------------
      1          6           0        3.608600    4.815400    8.746600
      2          1           0        4.119500    4.709700    9.552200
      3          1           0        2.676600    4.888400    8.966000
      4          7           0        3.817400    3.648000    7.876500
      5          6           0        3.428800    3.657500    6.564900
      6          6           0        2.749600    4.754100    5.995900
      7          6           0        4.419500    2.453200    8.469700
      8          1           0        2.552700    5.492100    6.526100
      9          1           0        3.795900    1.724600    8.425000
     10          1           0        5.216200    2.222700    7.985900
     11          6           0        3.707400    2.556800    5.723400
     12          1           0        4.148400    1.813400    6.066400
     13          1           0        4.641400    2.627600    9.387200
     14          6           0        2.373700    4.755100    4.679200
     15          1           0        3.892800    5.609500    8.289400
     16          6           0        2.661500    3.664900    3.880300
     17          7           0        2.220100    3.669200    2.522200
     18          8           0        1.674300    4.651500    2.057100
     19          8           0        2.415000    2.649800    1.852000
     20          1           0        1.925200    5.487900    4.323800
     21          6           0        3.333100    2.575800    4.403700
     22          1           0        3.532400    1.851500    3.856900
 ---------------------------------------------------------------------
                    Distance matrix (angstroms):
                    1          2          3          4          5
     1  C    0.000000
     2  H    0.959783   0.000000
     3  H    0.960255   1.567649   0.000000
     4  N    1.470882   2.006600   2.006745   0.000000
     5  C    2.476464   3.241628   2.801107   1.367989   0.000000
     6  C    2.882358   3.811282   2.974031   2.429055   1.409825
     7  C    2.512811   2.520635   3.035492   1.463543   2.461725
     8  H    2.550190   3.496326   2.516529   2.612231   2.033424
     9  H    3.113126   3.207198   3.399286   2.000196   2.707552
    10  H    3.144064   3.137071   3.810003   2.000022   2.696793
    11  C    3.775020   4.411861   4.124726   2.416331   1.413252
    12  H    4.060401   4.532129   4.475433   2.598419   2.041331
    13  H    2.502701   2.152846   3.024742   2.000602   3.239826
    14  C    4.251159   5.176486   4.299555   3.678677   2.423598
    15  H    0.959373   1.567066   1.567455   2.005905   2.645657
    16  C    5.089354   5.948766   5.230824   4.160049   2.792111
    17  N    6.479573   7.356036   6.573994   5.587517   4.219540
    18  O    6.965471   7.884092   6.985243   6.282142   4.938276
    19  O    7.324617   8.151171   7.462490   6.265599   4.924904
    20  H    4.779880   5.723348   4.740677   4.425758   3.260936
    21  C    4.894128   5.628411   5.156907   3.666674   2.418681
    22  H    5.718363   6.399253   6.004836   4.412009   3.256629
                    6          7          8          9         10
     6  C    0.000000
     7  C    3.768606   0.000000
     8  H    0.929799   4.061704   0.000000
     9  H    4.021584   0.960069   4.398343   0.000000
    10  H    4.056131   0.960169   4.462536   1.567853   0.000000
    11  C    2.412419   2.839011   3.254788   2.828256   2.739892
    12  H    3.257196   2.501737   4.036139   2.386448   2.234324
    13  H    4.427395   0.959928   4.555647   1.567198   1.567795
    14  C    1.369307   4.883844   1.996559   5.023704   5.042531
    15  H    2.701621   3.205020   2.217854   3.888473   3.648824
    16  C    2.381151   5.061756   3.217259   5.070101   5.046027
    17  N    3.677495   6.456684   4.411893   6.411526   6.396952
    18  O    4.084231   7.313692   4.631431   7.322437   7.320847
    19  O    4.659608   6.917415   5.472188   6.779912   6.756764
    20  H    2.003501   5.711342   2.289956   5.872119   5.907892
    21  C    2.760537   4.210422   3.690313   4.136373   4.062376
    22  H    3.689605   4.735706   4.619352   4.577453   4.474552
                   11         12         13         14         15
    11  C    0.000000
    12  H    0.929932   0.000000
    13  H    3.781640   3.454516   0.000000
    14  C    2.775181   3.705062   5.642161   0.000000
    15  H    3.992206   4.406522   3.264551   4.008891   0.000000
    16  C    2.391403   3.227686   5.943227   1.381885   4.973704
    17  N    3.700970   4.441136   7.353628   2.419798   6.310569
    18  O    4.686472   5.500043   8.162734   2.715751   6.684390
    19  O    4.082485   4.633078   7.857263   3.525203   7.237668
    20  H    3.704924   4.634784   6.418495   0.929762   4.428569
    21  C    1.371885   2.002633   5.152631   2.397018   4.961377
    22  H    2.002972   2.294079   5.693543   3.232593   5.822328
                   16         17         18         19         20
    16  C    0.000000
    17  N    1.428036   0.000000
    18  O    2.296084   1.216194   0.000000
    19  O    2.281489   1.235447   2.144179   0.000000
    20  H    2.015480   2.576897   2.429083   3.795328   0.000000
    21  C    1.382437   2.444245   3.544951   2.712850   3.235567
    22  H    2.011824   2.609136   3.812062   2.430121   4.003060
                   21         22
    21  C    0.000000
    22  H    0.929151   0.000000
 Stoichiometry    C8H10N2O2
 Framework group  C1[X(C8H10N2O2)]
 Deg. of freedom    60
 Full point group                 C1      NOp   1
 Largest Abelian subgroup         C1      NOp   1
 Largest concise Abelian subgroup C1      NOp   1
                         Standard orientation:                         
 ---------------------------------------------------------------------
 Center     Atomic      Atomic             Coordinates (Angstroms)
 Number     Number       Type             X           Y           Z
 ---------------------------------------------------------------------
      1          6           0       -3.437445   -1.254098   -0.038560
      2          1           0       -4.355104   -1.059287   -0.241374
      3          1           0       -3.383650   -1.686253    0.817265
      4          7           0       -2.665980   -0.002217   -0.004926
      5          6           0       -1.298001   -0.007271   -0.005709
      6          6           0       -0.556304   -1.205699    0.029837
      7          6           0       -3.409374    1.256137    0.071685
      8          1           0       -1.006580   -2.018600    0.060957
      9          1           0       -3.192297    1.706838    0.891123
     10          1           0       -3.171797    1.813821   -0.672942
     11          6           0       -0.573514    1.205271   -0.051977
     12          1           0       -1.029831    2.015347   -0.069971
     13          1           0       -4.351570    1.074098    0.047422
     14          6           0        0.812941   -1.197693    0.019707
     15          1           0       -3.076832   -1.833549   -0.712795
     16          6           0        1.494002    0.003773   -0.027627
     17          7           0        2.921515   -0.010592    0.008282
     18          8           0        3.525405   -1.066196   -0.003777
     19          8           0        3.505692    1.077222    0.049849
     20          1           0        1.283240   -1.999334    0.045166
     21          6           0        0.798216    1.197556   -0.071178
     22          1           0        1.263777    2.000514   -0.113981
 ---------------------------------------------------------------------
 Rotational constants (GHZ):      2.8443216      0.4807938      0.4131331
 Leave Link  202 at Fri Aug 20 15:43:26 2021, MaxMem= 24159191040 cpu:         0.5
 (Enter /public/home/users/caep010/software/Gaussian09/g09/l301.exe)
 Standard basis: 6-31G(d,p) (6D, 7F)
 Ernie: Thresh=  0.10000D-02 Tol=  0.10000D-05 Strict=F.
 There are   230 symmetry adapted cartesian basis functions of A   symmetry.
 There are   230 symmetry adapted basis functions of A   symmetry.
   230 basis functions,   406 primitive gaussians,   230 cartesian basis functions
    44 alpha electrons       44 beta electrons
       nuclear repulsion energy       689.4573736808 Hartrees.
 IExCor=  402 DFT=T Ex+Corr=B3LYP ExCW=0 ScaHFX=  0.200000
 ScaDFX=  0.800000  0.720000  1.000000  0.810000 ScalE2=  1.000000  1.000000
 IRadAn=      0 IRanWt=     -1 IRanGd=            0 ICorTp=0 IEmpDi=  4
 NAtoms=   22 NActive=   22 NUniq=   22 SFac= 1.00D+00 NAtFMM=   60 NAOKFM=F Big=F
 Integral buffers will be    131072 words long.
 Raffenetti 2 integral format.
 Two-electron integral symmetry is turned on.
 Leave Link  301 at Fri Aug 20 15:43:26 2021, MaxMem= 24159191040 cpu:         2.0
 (Enter /public/home/users/caep010/software/Gaussian09/g09/l302.exe)
 NPDir=0 NMtPBC=     1 NCelOv=     1 NCel=       1 NClECP=     1 NCelD=      1
         NCelK=      1 NCelE2=     1 NClLst=     1 CellRange=     0.0.
 One-electron integrals computed using PRISM.
 NBasis=   230 RedAO= T EigKep=  3.37D-04  NBF=   230
 NBsUse=   230 1.00D-06 EigRej= -1.00D+00 NBFU=   230
 Precomputing XC quadrature grid using
 IXCGrd= 4 IRadAn=           0 IRanWt=          -1 IRanGd=           0 AccXCQ= 0.00D+00.
 Generated NRdTot=       0 NPtTot=           0 NUsed=           0 NTot=          32
 NSgBfM=   228   228   229   229   229 MxSgAt=    22 MxSgA2=    22.
 Leave Link  302 at Fri Aug 20 15:43:27 2021, MaxMem= 24159191040 cpu:        13.4
 (Enter /public/home/users/caep010/software/Gaussian09/g09/l303.exe)
 DipDrv:  MaxL=1.
 Leave Link  303 at Fri Aug 20 15:43:27 2021, MaxMem= 24159191040 cpu:         1.0
 (Enter /public/home/users/caep010/software/Gaussian09/g09/l401.exe)
 ExpMin= 1.61D-01 ExpMax= 5.48D+03 ExpMxC= 8.25D+02 IAcc=1 IRadAn=         1 AccDes= 0.00D+00
 Harris functional with IExCor=  402 and IRadAn=       1 diagonalized for initial guess.
 HarFok:  IExCor=  402 AccDes= 0.00D+00 IRadAn=         1 IDoV= 1 UseB2=F ITyADJ=14
 ICtDFT=  3500011 ScaDFX=  1.000000  1.000000  1.000000  1.000000
 FoFCou: FMM=F IPFlag=           0 FMFlag=      100000 FMFlg1=           0
         NFxFlg=           0 DoJE=T BraDBF=F KetDBF=T FulRan=T
         wScrn=  0.000000 ICntrl=     500 IOpCl=  0 I1Cent=   200000004 NGrid=           0
         NMat0=    1 NMatS0=      1 NMatT0=    0 NMatD0=    1 NMtDS0=    0 NMtDT0=    0
 Petite list used in FoFCou.
 Harris En= -570.722579060869    
 JPrj=0 DoOrth=F DoCkMO=F.
 Leave Link  401 at Fri Aug 20 15:43:27 2021, MaxMem= 24159191040 cpu:        15.3
 (Enter /public/home/users/caep010/software/Gaussian09/g09/l502.exe)
 Closed shell SCF:
 Using DIIS extrapolation, IDIIS=  1040.
 Integral symmetry usage will be decided dynamically.
 Keep R1 ints in memory in canonical form, NReq=359212317.
 IVT=      186342 IEndB=      186342 NGot= 24159191040 MDV= 23806141804
 LenX= 23806141804 LenY= 23806088463
 Requested convergence on RMS density matrix=1.00D-08 within 128 cycles.
 Requested convergence on MAX density matrix=1.00D-06.
 Requested convergence on             energy=1.00D-06.
 No special actions if energy rises.
 FoFCou: FMM=F IPFlag=           0 FMFlag=           0 FMFlg1=           0
         NFxFlg=           0 DoJE=F BraDBF=F KetDBF=F FulRan=T
         wScrn=  0.000000 ICntrl=     600 IOpCl=  0 I1Cent=           0 NGrid=           0
         NMat0=    1 NMatS0=  26565 NMatT0=    0 NMatD0=    1 NMtDS0=    0 NMtDT0=    0
 Symmetry not used in FoFCou.
 Integral accuracy reduced to 1.0D-05 until final iterations.

 Cycle   1  Pass 0  IDiag  1:
 E= -570.128661646959    
 DIIS: error= 5.41D-02 at cycle   1 NSaved=   1.
 NSaved= 1 IEnMin= 1 EnMin= -570.128661646959     IErMin= 1 ErrMin= 5.41D-02
 ErrMax= 5.41D-02  0.00D+00 EMaxC= 1.00D-01 BMatC= 4.89D-01 BMatP= 4.89D-01
 IDIUse=3 WtCom= 4.59D-01 WtEn= 5.41D-01
 Coeff-Com:  0.100D+01
 Coeff-En:   0.100D+01
 Coeff:      0.100D+01
 Gap=     0.270 Goal=   None    Shift=    0.000
 GapD=    0.270 DampG=1.000 DampE=0.500 DampFc=0.5000 IDamp=-1.
 Damping current iteration by 5.00D-01
 RMSDP=5.94D-03 MaxDP=2.41D-01              OVMax= 3.35D-01

 Cycle   2  Pass 0  IDiag  1:
 E= -570.286162235981     Delta-E=       -0.157500589022 Rises=F Damp=T
 DIIS: error= 1.94D-02 at cycle   2 NSaved=   2.
 NSaved= 2 IEnMin= 2 EnMin= -570.286162235981     IErMin= 2 ErrMin= 1.94D-02
 ErrMax= 1.94D-02  0.00D+00 EMaxC= 1.00D-01 BMatC= 6.10D-02 BMatP= 4.89D-01
 IDIUse=3 WtCom= 8.06D-01 WtEn= 1.94D-01
 Coeff-Com:  0.180D+00 0.820D+00
 Coeff-En:   0.249D+00 0.751D+00
 Coeff:      0.194D+00 0.806D+00
 Gap=     0.200 Goal=   None    Shift=    0.000
 RMSDP=1.77D-03 MaxDP=8.44D-02 DE=-1.58D-01 OVMax= 2.52D-01

 Cycle   3  Pass 0  IDiag  1:
 E= -570.533717512981     Delta-E=       -0.247555277000 Rises=F Damp=F
 DIIS: error= 1.69D-02 at cycle   3 NSaved=   3.
 NSaved= 3 IEnMin= 3 EnMin= -570.533717512981     IErMin= 3 ErrMin= 1.69D-02
 ErrMax= 1.69D-02  0.00D+00 EMaxC= 1.00D-01 BMatC= 3.52D-02 BMatP= 6.10D-02
 IDIUse=3 WtCom= 8.31D-01 WtEn= 1.69D-01
 Coeff-Com:  0.405D-01 0.425D+00 0.535D+00
 Coeff-En:   0.000D+00 0.000D+00 0.100D+01
 Coeff:      0.336D-01 0.353D+00 0.613D+00
 Gap=     0.149 Goal=   None    Shift=    0.000
 RMSDP=1.11D-03 MaxDP=4.74D-02 DE=-2.48D-01 OVMax= 5.39D-02

 Cycle   4  Pass 0  IDiag  1:
 E= -570.551764461240     Delta-E=       -0.018046948258 Rises=F Damp=F
 DIIS: error= 1.14D-02 at cycle   4 NSaved=   4.
 NSaved= 4 IEnMin= 4 EnMin= -570.551764461240     IErMin= 4 ErrMin= 1.14D-02
 ErrMax= 1.14D-02  0.00D+00 EMaxC= 1.00D-01 BMatC= 1.42D-02 BMatP= 3.52D-02
 IDIUse=3 WtCom= 8.86D-01 WtEn= 1.14D-01
 Coeff-Com:  0.211D-01 0.143D+00 0.393D+00 0.443D+00
 Coeff-En:   0.000D+00 0.000D+00 0.303D+00 0.697D+00
 Coeff:      0.187D-01 0.127D+00 0.383D+00 0.472D+00
 Gap=     0.149 Goal=   None    Shift=    0.000
 RMSDP=6.04D-04 MaxDP=3.70D-02 DE=-1.80D-02 OVMax= 6.21D-02

 Cycle   5  Pass 0  IDiag  1:
 E= -570.560328221722     Delta-E=       -0.008563760482 Rises=F Damp=F
 DIIS: error= 8.46D-03 at cycle   5 NSaved=   5.
 NSaved= 5 IEnMin= 5 EnMin= -570.560328221722     IErMin= 5 ErrMin= 8.46D-03
 ErrMax= 8.46D-03  0.00D+00 EMaxC= 1.00D-01 BMatC= 3.50D-03 BMatP= 1.42D-02
 IDIUse=3 WtCom= 9.15D-01 WtEn= 8.46D-02
 Coeff-Com:  0.101D-01 0.242D-01 0.206D+00 0.376D+00 0.383D+00
 Coeff-En:   0.000D+00 0.000D+00 0.000D+00 0.220D+00 0.780D+00
 Coeff:      0.924D-02 0.221D-01 0.189D+00 0.363D+00 0.417D+00
 Gap=     0.148 Goal=   None    Shift=    0.000
 RMSDP=2.75D-04 MaxDP=1.66D-02 DE=-8.56D-03 OVMax= 3.39D-02

 Cycle   6  Pass 0  IDiag  1:
 E= -570.562895819952     Delta-E=       -0.002567598230 Rises=F Damp=F
 DIIS: error= 2.47D-03 at cycle   6 NSaved=   6.
 NSaved= 6 IEnMin= 6 EnMin= -570.562895819952     IErMin= 6 ErrMin= 2.47D-03
 ErrMax= 2.47D-03  0.00D+00 EMaxC= 1.00D-01 BMatC= 3.78D-04 BMatP= 3.50D-03
 IDIUse=3 WtCom= 9.75D-01 WtEn= 2.47D-02
 Coeff-Com:  0.333D-02-0.312D-04 0.813D-01 0.186D+00 0.293D+00 0.436D+00
 Coeff-En:   0.000D+00 0.000D+00 0.000D+00 0.000D+00 0.115D+00 0.885D+00
 Coeff:      0.325D-02-0.304D-04 0.793D-01 0.181D+00 0.289D+00 0.447D+00
 Gap=     0.149 Goal=   None    Shift=    0.000
 RMSDP=8.66D-05 MaxDP=5.38D-03 DE=-2.57D-03 OVMax= 8.34D-03

 Cycle   7  Pass 0  IDiag  1:
 E= -570.563179815565     Delta-E=       -0.000283995613 Rises=F Damp=F
 DIIS: error= 4.05D-04 at cycle   7 NSaved=   7.
 NSaved= 7 IEnMin= 7 EnMin= -570.563179815565     IErMin= 7 ErrMin= 4.05D-04
 ErrMax= 4.05D-04  0.00D+00 EMaxC= 1.00D-01 BMatC= 1.99D-05 BMatP= 3.78D-04
 IDIUse=3 WtCom= 9.96D-01 WtEn= 4.05D-03
 Coeff-Com:  0.107D-02-0.196D-02 0.274D-01 0.708D-01 0.135D+00 0.276D+00
 Coeff-Com:  0.492D+00
 Coeff-En:   0.000D+00 0.000D+00 0.000D+00 0.000D+00 0.000D+00 0.136D-01
 Coeff-En:   0.986D+00
 Coeff:      0.106D-02-0.195D-02 0.272D-01 0.705D-01 0.134D+00 0.275D+00
 Coeff:      0.494D+00
 Gap=     0.149 Goal=   None    Shift=    0.000
 RMSDP=2.79D-05 MaxDP=9.86D-04 DE=-2.84D-04 OVMax= 3.00D-03

 Cycle   8  Pass 0  IDiag  1:
 E= -570.563198080500     Delta-E=       -0.000018264935 Rises=F Damp=F
 DIIS: error= 1.18D-04 at cycle   8 NSaved=   8.
 NSaved= 8 IEnMin= 8 EnMin= -570.563198080500     IErMin= 8 ErrMin= 1.18D-04
 ErrMax= 1.18D-04  0.00D+00 EMaxC= 1.00D-01 BMatC= 2.44D-06 BMatP= 1.99D-05
 IDIUse=3 WtCom= 9.99D-01 WtEn= 1.18D-03
 Coeff-Com:  0.309D-03-0.154D-02 0.864D-02 0.257D-01 0.552D-01 0.127D+00
 Coeff-Com:  0.321D+00 0.464D+00
 Coeff-En:   0.000D+00 0.000D+00 0.000D+00 0.000D+00 0.000D+00 0.000D+00
 Coeff-En:   0.102D+00 0.898D+00
 Coeff:      0.308D-03-0.153D-02 0.863D-02 0.257D-01 0.551D-01 0.127D+00
 Coeff:      0.320D+00 0.464D+00
 Gap=     0.149 Goal=   None    Shift=    0.000
 RMSDP=8.76D-06 MaxDP=3.34D-04 DE=-1.83D-05 OVMax= 1.03D-03

 Initial convergence to 1.0D-05 achieved.  Increase integral accuracy.
 Cycle   9  Pass 1  IDiag  1:
 E= -570.563117009328     Delta-E=        0.000081071172 Rises=F Damp=F
 DIIS: error= 5.33D-05 at cycle   1 NSaved=   1.
 NSaved= 1 IEnMin= 1 EnMin= -570.563117009328     IErMin= 1 ErrMin= 5.33D-05
 ErrMax= 5.33D-05  0.00D+00 EMaxC= 1.00D-01 BMatC= 2.06D-07 BMatP= 2.06D-07
 IDIUse=1 WtCom= 1.00D+00 WtEn= 0.00D+00
 Coeff-Com:  0.100D+01
 Coeff:      0.100D+01
 Gap=     0.149 Goal=   None    Shift=    0.000
 RMSDP=8.76D-06 MaxDP=3.34D-04 DE= 8.11D-05 OVMax= 1.92D-04

 Cycle  10  Pass 1  IDiag  1:
 E= -570.563117166798     Delta-E=       -0.000000157469 Rises=F Damp=F
 DIIS: error= 1.63D-05 at cycle   2 NSaved=   2.
 NSaved= 2 IEnMin= 2 EnMin= -570.563117166798     IErMin= 2 ErrMin= 1.63D-05
 ErrMax= 1.63D-05  0.00D+00 EMaxC= 1.00D-01 BMatC= 9.87D-08 BMatP= 2.06D-07
 IDIUse=1 WtCom= 1.00D+00 WtEn= 0.00D+00
 Coeff-Com:  0.377D+00 0.623D+00
 Coeff:      0.377D+00 0.623D+00
 Gap=     0.149 Goal=   None    Shift=    0.000
 RMSDP=2.34D-06 MaxDP=8.69D-05 DE=-1.57D-07 OVMax= 2.23D-04

 Cycle  11  Pass 1  IDiag  1:
 E= -570.563117218461     Delta-E=       -0.000000051663 Rises=F Damp=F
 DIIS: error= 1.51D-05 at cycle   3 NSaved=   3.
 NSaved= 3 IEnMin= 3 EnMin= -570.563117218461     IErMin= 3 ErrMin= 1.51D-05
 ErrMax= 1.51D-05  0.00D+00 EMaxC= 1.00D-01 BMatC= 4.13D-08 BMatP= 9.87D-08
 IDIUse=1 WtCom= 1.00D+00 WtEn= 0.00D+00
 Coeff-Com:  0.282D-01 0.388D+00 0.584D+00
 Coeff:      0.282D-01 0.388D+00 0.584D+00
 Gap=     0.149 Goal=   None    Shift=    0.000
 RMSDP=1.25D-06 MaxDP=5.60D-05 DE=-5.17D-08 OVMax= 1.27D-04

 Cycle  12  Pass 1  IDiag  1:
 E= -570.563117245707     Delta-E=       -0.000000027246 Rises=F Damp=F
 DIIS: error= 1.44D-05 at cycle   4 NSaved=   4.
 NSaved= 4 IEnMin= 4 EnMin= -570.563117245707     IErMin= 4 ErrMin= 1.44D-05
 ErrMax= 1.44D-05  0.00D+00 EMaxC= 1.00D-01 BMatC= 1.27D-08 BMatP= 4.13D-08
 IDIUse=1 WtCom= 1.00D+00 WtEn= 0.00D+00
 Coeff-Com: -0.985D-02 0.232D+00 0.435D+00 0.342D+00
 Coeff:     -0.985D-02 0.232D+00 0.435D+00 0.342D+00
 Gap=     0.149 Goal=   None    Shift=    0.000
 RMSDP=4.88D-07 MaxDP=2.71D-05 DE=-2.72D-08 OVMax= 5.38D-05

 Cycle  13  Pass 1  IDiag  1:
 E= -570.563117256370     Delta-E=       -0.000000010662 Rises=F Damp=F
 DIIS: error= 2.79D-06 at cycle   5 NSaved=   5.
 NSaved= 5 IEnMin= 5 EnMin= -570.563117256370     IErMin= 5 ErrMin= 2.79D-06
 ErrMax= 2.79D-06  0.00D+00 EMaxC= 1.00D-01 BMatC= 5.88D-10 BMatP= 1.27D-08
 IDIUse=1 WtCom= 1.00D+00 WtEn= 0.00D+00
 Coeff-Com: -0.827D-02 0.112D+00 0.229D+00 0.219D+00 0.449D+00
 Coeff:     -0.827D-02 0.112D+00 0.229D+00 0.219D+00 0.449D+00
 Gap=     0.149 Goal=   None    Shift=    0.000
 RMSDP=1.42D-07 MaxDP=6.59D-06 DE=-1.07D-08 OVMax= 1.35D-05

 Cycle  14  Pass 1  IDiag  1:
 E= -570.563117256816     Delta-E=       -0.000000000447 Rises=F Damp=F
 DIIS: error= 8.93D-07 at cycle   6 NSaved=   6.
 NSaved= 6 IEnMin= 6 EnMin= -570.563117256816     IErMin= 6 ErrMin= 8.93D-07
 ErrMax= 8.93D-07  0.00D+00 EMaxC= 1.00D-01 BMatC= 1.01D-10 BMatP= 5.88D-10
 IDIUse=1 WtCom= 1.00D+00 WtEn= 0.00D+00
 Coeff-Com: -0.456D-02 0.469D-01 0.102D+00 0.103D+00 0.307D+00 0.445D+00
 Coeff:     -0.456D-02 0.469D-01 0.102D+00 0.103D+00 0.307D+00 0.445D+00
 Gap=     0.149 Goal=   None    Shift=    0.000
 RMSDP=4.85D-08 MaxDP=1.70D-06 DE=-4.47D-10 OVMax= 3.86D-06

 Cycle  15  Pass 1  IDiag  1:
 E= -570.563117256900     Delta-E=       -0.000000000084 Rises=F Damp=F
 DIIS: error= 1.86D-07 at cycle   7 NSaved=   7.
 NSaved= 7 IEnMin= 7 EnMin= -570.563117256900     IErMin= 7 ErrMin= 1.86D-07
 ErrMax= 1.86D-07  0.00D+00 EMaxC= 1.00D-01 BMatC= 4.14D-12 BMatP= 1.01D-10
 IDIUse=1 WtCom= 1.00D+00 WtEn= 0.00D+00
 Coeff-Com: -0.174D-02 0.158D-01 0.361D-01 0.358D-01 0.125D+00 0.236D+00
 Coeff-Com:  0.553D+00
 Coeff:     -0.174D-02 0.158D-01 0.361D-01 0.358D-01 0.125D+00 0.236D+00
 Coeff:      0.553D+00
 Gap=     0.149 Goal=   None    Shift=    0.000
 RMSDP=1.09D-08 MaxDP=3.70D-07 DE=-8.39D-11 OVMax= 7.99D-07

 Cycle  16  Pass 1  IDiag  1:
 E= -570.563117256913     Delta-E=       -0.000000000013 Rises=F Damp=F
 DIIS: error= 7.20D-08 at cycle   8 NSaved=   8.
 NSaved= 8 IEnMin= 8 EnMin= -570.563117256913     IErMin= 8 ErrMin= 7.20D-08
 ErrMax= 7.20D-08  0.00D+00 EMaxC= 1.00D-01 BMatC= 7.20D-13 BMatP= 4.14D-12
 IDIUse=1 WtCom= 1.00D+00 WtEn= 0.00D+00
 Coeff-Com: -0.387D-03 0.275D-02 0.702D-02 0.605D-02 0.291D-01 0.741D-01
 Coeff-Com:  0.330D+00 0.552D+00
 Coeff:     -0.387D-03 0.275D-02 0.702D-02 0.605D-02 0.291D-01 0.741D-01
 Coeff:      0.330D+00 0.552D+00
 Gap=     0.149 Goal=   None    Shift=    0.000
 RMSDP=3.87D-09 MaxDP=1.72D-07 DE=-1.32D-11 OVMax= 2.15D-07

 SCF Done:  E(RB3LYP) =  -570.563117257     A.U. after   16 cycles
            NFock= 16  Conv=0.39D-08     -V/T= 2.0043
 KE= 5.681202820502D+02 PE=-2.709336842798D+03 EE= 8.811960698104D+02
 Leave Link  502 at Fri Aug 20 15:43:39 2021, MaxMem= 24159191040 cpu:       114.3
 (Enter /public/home/users/caep010/software/Gaussian09/g09/l601.exe)
 Copying SCF densities to generalized density rwf, IOpCl= 0 IROHF=0.

 **********************************************************************

            Population analysis using the SCF density.

 **********************************************************************

 Orbital symmetries:
       Occupied  (A) (A) (A) (A) (A) (A) (A) (A) (A) (A) (A) (A)
                 (A) (A) (A) (A) (A) (A) (A) (A) (A) (A) (A) (A)
                 (A) (A) (A) (A) (A) (A) (A) (A) (A) (A) (A) (A)
                 (A) (A) (A) (A) (A) (A) (A) (A)
       Virtual   (A) (A) (A) (A) (A) (A) (A) (A) (A) (A) (A) (A)
                 (A) (A) (A) (A) (A) (A) (A) (A) (A) (A) (A) (A)
                 (A) (A) (A) (A) (A) (A) (A) (A) (A) (A) (A) (A)
                 (A) (A) (A) (A) (A) (A) (A) (A) (A) (A) (A) (A)
                 (A) (A) (A) (A) (A) (A) (A) (A) (A) (A) (A) (A)
                 (A) (A) (A) (A) (A) (A) (A) (A) (A) (A) (A) (A)
                 (A) (A) (A) (A) (A) (A) (A) (A) (A) (A) (A) (A)
                 (A) (A) (A) (A) (A) (A) (A) (A) (A) (A) (A) (A)
                 (A) (A) (A) (A) (A) (A) (A) (A) (A) (A) (A) (A)
                 (A) (A) (A) (A) (A) (A) (A) (A) (A) (A) (A) (A)
                 (A) (A) (A) (A) (A) (A) (A) (A) (A) (A) (A) (A)
                 (A) (A) (A) (A) (A) (A) (A) (A) (A) (A) (A) (A)
                 (A) (A) (A) (A) (A) (A) (A) (A) (A) (A) (A) (A)
                 (A) (A) (A) (A) (A) (A) (A) (A) (A) (A) (A) (A)
                 (A) (A) (A) (A) (A) (A) (A) (A) (A) (A) (A) (A)
                 (A) (A) (A) (A) (A) (A)
 The electronic state is 1-A.
 Alpha  occ. eigenvalues --  -19.15234 -19.14579 -14.54454 -14.37353 -10.24584
 Alpha  occ. eigenvalues --  -10.22011 -10.20017 -10.19937 -10.18806 -10.18759
 Alpha  occ. eigenvalues --  -10.18030 -10.17957  -1.20538  -1.02311  -0.97121
 Alpha  occ. eigenvalues --   -0.87876  -0.80273  -0.79139  -0.77122  -0.73506
 Alpha  occ. eigenvalues --   -0.66108  -0.64787  -0.60091  -0.55940  -0.52688
 Alpha  occ. eigenvalues --   -0.51431  -0.51144  -0.50780  -0.49698  -0.48269
 Alpha  occ. eigenvalues --   -0.46347  -0.45943  -0.45364  -0.44154  -0.42533
 Alpha  occ. eigenvalues --   -0.41100  -0.38674  -0.36542  -0.31015  -0.28636
 Alpha  occ. eigenvalues --   -0.28312  -0.26723  -0.26053  -0.20961
 Alpha virt. eigenvalues --   -0.06054  -0.01185   0.03566   0.09166   0.11215
 Alpha virt. eigenvalues --    0.13334   0.14724   0.15514   0.15881   0.16893
 Alpha virt. eigenvalues --    0.18090   0.19001   0.20058   0.21249   0.22735
 Alpha virt. eigenvalues --    0.23660   0.25704   0.26371   0.29407   0.31322
 Alpha virt. eigenvalues --    0.31954   0.32886   0.38810   0.39517   0.43598
 Alpha virt. eigenvalues --    0.47388   0.48936   0.50666   0.51371   0.52898
 Alpha virt. eigenvalues --    0.54175   0.55712   0.57187   0.57903   0.58772
 Alpha virt. eigenvalues --    0.59256   0.60082   0.61016   0.62675   0.66734
 Alpha virt. eigenvalues --    0.67142   0.69282   0.72820   0.73811   0.75086
 Alpha virt. eigenvalues --    0.77949   0.79063   0.79610   0.80668   0.84225
 Alpha virt. eigenvalues --    0.84694   0.86752   0.90762   0.91222   0.91654
 Alpha virt. eigenvalues --    0.92581   0.93346   0.95331   0.95984   0.97336
 Alpha virt. eigenvalues --    0.99059   0.99632   0.99817   1.01278   1.02273
 Alpha virt. eigenvalues --    1.03120   1.05800   1.06998   1.07322   1.10581
 Alpha virt. eigenvalues --    1.16587   1.17996   1.20568   1.21029   1.21748
 Alpha virt. eigenvalues --    1.25487   1.26558   1.29503   1.34080   1.37352
 Alpha virt. eigenvalues --    1.37682   1.38147   1.38786   1.39493   1.44167
 Alpha virt. eigenvalues --    1.44933   1.45763   1.52850   1.57560   1.58182
 Alpha virt. eigenvalues --    1.66466   1.68414   1.72640   1.75336   1.77360
 Alpha virt. eigenvalues --    1.80252   1.81534   1.83949   1.85917   1.86619
 Alpha virt. eigenvalues --    1.88517   1.89105   1.90226   1.92157   1.95311
 Alpha virt. eigenvalues --    1.96361   1.97393   1.99324   2.00387   2.04000
 Alpha virt. eigenvalues --    2.05628   2.08015   2.08299   2.11472   2.13952
 Alpha virt. eigenvalues --    2.15030   2.15425   2.15931   2.18789   2.19222
 Alpha virt. eigenvalues --    2.23801   2.24451   2.26719   2.27612   2.31881
 Alpha virt. eigenvalues --    2.32363   2.34506   2.40123   2.41814   2.44834
 Alpha virt. eigenvalues --    2.45979   2.50326   2.52349   2.54855   2.56118
 Alpha virt. eigenvalues --    2.56411   2.57867   2.58684   2.60929   2.64493
 Alpha virt. eigenvalues --    2.68101   2.69517   2.69775   2.74165   2.75528
 Alpha virt. eigenvalues --    2.78308   2.82141   2.84010   2.84728   2.87252
 Alpha virt. eigenvalues --    2.91675   2.92029   2.92689   3.00980   3.01820
 Alpha virt. eigenvalues --    3.05931   3.08882   3.11190   3.15565   3.25842
 Alpha virt. eigenvalues --    3.27766   3.33168   3.38488   3.63775   3.64534
 Alpha virt. eigenvalues --    3.67176   3.73628   3.73942   3.74568   3.75724
 Alpha virt. eigenvalues --    3.77503   3.78209   3.81260   3.96951   3.97029
 Alpha virt. eigenvalues --    4.05235   4.05636   4.12769   4.13949   4.17379
 Alpha virt. eigenvalues --    4.29936   4.42717   4.44106   4.48607   4.54203
 Alpha virt. eigenvalues --    4.91597
          Condensed to atoms (all electrons):
               1          2          3          4          5          6
     1  C    4.677492   0.405136   0.410812   0.326592  -0.036333  -0.008565
     2  H    0.405136   0.574938  -0.040017  -0.028296   0.004021   0.000375
     3  H    0.410812  -0.040017   0.592744  -0.047489  -0.004002   0.003313
     4  N    0.326592  -0.028296  -0.047489   6.997632   0.323810  -0.074064
     5  C   -0.036333   0.004021  -0.004002   0.323810   4.579546   0.492682
     6  C   -0.008565   0.000375   0.003313  -0.074064   0.492682   4.947084
     7  C   -0.053802  -0.007417   0.002771   0.327944  -0.037782   0.005908
     8  H    0.009052  -0.000142   0.000538  -0.016952  -0.055309   0.370530
     9  H    0.003578  -0.000308   0.000932  -0.044870  -0.005577  -0.000049
    10  H    0.003727   0.000811  -0.000603  -0.042326  -0.007188  -0.000220
    11  C    0.005982  -0.000210  -0.000148  -0.075296   0.490974  -0.049676
    12  H   -0.000035  -0.000005  -0.000007  -0.017450  -0.054683   0.008889
    13  H   -0.007200   0.004669   0.000184  -0.027914   0.004382  -0.000210
    14  C    0.000007  -0.000017   0.000095   0.005808  -0.008157   0.501254
    15  H    0.404540  -0.027637  -0.052786  -0.037529  -0.007530   0.006625
    16  C   -0.000022   0.000000  -0.000006   0.000514  -0.045675  -0.019548
    17  N   -0.000000  -0.000000  -0.000000   0.000001   0.000294   0.004954
    18  O    0.000000   0.000000   0.000000  -0.000000  -0.000008   0.001216
    19  O    0.000000   0.000000   0.000000  -0.000000  -0.000009  -0.000036
    20  H    0.000008   0.000000  -0.000003  -0.000152   0.006363  -0.043215
    21  C   -0.000072   0.000004   0.000003   0.005918  -0.009098  -0.048082
    22  H    0.000003  -0.000000  -0.000000  -0.000162   0.006347   0.000253
               7          8          9         10         11         12
     1  C   -0.053802   0.009052   0.003578   0.003727   0.005982  -0.000035
     2  H   -0.007417  -0.000142  -0.000308   0.000811  -0.000210  -0.000005
     3  H    0.002771   0.000538   0.000932  -0.000603  -0.000148  -0.000007
     4  N    0.327944  -0.016952  -0.044870  -0.042326  -0.075296  -0.017450
     5  C   -0.037782  -0.055309  -0.005577  -0.007188   0.490974  -0.054683
     6  C    0.005908   0.370530  -0.000049  -0.000220  -0.049676   0.008889
     7  C    4.675674  -0.000051   0.408127   0.406698  -0.007845   0.010372
     8  H   -0.000051   0.684237  -0.000001  -0.000009   0.009029  -0.000343
     9  H    0.408127  -0.000001   0.588468  -0.054930   0.004983   0.000245
    10  H    0.406698  -0.000009  -0.054930   0.586921   0.005201   0.000048
    11  C   -0.007845   0.009029   0.004983   0.005201   4.956503   0.370928
    12  H    0.010372  -0.000343   0.000245   0.000048   0.370928   0.680160
    13  H    0.404390  -0.000005  -0.034240  -0.032463   0.000411  -0.000116
    14  C   -0.000070  -0.045040  -0.000002   0.000003  -0.047921   0.000758
    15  H    0.004423   0.000002  -0.000518   0.000207  -0.000127  -0.000007
    16  C   -0.000023   0.006337  -0.000011  -0.000009  -0.019124   0.006234
    17  N   -0.000000  -0.000163  -0.000000   0.000000   0.005044  -0.000147
    18  O    0.000000  -0.000008   0.000000   0.000000  -0.000022   0.000001
    19  O    0.000000   0.000001   0.000000   0.000000   0.001296  -0.000010
    20  H    0.000003  -0.010940   0.000000   0.000000   0.000246   0.000037
    21  C    0.000018   0.000779   0.000206   0.000286   0.495358  -0.043697
    22  H    0.000012   0.000037  -0.000005   0.000002  -0.045078  -0.010867
              13         14         15         16         17         18
     1  C   -0.007200   0.000007   0.404540  -0.000022  -0.000000   0.000000
     2  H    0.004669  -0.000017  -0.027637   0.000000  -0.000000   0.000000
     3  H    0.000184   0.000095  -0.052786  -0.000006  -0.000000   0.000000
     4  N   -0.027914   0.005808  -0.037529   0.000514   0.000001  -0.000000
     5  C    0.004382  -0.008157  -0.007530  -0.045675   0.000294  -0.000008
     6  C   -0.000210   0.501254   0.006625  -0.019548   0.004954   0.001216
     7  C    0.404390  -0.000070   0.004423  -0.000023  -0.000000   0.000000
     8  H   -0.000005  -0.045040   0.000002   0.006337  -0.000163  -0.000008
     9  H   -0.034240  -0.000002  -0.000518  -0.000011  -0.000000   0.000000
    10  H   -0.032463   0.000003   0.000207  -0.000009   0.000000   0.000000
    11  C    0.000411  -0.047921  -0.000127  -0.019124   0.005044  -0.000022
    12  H   -0.000116   0.000758  -0.000007   0.006234  -0.000147   0.000001
    13  H    0.576388   0.000004   0.000270   0.000000  -0.000000   0.000000
    14  C    0.000004   4.918115   0.000332   0.469481  -0.046006  -0.003297
    15  H    0.000270   0.000332   0.576122  -0.000012  -0.000000   0.000000
    16  C    0.000000   0.469481  -0.000012   4.994966   0.165188  -0.097595
    17  N   -0.000000  -0.046006  -0.000000   0.165188   5.987491   0.303472
    18  O    0.000000  -0.003297   0.000000  -0.097595   0.303472   8.305437
    19  O    0.000000   0.008375  -0.000000  -0.098983   0.296986  -0.117291
    20  H   -0.000000   0.364619   0.000002  -0.042857  -0.017791   0.023966
    21  C   -0.000022  -0.086979  -0.000002   0.476849  -0.043097   0.008239
    22  H    0.000000   0.010225   0.000000  -0.039602  -0.017476   0.000277
              19         20         21         22
     1  C    0.000000   0.000008  -0.000072   0.000003
     2  H    0.000000   0.000000   0.000004  -0.000000
     3  H    0.000000  -0.000003   0.000003  -0.000000
     4  N   -0.000000  -0.000152   0.005918  -0.000162
     5  C   -0.000009   0.006363  -0.009098   0.006347
     6  C   -0.000036  -0.043215  -0.048082   0.000253
     7  C    0.000000   0.000003   0.000018   0.000012
     8  H    0.000001  -0.010940   0.000779   0.000037
     9  H    0.000000   0.000000   0.000206  -0.000005
    10  H    0.000000   0.000000   0.000286   0.000002
    11  C    0.001296   0.000246   0.495358  -0.045078
    12  H   -0.000010   0.000037  -0.043697  -0.010867
    13  H    0.000000  -0.000000  -0.000022   0.000000
    14  C    0.008375   0.364619  -0.086979   0.010225
    15  H   -0.000000   0.000002  -0.000002   0.000000
    16  C   -0.098983  -0.042857   0.476849  -0.039602
    17  N    0.296986  -0.017791  -0.043097  -0.017476
    18  O   -0.117291   0.023966   0.008239   0.000277
    19  O    8.314962   0.000338  -0.002541   0.024135
    20  H    0.000338   0.628029   0.009812  -0.000336
    21  C   -0.002541   0.009812   4.914176   0.362990
    22  H    0.024135  -0.000336   0.362990   0.627850
 Mulliken charges:
               1
     1  C   -0.140899
     2  H    0.114093
     3  H    0.133671
     4  N   -0.575718
     5  C    0.362934
     6  C   -0.099418
     7  C   -0.139350
     8  H    0.048420
     9  H    0.133972
    10  H    0.133842
    11  C   -0.100510
    12  H    0.049697
    13  H    0.111470
    14  C   -0.041586
    15  H    0.133626
    16  C    0.243897
    17  N    0.361251
    18  O   -0.424386
    19  O   -0.427223
    20  H    0.081870
    21  C   -0.041050
    22  H    0.081395
 Sum of Mulliken charges =  -0.00000
 Mulliken charges with hydrogens summed into heavy atoms:
               1
     1  C    0.240491
     4  N   -0.575718
     5  C    0.362934
     6  C   -0.050999
     7  C    0.239934
    11  C   -0.050813
    14  C    0.040284
    16  C    0.243897
    17  N    0.361251
    18  O   -0.424386
    19  O   -0.427223
    21  C    0.040346
 Electronic spatial extent (au):  <R**2>=           2557.8501
 Charge=             -0.0000 electrons
 Dipole moment (field-independent basis, Debye):
    X=             -8.7675    Y=             -0.1011    Z=             -0.0422  Tot=              8.7682
 Quadrupole moment (field-independent basis, Debye-Ang):
   XX=            -75.0086   YY=            -64.5491   ZZ=            -69.3797
   XY=             -0.3159   XZ=             -0.3591   YZ=             -0.1959
 Traceless Quadrupole moment (field-independent basis, Debye-Ang):
   XX=             -5.3628   YY=              5.0967   ZZ=              0.2661
   XY=             -0.3159   XZ=             -0.3591   YZ=             -0.1959
 Octapole moment (field-independent basis, Debye-Ang**2):
  XXX=           -133.9670  YYY=             -0.1935  ZZZ=              0.6706  XYY=            -15.6584
  XXY=             -1.2865  XXZ=             -0.9576  XZZ=              8.1577  YZZ=             -0.0306
  YYZ=             -0.3504  XYZ=             -1.1118
 Hexadecapole moment (field-independent basis, Debye-Ang**3):
 XXXX=          -2663.7321 YYYY=           -499.5781 ZZZZ=            -74.8049 XXXY=             -2.6331
 XXXZ=             -1.5657 YYYX=             -0.4057 YYYZ=             -0.8072 ZZZX=             -0.3157
 ZZZY=              0.5191 XXYY=           -519.9968 XXZZ=           -430.0538 YYZZ=           -101.2416
 XXYZ=              0.1096 YYXZ=              0.0122 ZZXY=             -0.1033
 N-N= 6.894573736808D+02 E-N=-2.709336839918D+03  KE= 5.681202820502D+02
 No NMR shielding tensors so no spin-rotation constants.
 Leave Link  601 at Fri Aug 20 15:43:40 2021, MaxMem= 24159191040 cpu:        10.8
 (Enter /public/home/users/caep010/software/Gaussian09/g09/l701.exe)
 Compute integral first derivatives.
 ... and contract with generalized density number  0.
 Leave Link  701 at Fri Aug 20 15:43:40 2021, MaxMem= 24159191040 cpu:        11.4
 (Enter /public/home/users/caep010/software/Gaussian09/g09/l702.exe)
 L702 exits ... SP integral derivatives will be done elsewhere.
 Leave Link  702 at Fri Aug 20 15:43:40 2021, MaxMem= 24159191040 cpu:         0.5
 (Enter /public/home/users/caep010/software/Gaussian09/g09/l703.exe)
 Compute integral first derivatives, UseDBF=F ICtDFT=           0.
 Integral derivatives from FoFJK, PRISM(SPDF).
 Calling FoFJK, ICntrl=      2127 FMM=F ISym2X=0 I1Cent= 0 IOpClX= 0 NMat=1 NMatS=1 NMatT=0.
 FoFJK:  IHMeth= 1 ICntrl=    2127 DoSepK=F KAlg= 0 I1Cent=   0 FoldK=F
 IRaf=         0 NMat=   1 IRICut=       1 DoRegI=T DoRafI=F ISym2E= 0.
 FoFCou: FMM=F IPFlag=           0 FMFlag=      100000 FMFlg1=         800
         NFxFlg=           0 DoJE=F BraDBF=F KetDBF=F FulRan=T
         wScrn=  0.000000 ICntrl=    2127 IOpCl=  0 I1Cent=           0 NGrid=           0
         NMat0=    1 NMatS0=      1 NMatT0=    0 NMatD0=    1 NMtDS0=    0 NMtDT0=    0
 Symmetry not used in FoFCou.
 Leave Link  703 at Fri Aug 20 15:43:41 2021, MaxMem= 24159191040 cpu:        26.0
 (Enter /public/home/users/caep010/software/Gaussian09/g09/l716.exe)
 Dipole        =-3.44938799D+00-3.97714350D-02-1.65902845D-02
 ***** Axes restored to original set *****
 -------------------------------------------------------------------
 Center     Atomic                   Forces (Hartrees/Bohr)
 Number     Number              X              Y              Z
 -------------------------------------------------------------------
      1        6           0.012850910   -0.102724775   -0.080543206
      2        1           0.069149552   -0.015577570    0.105929610
      3        1          -0.127312617    0.012563684    0.031988111
      4        7           0.002737786    0.005800685    0.004042839
      5        6           0.003409716   -0.003414680    0.005031004
      6        6           0.037197853   -0.123067592   -0.077958287
      7        6          -0.052563720    0.101654524   -0.055889838
      8        1          -0.037064881    0.134643576    0.095230731
      9        1          -0.083815935   -0.101219336   -0.004529535
     10        1           0.109587437   -0.032930668   -0.063716001
     11        6          -0.074954848    0.129418179   -0.050588576
     12        1           0.080208860   -0.135071754    0.059955127
     13        1           0.028819822    0.024853682    0.121152440
     14        6           0.074526809   -0.119728994    0.058981739
     15        1           0.039594831    0.108875983   -0.060946286
     16        6          -0.002882816    0.005129481    0.002107625
     17        7           0.007697979   -0.022383690   -0.011182225
     18        8          -0.012425987    0.028385275   -0.001137521
     19        8           0.004683889   -0.011154380   -0.000373585
     20        1          -0.082341186    0.133123279   -0.065653515
     21        6          -0.032380336    0.115973650    0.089186981
     22        1           0.035276884   -0.133148560   -0.101087630
 -------------------------------------------------------------------
 Cartesian Forces:  Max     0.135071754 RMS     0.072290182
 Leave Link  716 at Fri Aug 20 15:43:41 2021, MaxMem= 24159191040 cpu:         0.7
 (Enter /public/home/users/caep010/software/Gaussian09/g09/l103.exe)

 GradGradGradGradGradGradGradGradGradGradGradGradGradGradGradGradGradGrad
 Berny optimization.
 FormGI is forming the generalized inverse of G from B-inverse, IUseBI=4.
 Internal  Forces:  Max     0.170849026 RMS     0.046344399
 Search for a local minimum.
 Step number   1 out of a maximum of  112
 All quantities printed in internal units (Hartrees-Bohrs-Radians)
 RMS Force = .46344D-01 SwitMx=.10000D-02 MixMth= 1
 Mixed Optimization -- RFO/linear search
 Second derivative matrix not updated -- first step.
 ITU=  0
     Eigenvalues ---    0.00754   0.00851   0.01148   0.01321   0.01321
     Eigenvalues ---    0.01958   0.01997   0.02095   0.02115   0.02170
     Eigenvalues ---    0.02235   0.02331   0.02356   0.02398   0.02420
     Eigenvalues ---    0.07529   0.07532   0.07578   0.07584   0.16000
     Eigenvalues ---    0.16000   0.16000   0.16000   0.16000   0.16000
     Eigenvalues ---    0.16000   0.16000   0.16000   0.16000   0.21999
     Eigenvalues ---    0.22955   0.23996   0.24986   0.24988   0.24991
     Eigenvalues ---    0.24999   0.25000   0.25000   0.35635   0.36524
     Eigenvalues ---    0.41273   0.41275   0.42327   0.46740   0.47231
     Eigenvalues ---    0.49358   0.50886   0.51365   0.55419   0.55437
     Eigenvalues ---    0.55459   0.55489   0.55520   0.55609   0.62478
     Eigenvalues ---    0.62511   0.62521   0.62675   0.88854   0.97089
 RFO step:  Lambda=-2.58442473D-01 EMin= 7.54145749D-03
 Linear search not attempted -- first point.
 Maximum step size (   0.300) exceeded in Quadratic search.
    -- Step size scaled by   0.542
 Iteration  1 RMS(Cart)=  0.03195770 RMS(Int)=  0.00006055
 Iteration  2 RMS(Cart)=  0.00009173 RMS(Int)=  0.00000383
 Iteration  3 RMS(Cart)=  0.00000001 RMS(Int)=  0.00000383
 ITry= 1 IFail=0 DXMaxC= 9.51D-02 DCOld= 1.00D+10 DXMaxT= 3.00D-01 DXLimC= 3.00D+00 Rises=F
 Variable       Old X    -DE/DX   Delta X   Delta X   Delta X     New X
                                 (Linear)    (Quad)   (Total)
    R1        1.81373   0.12744   0.00000   0.08495   0.08495   1.89867
    R2        1.81462   0.13183   0.00000   0.08799   0.08799   1.90260
    R3        2.77956   0.00119   0.00000   0.00105   0.00105   2.78061
    R4        1.81295   0.13089   0.00000   0.08715   0.08715   1.90011
    R5        2.58513  -0.00269   0.00000  -0.00189  -0.00189   2.58324
    R6        2.76570   0.00587   0.00000   0.00510   0.00510   2.77080
    R7        2.66418   0.01024   0.00000   0.00782   0.00782   2.67200
    R8        2.67066   0.00992   0.00000   0.00755   0.00755   2.67821
    R9        1.75706   0.16902   0.00000   0.10375   0.10375   1.86082
   R10        2.58761   0.01635   0.00000   0.01159   0.01159   2.59921
   R11        1.81427   0.13147   0.00000   0.08770   0.08770   1.90197
   R12        1.81446   0.13094   0.00000   0.08737   0.08737   1.90183
   R13        1.81400   0.12697   0.00000   0.08467   0.08467   1.89867
   R14        1.75732   0.16813   0.00000   0.10324   0.10324   1.86056
   R15        2.59249   0.01379   0.00000   0.00972   0.00972   2.60221
   R16        2.61138   0.01673   0.00000   0.01236   0.01236   2.62375
   R17        1.75700   0.16974   0.00000   0.10418   0.10418   1.86118
   R18        2.69860   0.01207   0.00000   0.00975   0.00975   2.70835
   R19        2.61243   0.01440   0.00000   0.01061   0.01061   2.62304
   R20        2.29827   0.02894   0.00000   0.01277   0.01277   2.31104
   R21        2.33466   0.01014   0.00000   0.00480   0.00480   2.33945
   R22        1.75584   0.17085   0.00000   0.10468   0.10468   1.86052
    A1        1.91053  -0.00032   0.00000  -0.00040  -0.00039   1.91015
    A2        1.91086  -0.00421   0.00000  -0.00568  -0.00568   1.90518
    A3        1.91078  -0.00032   0.00000  -0.00088  -0.00088   1.90990
    A4        1.91057   0.00495   0.00000   0.00665   0.00665   1.91721
    A5        1.91079  -0.00144   0.00000  -0.00142  -0.00143   1.90936
    A6        1.91026   0.00134   0.00000   0.00173   0.00172   1.91198
    A7        2.11920  -0.00473   0.00000  -0.00505  -0.00505   2.11416
    A8        2.05621   0.00628   0.00000   0.00670   0.00670   2.06290
    A9        2.10731  -0.00156   0.00000  -0.00167  -0.00167   2.10564
   A10        2.12847  -0.00584   0.00000  -0.00603  -0.00603   2.12244
   A11        2.10538   0.00068   0.00000   0.00093   0.00093   2.10631
   A12        2.04931   0.00516   0.00000   0.00510   0.00510   2.05441
   A13        2.08203   0.00316   0.00000   0.00382   0.00382   2.08585
   A14        2.11871  -0.00340   0.00000  -0.00384  -0.00384   2.11487
   A15        2.08244   0.00023   0.00000   0.00002   0.00002   2.08246
   A16        1.91077   0.00361   0.00000   0.00482   0.00482   1.91558
   A17        1.91040   0.00356   0.00000   0.00471   0.00470   1.91510
   A18        1.91154  -0.00405   0.00000  -0.00549  -0.00548   1.90605
   A19        1.91061  -0.00179   0.00000  -0.00185  -0.00187   1.90874
   A20        1.90978  -0.00052   0.00000  -0.00087  -0.00086   1.90891
   A21        1.91071  -0.00081   0.00000  -0.00132  -0.00132   1.90939
   A22        2.09034   0.00156   0.00000   0.00223   0.00223   2.09257
   A23        2.10391   0.00061   0.00000   0.00036   0.00036   2.10426
   A24        2.08894  -0.00217   0.00000  -0.00259  -0.00259   2.08635
   A25        2.09228  -0.00134   0.00000  -0.00101  -0.00101   2.09127
   A26        2.09504   0.00155   0.00000   0.00165   0.00165   2.09669
   A27        2.09587  -0.00021   0.00000  -0.00064  -0.00064   2.09523
   A28        2.07494   0.00215   0.00000   0.00202   0.00202   2.07696
   A29        2.09881   0.00261   0.00000   0.00336   0.00336   2.10217
   A30        2.10900  -0.00476   0.00000  -0.00535  -0.00535   2.10365
   A31        2.09999  -0.01191   0.00000  -0.01271  -0.01271   2.08729
   A32        2.05405  -0.00174   0.00000  -0.00186  -0.00186   2.05219
   A33        2.12914   0.01365   0.00000   0.01456   0.01456   2.14371
   A34        2.10327  -0.00364   0.00000  -0.00395  -0.00395   2.09931
   A35        2.09069   0.00273   0.00000   0.00315   0.00315   2.09385
   A36        2.08923   0.00091   0.00000   0.00080   0.00080   2.09003
    D1       -2.90911   0.00047   0.00000   0.00066   0.00066  -2.90846
    D2        0.26498   0.00082   0.00000   0.00135   0.00135   0.26633
    D3        1.27969   0.00040   0.00000   0.00056   0.00056   1.28026
    D4       -1.82939   0.00075   0.00000   0.00124   0.00125  -1.82814
    D5       -0.81462  -0.00168   0.00000  -0.00283  -0.00284  -0.81746
    D6        2.35947  -0.00133   0.00000  -0.00214  -0.00215   2.35733
    D7       -0.05723   0.00068   0.00000   0.00140   0.00140  -0.05583
    D8        3.07673   0.00109   0.00000   0.00216   0.00216   3.07888
    D9        3.05092   0.00046   0.00000   0.00084   0.00084   3.05176
   D10       -0.09832   0.00087   0.00000   0.00160   0.00160  -0.09671
   D11        2.04677  -0.00112   0.00000  -0.00181  -0.00182   2.04494
   D12       -2.14212   0.00108   0.00000   0.00176   0.00177  -2.14035
   D13       -0.04722  -0.00021   0.00000  -0.00034  -0.00034  -0.04756
   D14       -1.06255  -0.00071   0.00000  -0.00106  -0.00107  -1.06362
   D15        1.03175   0.00149   0.00000   0.00251   0.00252   1.03427
   D16        3.12665   0.00020   0.00000   0.00041   0.00041   3.12706
   D17       -0.00784  -0.00003   0.00000  -0.00006  -0.00006  -0.00790
   D18        3.13394   0.00010   0.00000   0.00017   0.00017   3.13410
   D19        3.14116  -0.00041   0.00000  -0.00079  -0.00079   3.14038
   D20       -0.00025  -0.00028   0.00000  -0.00055  -0.00056  -0.00081
   D21        0.01516  -0.00034   0.00000  -0.00068  -0.00068   0.01448
   D22       -3.12593  -0.00037   0.00000  -0.00075  -0.00075  -3.12669
   D23       -3.13373   0.00000   0.00000   0.00001   0.00001  -3.13373
   D24        0.00836  -0.00003   0.00000  -0.00007  -0.00007   0.00829
   D25       -0.00120   0.00019   0.00000   0.00039   0.00039  -0.00081
   D26        3.13974   0.00007   0.00000   0.00016   0.00016   3.13990
   D27        3.14057   0.00032   0.00000   0.00062   0.00062   3.14119
   D28       -0.00168   0.00020   0.00000   0.00039   0.00039  -0.00129
   D29       -0.01507   0.00048   0.00000   0.00091   0.00091  -0.01416
   D30        3.12627   0.00025   0.00000   0.00049   0.00049   3.12676
   D31        3.12702   0.00045   0.00000   0.00084   0.00084   3.12786
   D32       -0.01483   0.00021   0.00000   0.00041   0.00041  -0.01441
   D33        3.10508   0.00055   0.00000   0.00113   0.00113   3.10622
   D34       -0.00535   0.00021   0.00000   0.00041   0.00041  -0.00494
   D35       -0.03585   0.00067   0.00000   0.00136   0.00136  -0.03449
   D36        3.13690   0.00034   0.00000   0.00063   0.00063   3.13753
   D37        0.07924  -0.00079   0.00000  -0.00155  -0.00155   0.07769
   D38       -3.06375  -0.00052   0.00000  -0.00101  -0.00101  -3.06476
   D39       -3.09370  -0.00032   0.00000  -0.00066  -0.00066  -3.09436
   D40        0.04650  -0.00005   0.00000  -0.00012  -0.00012   0.04638
   D41        0.01354  -0.00056   0.00000  -0.00107  -0.00107   0.01247
   D42       -3.12780  -0.00033   0.00000  -0.00065  -0.00065  -3.12844
   D43       -3.09628  -0.00103   0.00000  -0.00194  -0.00194  -3.09822
   D44        0.04557  -0.00080   0.00000  -0.00152  -0.00152   0.04405
         Item               Value     Threshold  Converged?
 Maximum Force            0.170849     0.000450     NO 
 RMS     Force            0.046344     0.000300     NO 
 Maximum Displacement     0.095125     0.001800     NO 
 RMS     Displacement     0.031960     0.001200     NO 
 Predicted change in Energy=-1.137953D-01
 Lowest energy point so far.  Saving SCF results.
 GradGradGradGradGradGradGradGradGradGradGradGradGradGradGradGradGradGrad

 Leave Link  103 at Fri Aug 20 15:43:41 2021, MaxMem= 24159191040 cpu:         2.8
 (Enter /public/home/users/caep010/software/Gaussian09/g09/l202.exe)
                          Input orientation:                          
 ---------------------------------------------------------------------
 Center     Atomic      Atomic             Coordinates (Angstroms)
 Number     Number       Type             X           Y           Z
 ---------------------------------------------------------------------
      1          6           0        3.603921    4.818728    8.740839
      2          1           0        4.139591    4.709102    9.583769
      3          1           0        2.627363    4.898778    8.972363
      4          7           0        3.818103    3.647144    7.876756
      5          6           0        3.430354    3.655390    6.565937
      6          6           0        2.749487    4.758612    6.001482
      7          6           0        4.422053    2.449968    8.469951
      8          1           0        2.541473    5.539665    6.563907
      9          1           0        3.771604    1.683194    8.425564
     10          1           0        5.259156    2.206961    7.966903
     11          6           0        3.708934    2.551116    5.722399
     12          1           0        4.175636    1.763062    6.083688
     13          1           0        4.651995    2.636806    9.430008
     14          6           0        2.371143    4.761025    4.679103
     15          1           0        3.902501    5.650101    8.260542
     16          6           0        2.659550    3.665455    3.876436
     17          7           0        2.218743    3.667948    2.512713
     18          8           0        1.671368    4.661979    2.056763
     19          8           0        2.416413    2.644680    1.844539
     20          1           0        1.896241    5.537163    4.302153
     21          6           0        3.332708    2.569266    4.397887
     22          1           0        3.541761    1.802557    3.816697
 ---------------------------------------------------------------------
                    Distance matrix (angstroms):
                    1          2          3          4          5
     1  C    0.000000
     2  H    1.004735   0.000000
     3  H    1.006815   1.642141   0.000000
     4  N    1.471436   2.035929   2.045680   0.000000
     5  C    2.472585   3.274238   2.825189   1.366990   0.000000
     6  C    2.870148   3.842867   2.976692   2.427747   1.413962
     7  C    2.520664   2.534574   3.077337   1.466242   2.462068
     8  H    2.527366   3.516161   2.493746   2.633438   2.083413
     9  H    3.155803   3.260825   3.456625   2.039719   2.732073
    10  H    3.187492   3.182513   3.896557   2.039334   2.721244
    11  C    3.776781   4.444385   4.152539   2.419597   1.417246
    12  H    4.089548   4.575044   4.535891   2.625393   2.090195
    13  H    2.516782   2.140236   3.070031   2.031932   3.276098
    14  C    4.245088   5.214006   4.303104   3.682311   2.429918
    15  H    1.005493   1.640921   1.642300   2.041140   2.659602
    16  C    5.087661   5.987769   5.243147   4.164750   2.797795
    17  N    6.483252   7.400911   6.588549   5.597440   4.230459
    18  O    6.959612   7.921501   6.985379   6.285752   4.943673
    19  O    7.327729   8.193099   7.478726   6.273540   4.933682
    20  H    4.809808   5.797738   4.770003   4.476998   3.319531
    21  C    4.898455   5.667745   5.181695   3.674228   2.426858
    22  H    5.774801   6.485718   6.083059   4.467991   3.317186
                    6          7          8          9         10
     6  C    0.000000
     7  C    3.771028   0.000000
     8  H    0.984702   4.088499   0.000000
     9  H    4.047109   1.006478   4.455487   0.000000
    10  H    4.083165   1.006404   4.523397   1.642411   0.000000
    11  C    2.423110   2.840390   3.317006   2.839775   2.749442
    12  H    3.318731   2.495359   4.142926   2.377815   2.217558
    13  H    4.458293   1.004734   4.592976   1.641149   1.641367
    14  C    1.375441   4.890578   2.046407   5.046812   5.066902
    15  H    2.688410   3.248791   2.177881   3.972496   3.712405
    16  C    2.391422   5.067959   3.278583   5.085331   5.061331
    17  N    3.693608   6.467359   4.474333   6.427475   6.413016
    18  O    4.090536   7.320399   4.673517   7.337969   7.336831
    19  O    4.675449   6.925070   5.537962   6.787554   6.764328
    20  H    2.054723   5.768972   2.351991   5.947485   5.985802
    21  C    2.775770   4.216943   3.760448   4.147280   4.071896
    22  H    3.760218   4.779836   4.744863   4.616139   4.509678
                   11         12         13         14         15
    11  C    0.000000
    12  H    0.984566   0.000000
    13  H    3.826627   3.491161   0.000000
    14  C    2.786010   3.770522   5.682050   0.000000
    15  H    4.010406   4.463449   3.318032   3.995275   0.000000
    16  C    2.398028   3.284749   5.989166   1.388426   4.970326
    17  N    3.710803   4.495540   7.404926   2.431314   6.308844
    18  O    4.695136   5.557985   8.206717   2.715909   6.666425
    19  O    4.088662   4.673596   7.908048   3.537757   7.239207
    20  H    3.770866   4.755349   6.503932   0.984892   4.439220
    21  C    1.377028   2.049979   5.202626   2.409876   4.973562
    22  H    2.054261   2.354274   5.782547   3.296457   5.889100
                   16         17         18         19         20
    16  C    0.000000
    17  N    1.433198   0.000000
    18  O    2.297993   1.222951   0.000000
    19  O    2.286855   1.237986   2.160932   0.000000
    20  H    2.065712   2.607694   2.420391   3.831045   0.000000
    21  C    1.388051   2.449878   3.552515   2.713830   3.298638
    22  H    2.062099   2.632571   3.843440   2.421773   4.109828
                   21         22
    21  C    0.000000
    22  H    0.984545   0.000000
 Stoichiometry    C8H10N2O2
 Framework group  C1[X(C8H10N2O2)]
 Deg. of freedom    60
 Full point group                 C1      NOp   1
 RotChk:  IX=0 Diff= 5.28D-04
 Largest Abelian subgroup         C1      NOp   1
 Largest concise Abelian subgroup C1      NOp   1
                         Standard orientation:                         
 ---------------------------------------------------------------------
 Center     Atomic      Atomic             Coordinates (Angstroms)
 Number     Number       Type             X           Y           Z
 ---------------------------------------------------------------------
      1          6           0       -3.432198   -1.258787   -0.037944
      2          1           0       -4.392688   -1.055551   -0.251594
      3          1           0       -3.377453   -1.715326    0.857741
      4          7           0       -2.668264   -0.001619   -0.005430
      5          6           0       -1.301278   -0.005056   -0.006067
      6          6           0       -0.563245   -1.210600    0.029384
      7          6           0       -3.412415    1.259457    0.070692
      8          1           0       -1.040993   -2.071024    0.062000
      9          1           0       -3.188379    1.735393    0.928765
     10          1           0       -3.167838    1.845859   -0.709798
     11          6           0       -0.575044    1.211147   -0.051015
     12          1           0       -1.056474    2.069775   -0.069822
     13          1           0       -4.397623    1.063969    0.045425
     14          6           0        0.812145   -1.203923    0.019625
     15          1           0       -3.053166   -1.864605   -0.745288
     16          6           0        1.496428    0.003278   -0.026720
     17          7           0        2.929155   -0.008339    0.008115
     18          8           0        3.524942   -1.076271   -0.004854
     19          8           0        3.510398    1.083925    0.049641
     20          1           0        1.310874   -2.052791    0.046177
     21          6           0        0.801846    1.204292   -0.069218
     22          1           0        1.297348    2.053926   -0.113120
 ---------------------------------------------------------------------
 Rotational constants (GHZ):      2.7968327      0.4796743      0.4114503
 Leave Link  202 at Fri Aug 20 15:43:41 2021, MaxMem= 24159191040 cpu:         0.6
 (Enter /public/home/users/caep010/software/Gaussian09/g09/l301.exe)
 Standard basis: 6-31G(d,p) (6D, 7F)
 Ernie: Thresh=  0.10000D-02 Tol=  0.10000D-05 Strict=F.
 There are   230 symmetry adapted cartesian basis functions of A   symmetry.
 There are   230 symmetry adapted basis functions of A   symmetry.
   230 basis functions,   406 primitive gaussians,   230 cartesian basis functions
    44 alpha electrons       44 beta electrons
       nuclear repulsion energy       685.2473598776 Hartrees.
 IExCor=  402 DFT=T Ex+Corr=B3LYP ExCW=0 ScaHFX=  0.200000
 ScaDFX=  0.800000  0.720000  1.000000  0.810000 ScalE2=  1.000000  1.000000
 IRadAn=      0 IRanWt=     -1 IRanGd=            0 ICorTp=0 IEmpDi=  4
 NAtoms=   22 NActive=   22 NUniq=   22 SFac= 1.00D+00 NAtFMM=   60 NAOKFM=F Big=F
 Integral buffers will be    131072 words long.
 Raffenetti 2 integral format.
 Two-electron integral symmetry is turned on.
 Leave Link  301 at Fri Aug 20 15:43:42 2021, MaxMem= 24159191040 cpu:         1.7
 (Enter /public/home/users/caep010/software/Gaussian09/g09/l302.exe)
 NPDir=0 NMtPBC=     1 NCelOv=     1 NCel=       1 NClECP=     1 NCelD=      1
         NCelK=      1 NCelE2=     1 NClLst=     1 CellRange=     0.0.
 One-electron integrals computed using PRISM.
 NBasis=   230 RedAO= T EigKep=  3.60D-04  NBF=   230
 NBsUse=   230 1.00D-06 EigRej= -1.00D+00 NBFU=   230
 Precomputing XC quadrature grid using
 IXCGrd= 4 IRadAn=           0 IRanWt=          -1 IRanGd=           0 AccXCQ= 0.00D+00.
 Generated NRdTot=       0 NPtTot=           0 NUsed=           0 NTot=          32
 NSgBfM=   228   228   229   229   229 MxSgAt=    22 MxSgA2=    22.
 Leave Link  302 at Fri Aug 20 15:43:42 2021, MaxMem= 24159191040 cpu:        12.1
 (Enter /public/home/users/caep010/software/Gaussian09/g09/l303.exe)
 DipDrv:  MaxL=1.
 Leave Link  303 at Fri Aug 20 15:43:42 2021, MaxMem= 24159191040 cpu:         0.8
 (Enter /public/home/users/caep010/software/Gaussian09/g09/l401.exe)
 Initial guess from the checkpoint file:  "/public/home/users/caep010/.cache/gau_scr/Gau-119026.chk"
 B after Tr=     0.000000   -0.000000    0.000000
         Rot=    1.000000   -0.000145    0.000017    0.000046 Ang=  -0.02 deg.
 Guess basis will be translated and rotated to current coordinates.
 JPrj=2 DoOrth=T DoCkMO=T.
 Generating alternative initial guess.
 ExpMin= 1.61D-01 ExpMax= 5.48D+03 ExpMxC= 8.25D+02 IAcc=1 IRadAn=         1 AccDes= 0.00D+00
 Harris functional with IExCor=  402 and IRadAn=       1 diagonalized for initial guess.
 HarFok:  IExCor=  402 AccDes= 0.00D+00 IRadAn=         1 IDoV= 1 UseB2=F ITyADJ=14
 ICtDFT=  3500011 ScaDFX=  1.000000  1.000000  1.000000  1.000000
 FoFCou: FMM=F IPFlag=           0 FMFlag=      100000 FMFlg1=           0
         NFxFlg=           0 DoJE=T BraDBF=F KetDBF=T FulRan=T
         wScrn=  0.000000 ICntrl=     500 IOpCl=  0 I1Cent=   200000004 NGrid=           0
         NMat0=    1 NMatS0=      1 NMatT0=    0 NMatD0=    1 NMtDS0=    0 NMtDT0=    0
 Petite list used in FoFCou.
 Harris En= -570.773948297472    
 Leave Link  401 at Fri Aug 20 15:43:43 2021, MaxMem= 24159191040 cpu:        17.4
 (Enter /public/home/users/caep010/software/Gaussian09/g09/l502.exe)
 Closed shell SCF:
 Using DIIS extrapolation, IDIIS=  1040.
 Integral symmetry usage will be decided dynamically.
 Keep R1 ints in memory in canonical form, NReq=359212317.
 IVT=      186342 IEndB=      186342 NGot= 24159191040 MDV= 23806141804
 LenX= 23806141804 LenY= 23806088463
 Requested convergence on RMS density matrix=1.00D-08 within 128 cycles.
 Requested convergence on MAX density matrix=1.00D-06.
 Requested convergence on             energy=1.00D-06.
 No special actions if energy rises.
 FoFCou: FMM=F IPFlag=           0 FMFlag=           0 FMFlg1=           0
         NFxFlg=           0 DoJE=F BraDBF=F KetDBF=F FulRan=T
         wScrn=  0.000000 ICntrl=     600 IOpCl=  0 I1Cent=           0 NGrid=           0
[...]
 312,0.01213102,0.00146222,-0.00185423,-0.00422643,0.00060705,-0.000606
 69,0.00099778,0.00049992,-0.00087546,0.00067361,0.00057068,0.00069149,
 0.00059206,-0.00105758,0.00025647,-0.00019701,0.11722212,-0.24638149,0
 .07883940,-0.12771551,0.25659039,0.00016132,-0.00010474,-0.00005243,-0
 .00001118,0.00002298,0.00000084,-0.00005779,0.00002503,0.00000211,0.00
 003325,0.00136877,0.00038121,0.00896498,-0.01484889,0.01137206,-0.0004
 9646,-0.00318346,-0.00201728,-0.00029652,-0.00143513,-0.00301377,0.000
 57902,-0.00084747,0.00052715,-0.00028358,0.00029841,-0.00189529,-0.000
 55518,-0.00000542,-0.00095390,-0.05300298,0.08046526,-0.09155449,0.060
 92399,-0.08720946,0.10023441,0.00044344,-0.00066231,-0.00167565,0.0004
 4479,0.00080932,0.00046386,-0.00000233,-0.00008419,-0.00002475,-0.0064
 0782,-0.00138006,-0.01758656,-0.00103131,0.00276291,0.00054459,0.00019
 728,-0.00010793,-0.00104009,-0.05912630,-0.00910280,-0.04905946,-0.000
 00505,0.00003296,0.00001523,-0.00329446,-0.00353652,-0.01928900,0.0079
 7593,0.00543400,0.02702247,0.00025766,0.00053292,0.00018385,-0.0002185
 0,-0.00037508,0.00019804,0.06068667,0.00121970,-0.00000088,0.00317351,
 0.00075775,-0.00130421,-0.00033108,-0.00001362,-0.00008196,-0.00016189
 ,0.00814352,0.00070639,0.03134303,0.00202667,-0.00494395,-0.00044339,0
 .00054465,0.00039139,0.00174716,-0.01270903,-0.05952936,-0.05920490,-0
 .00000904,0.00001083,-0.00002145,-0.00322537,-0.00311946,-0.02488427,-
 0.00204564,-0.00083654,-0.00360451,0.00037299,-0.00089103,-0.00069525,
 -0.00052863,0.00064792,-0.00018397,0.00549272,0.06885906,0.00110104,-0
 .00320445,-0.00034589,0.00038815,-0.00015605,0.00174453,0.00015774,-0.
 00000627,0.00048273,-0.00351957,-0.00094150,-0.01513917,-0.00053847,0.
 00204737,0.00120455,-0.00007730,-0.00046281,-0.00048805,-0.05438606,-0
 .04698166,-0.30245318,-0.00004670,0.00012071,0.00002471,0.00040893,-0.
 00069257,0.00045571,-0.00326625,-0.00349194,-0.01310035,-0.00005166,-0
 .00015309,0.00003425,-0.00002831,0.00033546,-0.00004047,0.05989934,0.0
 5326571,0.32721773,0.00050185,-0.00001066,0.00000043,0.00023097,-0.000
 11521,-0.00002298,-0.00023810,0.00001415,-0.00065880,0.00302843,0.0037
 0949,0.00227667,-0.00754319,0.00611727,-0.01894349,-0.08973977,0.01655
 748,-0.09570195,0.00071208,0.00075239,-0.00132830,0.00360252,-0.000397
 82,0.00650613,-0.00012466,-0.00009412,-0.00008473,0.00031472,-0.000301
 50,0.00022391,-0.00367647,-0.00080801,0.00000659,-0.00001229,-0.000346
 10,0.00008234,-0.00009787,0.00014003,-0.00012293,0.27178682,0.00051387
 ,-0.00202925,-0.00198720,-0.00006601,0.00039942,0.00008917,-0.00085175
 ,-0.00002154,-0.00048408,0.00472220,-0.00681030,0.00008347,-0.00418197
 ,0.03068233,0.03007022,0.03225526,-0.11498065,0.01969115,0.00088023,0.
 00012365,0.00105139,-0.00843663,0.00343584,-0.02574279,0.00019568,-0.0
 0002599,0.00046253,0.00021622,-0.00019085,0.00064734,-0.00392621,-0.01
 214115,-0.02527352,-0.00026024,-0.00006595,-0.00070085,0.00030407,-0.0
 0049758,0.00029695,-0.21149330,0.63955616,0.00077457,-0.00376435,-0.00
 243381,0.00004962,-0.00007761,0.00024132,-0.00098595,0.00027338,-0.000
 69656,0.00376931,-0.00334697,0.01180531,-0.03414508,0.06496222,-0.0190
 8541,-0.07253370,-0.03349181,-0.34949611,-0.00113832,0.00061793,-0.001
 51611,-0.00536025,0.00149624,-0.01444493,0.00041930,-0.00097846,0.0011
 8040,0.00091133,-0.00064668,0.00090581,-0.00459474,-0.01471093,-0.0413
 1559,0.00020947,-0.00099312,-0.00094337,0.00011939,-0.00025967,0.00002
 130,0.14853722,0.02693097,0.67887537,-0.10763223,-0.09557677,0.0455991
 3,0.00646626,0.01087068,-0.00423195,-0.01540160,-0.02581164,0.01369656
 ,0.00771263,0.00809912,-0.00644045,0.00085226,-0.00031177,0.00068406,0
 .00011356,-0.00084367,0.00004064,-0.00057548,0.00108905,0.00050793,-0.
 00085300,0.00016120,-0.00039312,-0.00013392,0.00037404,0.00009136,-0.0
 0000882,0.00011664,0.00003660,-0.00028625,-0.00013763,-0.00034702,0.00
 000340,0.00005034,0.00000570,0.00004478,-0.00001249,0.00013900,-0.0000
 6182,0.00032445,0.00001513,0.10975627,-0.09509570,-0.20699252,0.076344
 29,-0.00270726,-0.00329960,0.00255705,0.00155584,0.00550861,-0.0005075
 3,-0.00347533,-0.02991989,-0.00387183,0.00190689,-0.00013639,0.0064849
 0,-0.00021396,0.00052257,-0.00114970,-0.00391829,-0.00151221,-0.001494
 17,-0.00053823,0.00069699,0.00001448,0.00065492,-0.00157133,0.00031420
 ,0.00001487,-0.00014198,-0.00011591,0.00031046,-0.00087619,-0.00164346
 ,-0.00014362,0.00003381,0.00013555,0.00008375,-0.00001713,-0.00005805,
 -0.00000704,0.00044810,0.00073841,0.10148863,0.23718330,0.04544152,0.0
 7845757,-0.08711715,0.01542055,0.02262634,-0.00912649,-0.00078744,0.00
 126154,-0.00016596,-0.00818905,-0.02246943,0.00503705,-0.00000677,-0.0
 0073142,0.00388523,-0.00031854,0.00118368,0.00074404,-0.00192640,-0.00
 087167,-0.00122102,-0.00162297,-0.00079275,-0.00103093,0.00041060,-0.0
 0063551,0.00063098,-0.00005275,0.00007664,-0.00003614,0.00047918,-0.00
 046058,-0.00136108,-0.00011096,-0.00004596,0.00004711,0.00035902,0.000
 01033,0.00037064,0.00047642,-0.00031415,-0.00134265,-0.04973834,-0.077
 84807,0.08954594,0.00015407,0.00072431,0.00075394,-0.00002778,-0.00006
 003,-0.00004630,0.00004726,-0.00033643,-0.00047554,-0.00150589,-0.0011
 3990,-0.00538597,-0.01195325,0.01868088,0.00837587,0.01502535,-0.01167
 123,0.01019752,0.00115910,-0.00170365,0.00057610,0.00535774,0.00202443
 ,-0.00373027,0.00013573,0.00031045,0.00038314,-0.00024936,0.00020497,0
 .00053575,-0.00378432,-0.00031954,-0.03677751,0.00591948,0.00162164,-0
 .00242191,-0.00004744,-0.00005751,-0.00010907,-0.08152280,0.05066930,0
 .00184095,-0.00010933,-0.00047622,-0.00039066,0.24651694,-0.00043966,0
 .00145147,0.00028676,-0.00008210,0.00010767,-0.00006006,0.00033077,0.0
 0016748,0.00099807,-0.00114088,0.00248516,0.00041573,0.01868379,-0.053
 08867,-0.00578445,-0.02396696,0.02232283,-0.05848063,-0.00053935,0.001
 48105,-0.00000629,0.00232798,0.00279975,0.00118444,-0.00048746,0.00004
 224,-0.00096830,-0.00026031,0.00016810,-0.00101779,0.01197088,0.021767
 03,0.06246694,0.00131805,0.00281678,-0.00221323,-0.00003521,0.00010711
 ,0.00009770,0.06419169,-0.25592642,-0.07169866,0.00011975,0.00004438,0
 .00107755,-0.21510229,0.66188472,-0.00096437,0.00423129,0.00322444,-0.
 00007899,0.00001497,-0.00028574,0.00099199,-0.00089765,-0.00015555,-0.
 00538403,0.00041643,-0.01804740,0.00837463,-0.00578436,0.01355234,-0.0
 0794773,-0.01682873,-0.04483686,0.00229366,-0.00395120,0.00218983,-0.0
 0328347,0.00015712,-0.00355125,-0.00001406,0.00135532,-0.00011851,-0.0
 0093133,0.00093808,0.00014025,-0.01863255,0.02081348,-0.02547148,-0.00
 286862,-0.00118595,-0.00412997,-0.00007641,0.00002271,-0.00026553,0.02
 180293,-0.11751504,-0.15959497,0.00000579,-0.00130623,0.00012411,0.095
 54022,0.06413528,0.54295786,-0.00001943,-0.00154900,-0.00080176,0.0000
 0962,0.00000065,0.00015550,-0.00015886,0.00029242,0.00024286,0.0012280
 6,0.00001943,0.00502376,-0.00322645,0.00105286,-0.00401498,0.00696962,
 0.00304144,0.00414005,-0.00106313,0.00103070,-0.00053149,0.00165198,0.
 00066616,0.00040363,0.00012591,-0.00035370,0.00022491,0.00025146,-0.00
 024278,-0.00030328,0.00441072,0.00691946,0.00119383,0.00133800,0.00044
 541,-0.00098558,0.00002391,-0.00004442,0.00013745,-0.00060997,-0.01271
 390,-0.00223727,-0.00002233,0.00041540,-0.00028869,-0.08228363,0.01413
 459,-0.01611540,0.36189904,-0.00028172,0.00021240,0.00003375,-0.000026
 38,0.00001716,-0.00001093,0.00009241,0.00000027,0.00016599,0.00001964,
 -0.00033900,-0.00007062,0.00105502,-0.00418458,-0.00026883,0.00370084,
 -0.00537081,-0.00582623,-0.00023672,0.00018150,0.00014092,0.00005055,0
 .00044001,-0.00186932,0.00002466,0.00000231,0.00001373,-0.00001914,0.0
 0000785,-0.00018729,0.00625986,-0.00544613,0.00273096,0.00106055,0.000
 43085,0.00153920,-0.00001729,0.00001758,0.00002042,-0.01370395,0.01144
 705,-0.02143889,0.00001326,-0.00000663,-0.00002458,0.01413170,-0.10657
 782,-0.00408750,-0.24901038,0.85005885,0.00106857,-0.00425998,-0.00312
 428,0.00011557,0.00008074,0.00047467,-0.00093262,0.00089727,0.00016177
 ,0.00502187,-0.00007131,0.01667082,-0.00401406,-0.00026789,-0.01558220
 ,0.00511477,-0.00806168,0.01250722,-0.00240099,0.00443497,-0.00204970,
 -0.00050440,0.00021607,0.00043154,-0.00006220,-0.00130163,-0.00012550,
 0.00087257,-0.00091184,-0.00025581,0.00021826,0.00496601,0.01514129,-0
 .00007748,-0.00054627,0.00075477,0.00017741,-0.00007118,0.00045998,-0.
 00370473,-0.01809029,-0.04472778,-0.00000166,0.00128413,0.00003204,-0.
 01611483,-0.00408864,-0.13200097,0.08899362,0.07450665,0.63862370,-0.0
 0020649,0.00084566,0.00057928,-0.00001172,-0.00002858,-0.00009422,0.00
 017163,-0.00017915,-0.00008981,-0.00079221,-0.00025520,-0.00289985,0.0
 0091116,0.00050945,0.00269027,-0.00118887,0.00027189,-0.00189689,0.000
 50963,-0.00065310,0.00033654,-0.00009169,-0.00007787,-0.00014031,-0.00
 005075,0.00020516,-0.00002683,-0.00011061,0.00016070,0.00011692,-0.001
 13303,-0.00088957,-0.00197042,-0.00068344,-0.00025647,-0.00014245,-0.0
 0001667,-0.00000950,-0.00010268,0.00074169,0.00448594,0.00366803,-0.00
 000356,-0.00025579,0.00002116,-0.00076835,0.02311954,-0.02707091,-0.17
 257494,0.16618761,-0.08285797,0.16081323,0.00025303,-0.00115984,-0.000
 84049,0.00000736,0.00005715,0.00010390,-0.00027552,0.00023524,0.000091
 10,0.00089401,0.00049987,0.00383922,-0.00104039,0.00016641,-0.00377995
 ,0.00078464,0.00032721,0.00389530,-0.00048070,0.00082052,-0.00060426,0
 .00004062,0.00000404,0.00026667,0.00002237,-0.00028545,-0.00002612,0.0
 0017589,-0.00022686,-0.00001642,-0.00037797,0.00169562,0.00260327,-0.0
 0021204,-0.00010222,0.00024184,0.00002612,0.00002045,0.00010474,0.0007
 2822,-0.00743564,-0.01088808,0.00004336,0.00037405,0.00002275,0.020351
 87,-0.00747619,0.03245717,0.16273098,-0.37331238,0.11275957,-0.2315337
 8,0.46664432,-0.00029543,0.00116801,0.00071377,-0.00004120,-0.00001790
 ,-0.00016237,0.00020675,-0.00024690,-0.00005107,-0.00120316,-0.0000564
 2,-0.00420943,0.00040382,0.00146887,0.00387799,-0.00114309,0.00216034,
 -0.00119389,0.00059099,-0.00118824,0.00037452,0.00003428,-0.00013387,-
 0.00016598,-0.00001405,0.00028840,0.00010655,-0.00014365,0.00023763,0.
 00010748,-0.00121841,0.00087433,-0.00377207,-0.00007753,0.00009186,-0.
 00087924,-0.00005012,-0.00001608,-0.00018404,-0.00187467,0.00185070,-0
 .00201638,0.00002388,-0.00032648,-0.00001459,-0.03115321,0.04183738,-0
 .02658482,-0.08795565,0.12446978,-0.19032183,0.10750221,-0.13831226,0.
 18868432,0.00004557,0.00010283,-0.00012031,0.00000333,0.00000095,-0.00
 001945,-0.00003323,0.00000491,-0.00002531,0.00006403,-0.00018305,0.000
 10927,0.00038073,-0.00037181,-0.00040921,-0.00046582,-0.00121716,-0.00
 019584,-0.00006111,0.00007026,-0.00007266,-0.00064221,-0.00026386,-0.0
 0001437,-0.00002747,-0.00003551,-0.00001312,0.00005137,-0.00001532,0.0
 0002284,0.00019475,-0.00095634,0.00097722,-0.00006550,0.00000739,0.000
 07438,0.00000525,-0.00001399,-0.00001518,0.00267720,0.00233453,-0.0022
 1635,0.00001479,0.00001356,0.00008668,0.01816074,-0.00347258,-0.002142
 37,-0.09949439,0.07073565,0.02404382,0.00919976,0.04997659,0.01727767,
 0.07037077,-0.00006971,0.00080670,0.00076874,-0.00003472,0.00002103,-0
 .00010055,0.00015445,-0.00022471,-0.00008368,-0.00133243,0.00052558,-0
 .00367007,0.00117642,0.00015049,0.00370919,-0.00172630,0.00171527,-0.0
 0193600,0.00066301,-0.00115563,0.00055560,-0.00030812,-0.00010098,-0.0
 0008177,0.00002482,0.00037159,-0.00004028,-0.00027859,0.00023342,0.000
 07486,-0.00146772,0.00036801,-0.00367587,-0.00011069,0.00000478,-0.000
 24452,-0.00004996,0.00005764,-0.00008955,0.00070044,0.00370147,0.00141
 833,0.00003192,-0.00028340,0.00000738,-0.00070319,-0.00691737,-0.03805
 160,0.07419105,-0.37112327,-0.18397934,0.04154089,-0.08885397,-0.02833
 744,-0.11768159,0.46394231,-0.00037491,0.00135259,0.00085238,-0.000072
 03,0.00002023,-0.00020463,0.00023574,-0.00028883,0.00002814,-0.0015863
 9,0.00022590,-0.00509130,0.00187675,-0.00154024,0.00442426,-0.00094790
 ,-0.00020630,-0.00445888,0.00080187,-0.00145289,0.00056416,-0.00007920
 ,0.00006828,-0.00092168,-0.00001458,0.00041537,0.00001180,-0.00027513,
 0.00030631,0.00007101,0.00022379,-0.00194039,-0.00261825,-0.00010026,0
 .00015611,-0.00019291,-0.00006820,0.00003224,-0.00017985,-0.00462607,0
 .00694912,-0.00106252,0.00007327,-0.00035600,0.00003876,0.00193967,-0.
 04743124,-0.04607138,0.02914157,-0.19569046,-0.26554986,0.00483967,0.0
 0024317,0.04260494,-0.03110656,0.24342900,0.28178549,0.00013684,0.0001
 3235,-0.00001077,0.00001352,-0.00000601,-0.00000879,0.00001104,-0.0000
 0997,-0.00002404,-0.00010410,0.00030868,-0.00004201,0.00659438,0.00205
 997,-0.00272557,0.00051609,0.00607654,-0.00220171,-0.00032797,-0.00022
 260,0.00003914,-0.00360891,-0.00198230,0.00135656,0.00004676,-0.000041
 83,0.00004640,-0.00003187,0.00006482,-0.00004468,-0.00024575,-0.000465
 98,0.00009907,-0.00056414,-0.00022399,0.00013950,-0.00005593,0.0000041
 8,0.00000367,-0.10522364,0.11438324,-0.05592741,0.00000084,-0.00000704
 ,0.00001110,0.00217968,0.00495364,-0.00265404,-0.00403215,-0.00042888,
 0.00022007,-0.00007190,-0.00126821,-0.00150005,0.00042817,0.00010365,0
 .00006499,0.10033730,0.00007658,0.00003917,0.00002552,0.00000714,-0.00
 000515,-0.00000334,0.00000894,0.00000495,-0.00001628,-0.00008684,0.000
 21066,-0.00004640,0.00205381,0.00220193,-0.00203561,-0.00140066,0.0056
 0750,-0.00209693,-0.00017387,-0.00005389,-0.00002437,-0.00192153,0.000
 01687,0.00070621,0.00002762,-0.00002525,0.00001885,-0.00001382,0.00001
 808,-0.00001871,-0.00048031,0.00028603,-0.00049988,-0.00021670,-0.0001
 0367,0.00015013,-0.00003202,0.00001001,-0.00001225,0.11386513,-0.24108
 893,0.08736797,-0.00001100,-0.00000053,0.00000360,0.01215323,-0.015382
 99,0.01091447,0.00081230,-0.00380664,0.00346255,-0.00116687,0.00310549
 ,0.00089657,-0.00034881,0.00113436,-0.00017964,-0.12540194,0.25060175,
 -0.00009303,0.00021464,0.00019904,0.00001063,-0.00004791,-0.00002120,0
 .00004723,-0.00001202,-0.00003499,-0.00062583,0.00129350,-0.00016833,-
 0.00273290,-0.00201813,-0.00394394,-0.01323902,0.02323838,-0.00674578,
 0.00011108,-0.00018960,-0.00033981,0.00144597,0.00050036,0.00076621,-0
 .00000319,0.00003758,-0.00000238,-0.00000861,-0.00000633,0.00003291,0.
 00007838,-0.00045145,-0.00087873,0.00015010,0.00012580,-0.00000863,-0.
 00004980,0.00011052,-0.00006078,-0.05669392,0.08912607,-0.09943159,-0.
 00003809,-0.00005135,-0.00001928,0.00797518,-0.01348046,0.01224455,0.0
 0205221,-0.00074851,0.00156855,-0.00135133,0.00055371,-0.00394501,-0.0
 0060403,0.00135991,0.00041175,0.06343480,-0.09485247,0.10192159,0.0011
 7807,0.00029467,-0.00042423,-0.00006016,0.00025696,0.00017720,-0.00002
 846,0.00009712,0.00038321,0.00289052,0.00489308,0.00355986,0.01319666,
 -0.03025027,-0.00235691,-0.01273843,0.00746562,-0.01848439,-0.00071843
 ,0.00204875,-0.00109584,-0.00042174,0.00025490,-0.00041814,-0.00066744
 ,-0.00040056,-0.00091843,0.00037622,-0.00013782,-0.00003910,-0.0899962
 1,0.03256707,-0.07292355,-0.00227730,-0.00104612,-0.01437412,0.0002215
 8,-0.00005409,0.00003527,0.00339578,0.02726001,0.02150633,0.00011123,0
 .00044943,0.00078279,-0.11517449,0.09296481,-0.04972701,-0.01101581,0.
 00036415,-0.01818526,0.00468896,-0.00019391,0.00086688,-0.00088100,0.0
 0652840,0.00118131,0.00342772,0.00141196,-0.00027732,0.25633807,0.0001
 6653,0.00013756,-0.00134678,0.00009256,-0.00049648,-0.00041818,-0.0001
 7017,-0.00019092,-0.00067048,0.00388166,-0.00681387,-0.00277295,-0.019
 95348,0.03129426,-0.02246172,0.01058198,-0.01240853,0.02348860,0.00152
 367,-0.00206543,0.00138232,0.00016836,-0.00007798,0.00073309,0.0004484
 8,0.00045146,0.00009593,-0.00045252,-0.00002461,0.00087838,0.01687291,
 -0.11498464,-0.03245045,0.00699309,0.00326210,0.02628153,-0.00010335,0
 .00039918,-0.00003782,0.01691667,-0.04644326,-0.02441453,-0.00009030,-
 0.00002910,-0.00050213,0.10648438,-0.25691069,0.07011882,-0.00062269,0
 .01113972,0.02242342,-0.00182473,0.00376078,-0.00705580,0.00276655,-0.
 00748300,-0.00404556,0.00161278,-0.00209067,-0.00370886,-0.19205341,0.
 63907710,-0.00061357,-0.00091306,-0.00199594,-0.00006518,0.00013831,-0
 .00001751,-0.00030315,0.00069768,0.00124902,0.00206522,0.00065687,0.01
 194645,0.01284307,-0.05735503,-0.04043687,-0.01388184,0.01292615,-0.03
 198617,-0.00186998,0.00315935,-0.00117737,-0.00054494,0.00102529,-0.00
 052191,-0.00045292,-0.00060645,-0.00074058,0.00028398,-0.00022926,-0.0
 0130775,-0.09609229,0.02073289,-0.34924087,-0.00250485,-0.00095599,-0.
 00839122,-0.00003735,0.00012892,0.00025097,0.00623470,0.01063429,0.045
 75157,0.00027793,0.00086484,0.00094767,-0.02976392,0.02430233,-0.12495
 502,-0.01965277,0.02577310,-0.03401388,-0.00154305,-0.00152386,-0.0031
 3359,-0.00436109,0.00869157,-0.00034611,0.00001939,-0.00438838,-0.0022
 8829,0.12483279,0.09217546,0.69480193,-0.00040054,-0.00008252,-0.00000
 022,-0.00003644,-0.00005653,-0.00001991,0.00001185,0.00005742,0.000058
 87,0.00018119,-0.00044536,-0.00018852,0.00596657,0.00284284,-0.0036958
 0,-0.00051600,-0.00014060,-0.00033614,0.00020283,-0.00000641,0.0000081
 6,-0.00053234,-0.00025674,0.00019890,0.00000723,0.00002225,-0.00002819
 ,-0.00001323,-0.00000186,0.00000987,0.00540087,-0.00754098,-0.00575115
 ,-0.00359605,-0.00193762,0.00146522,0.00000240,0.00002113,-0.00000639,
 0.00185852,0.00338500,-0.00268158,0.00001232,-0.00005526,-0.00005643,0
 .00277056,0.01141130,0.00888208,-0.00340722,0.00002855,0.00300966,0.00
 066817,-0.00065255,-0.00023627,0.00007424,-0.00135202,-0.00112740,0.00
 057404,0.00083766,0.00041149,-0.05184535,0.04676104,0.02512982,0.04261
 636,-0.00013133,-0.00005604,0.00011659,-0.00002029,0.00001060,0.000028
 35,-0.00000152,0.00001802,0.00002330,-0.00004998,0.00021909,0.00009101
 ,0.00284861,0.00218305,0.00062849,-0.00012662,0.00027810,0.00068691,0.
 00004937,0.00004116,-0.00006378,-0.00026398,-0.00010271,-0.00000843,-0
 .00001133,-0.00000088,0.00000319,0.00001679,0.00000475,0.00000885,-0.0
 0006423,0.00575198,0.00264543,-0.00199786,0.00001687,0.00044845,0.0000
 0795,-0.00000548,-0.00000105,0.00358474,-0.00213649,0.00290430,0.00001
 284,-0.00002491,-0.00003112,0.00421282,-0.01536563,-0.01596688,-0.0012
 1598,-0.00378828,-0.00338134,-0.00019623,0.00114139,0.00034751,-0.0014
 5319,0.00310968,-0.00006677,0.00035889,-0.00067907,-0.00099338,0.04727
 925,-0.23950299,-0.13593505,-0.05283876,0.24888780,-0.00007204,0.00028
 186,-0.00026507,0.00003355,-0.00009440,-0.00008085,0.00002231,-0.00002
 990,-0.00001076,0.00039517,-0.00124897,-0.00046206,-0.00368847,0.00061
 088,-0.00329712,-0.00031458,0.00063874,-0.00060058,0.00009044,-0.00025
 289,0.00013107,0.00018829,0.00001591,-0.00004140,0.00002088,0.00004701
 ,-0.00002530,-0.00006124,0.00001573,-0.00001055,0.00528497,-0.02269031
 ,-0.01177488,0.00137577,0.00065447,0.00075328,-0.00002582,0.00004351,-
 0.00000977,-0.00238475,0.00222454,-0.00067330,-0.00000636,-0.00000905,
 0.00003172,-0.00174916,0.00842756,0.01163607,0.00117749,0.00082867,0.0
 0092545,0.00043265,-0.00119098,0.00016474,-0.00127603,0.00027609,-0.00
 409532,-0.00029562,0.00062839,0.00074413,0.02589863,-0.13769228,-0.154
 39451,-0.02504608,0.14851541,0.16135498\\0.00000539,-0.00000294,0.0000
 1166,-0.00000158,0.00000156,-0.00000401,-0.00000082,-0.00000082,-0.000
 00060,-0.00000064,-0.00000010,-0.00000337,-0.00000465,-0.00000206,0.00
 000437,-0.00000071,0.00000301,-0.00000095,0.00000042,0.00000096,0.0000
 0782,0.00000139,-0.00000254,-0.00000300,-0.00000043,0.00000077,-0.0000
 0069,0.00000096,0.00000018,-0.00000009,0.00000046,-0.00000331,-0.00000
 370,-0.00000003,0.00000367,-0.00000201,-0.00000067,0.00000035,-0.00000
 345,-0.00000329,-0.00000126,-0.00000593,0.00000040,0.00000149,-0.00000
 024,0.00000494,0.00000051,0.00001596,-0.00001154,0.00000820,-0.0000197
 5,0.00000806,-0.00000641,0.00000748,0.00000003,-0.00000193,0.00000403,
 0.00000098,-0.00000060,0.00000046,0.00000216,0.00000093,-0.00000433,-0
 .00000085,0.00000035,0.00000034\\\@


 BLACK HOLES SUCK.
 Job cpu time:       0 days  0 hours 17 minutes  2.7 seconds.
 File lengths (MBytes):  RWF=    135 Int=      0 D2E=      0 Chk=      5 Scr=      1
 Normal termination of Gaussian 09 at Fri Aug 20 15:47:34 2021.
