 Entering Gaussian System, Link 0=g09
 Input=B3LYP6-31G.KIKNEY.gjf
 Output=B3LYP6-31G.KIKNEY.log
 Initial command:
 /public/home/users/caep010/software/Gaussian09/g09/l1.exe "/public/home/users/caep010/.cache/gau_scr/Gau-149301.inp" -scrdir="/public/home/users/caep010/.cache/gau_scr/"
 Entering Link 1 = /public/home/users/caep010/software/Gaussian09/g09/l1.exe PID=    149302.
  
 Copyright (c) 1988,1990,1992,1993,1995,1998,2003,2009,2015,
            Gaussian, Inc.  All Rights Reserved.
  
 This is part of the Gaussian(R) 09 program.  It is based on
 the Gaussian(R) 03 system (copyright 2003, Gaussian, Inc.),
 the Gaussian(R) 98 system (copyright 1998, Gaussian, Inc.),
 the Gaussian(R) 94 system (copyright 1995, Gaussian, Inc.),
 the Gaussian 92(TM) system (copyright 1992, Gaussian, Inc.),
 the Gaussian 90(TM) system (copyright 1990, Gaussian, Inc.),
 the Gaussian 88(TM) system (copyright 1988, Gaussian, Inc.),
 the Gaussian 86(TM) system (copyright 1986, Carnegie Mellon
 University), and the Gaussian 82(TM) system (copyright 1983,
 Carnegie Mellon University). Gaussian is a federally registered
 trademark of Gaussian, Inc.
  
 This software contains proprietary and confidential information,
 including trade secrets, belonging to Gaussian, Inc.
  
 This software is provided under written license and may be
 used, copied, transmitted, or stored only in accord with that
 written license.
  
 The following legend is applicable only to US Government
 contracts under FAR:
  
                    RESTRICTED RIGHTS LEGEND
  
 Use, reproduction and disclosure by the US Government is
 subject to restrictions as set forth in subparagraphs (a)
 and (c) of the Commercial Computer Software - Restricted
 Rights clause in FAR 52.227-19.
  
 Gaussian, Inc.
 340 Quinnipiac St., Bldg. 40, Wallingford CT 06492
  
  
 ---------------------------------------------------------------
 Warning -- This program may not be used in any manner that
 competes with the business of Gaussian, Inc. or will provide
 assistance to any competitor of Gaussian, Inc.  The licensee
 of this program is prohibited from giving any competitor of
 Gaussian, Inc. access to this program.  By using this program,
 the user acknowledges that Gaussian, Inc. is engaged in the
 business of creating and licensing software in the field of
 computational chemistry and represents and warrants to the
 licensee that it is not a competitor of Gaussian, Inc. and that
 it will not use this program in any manner prohibited above.
 ---------------------------------------------------------------
  

 Cite this work as:
 Gaussian 09, Revision E.01,
 M. J. Frisch, G. W. Trucks, H. B. Schlegel, G. E. Scuseria, 
 M. A. Robb, J. R. Cheeseman, G. Scalmani, V. Barone, B. Mennucci, 
 G. A. Petersson, H. Nakatsuji, M. Caricato, X. Li, H. P. Hratchian, 
 A. F. Izmaylov, J. Bloino, G. Zheng, J. L. Sonnenberg, M. Hada, 
 M. Ehara, K. Toyota, R. Fukuda, J. Hasegawa, M. Ishida, T. Nakajima, 
 Y. Honda, O. Kitao, H. Nakai, T. Vreven, J. A. Montgomery, Jr., 
 J. E. Peralta, F. Ogliaro, M. Bearpark, J. J. Heyd, E. Brothers, 
 K. N. Kudin, V. N. Staroverov, T. Keith, R. Kobayashi, J. Normand, 
 K. Raghavachari, A. Rendell, J. C. Burant, S. S. Iyengar, J. Tomasi, 
 M. Cossi, N. Rega, J. M. Millam, M. Klene, J. E. Knox, J. B. Cross, 
 V. Bakken, C. Adamo, J. Jaramillo, R. Gomperts, R. E. Stratmann, 
 O. Yazyev, A. J. Austin, R. Cammi, C. Pomelli, J. W. Ochterski, 
 R. L. Martin, K. Morokuma, V. G. Zakrzewski, G. A. Voth, 
 P. Salvador, J. J. Dannenberg, S. Dapprich, A. D. Daniels, 
 O. Farkas, J. B. Foresman, J. V. Ortiz, J. Cioslowski, 
 and D. J. Fox, Gaussian, Inc., Wallingford CT, 2013.
 
 ******************************************
 Gaussian 09:  ES64L-G09RevE.01 30-Nov-2015
                20-Aug-2021 
 ******************************************
 %nproc=32
 Will use up to   32 processors via shared memory.
 %mem=180GB
 -------------------------
 #P OPT Freq B3LYP/6-31G**
 -------------------------
 1/14=-1,18=20,19=15,26=3,38=1/1,3;
 2/9=110,12=2,17=6,18=5,40=1/2;
 3/5=1,6=6,7=101,11=2,16=1,25=1,30=1,71=1,74=-5/1,2,3;
 4//1;
 5/5=2,38=5/2;
 6/7=2,8=2,9=2,10=2,28=1/1;
 7//1,2,3,16;
 1/14=-1,18=20,19=15,26=3/3(2);
 2/9=110/2;
 99//99;
 2/9=110/2;
 3/5=1,6=6,7=101,11=2,16=1,25=1,30=1,71=1,74=-5/1,2,3;
 4/5=5,16=3,69=1/1;
 5/5=2,38=5/2;
 7//1,2,3,16;
 1/14=-1,18=20,19=15,26=3/3(-5);
 2/9=110/2;
 6/7=2,8=2,9=2,10=2,19=2,28=1/1;
 99/9=1/99;
 Leave Link    1 at Fri Aug 20 15:45:03 2021, MaxMem= 24159191040 cpu:         2.3
 (Enter /public/home/users/caep010/software/Gaussian09/g09/l101.exe)
 ------
 KIKNEY
 ------
 Symbolic Z-matrix:
 Charge =  0 Multiplicity = 1
 O                     1.789     12.5369   7.2163 
 N                     2.0086    12.8479   8.4033 
 O                     2.6704    13.8547   8.6976 
 C                     1.4925    12.04     9.3968 
 C                     0.7476    10.8626   9.1807 
 N                     0.4295    10.2971   8.0143 
 N                    -0.3774    9.1535    7.9485 
 H                     0.7232    10.6862   7.3173 
 N                     0.4386    10.416    10.4105 
 C                    -0.2402    9.2066    10.8428 
 H                    -1.1389    9.278     10.6813 
 C                     1.5736    12.2253   10.8012 
 C                     2.2287    13.3084   11.5723 
 H                     1.9868    14.1048   11.2874 
 H                     0.0831    8.4663    7.6957 
 N                     0.9407    11.2503   11.4035 
 H                    -0.8978    9.2751    7.298 
 H                     1.9452    13.3047   12.5087 
 H                     3.2254    13.2917   11.4277 
 H                    -0.0249    9.0485    11.6464 
 H                     0.0831    8.4893    10.4239 
 
 NAtoms=     21 NQM=       21 NQMF=       0 NMMI=      0 NMMIF=      0
                NMic=       0 NMicF=      0.
                    Isotopes and Nuclear Properties:
 (Nuclear quadrupole moments (NQMom) in fm**2, nuclear magnetic moments (NMagM)
  in nuclear magnetons)

  Atom         1           2           3           4           5           6           7           8           9          10
 IAtWgt=          16          14          16          12          12          14          14           1          14          12
 AtmWgt=  15.9949146  14.0030740  15.9949146  12.0000000  12.0000000  14.0030740  14.0030740   1.0078250  14.0030740  12.0000000
 NucSpn=           0           2           0           0           0           2           2           1           2           0
 AtZEff=   0.0000000   0.0000000   0.0000000   0.0000000   0.0000000   0.0000000   0.0000000   0.0000000   0.0000000   0.0000000
 NQMom=    0.0000000   2.0440000   0.0000000   0.0000000   0.0000000   2.0440000   2.0440000   0.0000000   2.0440000   0.0000000
 NMagM=    0.0000000   0.4037610   0.0000000   0.0000000   0.0000000   0.4037610   0.4037610   2.7928460   0.4037610   0.0000000
 AtZNuc=   8.0000000   7.0000000   8.0000000   6.0000000   6.0000000   7.0000000   7.0000000   1.0000000   7.0000000   6.0000000

  Atom        11          12          13          14          15          16          17          18          19          20
 IAtWgt=           1          12          12           1           1          14           1           1           1           1
 AtmWgt=   1.0078250  12.0000000  12.0000000   1.0078250   1.0078250  14.0030740   1.0078250   1.0078250   1.0078250   1.0078250
 NucSpn=           1           0           0           1           1           2           1           1           1           1
 AtZEff=   0.0000000   0.0000000   0.0000000   0.0000000   0.0000000   0.0000000   0.0000000   0.0000000   0.0000000   0.0000000
 NQMom=    0.0000000   0.0000000   0.0000000   0.0000000   0.0000000   2.0440000   0.0000000   0.0000000   0.0000000   0.0000000
 NMagM=    2.7928460   0.0000000   0.0000000   2.7928460   2.7928460   0.4037610   2.7928460   2.7928460   2.7928460   2.7928460
 AtZNuc=   1.0000000   6.0000000   6.0000000   1.0000000   1.0000000   7.0000000   1.0000000   1.0000000   1.0000000   1.0000000

  Atom        21
 IAtWgt=           1
 AtmWgt=   1.0078250
 NucSpn=           1
 AtZEff=   0.0000000
 NQMom=    0.0000000
 NMagM=    2.7928460
 AtZNuc=   1.0000000
 Leave Link  101 at Fri Aug 20 15:45:04 2021, MaxMem= 24159191040 cpu:        11.0
 (Enter /public/home/users/caep010/software/Gaussian09/g09/l103.exe)

 GradGradGradGradGradGradGradGradGradGradGradGradGradGradGradGradGradGrad
 Berny optimization.
 Initialization pass.
                           ----------------------------
                           !    Initial Parameters    !
                           ! (Angstroms and Degrees)  !
 --------------------------                            --------------------------
 ! Name  Definition              Value          Derivative Info.                !
 --------------------------------------------------------------------------------
 ! R1    R(1,2)                  1.2466         estimate D2E/DX2                !
 ! R2    R(2,3)                  1.2403         estimate D2E/DX2                !
 ! R3    R(2,4)                  1.3806         estimate D2E/DX2                !
 ! R4    R(4,5)                  1.4099         estimate D2E/DX2                !
 ! R5    R(4,12)                 1.4189         estimate D2E/DX2                !
 ! R6    R(5,6)                  1.3347         estimate D2E/DX2                !
 ! R7    R(5,9)                  1.3444         estimate D2E/DX2                !
 ! R8    R(6,7)                  1.4012         estimate D2E/DX2                !
 ! R9    R(6,8)                  0.8506         estimate D2E/DX2                !
 ! R10   R(7,15)                 0.865          estimate D2E/DX2                !
 ! R11   R(7,17)                 0.8419         estimate D2E/DX2                !
 ! R12   R(9,10)                 1.4527         estimate D2E/DX2                !
 ! R13   R(9,16)                 1.3908         estimate D2E/DX2                !
 ! R14   R(10,11)                0.9159         estimate D2E/DX2                !
 ! R15   R(10,20)                0.8468         estimate D2E/DX2                !
 ! R16   R(10,21)                0.8914         estimate D2E/DX2                !
 ! R17   R(12,13)                1.4822         estimate D2E/DX2                !
 ! R18   R(12,16)                1.3092         estimate D2E/DX2                !
 ! R19   R(13,14)                0.8797         estimate D2E/DX2                !
 ! R20   R(13,18)                0.9784         estimate D2E/DX2                !
 ! R21   R(13,19)                1.0073         estimate D2E/DX2                !
 ! A1    A(1,2,3)              121.4986         estimate D2E/DX2                !
 ! A2    A(1,2,4)              118.2537         estimate D2E/DX2                !
 ! A3    A(3,2,4)              120.2476         estimate D2E/DX2                !
 ! A4    A(2,4,5)              125.161          estimate D2E/DX2                !
 ! A5    A(2,4,12)             127.9134         estimate D2E/DX2                !
 ! A6    A(5,4,12)             106.9156         estimate D2E/DX2                !
 ! A7    A(4,5,6)              127.8557         estimate D2E/DX2                !
 ! A8    A(4,5,9)              104.9895         estimate D2E/DX2                !
 ! A9    A(6,5,9)              127.149          estimate D2E/DX2                !
 ! A10   A(5,6,7)              121.6072         estimate D2E/DX2                !
 ! A11   A(5,6,8)              116.1039         estimate D2E/DX2                !
 ! A12   A(7,6,8)              122.2584         estimate D2E/DX2                !
 ! A13   A(6,7,15)             110.828          estimate D2E/DX2                !
 ! A14   A(6,7,17)             105.9248         estimate D2E/DX2                !
 ! A15   A(15,7,17)            102.5924         estimate D2E/DX2                !
 ! A16   A(5,9,10)             131.01           estimate D2E/DX2                !
 ! A17   A(5,9,16)             111.7702         estimate D2E/DX2                !
 ! A18   A(10,9,16)            117.1064         estimate D2E/DX2                !
 ! A19   A(9,10,11)            109.9457         estimate D2E/DX2                !
 ! A20   A(9,10,20)            108.6039         estimate D2E/DX2                !
 ! A21   A(9,10,21)            111.1384         estimate D2E/DX2                !
 ! A22   A(11,10,20)           115.5537         estimate D2E/DX2                !
 ! A23   A(11,10,21)           109.6191         estimate D2E/DX2                !
 ! A24   A(20,10,21)           101.7424         estimate D2E/DX2                !
 ! A25   A(4,12,13)            129.4666         estimate D2E/DX2                !
 ! A26   A(4,12,16)            109.2973         estimate D2E/DX2                !
 ! A27   A(13,12,16)           121.2346         estimate D2E/DX2                !
 ! A28   A(12,13,14)           111.8089         estimate D2E/DX2                !
 ! A29   A(12,13,18)           111.5362         estimate D2E/DX2                !
 ! A30   A(12,13,19)           110.5206         estimate D2E/DX2                !
 ! A31   A(14,13,18)           103.5149         estimate D2E/DX2                !
 ! A32   A(14,13,19)           103.922          estimate D2E/DX2                !
 ! A33   A(18,13,19)           115.0909         estimate D2E/DX2                !
 ! A34   A(9,16,12)            107.0264         estimate D2E/DX2                !
 ! D1    D(1,2,4,5)              1.2237         estimate D2E/DX2                !
 ! D2    D(1,2,4,12)          -177.4718         estimate D2E/DX2                !
 ! D3    D(3,2,4,5)           -178.8566         estimate D2E/DX2                !
 ! D4    D(3,2,4,12)             2.448          estimate D2E/DX2                !
 ! D5    D(2,4,5,6)              1.6099         estimate D2E/DX2                !
 ! D6    D(2,4,5,9)           -179.2269         estimate D2E/DX2                !
 ! D7    D(12,4,5,6)          -179.4658         estimate D2E/DX2                !
 ! D8    D(12,4,5,9)            -0.3026         estimate D2E/DX2                !
 ! D9    D(2,4,12,13)           -0.4794         estimate D2E/DX2                !
 ! D10   D(2,4,12,16)          179.0631         estimate D2E/DX2                !
 ! D11   D(5,4,12,13)         -179.3647         estimate D2E/DX2                !
 ! D12   D(5,4,12,16)            0.1778         estimate D2E/DX2                !
 ! D13   D(4,5,6,7)           -176.8447         estimate D2E/DX2                !
 ! D14   D(4,5,6,8)              1.1902         estimate D2E/DX2                !
 ! D15   D(9,5,6,7)              4.1694         estimate D2E/DX2                !
 ! D16   D(9,5,6,8)           -177.7957         estimate D2E/DX2                !
 ! D17   D(4,5,9,10)          -175.607          estimate D2E/DX2                !
 ! D18   D(4,5,9,16)             0.3292         estimate D2E/DX2                !
 ! D19   D(6,5,9,10)             3.5641         estimate D2E/DX2                !
 ! D20   D(6,5,9,16)           179.5003         estimate D2E/DX2                !
 ! D21   D(5,6,7,15)          -110.5005         estimate D2E/DX2                !
 ! D22   D(5,6,7,17)           138.9443         estimate D2E/DX2                !
 ! D23   D(8,6,7,15)            71.5863         estimate D2E/DX2                !
 ! D24   D(8,6,7,17)           -38.9689         estimate D2E/DX2                !
 ! D25   D(5,9,10,11)          -74.839          estimate D2E/DX2                !
 ! D26   D(5,9,10,20)          157.8358         estimate D2E/DX2                !
 ! D27   D(5,9,10,21)           46.7128         estimate D2E/DX2                !
 ! D28   D(16,9,10,11)         109.401          estimate D2E/DX2                !
 ! D29   D(16,9,10,20)         -17.9243         estimate D2E/DX2                !
 ! D30   D(16,9,10,21)        -129.0472         estimate D2E/DX2                !
 ! D31   D(5,9,16,12)           -0.2272         estimate D2E/DX2                !
 ! D32   D(10,9,16,12)         176.3287         estimate D2E/DX2                !
 ! D33   D(4,12,13,14)          50.6788         estimate D2E/DX2                !
 ! D34   D(4,12,13,18)         166.0526         estimate D2E/DX2                !
 ! D35   D(4,12,13,19)         -64.5658         estimate D2E/DX2                !
 ! D36   D(16,12,13,14)       -128.8162         estimate D2E/DX2                !
 ! D37   D(16,12,13,18)        -13.4424         estimate D2E/DX2                !
 ! D38   D(16,12,13,19)        115.9392         estimate D2E/DX2                !
 ! D39   D(4,12,16,9)            0.0202         estimate D2E/DX2                !
 ! D40   D(13,12,16,9)         179.6071         estimate D2E/DX2                !
 --------------------------------------------------------------------------------
 Trust Radius=3.00D-01 FncErr=1.00D-07 GrdErr=1.00D-06
 Number of steps in this run=    105 maximum allowed number of steps=    126.
 GradGradGradGradGradGradGradGradGradGradGradGradGradGradGradGradGradGrad

 Leave Link  103 at Fri Aug 20 15:45:04 2021, MaxMem= 24159191040 cpu:         0.4
 (Enter /public/home/users/caep010/software/Gaussian09/g09/l202.exe)
                          Input orientation:                          
 ---------------------------------------------------------------------
 Center     Atomic      Atomic             Coordinates (Angstroms)
 Number     Number       Type             X           Y           Z
 ---------------------------------------------------------------------
      1          8           0        1.789000   12.536900    7.216300
      2          7           0        2.008600   12.847900    8.403300
      3          8           0        2.670400   13.854700    8.697600
      4          6           0        1.492500   12.040000    9.396800
      5          6           0        0.747600   10.862600    9.180700
      6          7           0        0.429500   10.297100    8.014300
      7          7           0       -0.377400    9.153500    7.948500
      8          1           0        0.723200   10.686200    7.317300
      9          7           0        0.438600   10.416000   10.410500
     10          6           0       -0.240200    9.206600   10.842800
     11          1           0       -1.138900    9.278000   10.681300
     12          6           0        1.573600   12.225300   10.801200
     13          6           0        2.228700   13.308400   11.572300
     14          1           0        1.986800   14.104800   11.287400
     15          1           0        0.083100    8.466300    7.695700
     16          7           0        0.940700   11.250300   11.403500
     17          1           0       -0.897800    9.275100    7.298000
     18          1           0        1.945200   13.304700   12.508700
     19          1           0        3.225400   13.291700   11.427700
     20          1           0       -0.024900    9.048500   11.646400
     21          1           0        0.083100    8.489300   10.423900
 ---------------------------------------------------------------------
                    Distance matrix (angstroms):
                    1          2          3          4          5
     1  O    0.000000
     2  N    1.246561   0.000000
     3  O    2.169726   1.240257   0.000000
     4  C    2.255970   1.380617   2.273646   0.000000
     5  C    2.783283   2.477072   3.589319   1.409910   0.000000
     6  N    2.738932   3.025138   4.259701   2.465558   1.334716
     7  N    4.083724   4.421361   5.652567   3.731753   2.388507
     8  H    2.138041   2.739452   3.966889   2.597868   1.871890
     9  N    4.065060   3.522483   4.442929   2.185330   1.344374
    10  C    5.325416   4.926188   5.888829   3.622336   2.545714
    11  H    5.585629   5.276384   6.276306   4.025276   2.884725
    12  C    3.604858   2.515309   2.878028   1.418891   2.272718
    13  C    4.445592   3.209839   2.959298   2.623667   3.727646
    14  H    4.367069   3.146157   2.690153   2.842903   4.060254
    15  H    4.439561   4.838044   6.060757   4.201367   2.896384
    16  N    4.461793   3.562855   4.134810   2.225973   2.264606
    17  H    4.226690   4.736428   5.971907   4.214637   2.961766
    18  H    5.350085   4.131222   3.918277   3.389443   4.298102
    19  H    4.513187   3.290069   2.842260   2.948601   4.133888
    20  H    5.923255   5.393353   6.249770   4.038846   3.157118
    21  H    5.438921   5.175690   6.201754   3.955858   2.760373
                    6          7          8          9         10
     6  N    0.000000
     7  N    1.401156   0.000000
     8  H    0.850569   1.989699   0.000000
     9  N    2.399165   2.884650   3.117995   0.000000
    10  C    3.104529   2.898037   3.942906   1.452688   0.000000
    11  H    3.257504   2.839644   4.094745   1.963895   0.915883
    12  C    3.576833   4.623879   3.902508   2.171276   3.521953
    13  C    4.996440   6.098104   5.219913   3.594470   4.842768
    14  H    5.257085   6.422855   5.389360   4.095500   5.399033
    15  H    1.890325   0.864992   2.341126   3.361227   3.249124
    16  N    3.557610   4.250998   4.130683   1.390759   2.426029
    17  H    1.821893   0.841875   2.149236   3.574252   3.605931
    18  H    5.616283   6.589564   5.941419   3.875161   4.934128
    19  H    5.332540   6.496899   5.472205   4.131658   5.388927
    20  H    3.867510   3.716147   4.688584   1.900615   0.846831
    21  H    3.032211   2.604002   3.858375   1.959268   0.891358
                   11         12         13         14         15
    11  H    0.000000
    12  C    4.007319   0.000000
    13  C    5.327170   1.482180   0.000000
    14  H    5.782331   1.984854   0.879737   0.000000
    15  H    3.326552   5.098608   6.563350   6.951048   0.000000
    16  N    2.955719   1.309180   2.433765   3.042363   4.715285
    17  H    3.391881   5.204220   6.656737   6.896538   1.332099
    18  H    5.391231   2.053959   0.978382   1.460638   7.074072
    19  H    5.976120   2.063530   1.007273   1.488269   6.861950
    20  H    1.491672   3.655355   4.819850   5.453622   3.994828
    21  H    1.477019   4.040005   5.398717   5.991957   2.728297
                   16         17         18         19         20
    16  N    0.000000
    17  H    4.912904   0.000000
    18  H    2.539891   7.174379   0.000000
    19  H    3.063944   7.084368   1.675602   0.000000
    20  H    2.416466   4.440933   4.768657   5.349488   0.000000
    21  H    3.052575   3.369109   5.567934   5.826209   1.348657
                   21
    21  H    0.000000
 Stoichiometry    C5H9N5O2
 Framework group  C1[X(C5H9N5O2)]
 Deg. of freedom    57
 Full point group                 C1      NOp   1
 Largest Abelian subgroup         C1      NOp   1
 Largest concise Abelian subgroup C1      NOp   1
                         Standard orientation:                         
 ---------------------------------------------------------------------
 Center     Atomic      Atomic             Coordinates (Angstroms)
 Number     Number       Type             X           Y           Z
 ---------------------------------------------------------------------
      1          8           0        1.090044   -2.341937   -0.019799
      2          7           0        1.564896   -1.189770    0.010900
      3          8           0        2.789213   -0.994104    0.042550
      4          6           0        0.689806   -0.121919    0.007223
      5          6           0       -0.716320   -0.224517   -0.004201
      6          7           0       -1.456757   -1.334834    0.016186
      7          7           0       -2.854755   -1.286783   -0.064629
      8          1           0       -1.029213   -2.069132    0.054665
      9          7           0       -1.157479    1.045296   -0.021359
     10          6           0       -2.503435    1.587791    0.044999
     11          1           0       -2.929174    1.466216   -0.756754
     12          6           0        1.002947    1.261859   -0.011591
     13          6           0        2.326888    1.928133   -0.022463
     14          1           0        2.850536    1.604412   -0.650901
     15          1           0       -3.214404   -1.516769    0.687681
     16          7           0       -0.106705    1.956354   -0.028941
     17          1           0       -3.078418   -1.917524   -0.575407
     18          1           0        2.250268    2.875564   -0.254271
     19          1           0        2.825749    1.736274    0.831308
     20          1           0       -2.458892    2.388435    0.317225
     21          1           0       -2.974223    1.200924    0.695547
 ---------------------------------------------------------------------
 Rotational constants (GHZ):      1.3626681      0.8794164      0.5382553
 Leave Link  202 at Fri Aug 20 15:45:04 2021, MaxMem= 24159191040 cpu:         0.7
 (Enter /public/home/users/caep010/software/Gaussian09/g09/l301.exe)
 Standard basis: 6-31G(d,p) (6D, 7F)
 Ernie: Thresh=  0.10000D-02 Tol=  0.10000D-05 Strict=F.
 There are   225 symmetry adapted cartesian basis functions of A   symmetry.
 There are   225 symmetry adapted basis functions of A   symmetry.
   225 basis functions,   399 primitive gaussians,   225 cartesian basis functions
    45 alpha electrons       45 beta electrons
       nuclear repulsion energy       753.9262470246 Hartrees.
 IExCor=  402 DFT=T Ex+Corr=B3LYP ExCW=0 ScaHFX=  0.200000
 ScaDFX=  0.800000  0.720000  1.000000  0.810000 ScalE2=  1.000000  1.000000
 IRadAn=      0 IRanWt=     -1 IRanGd=            0 ICorTp=0 IEmpDi=  4
 NAtoms=   21 NActive=   21 NUniq=   21 SFac= 1.00D+00 NAtFMM=   60 NAOKFM=F Big=F
 Integral buffers will be    131072 words long.
 Raffenetti 2 integral format.
 Two-electron integral symmetry is turned on.
 Leave Link  301 at Fri Aug 20 15:45:04 2021, MaxMem= 24159191040 cpu:         1.9
 (Enter /public/home/users/caep010/software/Gaussian09/g09/l302.exe)
 NPDir=0 NMtPBC=     1 NCelOv=     1 NCel=       1 NClECP=     1 NCelD=      1
         NCelK=      1 NCelE2=     1 NClLst=     1 CellRange=     0.0.
 One-electron integrals computed using PRISM.
 NBasis=   225 RedAO= T EigKep=  6.18D-04  NBF=   225
 NBsUse=   225 1.00D-06 EigRej= -1.00D+00 NBFU=   225
 Precomputing XC quadrature grid using
 IXCGrd= 4 IRadAn=           0 IRanWt=          -1 IRanGd=           0 AccXCQ= 0.00D+00.
 Generated NRdTot=       0 NPtTot=           0 NUsed=           0 NTot=          32
 NSgBfM=   224   224   224   224   224 MxSgAt=    21 MxSgA2=    21.
 Leave Link  302 at Fri Aug 20 15:45:04 2021, MaxMem= 24159191040 cpu:        11.9
 (Enter /public/home/users/caep010/software/Gaussian09/g09/l303.exe)
 DipDrv:  MaxL=1.
 Leave Link  303 at Fri Aug 20 15:45:05 2021, MaxMem= 24159191040 cpu:         1.1
 (Enter /public/home/users/caep010/software/Gaussian09/g09/l401.exe)
 ExpMin= 1.61D-01 ExpMax= 5.48D+03 ExpMxC= 8.25D+02 IAcc=1 IRadAn=         1 AccDes= 0.00D+00
 Harris functional with IExCor=  402 and IRadAn=       1 diagonalized for initial guess.
 HarFok:  IExCor=  402 AccDes= 0.00D+00 IRadAn=         1 IDoV= 1 UseB2=F ITyADJ=14
 ICtDFT=  3500011 ScaDFX=  1.000000  1.000000  1.000000  1.000000
 FoFCou: FMM=F IPFlag=           0 FMFlag=      100000 FMFlg1=           0
         NFxFlg=           0 DoJE=T BraDBF=F KetDBF=T FulRan=T
         wScrn=  0.000000 ICntrl=     500 IOpCl=  0 I1Cent=   200000004 NGrid=           0
         NMat0=    1 NMatS0=      1 NMatT0=    0 NMatD0=    1 NMtDS0=    0 NMtDT0=    0
 Petite list used in FoFCou.
 Harris En= -619.872060720545    
 JPrj=0 DoOrth=F DoCkMO=F.
 Leave Link  401 at Fri Aug 20 15:45:05 2021, MaxMem= 24159191040 cpu:        16.9
 (Enter /public/home/users/caep010/software/Gaussian09/g09/l502.exe)
 Closed shell SCF:
 Using DIIS extrapolation, IDIIS=  1040.
 Integral symmetry usage will be decided dynamically.
 Keep R1 ints in memory in canonical form, NReq=329178817.
 IVT=      179317 IEndB=      179317 NGot= 24159191040 MDV= 23835783699
 LenX= 23835783699 LenY= 23835732633
 Requested convergence on RMS density matrix=1.00D-08 within 128 cycles.
 Requested convergence on MAX density matrix=1.00D-06.
 Requested convergence on             energy=1.00D-06.
 No special actions if energy rises.
 FoFCou: FMM=F IPFlag=           0 FMFlag=           0 FMFlg1=           0
         NFxFlg=           0 DoJE=F BraDBF=F KetDBF=F FulRan=T
         wScrn=  0.000000 ICntrl=     600 IOpCl=  0 I1Cent=           0 NGrid=           0
         NMat0=    1 NMatS0=  25425 NMatT0=    0 NMatD0=    1 NMtDS0=    0 NMtDT0=    0
 Symmetry not used in FoFCou.
 Integral accuracy reduced to 1.0D-05 until final iterations.

 Cycle   1  Pass 0  IDiag  1:
 E= -619.292310657598    
 DIIS: error= 3.75D-02 at cycle   1 NSaved=   1.
 NSaved= 1 IEnMin= 1 EnMin= -619.292310657598     IErMin= 1 ErrMin= 3.75D-02
 ErrMax= 3.75D-02  0.00D+00 EMaxC= 1.00D-01 BMatC= 5.31D-01 BMatP= 5.31D-01
 IDIUse=3 WtCom= 6.25D-01 WtEn= 3.75D-01
 Coeff-Com:  0.100D+01
 Coeff-En:   0.100D+01
 Coeff:      0.100D+01
 Gap=     0.133 Goal=   None    Shift=    0.000
 GapD=    0.133 DampG=1.000 DampE=0.500 DampFc=0.5000 IDamp=-1.
 Damping current iteration by 5.00D-01
 RMSDP=6.48D-03 MaxDP=2.28D-01              OVMax= 2.99D-01

 Cycle   2  Pass 0  IDiag  1:
 E= -619.444124364275     Delta-E=       -0.151813706677 Rises=F Damp=T
 DIIS: error= 1.45D-02 at cycle   2 NSaved=   2.
 NSaved= 2 IEnMin= 2 EnMin= -619.444124364275     IErMin= 2 ErrMin= 1.45D-02
 ErrMax= 1.45D-02  0.00D+00 EMaxC= 1.00D-01 BMatC= 6.68D-02 BMatP= 5.31D-01
 IDIUse=3 WtCom= 8.55D-01 WtEn= 1.45D-01
 Coeff-Com:  0.180D+00 0.820D+00
 Coeff-En:   0.273D+00 0.727D+00
 Coeff:      0.193D+00 0.807D+00
 Gap=     0.217 Goal=   None    Shift=    0.000
 RMSDP=2.16D-03 MaxDP=7.67D-02 DE=-1.52D-01 OVMax= 2.28D-01

 Cycle   3  Pass 0  IDiag  1:
 E= -619.686683328369     Delta-E=       -0.242558964094 Rises=F Damp=F
 DIIS: error= 1.52D-02 at cycle   3 NSaved=   3.
 NSaved= 3 IEnMin= 3 EnMin= -619.686683328369     IErMin= 2 ErrMin= 1.45D-02
 ErrMax= 1.52D-02  0.00D+00 EMaxC= 1.00D-01 BMatC= 5.79D-02 BMatP= 6.68D-02
 IDIUse=3 WtCom= 8.48D-01 WtEn= 1.52D-01
 Coeff-Com:  0.480D-01 0.475D+00 0.477D+00
 Coeff-En:   0.000D+00 0.000D+00 0.100D+01
 Coeff:      0.407D-01 0.403D+00 0.556D+00
 Gap=     0.173 Goal=   None    Shift=    0.000
 RMSDP=1.47D-03 MaxDP=8.55D-02 DE=-2.43D-01 OVMax= 1.13D-01

 Cycle   4  Pass 0  IDiag  1:
 E= -619.714736667377     Delta-E=       -0.028053339008 Rises=F Damp=F
 DIIS: error= 1.91D-02 at cycle   4 NSaved=   4.
 NSaved= 4 IEnMin= 4 EnMin= -619.714736667377     IErMin= 2 ErrMin= 1.45D-02
 ErrMax= 1.91D-02  0.00D+00 EMaxC= 1.00D-01 BMatC= 2.48D-02 BMatP= 5.79D-02
 IDIUse=3 WtCom= 8.09D-01 WtEn= 1.91D-01
 Coeff-Com:  0.225D-01 0.194D+00 0.389D+00 0.394D+00
 Coeff-En:   0.000D+00 0.000D+00 0.326D+00 0.674D+00
 Coeff:      0.182D-01 0.157D+00 0.377D+00 0.448D+00
 Gap=     0.167 Goal=   None    Shift=    0.000
 RMSDP=7.89D-04 MaxDP=5.29D-02 DE=-2.81D-02 OVMax= 1.01D-01

 Cycle   5  Pass 0  IDiag  1:
 E= -619.729999897534     Delta-E=       -0.015263230157 Rises=F Damp=F
 DIIS: error= 1.03D-02 at cycle   5 NSaved=   5.
 NSaved= 5 IEnMin= 5 EnMin= -619.729999897534     IErMin= 5 ErrMin= 1.03D-02
 ErrMax= 1.03D-02  0.00D+00 EMaxC= 1.00D-01 BMatC= 5.74D-03 BMatP= 2.48D-02
 IDIUse=3 WtCom= 8.97D-01 WtEn= 1.03D-01
 Coeff-Com:  0.909D-02 0.262D-01 0.190D+00 0.365D+00 0.409D+00
 Coeff-En:   0.000D+00 0.000D+00 0.000D+00 0.226D+00 0.774D+00
 Coeff:      0.816D-02 0.235D-01 0.171D+00 0.351D+00 0.447D+00
 Gap=     0.166 Goal=   None    Shift=    0.000
 RMSDP=3.31D-04 MaxDP=2.12D-02 DE=-1.53D-02 OVMax= 4.06D-02

 Cycle   6  Pass 0  IDiag  1:
 E= -619.734338469849     Delta-E=       -0.004338572315 Rises=F Damp=F
 DIIS: error= 1.63D-03 at cycle   6 NSaved=   6.
 NSaved= 6 IEnMin= 6 EnMin= -619.734338469849     IErMin= 6 ErrMin= 1.63D-03
 ErrMax= 1.63D-03  0.00D+00 EMaxC= 1.00D-01 BMatC= 3.37D-04 BMatP= 5.74D-03
 IDIUse=3 WtCom= 9.84D-01 WtEn= 1.63D-02
 Coeff-Com:  0.140D-02-0.171D-02 0.563D-01 0.153D+00 0.273D+00 0.518D+00
 Coeff-En:   0.000D+00 0.000D+00 0.000D+00 0.000D+00 0.436D-01 0.956D+00
 Coeff:      0.138D-02-0.168D-02 0.553D-01 0.150D+00 0.270D+00 0.525D+00
 Gap=     0.169 Goal=   None    Shift=    0.000
 RMSDP=8.43D-05 MaxDP=4.94D-03 DE=-4.34D-03 OVMax= 5.11D-03

 Cycle   7  Pass 0  IDiag  1:
 E= -619.734596884389     Delta-E=       -0.000258414540 Rises=F Damp=F
 DIIS: error= 1.74D-04 at cycle   7 NSaved=   7.
 NSaved= 7 IEnMin= 7 EnMin= -619.734596884389     IErMin= 7 ErrMin= 1.74D-04
 ErrMax= 1.74D-04  0.00D+00 EMaxC= 1.00D-01 BMatC= 1.39D-05 BMatP= 3.37D-04
 IDIUse=3 WtCom= 9.98D-01 WtEn= 1.74D-03
 Coeff-Com: -0.516D-04-0.223D-02 0.130D-01 0.472D-01 0.106D+00 0.281D+00
 Coeff-Com:  0.554D+00
 Coeff-En:   0.000D+00 0.000D+00 0.000D+00 0.000D+00 0.000D+00 0.000D+00
 Coeff-En:   0.100D+01
 Coeff:     -0.515D-04-0.223D-02 0.130D-01 0.471D-01 0.106D+00 0.281D+00
 Coeff:      0.555D+00
 Gap=     0.169 Goal=   None    Shift=    0.000
 RMSDP=2.04D-05 MaxDP=8.75D-04 DE=-2.58D-04 OVMax= 1.61D-03

 Cycle   8  Pass 0  IDiag  1:
 E= -619.734607397434     Delta-E=       -0.000010513045 Rises=F Damp=F
 DIIS: error= 6.23D-05 at cycle   8 NSaved=   8.
 NSaved= 8 IEnMin= 8 EnMin= -619.734607397434     IErMin= 8 ErrMin= 6.23D-05
 ErrMax= 6.23D-05  0.00D+00 EMaxC= 1.00D-01 BMatC= 2.04D-06 BMatP= 1.39D-05
 IDIUse=1 WtCom= 1.00D+00 WtEn= 0.00D+00
 Coeff-Com: -0.231D-03-0.100D-02 0.228D-02 0.132D-01 0.376D-01 0.119D+00
 Coeff-Com:  0.340D+00 0.489D+00
 Coeff:     -0.231D-03-0.100D-02 0.228D-02 0.132D-01 0.376D-01 0.119D+00
 Coeff:      0.340D+00 0.489D+00
 Gap=     0.168 Goal=   None    Shift=    0.000
 RMSDP=7.57D-06 MaxDP=3.16D-04 DE=-1.05D-05 OVMax= 5.03D-04

 Initial convergence to 1.0D-05 achieved.  Increase integral accuracy.
 Cycle   9  Pass 1  IDiag  1:
 E= -619.734617644255     Delta-E=       -0.000010246821 Rises=F Damp=F
 DIIS: error= 2.08D-05 at cycle   1 NSaved=   1.
 NSaved= 1 IEnMin= 1 EnMin= -619.734617644255     IErMin= 1 ErrMin= 2.08D-05
 ErrMax= 2.08D-05  0.00D+00 EMaxC= 1.00D-01 BMatC= 2.82D-07 BMatP= 2.82D-07
 IDIUse=1 WtCom= 1.00D+00 WtEn= 0.00D+00
 Coeff-Com:  0.100D+01
 Coeff:      0.100D+01
 Gap=     0.169 Goal=   None    Shift=    0.000
 RMSDP=7.57D-06 MaxDP=3.16D-04 DE=-1.02D-05 OVMax= 5.18D-04

 Cycle  10  Pass 1  IDiag  1:
 E= -619.734617203656     Delta-E=        0.000000440598 Rises=F Damp=F
 DIIS: error= 3.91D-05 at cycle   2 NSaved=   2.
 NSaved= 2 IEnMin= 1 EnMin= -619.734617644255     IErMin= 1 ErrMin= 2.08D-05
 ErrMax= 3.91D-05  0.00D+00 EMaxC= 1.00D-01 BMatC= 7.81D-07 BMatP= 2.82D-07
 IDIUse=1 WtCom= 1.00D+00 WtEn= 0.00D+00
 Coeff-Com:  0.639D+00 0.361D+00
 Coeff:      0.639D+00 0.361D+00
 Gap=     0.168 Goal=   None    Shift=    0.000
 RMSDP=4.72D-06 MaxDP=2.11D-04 DE= 4.41D-07 OVMax= 3.93D-04

 Cycle  11  Pass 1  IDiag  1:
 E= -619.734617908278     Delta-E=       -0.000000704622 Rises=F Damp=F
 DIIS: error= 5.66D-06 at cycle   3 NSaved=   3.
 NSaved= 3 IEnMin= 3 EnMin= -619.734617908278     IErMin= 3 ErrMin= 5.66D-06
 ErrMax= 5.66D-06  0.00D+00 EMaxC= 1.00D-01 BMatC= 2.25D-08 BMatP= 2.82D-07
 IDIUse=1 WtCom= 1.00D+00 WtEn= 0.00D+00
 Coeff-Com:  0.933D-01 0.154D+00 0.753D+00
 Coeff:      0.933D-01 0.154D+00 0.753D+00
 Gap=     0.168 Goal=   None    Shift=    0.000
 RMSDP=9.60D-07 MaxDP=4.20D-05 DE=-7.05D-07 OVMax= 7.28D-05

 Cycle  12  Pass 1  IDiag  1:
 E= -619.734617922743     Delta-E=       -0.000000014465 Rises=F Damp=F
 DIIS: error= 4.19D-06 at cycle   4 NSaved=   4.
 NSaved= 4 IEnMin= 4 EnMin= -619.734617922743     IErMin= 4 ErrMin= 4.19D-06
 ErrMax= 4.19D-06  0.00D+00 EMaxC= 1.00D-01 BMatC= 7.30D-09 BMatP= 2.25D-08
 IDIUse=1 WtCom= 1.00D+00 WtEn= 0.00D+00
 Coeff-Com: -0.696D-02 0.574D-01 0.467D+00 0.483D+00
 Coeff:     -0.696D-02 0.574D-01 0.467D+00 0.483D+00
 Gap=     0.168 Goal=   None    Shift=    0.000
 RMSDP=4.34D-07 MaxDP=1.97D-05 DE=-1.45D-08 OVMax= 2.76D-05

 Cycle  13  Pass 1  IDiag  1:
 E= -619.734617928673     Delta-E=       -0.000000005930 Rises=F Damp=F
 DIIS: error= 2.79D-06 at cycle   5 NSaved=   5.
 NSaved= 5 IEnMin= 5 EnMin= -619.734617928673     IErMin= 5 ErrMin= 2.79D-06
 ErrMax= 2.79D-06  0.00D+00 EMaxC= 1.00D-01 BMatC= 6.64D-10 BMatP= 7.30D-09
 IDIUse=1 WtCom= 1.00D+00 WtEn= 0.00D+00
 Coeff-Com: -0.983D-02 0.286D-01 0.266D+00 0.313D+00 0.403D+00
 Coeff:     -0.983D-02 0.286D-01 0.266D+00 0.313D+00 0.403D+00
 Gap=     0.168 Goal=   None    Shift=    0.000
 RMSDP=1.29D-07 MaxDP=8.25D-06 DE=-5.93D-09 OVMax= 1.39D-05

 Cycle  14  Pass 1  IDiag  1:
 E= -619.734617929127     Delta-E=       -0.000000000454 Rises=F Damp=F
 DIIS: error= 1.38D-06 at cycle   6 NSaved=   6.
 NSaved= 6 IEnMin= 6 EnMin= -619.734617929127     IErMin= 6 ErrMin= 1.38D-06
 ErrMax= 1.38D-06  0.00D+00 EMaxC= 1.00D-01 BMatC= 1.12D-10 BMatP= 6.64D-10
 IDIUse=1 WtCom= 1.00D+00 WtEn= 0.00D+00
 Coeff-Com: -0.632D-02 0.125D-01 0.129D+00 0.159D+00 0.300D+00 0.407D+00
 Coeff:     -0.632D-02 0.125D-01 0.129D+00 0.159D+00 0.300D+00 0.407D+00
 Gap=     0.168 Goal=   None    Shift=    0.000
 RMSDP=4.69D-08 MaxDP=2.50D-06 DE=-4.54D-10 OVMax= 5.16D-06

 Cycle  15  Pass 1  IDiag  1:
 E= -619.734617929201     Delta-E=       -0.000000000073 Rises=F Damp=F
 DIIS: error= 1.75D-07 at cycle   7 NSaved=   7.
 NSaved= 7 IEnMin= 7 EnMin= -619.734617929201     IErMin= 7 ErrMin= 1.75D-07
 ErrMax= 1.75D-07  0.00D+00 EMaxC= 1.00D-01 BMatC= 6.07D-12 BMatP= 1.12D-10
 IDIUse=1 WtCom= 1.00D+00 WtEn= 0.00D+00
 Coeff-Com: -0.247D-02 0.378D-02 0.438D-01 0.534D-01 0.131D+00 0.238D+00
 Coeff-Com:  0.533D+00
 Coeff:     -0.247D-02 0.378D-02 0.438D-01 0.534D-01 0.131D+00 0.238D+00
 Coeff:      0.533D+00
 Gap=     0.168 Goal=   None    Shift=    0.000
 RMSDP=1.29D-08 MaxDP=6.98D-07 DE=-7.34D-11 OVMax= 8.68D-07

 Cycle  16  Pass 1  IDiag  1:
 E= -619.734617929209     Delta-E=       -0.000000000008 Rises=F Damp=F
 DIIS: error= 5.68D-08 at cycle   8 NSaved=   8.
 NSaved= 8 IEnMin= 8 EnMin= -619.734617929209     IErMin= 8 ErrMin= 5.68D-08
 ErrMax= 5.68D-08  0.00D+00 EMaxC= 1.00D-01 BMatC= 8.83D-13 BMatP= 6.07D-12
 IDIUse=1 WtCom= 1.00D+00 WtEn= 0.00D+00
 Coeff-Com: -0.560D-03 0.411D-03 0.785D-02 0.860D-02 0.368D-01 0.809D-01
 Coeff-Com:  0.315D+00 0.551D+00
 Coeff:     -0.560D-03 0.411D-03 0.785D-02 0.860D-02 0.368D-01 0.809D-01
 Coeff:      0.315D+00 0.551D+00
 Gap=     0.168 Goal=   None    Shift=    0.000
 RMSDP=4.05D-09 MaxDP=1.96D-07 DE=-8.41D-12 OVMax= 2.08D-07

 SCF Done:  E(RB3LYP) =  -619.734617929     A.U. after   16 cycles
            NFock= 16  Conv=0.41D-08     -V/T= 2.0036
 KE= 6.175222246720D+02 PE=-2.955932291509D+03 EE= 9.647492018831D+02
 Leave Link  502 at Fri Aug 20 15:45:16 2021, MaxMem= 24159191040 cpu:       110.7
 (Enter /public/home/users/caep010/software/Gaussian09/g09/l601.exe)
 Copying SCF densities to generalized density rwf, IOpCl= 0 IROHF=0.

 **********************************************************************

            Population analysis using the SCF density.

 **********************************************************************

 Orbital symmetries:
       Occupied  (A) (A) (A) (A) (A) (A) (A) (A) (A) (A) (A) (A)
                 (A) (A) (A) (A) (A) (A) (A) (A) (A) (A) (A) (A)
                 (A) (A) (A) (A) (A) (A) (A) (A) (A) (A) (A) (A)
                 (A) (A) (A) (A) (A) (A) (A) (A) (A)
       Virtual   (A) (A) (A) (A) (A) (A) (A) (A) (A) (A) (A) (A)
                 (A) (A) (A) (A) (A) (A) (A) (A) (A) (A) (A) (A)
                 (A) (A) (A) (A) (A) (A) (A) (A) (A) (A) (A) (A)
                 (A) (A) (A) (A) (A) (A) (A) (A) (A) (A) (A) (A)
                 (A) (A) (A) (A) (A) (A) (A) (A) (A) (A) (A) (A)
                 (A) (A) (A) (A) (A) (A) (A) (A) (A) (A) (A) (A)
                 (A) (A) (A) (A) (A) (A) (A) (A) (A) (A) (A) (A)
                 (A) (A) (A) (A) (A) (A) (A) (A) (A) (A) (A) (A)
                 (A) (A) (A) (A) (A) (A) (A) (A) (A) (A) (A) (A)
                 (A) (A) (A) (A) (A) (A) (A) (A) (A) (A) (A) (A)
                 (A) (A) (A) (A) (A) (A) (A) (A) (A) (A) (A) (A)
                 (A) (A) (A) (A) (A) (A) (A) (A) (A) (A) (A) (A)
                 (A) (A) (A) (A) (A) (A) (A) (A) (A) (A) (A) (A)
                 (A) (A) (A) (A) (A) (A) (A) (A) (A) (A) (A) (A)
                 (A) (A) (A) (A) (A) (A) (A) (A) (A) (A) (A) (A)
 The electronic state is 1-A.
 Alpha  occ. eigenvalues --  -19.15023 -19.14859 -14.54726 -14.41466 -14.39543
 Alpha  occ. eigenvalues --  -14.36631 -14.34530 -10.28853 -10.22215 -10.22002
 Alpha  occ. eigenvalues --  -10.17526 -10.13812  -1.19578  -1.07239  -1.04057
 Alpha  occ. eigenvalues --   -1.01534  -0.90568  -0.87511  -0.81266  -0.78752
 Alpha  occ. eigenvalues --   -0.74794  -0.68201  -0.63621  -0.60488  -0.57974
 Alpha  occ. eigenvalues --   -0.55847  -0.54995  -0.51991  -0.51765  -0.50639
 Alpha  occ. eigenvalues --   -0.48981  -0.46111  -0.45766  -0.44419  -0.41912
 Alpha  occ. eigenvalues --   -0.40541  -0.39762  -0.35010  -0.31593  -0.30093
 Alpha  occ. eigenvalues --   -0.28193  -0.28158  -0.26281  -0.25831  -0.22049
 Alpha virt. eigenvalues --   -0.05202   0.03443   0.06759   0.09952   0.12143
 Alpha virt. eigenvalues --    0.13608   0.14960   0.16054   0.16871   0.17722
 Alpha virt. eigenvalues --    0.18994   0.20582   0.21133   0.22057   0.23364
 Alpha virt. eigenvalues --    0.24784   0.25626   0.27179   0.30054   0.32513
 Alpha virt. eigenvalues --    0.34962   0.39317   0.41990   0.45155   0.48437
 Alpha virt. eigenvalues --    0.49156   0.51697   0.52797   0.53932   0.54588
 Alpha virt. eigenvalues --    0.57652   0.58223   0.59329   0.60228   0.63117
 Alpha virt. eigenvalues --    0.65631   0.66936   0.69041   0.69908   0.71751
 Alpha virt. eigenvalues --    0.74839   0.76749   0.77416   0.79520   0.80694
 Alpha virt. eigenvalues --    0.82014   0.83252   0.85115   0.86757   0.89146
 Alpha virt. eigenvalues --    0.90129   0.92739   0.93531   0.94456   0.96728
 Alpha virt. eigenvalues --    0.97333   0.97976   0.98425   0.98932   1.00125
 Alpha virt. eigenvalues --    1.02052   1.03325   1.03586   1.08258   1.09199
 Alpha virt. eigenvalues --    1.11346   1.14138   1.15698   1.19938   1.22009
 Alpha virt. eigenvalues --    1.22622   1.26654   1.27524   1.29503   1.31864
 Alpha virt. eigenvalues --    1.34219   1.35665   1.38266   1.41013   1.43029
 Alpha virt. eigenvalues --    1.43512   1.46449   1.48340   1.53456   1.57794
 Alpha virt. eigenvalues --    1.63320   1.64929   1.66689   1.68427   1.72834
 Alpha virt. eigenvalues --    1.73923   1.77237   1.78395   1.79962   1.81996
 Alpha virt. eigenvalues --    1.83330   1.84053   1.84967   1.87819   1.92725
 Alpha virt. eigenvalues --    1.93354   1.96577   1.97984   2.00434   2.00885
 Alpha virt. eigenvalues --    2.01596   2.09031   2.09993   2.11169   2.15079
 Alpha virt. eigenvalues --    2.16666   2.17012   2.19274   2.20912   2.22422
 Alpha virt. eigenvalues --    2.28171   2.28951   2.29556   2.30479   2.33262
 Alpha virt. eigenvalues --    2.35348   2.37187   2.39044   2.40824   2.41614
 Alpha virt. eigenvalues --    2.45237   2.48069   2.50641   2.52158   2.53411
 Alpha virt. eigenvalues --    2.55326   2.58184   2.62843   2.64751   2.66648
 Alpha virt. eigenvalues --    2.68575   2.70911   2.73871   2.76767   2.79533
 Alpha virt. eigenvalues --    2.81672   2.83731   2.85790   2.90338   2.90814
 Alpha virt. eigenvalues --    2.93568   2.94814   2.95886   2.99160   3.03549
 Alpha virt. eigenvalues --    3.08527   3.14115   3.18060   3.23629   3.26467
 Alpha virt. eigenvalues --    3.29209   3.35092   3.37950   3.53555   3.58487
 Alpha virt. eigenvalues --    3.66780   3.70144   3.76733   3.85477   3.87954
 Alpha virt. eigenvalues --    3.90293   3.93653   4.02018   4.06096   4.09894
 Alpha virt. eigenvalues --    4.15901   4.18568   4.21328   4.27832   4.33697
 Alpha virt. eigenvalues --    4.38485   4.48657   4.55843   4.62865   4.74592
          Condensed to atoms (all electrons):
               1          2          3          4          5          6
     1  O    8.348414   0.265265  -0.092090  -0.072006  -0.013219  -0.014321
     2  N    0.265265   6.149505   0.297360   0.108852  -0.060857  -0.008210
     3  O   -0.092090   0.297360   8.308131  -0.072003   0.005007  -0.000055
     4  C   -0.072006   0.108852  -0.072003   5.309399   0.319000  -0.066136
     5  C   -0.013219  -0.060857   0.005007   0.319000   4.818902   0.286851
     6  N   -0.014321  -0.008210  -0.000055  -0.066136   0.286851   6.791729
     7  N    0.000459   0.000022   0.000001   0.002265  -0.058904   0.246007
     8  H    0.046095  -0.003865   0.000341  -0.007758  -0.030610   0.380462
     9  N    0.000166   0.006982  -0.000019  -0.006802   0.255889  -0.068765
    10  C    0.000003  -0.000050   0.000001   0.007632  -0.052179  -0.005093
    11  H   -0.000000   0.000001  -0.000000  -0.000166   0.000110   0.000678
    12  C    0.004224  -0.059171  -0.017092   0.399358  -0.046525   0.005299
    13  C    0.000046  -0.011149   0.005261  -0.063500   0.009372  -0.000091
    14  H    0.000011   0.000242   0.006863  -0.003594   0.000225  -0.000001
    15  H   -0.000022   0.000002  -0.000000  -0.000100   0.001086  -0.044959
    16  N   -0.000069   0.008020   0.000050   0.014224  -0.129791   0.004159
    17  H   -0.000033   0.000001  -0.000000  -0.000135   0.003850  -0.038306
    18  H    0.000004  -0.000010   0.000685   0.006415   0.000038   0.000000
    19  H    0.000002   0.000601   0.002238  -0.001688  -0.000060  -0.000000
    20  H    0.000000  -0.000003  -0.000000  -0.000833   0.007277   0.000214
    21  H    0.000000  -0.000004  -0.000000   0.000040   0.000313   0.000207
               7          8          9         10         11         12
     1  O    0.000459   0.046095   0.000166   0.000003  -0.000000   0.004224
     2  N    0.000022  -0.003865   0.006982  -0.000050   0.000001  -0.059171
     3  O    0.000001   0.000341  -0.000019   0.000001  -0.000000  -0.017092
     4  C    0.002265  -0.007758  -0.006802   0.007632  -0.000166   0.399358
     5  C   -0.058904  -0.030610   0.255889  -0.052179   0.000110  -0.046525
     6  N    0.246007   0.380462  -0.068765  -0.005093   0.000678   0.005299
     7  N    6.432383  -0.027873  -0.004092  -0.010499   0.003429   0.000082
     8  H   -0.027873   0.412059   0.004720  -0.000187   0.000013   0.000787
     9  N   -0.004092   0.004720   6.869475   0.339117  -0.035981  -0.129401
    10  C   -0.010499  -0.000187   0.339117   4.586631   0.422223   0.004945
    11  H    0.003429   0.000013  -0.035981   0.422223   0.551043   0.000009
    12  C    0.000082   0.000787  -0.129401   0.004945   0.000009   4.711828
    13  C    0.000001  -0.000008   0.006500  -0.000246   0.000009   0.415213
    14  H    0.000000  -0.000001  -0.000234   0.000003  -0.000001  -0.017390
    15  H    0.386649   0.000106   0.000571  -0.000237   0.000098  -0.000002
    16  N   -0.000088  -0.000220   0.260234  -0.058242   0.001908   0.455790
    17  H    0.395467  -0.002670   0.000232   0.000368  -0.000064  -0.000000
    18  H   -0.000000  -0.000000  -0.000231  -0.000012  -0.000000  -0.020973
    19  H   -0.000000  -0.000001  -0.000040   0.000006   0.000000  -0.021736
    20  H    0.001572   0.000038  -0.029277   0.382253  -0.029111   0.000776
    21  H    0.007163   0.000049  -0.030655   0.401994  -0.042001  -0.000173
              13         14         15         16         17         18
     1  O    0.000046   0.000011  -0.000022  -0.000069  -0.000033   0.000004
     2  N   -0.011149   0.000242   0.000002   0.008020   0.000001  -0.000010
     3  O    0.005261   0.006863  -0.000000   0.000050  -0.000000   0.000685
     4  C   -0.063500  -0.003594  -0.000100   0.014224  -0.000135   0.006415
     5  C    0.009372   0.000225   0.001086  -0.129791   0.003850   0.000038
     6  N   -0.000091  -0.000001  -0.044959   0.004159  -0.038306   0.000000
     7  N    0.000001   0.000000   0.386649  -0.000088   0.395467  -0.000000
     8  H   -0.000008  -0.000001   0.000106  -0.000220  -0.002670  -0.000000
     9  N    0.006500  -0.000234   0.000571   0.260234   0.000232  -0.000231
    10  C   -0.000246   0.000003  -0.000237  -0.058242   0.000368  -0.000012
    11  H    0.000009  -0.000001   0.000098   0.001908  -0.000064  -0.000000
    12  C    0.415213  -0.017390  -0.000002   0.455790  -0.000000  -0.020973
    13  C    4.863648   0.387518  -0.000000  -0.078057  -0.000000   0.369370
    14  H    0.387518   0.571633  -0.000000   0.003050   0.000000  -0.040461
    15  H   -0.000000  -0.000000   0.449904  -0.000003  -0.048656   0.000000
    16  N   -0.078057   0.003050  -0.000003   6.870401   0.000003   0.000814
    17  H   -0.000000   0.000000  -0.048656   0.000003   0.441801   0.000000
    18  H    0.369370  -0.040461   0.000000   0.000814   0.000000   0.591149
    19  H    0.390220  -0.040835   0.000000   0.000362  -0.000000  -0.022030
    20  H   -0.000034   0.000002  -0.000068   0.013452  -0.000021   0.000015
    21  H    0.000009   0.000000  -0.000628   0.003813   0.000173   0.000001
              19         20         21
     1  O    0.000002   0.000000   0.000000
     2  N    0.000601  -0.000003  -0.000004
     3  O    0.002238  -0.000000  -0.000000
     4  C   -0.001688  -0.000833   0.000040
     5  C   -0.000060   0.007277   0.000313
     6  N   -0.000000   0.000214   0.000207
     7  N   -0.000000   0.001572   0.007163
     8  H   -0.000001   0.000038   0.000049
     9  N   -0.000040  -0.029277  -0.030655
    10  C    0.000006   0.382253   0.401994
    11  H    0.000000  -0.029111  -0.042001
    12  C   -0.021736   0.000776  -0.000173
    13  C    0.390220  -0.000034   0.000009
    14  H   -0.040835   0.000002   0.000000
    15  H    0.000000  -0.000068  -0.000628
    16  N    0.000362   0.013452   0.003813
    17  H   -0.000000  -0.000021   0.000173
    18  H   -0.022030   0.000015   0.000001
    19  H    0.560568  -0.000002  -0.000000
    20  H   -0.000002   0.587976  -0.037926
    21  H   -0.000000  -0.037926   0.592833
 Mulliken charges:
               1
     1  O   -0.472929
     2  N    0.306464
     3  O   -0.444677
     4  C    0.127538
     5  C    0.684226
     6  N   -0.469669
     7  N   -0.374043
     8  H    0.228520
     9  N   -0.438391
    10  C   -0.018432
    11  H    0.127804
    12  C    0.314153
    13  C   -0.294083
    14  H    0.132970
    15  H    0.256261
    16  N   -0.369812
    17  H    0.247989
    18  H    0.115227
    19  H    0.132393
    20  H    0.103698
    21  H    0.104793
 Sum of Mulliken charges =  -0.00000
 Mulliken charges with hydrogens summed into heavy atoms:
               1
     1  O   -0.472929
     2  N    0.306464
     3  O   -0.444677
     4  C    0.127538
     5  C    0.684226
     6  N   -0.241149
     7  N    0.130207
     9  N   -0.438391
    10  C    0.317863
    12  C    0.314153
    13  C    0.086507
    16  N   -0.369812
 Electronic spatial extent (au):  <R**2>=           2011.7609
 Charge=              0.0000 electrons
 Dipole moment (field-independent basis, Debye):
    X=             -6.3530    Y=             -0.0408    Z=              0.5370  Tot=              6.3758
 Quadrupole moment (field-independent basis, Debye-Ang):
   XX=            -61.2210   YY=            -70.7328   ZZ=            -66.5462
   XY=             12.8354   XZ=             -2.2479   YZ=             -0.1020
 Traceless Quadrupole moment (field-independent basis, Debye-Ang):
   XX=              4.9457   YY=             -4.5661   ZZ=             -0.3796
   XY=             12.8354   XZ=             -2.2479   YZ=             -0.1020
 Octapole moment (field-independent basis, Debye-Ang**2):
  XXX=            -60.0798  YYY=            -20.5403  ZZZ=              0.6045  XYY=            -31.7443
  XXY=              2.4815  XXZ=              5.6777  XZZ=             -2.1362  YZZ=             -6.7424
  YYZ=             -0.3615  XYZ=             -1.0887
 Hexadecapole moment (field-independent basis, Debye-Ang**3):
 XXXX=          -1375.5268 YYYY=           -978.3816 ZZZZ=            -69.3917 XXXY=             90.0023
 XXXZ=            -24.3980 YYYX=             63.8258 YYYZ=              0.7681 ZZZX=             -1.7114
 ZZZY=             -0.0467 XXYY=           -324.3121 XXZZ=           -233.3399 YYZZ=           -165.1612
 XXYZ=             -1.5683 YYXZ=             -4.0865 ZZXY=              0.3498
 N-N= 7.539262470246D+02 E-N=-2.955932291969D+03  KE= 6.175222246720D+02
 No NMR shielding tensors so no spin-rotation constants.
 Leave Link  601 at Fri Aug 20 15:45:17 2021, MaxMem= 24159191040 cpu:        11.0
 (Enter /public/home/users/caep010/software/Gaussian09/g09/l701.exe)
 Compute integral first derivatives.
 ... and contract with generalized density number  0.
 Leave Link  701 at Fri Aug 20 15:45:17 2021, MaxMem= 24159191040 cpu:        11.8
 (Enter /public/home/users/caep010/software/Gaussian09/g09/l702.exe)
 L702 exits ... SP integral derivatives will be done elsewhere.
 Leave Link  702 at Fri Aug 20 15:45:17 2021, MaxMem= 24159191040 cpu:         0.5
 (Enter /public/home/users/caep010/software/Gaussian09/g09/l703.exe)
 Compute integral first derivatives, UseDBF=F ICtDFT=           0.
 Integral derivatives from FoFJK, PRISM(SPDF).
 Calling FoFJK, ICntrl=      2127 FMM=F ISym2X=0 I1Cent= 0 IOpClX= 0 NMat=1 NMatS=1 NMatT=0.
 FoFJK:  IHMeth= 1 ICntrl=    2127 DoSepK=F KAlg= 0 I1Cent=   0 FoldK=F
 IRaf=         0 NMat=   1 IRICut=       1 DoRegI=T DoRafI=F ISym2E= 0.
 FoFCou: FMM=F IPFlag=           0 FMFlag=      100000 FMFlg1=         800
         NFxFlg=           0 DoJE=F BraDBF=F KetDBF=F FulRan=T
         wScrn=  0.000000 ICntrl=    2127 IOpCl=  0 I1Cent=           0 NGrid=           0
         NMat0=    1 NMatS0=      1 NMatT0=    0 NMatD0=    1 NMtDS0=    0 NMtDT0=    0
 Symmetry not used in FoFCou.
 Leave Link  703 at Fri Aug 20 15:45:18 2021, MaxMem= 24159191040 cpu:        30.4
 (Enter /public/home/users/caep010/software/Gaussian09/g09/l716.exe)
 Dipole        =-2.49946658D+00-1.60460166D-02 2.11261778D-01
 ***** Axes restored to original set *****
 -------------------------------------------------------------------
 Center     Atomic                   Forces (Hartrees/Bohr)
 Number     Number              X              Y              Z
 -------------------------------------------------------------------
      1        8          -0.004528463   -0.008428975   -0.009299406
      2        7           0.008771164    0.014199920   -0.010651072
      3        8          -0.000521142   -0.000757661    0.006980251
      4        6          -0.000059193    0.000478344    0.002479560
      5        6           0.002317118    0.005826041    0.018696949
      6        7          -0.078273740   -0.112706613    0.191183490
      7        7           0.047183078    0.121396449    0.236553724
      8        1           0.083586396    0.109901962   -0.204838305
      9        7           0.007659153    0.004802259    0.004654066
     10        6           0.023087118    0.214816419   -0.175662392
     11        1          -0.192294391    0.014202046   -0.027612048
     12        6          -0.004540875   -0.004386990    0.000029697
     13        6           0.030532512   -0.211084848   -0.001365273
     14        1          -0.077101889    0.240026764   -0.098448795
     15        1           0.129140493   -0.173895133   -0.047582839
     16        7          -0.004780850   -0.007185241    0.007954260
     17        1          -0.184631074    0.048150775   -0.198109124
     18        1          -0.021064321   -0.014843413    0.102980075
     19        1           0.073143205   -0.007275545   -0.001663637
     20        1           0.076804761   -0.044288447    0.333174530
     21        1           0.085570941   -0.188948114   -0.129453712
 -------------------------------------------------------------------
 Cartesian Forces:  Max     0.333174530 RMS     0.108744442
 Leave Link  716 at Fri Aug 20 15:45:18 2021, MaxMem= 24159191040 cpu:         0.7
 (Enter /public/home/users/caep010/software/Gaussian09/g09/l103.exe)

 GradGradGradGradGradGradGradGradGradGradGradGradGradGradGradGradGradGrad
 Berny optimization.
 FormGI is forming the generalized inverse of G from B-inverse, IUseBI=4.
 Internal  Forces:  Max     0.343960513 RMS     0.072079742
 Search for a local minimum.
 Step number   1 out of a maximum of  105
 All quantities printed in internal units (Hartrees-Bohrs-Radians)
 RMS Force = .72080D-01 SwitMx=.10000D-02 MixMth= 1
 Mixed Optimization -- RFO/linear search
 Second derivative matrix not updated -- first step.
 ITU=  0
     Eigenvalues ---    0.00995   0.01002   0.01280   0.01510   0.01599
     Eigenvalues ---    0.01882   0.01909   0.01948   0.01948   0.02099
     Eigenvalues ---    0.02156   0.02312   0.02555   0.06521   0.07003
     Eigenvalues ---    0.07285   0.07568   0.07812   0.15995   0.16000
     Eigenvalues ---    0.16000   0.16000   0.16000   0.16000   0.16000
     Eigenvalues ---    0.16000   0.16000   0.22001   0.24944   0.24983
     Eigenvalues ---    0.24992   0.24996   0.24999   0.24999   0.25000
     Eigenvalues ---    0.25000   0.34321   0.37895   0.39822   0.42076
     Eigenvalues ---    0.45429   0.46025   0.46432   0.48990   0.51700
     Eigenvalues ---    0.53185   0.58406   0.62224   0.66157   0.73303
     Eigenvalues ---    0.77051   0.82182   0.84521   0.86943   0.87652
     Eigenvalues ---    0.89149   0.91186
 RFO step:  Lambda=-4.08229621D-01 EMin= 9.94825152D-03
 Linear search not attempted -- first point.
 Maximum step size (   0.300) exceeded in Quadratic search.
    -- Step size scaled by   0.514
 Iteration  1 RMS(Cart)=  0.03329813 RMS(Int)=  0.00026006
 Iteration  2 RMS(Cart)=  0.00026876 RMS(Int)=  0.00000516
 Iteration  3 RMS(Cart)=  0.00000011 RMS(Int)=  0.00000516
 ITry= 1 IFail=0 DXMaxC= 1.56D-01 DCOld= 1.00D+10 DXMaxT= 3.00D-01 DXLimC= 3.00D+00 Rises=F
 Variable       Old X    -DE/DX   Delta X   Delta X   Delta X     New X
                                 (Linear)    (Quad)   (Total)
    R1        2.35566   0.01175   0.00000   0.00482   0.00482   2.36048
    R2        2.34375   0.00076   0.00000   0.00031   0.00031   2.34405
    R3        2.60899   0.01366   0.00000   0.00782   0.00782   2.61681
    R4        2.66434   0.00161   0.00000   0.00090   0.00090   2.66525
    R5        2.68132   0.00665   0.00000   0.00414   0.00414   2.68546
    R6        2.52225   0.02366   0.00000   0.01226   0.01226   2.53451
    R7        2.54050   0.00688   0.00000   0.00357   0.00357   2.54407
    R8        2.64780   0.00876   0.00000   0.00522   0.00522   2.65302
    R9        1.60734   0.24699   0.00000   0.09885   0.09885   1.70619
   R10        1.63460   0.22081   0.00000   0.09230   0.09230   1.72690
   R11        1.59091   0.27416   0.00000   0.10679   0.10679   1.69770
   R12        2.74518   0.00684   0.00000   0.00447   0.00447   2.74965
   R13        2.62815   0.00043   0.00000   0.00027   0.00027   2.62842
   R14        1.73077   0.19466   0.00000   0.09356   0.09356   1.82433
   R15        1.60028   0.34396   0.00000   0.13607   0.13607   1.73635
   R16        1.68442   0.24393   0.00000   0.10990   0.10990   1.79432
   R17        2.80091   0.00820   0.00000   0.00561   0.00561   2.80653
   R18        2.47399   0.00894   0.00000   0.00444   0.00443   2.47843
   R19        1.66246   0.27037   0.00000   0.11794   0.11794   1.78040
   R20        1.84887   0.10472   0.00000   0.05820   0.05820   1.90707
   R21        1.90347   0.07273   0.00000   0.04286   0.04286   1.94633
    A1        2.12055   0.01037   0.00000   0.00810   0.00810   2.12865
    A2        2.06392  -0.00433   0.00000  -0.00338  -0.00338   2.06053
    A3        2.09872  -0.00604   0.00000  -0.00471  -0.00472   2.09400
    A4        2.18447  -0.00369   0.00000  -0.00285  -0.00285   2.18162
    A5        2.23251   0.00646   0.00000   0.00507   0.00507   2.23758
    A6        1.86603  -0.00277   0.00000  -0.00222  -0.00222   1.86381
    A7        2.23150  -0.00820   0.00000  -0.00630  -0.00630   2.22520
    A8        1.83241   0.00181   0.00000   0.00121   0.00121   1.83362
    A9        2.21917   0.00640   0.00000   0.00510   0.00510   2.22427
   A10        2.12245   0.00441   0.00000   0.00360   0.00360   2.12605
   A11        2.02640   0.00118   0.00000   0.00126   0.00126   2.02765
   A12        2.13381  -0.00561   0.00000  -0.00489  -0.00489   2.12892
   A13        1.93431  -0.00938   0.00000  -0.00769  -0.00768   1.92663
   A14        1.84874   0.00856   0.00000   0.00866   0.00867   1.85740
   A15        1.79058   0.01521   0.00000   0.01584   0.01584   1.80642
   A16        2.28656   0.00050   0.00000   0.00044   0.00044   2.28700
   A17        1.95076   0.00166   0.00000   0.00121   0.00121   1.95197
   A18        2.04389  -0.00212   0.00000  -0.00161  -0.00161   2.04228
   A19        1.91891   0.00454   0.00000   0.00358   0.00357   1.92248
   A20        1.89550  -0.01053   0.00000  -0.00951  -0.00952   1.88597
   A21        1.93973  -0.00842   0.00000  -0.00714  -0.00714   1.93259
   A22        2.01679  -0.00425   0.00000  -0.00477  -0.00479   2.01201
   A23        1.91321   0.00113   0.00000   0.00097   0.00097   1.91419
   A24        1.77574   0.01757   0.00000   0.01707   0.01707   1.79281
   A25        2.25962  -0.00309   0.00000  -0.00249  -0.00249   2.25713
   A26        1.90760   0.00237   0.00000   0.00201   0.00201   1.90961
   A27        2.11594   0.00072   0.00000   0.00048   0.00048   2.11643
   A28        1.95143  -0.00844   0.00000  -0.00700  -0.00700   1.94443
   A29        1.94667  -0.00639   0.00000  -0.00600  -0.00602   1.94065
   A30        1.92895   0.00128   0.00000   0.00073   0.00071   1.92966
   A31        1.80668   0.01365   0.00000   0.01319   0.01318   1.81986
   A32        1.81378   0.00658   0.00000   0.00640   0.00641   1.82019
   A33        2.00872  -0.00550   0.00000  -0.00605  -0.00608   2.00264
   A34        1.86796  -0.00308   0.00000  -0.00221  -0.00221   1.86576
    D1        0.02136  -0.00087   0.00000  -0.00104  -0.00104   0.02032
    D2       -3.09747  -0.00106   0.00000  -0.00128  -0.00128  -3.09875
    D3       -3.12164  -0.00000   0.00000   0.00000   0.00000  -3.12163
    D4        0.04272  -0.00020   0.00000  -0.00024  -0.00024   0.04248
    D5        0.02810  -0.00086   0.00000  -0.00098  -0.00098   0.02712
    D6       -3.12810  -0.00024   0.00000  -0.00026  -0.00026  -3.12836
    D7       -3.13227  -0.00059   0.00000  -0.00069  -0.00069  -3.13296
    D8       -0.00528   0.00003   0.00000   0.00003   0.00003  -0.00526
    D9       -0.00837  -0.00004   0.00000  -0.00002  -0.00002  -0.00839
   D10        3.12524   0.00017   0.00000   0.00024   0.00024   3.12548
   D11       -3.13050  -0.00017   0.00000  -0.00021  -0.00021  -3.13071
   D12        0.00310   0.00004   0.00000   0.00006   0.00006   0.00316
   D13       -3.08652   0.00020   0.00000   0.00024   0.00024  -3.08628
   D14        0.02077  -0.00060   0.00000  -0.00071  -0.00071   0.02006
   D15        0.07277  -0.00047   0.00000  -0.00057  -0.00057   0.07220
   D16       -3.10312  -0.00128   0.00000  -0.00152  -0.00152  -3.10464
   D17       -3.06492  -0.00062   0.00000  -0.00078  -0.00079  -3.06571
   D18        0.00575  -0.00007   0.00000  -0.00008  -0.00008   0.00566
   D19        0.06220  -0.00016   0.00000  -0.00020  -0.00020   0.06201
   D20        3.13287   0.00038   0.00000   0.00051   0.00051   3.13338
   D21       -1.92860   0.00711   0.00000   0.00747   0.00747  -1.92113
   D22        2.42503  -0.01073   0.00000  -0.01190  -0.01190   2.41313
   D23        1.24942   0.00782   0.00000   0.00835   0.00834   1.25776
   D24       -0.68014  -0.01002   0.00000  -0.01103  -0.01102  -0.69116
   D25       -1.30619  -0.00231   0.00000  -0.00239  -0.00238  -1.30857
   D26        2.75475   0.00743   0.00000   0.00796   0.00796   2.76271
   D27        0.81529  -0.00340   0.00000  -0.00349  -0.00349   0.81180
   D28        1.90941  -0.00301   0.00000  -0.00322  -0.00322   1.90619
   D29       -0.31284   0.00673   0.00000   0.00713   0.00713  -0.30571
   D30       -2.25230  -0.00409   0.00000  -0.00432  -0.00432  -2.25662
   D31       -0.00397   0.00012   0.00000   0.00013   0.00013  -0.00383
   D32        3.07752   0.00067   0.00000   0.00080   0.00080   3.07832
   D33        0.88451  -0.00089   0.00000  -0.00088  -0.00088   0.88363
   D34        2.89816   0.00681   0.00000   0.00738   0.00737   2.90553
   D35       -1.12689  -0.00472   0.00000  -0.00501  -0.00500  -1.13189
   D36       -2.24827  -0.00112   0.00000  -0.00118  -0.00118  -2.24945
   D37       -0.23461   0.00657   0.00000   0.00708   0.00707  -0.22754
   D38        2.02352  -0.00495   0.00000  -0.00531  -0.00530   2.01822
   D39        0.00035  -0.00009   0.00000  -0.00011  -0.00011   0.00024
   D40        3.13474   0.00008   0.00000   0.00011   0.00011   3.13485
         Item               Value     Threshold  Converged?
 Maximum Force            0.343961     0.000450     NO 
 RMS     Force            0.072080     0.000300     NO 
 Maximum Displacement     0.155919     0.001800     NO 
 RMS     Displacement     0.033303     0.001200     NO 
 Predicted change in Energy=-1.744541D-01
 Lowest energy point so far.  Saving SCF results.
 GradGradGradGradGradGradGradGradGradGradGradGradGradGradGradGradGradGrad

 Leave Link  103 at Fri Aug 20 15:45:18 2021, MaxMem= 24159191040 cpu:         4.0
 (Enter /public/home/users/caep010/software/Gaussian09/g09/l202.exe)
                          Input orientation:                          
 ---------------------------------------------------------------------
 Center     Atomic      Atomic             Coordinates (Angstroms)
 Number     Number       Type             X           Y           Z
 ---------------------------------------------------------------------
      1          8           0        1.784559   12.524775    7.213277
      2          7           0        2.009559   12.845237    8.399431
      3          8           0        2.672700   13.851488    8.693273
      4          6           0        1.493826   12.039770    9.400824
      5          6           0        0.747081   10.862401    9.187821
      6          7           0        0.428497   10.299037    8.013106
      7          7           0       -0.380638    9.154297    7.936554
      8          1           0        0.740550   10.714277    7.274602
      9          7           0        0.438248   10.416377   10.419936
     10          6           0       -0.243247    9.206632   10.854969
     11          1           0       -1.191381    9.281151   10.689218
     12          6           0        1.575728   12.225057   10.807395
     13          6           0        2.234790   13.311008   11.576822
     14          1           0        1.973037   14.160805   11.265418
     15          1           0        0.113306    8.432426    7.671947
     16          7           0        0.941574   11.249881   11.413184
     17          1           0       -0.943525    9.286666    7.249001
     18          1           0        1.945596   13.300416   12.543618
     19          1           0        3.254230   13.289947   11.431552
     20          1           0       -0.009102    9.046422   11.728909
     21          1           0        0.101413    8.445831   10.403342
 ---------------------------------------------------------------------
                    Distance matrix (angstroms):
                    1          2          3          4          5
     1  O    0.000000
     2  N    1.249113   0.000000
     3  O    2.177005   1.240420   0.000000
     4  C    2.259451   1.384755   2.274356   0.000000
     5  C    2.781846   2.479323   3.589878   1.410388   0.000000
     6  N    2.726268   3.021942   4.256640   2.467962   1.341205
     7  N    4.070789   4.421575   5.653238   3.739472   2.398966
     8  H    2.090841   2.723346   3.948154   2.616329   1.918955
     9  N    4.067008   3.528571   4.446811   2.188204   1.346262
    10  C    5.327662   4.933989   5.894944   3.627482   2.549844
    11  H    5.608875   5.309599   6.308954   4.059590   2.917564
    12  C    3.612634   2.524108   2.884117   1.421084   2.272995
    13  C    4.456613   3.219237   2.966267   2.626793   3.730453
    14  H    4.374010   3.153717   2.683493   2.864462   4.086421
    15  H    4.444186   4.857768   6.079461   4.231759   2.933313
    16  N    4.469362   3.573299   4.142834   2.231255   2.267203
    17  H    4.234273   4.765251   6.000051   4.260352   3.016640
    18  H    5.388886   4.169601   3.956958   3.416208   4.317607
    19  H    4.532027   3.307677   2.855114   2.964088   4.148867
    20  H    5.975541   5.439798   6.284569   4.079081   3.213522
    21  H    5.444931   5.197254   6.225511   3.982493   2.781041
                    6          7          8          9         10
     6  N    0.000000
     7  N    1.403919   0.000000
     8  H    0.902878   2.031940   0.000000
     9  N    2.409708   2.903550   3.173839   0.000000
    10  C    3.117815   2.922115   4.007477   1.455051   0.000000
    11  H    3.289631   2.872378   4.176818   2.004231   0.965393
    12  C    3.582421   4.636665   3.931997   2.171476   3.524461
    13  C    5.003472   6.113121   5.242600   3.597893   4.848468
    14  H    5.279809   6.456488   5.415181   4.134145   5.442813
    15  H    1.923532   0.913836   2.399618   3.404863   3.295171
    16  N    3.567616   4.269270   4.177935   1.390902   2.426988
    17  H    1.868474   0.898383   2.207904   3.638732   3.674207
    18  H    5.642287   6.620174   5.991893   3.885847   4.939802
    19  H    5.349400   6.521570   5.498444   4.148557   5.407241
    20  H    3.945596   3.812037   4.815035   1.946872   0.918838
    21  H    3.042135   2.611386   3.917060   1.999197   0.949513
                   11         12         13         14         15
    11  H    0.000000
    12  C    4.041960   0.000000
    13  C    5.363416   1.485150   0.000000
    14  H    5.844362   2.028487   0.942147   0.000000
    15  H    3.395065   5.133592   6.599190   7.013270   0.000000
    16  N    2.991575   1.311527   2.438736   3.091801   4.756147
    17  H    3.449138   5.257656   6.710219   6.956663   1.423201
    18  H    5.425303   2.075493   1.009178   1.541044   7.126556
    19  H    6.031995   2.083490   1.029954   1.558027   6.898952
    20  H    1.591803   3.669414   4.821294   5.504599   4.104986
    21  H    1.565503   4.076692   5.440432   6.075120   2.731453
                   16         17         18         19         20
    16  N    0.000000
    17  H    4.974759   0.000000
    18  H    2.547673   7.245011   0.000000
    19  H    3.083924   7.151303   1.717360   0.000000
    20  H    2.420475   4.582623   4.751954   5.361461   0.000000
    21  H    3.096506   3.427647   5.616831   5.870514   1.459469
                   21
    21  H    0.000000
 Stoichiometry    C5H9N5O2
 Framework group  C1[X(C5H9N5O2)]
 Deg. of freedom    57
 Full point group                 C1      NOp   1
 RotChk:  IX=0 Diff= 5.38D-03
 Largest Abelian subgroup         C1      NOp   1
 Largest concise Abelian subgroup C1      NOp   1
                         Standard orientation:                         
 ---------------------------------------------------------------------
 Center     Atomic      Atomic             Coordinates (Angstroms)
 Number     Number       Type             X           Y           Z
 ---------------------------------------------------------------------
      1          8           0        1.069289   -2.349457   -0.018082
      2          7           0        1.559210   -1.200812    0.011519
      3          8           0        2.784473   -1.010166    0.043538
      4          6           0        0.691000   -0.122044    0.007391
      5          6           0       -0.716188   -0.216254   -0.004409
      6          7           0       -1.459872   -1.332220    0.015254
      7          7           0       -2.860799   -1.289527   -0.065788
      8          1           0       -1.006756   -2.112153    0.054995
      9          7           0       -1.151881    1.057440   -0.021650
     10          6           0       -2.497242    1.607819    0.043606
     11          1           0       -2.947862    1.485697   -0.801387
     12          6           0        1.009849    1.262681   -0.011307
     13          6           0        2.340598    1.921978   -0.021591
     14          1           0        2.894976    1.567135   -0.695677
     15          1           0       -3.233373   -1.529103    0.733517
     16          7           0       -0.097750    1.964834   -0.028853
     17          1           0       -3.103638   -1.955051   -0.618237
     18          1           0        2.261043    2.900677   -0.254528
     19          1           0        2.847688    1.726946    0.853410
     20          1           0       -2.435410    2.477630    0.333205
     21          1           0       -2.997224    1.192122    0.735551
 ---------------------------------------------------------------------
 Rotational constants (GHZ):      1.3484741      0.8782283      0.5359869
 Leave Link  202 at Fri Aug 20 15:45:18 2021, MaxMem= 24159191040 cpu:         0.3
 (Enter /public/home/users/caep010/software/Gaussian09/g09/l301.exe)
 Standard basis: 6-31G(d,p) (6D, 7F)
 Ernie: Thresh=  0.10000D-02 Tol=  0.10000D-05 Strict=F.
 There are   225 symmetry adapted cartesian basis functions of A   symmetry.
 There are   225 symmetry adapted basis functions of A   symmetry.
   225 basis functions,   399 primitive gaussians,   225 cartesian basis functions
    45 alpha electrons       45 beta electrons
       nuclear repulsion energy       749.9903285625 Hartrees.
 IExCor=  402 DFT=T Ex+Corr=B3LYP ExCW=0 ScaHFX=  0.200000
 ScaDFX=  0.800000  0.720000  1.000000  0.810000 ScalE2=  1.000000  1.000000
 IRadAn=      0 IRanWt=     -1 IRanGd=            0 ICorTp=0 IEmpDi=  4
 NAtoms=   21 NActive=   21 NUniq=   21 SFac= 1.00D+00 NAtFMM=   60 NAOKFM=F Big=F
 Integral buffers will be    131072 words long.
 Raffenetti 2 integral format.
 Two-electron integral symmetry is turned on.
 Leave Link  301 at Fri Aug 20 15:45:19 2021, MaxMem= 24159191040 cpu:         1.5
 (Enter /public/home/users/caep010/software/Gaussian09/g09/l302.exe)
 NPDir=0 NMtPBC=     1 NCelOv=     1 NCel=       1 NClECP=     1 NCelD=      1
         NCelK=      1 NCelE2=     1 NClLst=     1 CellRange=     0.0.
 One-electron integrals computed using PRISM.
 NBasis=   225 RedAO= T EigKep=  6.30D-04  NBF=   225
 NBsUse=   225 1.00D-06 EigRej= -1.00D+00 NBFU=   225
 Precomputing XC quadrature grid using
 IXCGrd= 4 IRadAn=           0 IRanWt=          -1 IRanGd=           0 AccXCQ= 0.00D+00.
 Generated NRdTot=       0 NPtTot=           0 NUsed=           0 NTot=          32
 NSgBfM=   224   224   224   224   224 MxSgAt=    21 MxSgA2=    21.
 Leave Link  302 at Fri Aug 20 15:45:19 2021, MaxMem= 24159191040 cpu:        12.0
 (Enter /public/home/users/caep010/software/Gaussian09/g09/l303.exe)
 DipDrv:  MaxL=1.
 Leave Link  303 at Fri Aug 20 15:45:19 2021, MaxMem= 24159191040 cpu:         0.8
 (Enter /public/home/users/caep010/software/Gaussian09/g09/l401.exe)
 Initial guess from the checkpoint file:  "/public/home/users/caep010/.cache/gau_scr/Gau-149302.chk"
 B after Tr=     0.000000   -0.000000   -0.000000
         Rot=    0.999997    0.000138    0.000017    0.002238 Ang=   0.26 deg.
 Guess basis will be translated and rotated to current coordinates.
 JPrj=2 DoOrth=T DoCkMO=T.
 Generating alternative initial guess.
 ExpMin= 1.61D-01 ExpMax= 5.48D+03 ExpMxC= 8.25D+02 IAcc=1 IRadAn=         1 AccDes= 0.00D+00
 Harris functional with IExCor=  402 and IRadAn=       1 diagonalized for initial guess.
 HarFok:  IExCor=  402 AccDes= 0.00D+00 IRadAn=         1 IDoV= 1 UseB2=F ITyADJ=14
 ICtDFT=  3500011 ScaDFX=  1.000000  1.000000  1.000000  1.000000
 FoFCou: FMM=F IPFlag=           0 FMFlag=      100000 FMFlg1=           0
         NFxFlg=           0 DoJE=T BraDBF=F KetDBF=T FulRan=T
         wScrn=  0.000000 ICntrl=     500 IOpCl=  0 I1Cent=   200000004 NGrid=           0
         NMat0=    1 NMatS0=      1 NMatT0=    0 NMatD0=    1 NMtDS0=    0 NMtDT0=    0
 Petite list used in FoFCou.
 Harris En= -619.973190978910    
 Leave Link  401 at Fri Aug 20 15:45:20 2021, MaxMem= 24159191040 cpu:        26.2
 (Enter /public/home/users/caep010/software/Gaussian09/g09/l502.exe)
 Closed shell SCF:
 Using DIIS extrapolation, IDIIS=  1040.
 Integral symmetry usage will be decided dynamically.
 Keep R1 ints in memory in canonical form, NReq=329178817.
 IVT=      179317 IEndB=      179317 NGot= 24159191040 MDV= 23835783699
 LenX= 23835783699 LenY= 23835732633
 Requested convergence on RMS density matrix=1.00D-08 within 128 cycles.
 Requested convergence on MAX density matrix=1.00D-06.
 Requested convergence on             energy=1.00D-06.
 No special actions if energy rises.
 FoFCou: FMM=F IPFlag=           0 FMFlag=           0 FMFlg1=           0
         NFxFlg=           0 DoJE=F BraDBF=F KetDBF=F FulRan=T
         wScrn=  0.000000 ICntrl=     600 IOpCl=  0 I1Cent=           0 NGrid=           0
         NMat0=    1 NMatS0=  25425 NMatT0=    0 NMatD0=    1 NMtDS0=    0 NMtDT0=    0
 Symmetry not used in FoFCou.
 Integral accuracy reduced to 1.0D-05 until final iterations.

 Cycle   1  Pass 0  IDiag  1:
 E= -619.892111293431    
 DIIS: error= 4.33D-03 at cycle   1 NSaved=   1.
 NSaved= 1 IEnMin= 1 EnMin= -619.892111293431     IErMin= 1 ErrMin= 4.33D-03
 ErrMax= 4.33D-03  0.00D+00 EMaxC= 1.00D-01 BMatC= 5.59D-03 BMatP= 5.59D-03
 IDIUse=3 WtCom= 9.57D-01 WtEn= 4.33D-02
 Coeff-Com:  0.100D+01
 Coeff-En:   0.100D+01
 Coeff:      0.100D+01
 Gap=     1.822 Goal=   None    Shift=    0.000
 GapD=    1.822 DampG=2.000 DampE=1.000 DampFc=2.0000 IDamp=-1.
 RMSDP=5.51D-04 MaxDP=1.93D-02              OVMax= 1.81D-02

 Cycle   2  Pass 0  IDiag  1:
 E= -619.896229301662     Delta-E=       -0.004118008231 Rises=F Damp=F
 DIIS: error= 3.07D-03 at cycle   2 NSaved=   2.
 NSaved= 2 IEnMin= 2 EnMin= -619.896229301662     IErMin= 2 ErrMin= 3.07D-03
 ErrMax= 3.07D-03  0.00D+00 EMaxC= 1.00D-01 BMatC= 2.00D-03 BMatP= 5.59D-03
 IDIUse=3 WtCom= 9.69D-01 WtEn= 3.07D-02
 Coeff-Com:  0.337D+00 0.663D+00
 Coeff-En:   0.000D+00 0.100D+01
 Coeff:      0.326D+00 0.674D+00
 Gap=     0.168 Goal=   None    Shift=    0.000
 RMSDP=2.61D-04 MaxDP=1.02D-02 DE=-4.12D-03 OVMax= 1.52D-02

 Cycle   3  Pass 0  IDiag  1:
 E= -619.897570743094     Delta-E=       -0.001341441432 Rises=F Damp=F
 DIIS: error= 1.39D-03 at cycle   3 NSaved=   3.
 NSaved= 3 IEnMin= 3 EnMin= -619.897570743094     IErMin= 3 ErrMin= 1.39D-03
 ErrMax= 1.39D-03  0.00D+00 EMaxC= 1.00D-01 BMatC= 5.69D-04 BMatP= 2.00D-03
 IDIUse=3 WtCom= 9.86D-01 WtEn= 1.39D-02
 Coeff-Com:  0.456D-01 0.347D+00 0.607D+00
 Coeff-En:   0.000D+00 0.191D+00 0.809D+00
 Coeff:      0.450D-01 0.345D+00 0.610D+00
 Gap=     0.167 Goal=   None    Shift=    0.000
 RMSDP=1.25D-04 MaxDP=5.14D-03 DE=-1.34D-03 OVMax= 8.90D-03

 Cycle   4  Pass 0  IDiag  1:
 E= -619.897976742261     Delta-E=       -0.000405999167 Rises=F Damp=F
 DIIS: error= 6.25D-04 at cycle   4 NSaved=   4.
 NSaved= 4 IEnMin= 4 EnMin= -619.897976742261     IErMin= 4 ErrMin= 6.25D-04
 ErrMax= 6.25D-04  0.00D+00 EMaxC= 1.00D-01 BMatC= 9.38D-05 BMatP= 5.69D-04
 IDIUse=3 WtCom= 9.94D-01 WtEn= 6.25D-03
 Coeff-Com:  0.875D-02 0.175D+00 0.379D+00 0.437D+00
 Coeff-En:   0.000D+00 0.000D+00 0.710D-01 0.929D+00
 Coeff:      0.869D-02 0.174D+00 0.377D+00 0.440D+00
 Gap=     0.166 Goal=   None    Shift=    0.000
 RMSDP=4.92D-05 MaxDP=1.83D-03 DE=-4.06D-04 OVMax= 3.53D-03

 Cycle   5  Pass 0  IDiag  1:
 E= -619.898045690726     Delta-E=       -0.000068948465 Rises=F Damp=F
 DIIS: error= 3.45D-04 at cycle   5 NSaved=   5.
 NSaved= 5 IEnMin= 5 EnMin= -619.898045690726     IErMin= 5 ErrMin= 3.45D-04
 ErrMax= 3.45D-04  0.00D+00 EMaxC= 1.00D-01 BMatC= 1.30D-05 BMatP= 9.38D-05
 IDIUse=3 WtCom= 9.97D-01 WtEn= 3.45D-03
 Coeff-Com:  0.248D-03 0.743D-01 0.175D+00 0.297D+00 0.453D+00
 Coeff-En:   0.000D+00 0.000D+00 0.000D+00 0.116D+00 0.884D+00
 Coeff:      0.247D-03 0.741D-01 0.175D+00 0.297D+00 0.454D+00
[...]
 ,0.00216986,-0.00135230,-0.00516308,0.00121383,-0.00061433,0.00224623,
 -0.00127944,-0.00006608,-0.00001122,-0.06818815,-0.17706386,0.02375940
 ,-0.03120982,0.51602419,-0.00012335,-0.00002114,0.00051726,0.00149618,
 0.00091097,-0.00013227,-0.00013076,0.00028191,-0.00012404,0.00009202,-
 0.00213839,-0.00593355,0.01404097,0.02716918,-0.00508165,-0.00119799,0
 .00164326,0.00267449,0.00030270,0.00076042,-0.00578031,0.00053032,0.00
 007132,0.00008929,0.02224472,0.03235128,-0.11433721,0.02389439,0.04787
 046,0.60911781,0.00000338,0.00002610,0.00030765,0.00029707,0.00007739,
 -0.00057089,-0.00012920,-0.00007189,0.00015071,-0.00036772,-0.00097975
 ,-0.00035402,0.00051856,0.00025667,-0.00355447,-0.00098022,0.00068629,
 0.00076867,0.00065569,0.00012491,-0.00212228,0.00031764,-0.00008040,0.
 00003249,-0.01120985,-0.01039606,0.00109038,-0.29934199,0.00599808,-0.
 07428663,0.32335244,-0.00007644,-0.00005312,0.00027133,0.00054683,0.00
 014023,-0.00052340,-0.00024236,-0.00019423,0.00009890,-0.00016558,-0.0
 0129699,-0.00027222,-0.00017553,0.00119150,-0.00336847,-0.00064221,0.0
 0073140,0.00141241,0.00025312,-0.00078438,0.00021999,0.00011068,0.0000
 2528,-0.00005996,-0.03381896,-0.00851608,-0.00621008,0.01030611,-0.048
 45523,0.00272293,0.00127072,0.05761109,-0.00002020,-0.00014992,-0.0001
 3841,-0.00029906,0.00027503,0.00028963,0.00007280,-0.00005018,-0.00007
 900,-0.00015098,0.00045273,0.00022014,0.00054386,0.00058883,0.00207458
 ,0.00054442,-0.00098339,-0.00027380,-0.00031716,0.00076434,-0.00109114
 ,-0.00003250,-0.00020390,-0.00020668,0.01308323,0.00333246,0.00240003,
 -0.07911644,0.00055127,-0.07141091,0.08161497,-0.00384858,0.07033781,0
 .00402341,-0.00479874,0.00177473,-0.00891081,0.00793952,0.01580379,0.0
 0005890,0.00080824,-0.00075152,-0.06844947,-0.01877919,-0.01191297,0.0
 0914081,-0.00521737,-0.01326381,-0.00157384,-0.00041464,0.00437170,0.0
 0133315,-0.00192058,0.00005847,-0.00045058,0.00107977,0.00012831,-0.01
 929440,-0.04639600,-0.00259159,0.00254569,-0.00116014,-0.00287457,-0.0
 0049868,-0.00032558,0.00061927,0.32851869,-0.00449523,-0.00075702,0.00
 420850,0.00864857,0.00881102,0.02312186,-0.00059229,-0.00145951,-0.001
 61092,-0.01725688,-0.10731334,-0.05928495,-0.00568005,-0.01114578,-0.0
 2828053,-0.00597417,0.00270183,0.00916253,0.00037654,-0.00232633,-0.00
 122698,0.00050713,0.00006620,0.00031016,-0.04808781,-0.07538603,-0.006
 95957,-0.00125397,-0.00031812,-0.00525483,-0.00080154,-0.00152293,0.00
 049495,0.26301806,0.64734319,0.00063498,0.00242761,0.01235656,0.014505
 73,0.02142018,-0.03564738,-0.00572540,-0.01127245,-0.00119117,-0.00796
 573,-0.04986073,-0.24637290,-0.03312002,-0.05470628,0.00049034,0.00289
 639,-0.00472336,-0.01041801,-0.00020331,0.00202728,-0.00073245,-0.0020
 8557,-0.00283337,0.00026146,-0.00155969,-0.01379475,-0.01552487,-0.001
 17733,-0.00303077,-0.00363750,0.00064875,0.00020890,-0.00008811,-0.023
 31817,0.05081402,0.62785295,0.00030665,-0.00033600,0.00007024,-0.00132
 836,0.00043850,-0.00014168,-0.00111944,0.00043616,0.00108765,0.0041325
 1,0.00247845,-0.00208013,0.00094517,-0.00142002,0.00279768,0.00068850,
 0.00013133,-0.00081162,0.00024630,0.00013992,0.00027488,-0.00009514,0.
 00003770,-0.00005928,0.00640089,-0.00575111,0.00086155,0.00201017,-0.0
 0103940,-0.00051404,0.00018232,0.00037779,-0.00015230,-0.09314066,-0.0
 4714488,-0.02430060,0.54809458,-0.00051767,-0.00034334,-0.00042040,0.0
 0036572,-0.00068924,0.00052166,0.00041229,-0.00065041,0.00115134,0.001
 01012,0.00288674,-0.00606356,-0.00210159,-0.00061740,0.00253217,0.0001
 9443,0.00069544,0.00000602,-0.00009166,0.00016061,0.00005063,0.0001946
 5,0.00000973,-0.00010131,-0.00491306,0.00081872,-0.00049862,-0.0008538
 5,0.00086279,-0.00054988,-0.00015158,-0.00032162,0.00010295,-0.0483474
 0,-0.16456834,-0.05557851,-0.00719736,0.52957001,0.00004857,-0.0003760
 6,-0.00081821,-0.00003883,0.00046768,0.00119084,-0.00002347,-0.0004471
 9,-0.00401991,-0.01180098,-0.02312297,-0.00837667,0.00276232,0.0027796
 5,-0.00745752,-0.00100522,-0.00073632,0.00112845,0.00008697,-0.0004821
 5,-0.00010481,0.00005216,0.00022856,0.00014629,0.00385509,0.00580556,0
 .00290617,0.00020001,0.00008506,0.00128825,0.00016099,0.00026976,-0.00
 010084,-0.02956310,-0.06569925,-0.13462657,-0.02315155,-0.03655701,0.5
 7175860,-0.00030593,-0.00039828,-0.00037116,0.00105300,0.00117749,-0.0
 0020930,-0.00045713,-0.00099464,-0.00066408,0.00022971,0.00040806,0.00
 040312,-0.00022470,-0.00006666,0.00033210,0.00004328,-0.00007883,-0.00
 006464,-0.00002736,0.00003153,0.00000350,0.00003053,0.00003620,-0.0000
 1633,-0.00147748,-0.00031397,-0.00052375,-0.00017832,0.00014506,-0.000
 15697,-0.00005002,-0.00009910,0.00002331,0.00568516,-0.01464976,0.0057
 2492,-0.08932299,0.09643580,-0.03498461,0.09646955,0.00042631,0.000455
 50,0.00028776,-0.00064489,-0.00226343,-0.00034743,-0.00018129,0.001652
 55,0.00096727,-0.00035835,0.00153641,0.00042542,-0.00107738,-0.0013345
 0,0.00113904,0.00006314,0.00008526,-0.00021436,-0.00000743,0.00003772,
 -0.00006695,-0.00006085,-0.00013065,-0.00000953,-0.00171698,-0.0010449
 2,-0.00212941,-0.00027491,0.00033526,-0.00033021,-0.00009354,-0.000173
 79,0.00006139,0.00706680,-0.02331884,0.00767783,0.09681377,-0.24309319
 ,0.07172217,-0.10181472,0.26653521,0.00021754,0.00058178,0.00008581,-0
 .00149356,-0.00333955,0.00013802,0.00064371,0.00190208,0.00027350,0.00
 082953,0.00104157,-0.00153882,-0.00094673,-0.00093696,0.00098671,-0.00
 002741,0.00019376,-0.00005002,-0.00000647,0.00000489,-0.00004999,-0.00
 003195,-0.00008188,-0.00000385,-0.00087798,-0.00093576,-0.00156694,-0.
 00018892,0.00024572,-0.00019525,-0.00007019,-0.00009899,0.00005180,0.0
 0874673,-0.01509720,0.00761656,-0.03600711,0.07146383,-0.07399698,0.04
 021613,-0.07699277,0.07464948,-0.00029248,-0.00019493,0.00023275,0.000
 16834,0.00030201,-0.00020360,-0.00000112,-0.00020663,0.00007000,-0.000
 17796,0.00016564,-0.00161250,-0.00397296,-0.00626835,0.00196218,-0.005
 69795,-0.03835537,-0.02549712,-0.07488739,0.09759057,0.03889087,0.0004
 3742,-0.00182014,-0.00049380,0.00016059,0.00018533,-0.00010051,-0.0001
 0069,-0.00019075,0.00000090,0.00008812,0.00021215,-0.00005064,-0.00037
 384,-0.00044407,0.00014835,0.00004000,0.00007519,-0.00015457,-0.000003
 37,-0.00000154,0.00000618,0.08854653,-0.00004197,0.00014063,0.00023919
 ,-0.00008382,-0.00016796,-0.00022368,0.00014324,0.00014989,0.00013232,
 0.00008199,0.00033062,-0.00064685,-0.00174886,-0.00218802,0.00206663,-
 0.00682349,-0.01267009,-0.01386400,0.07202344,-0.28898169,-0.15368309,
 0.00098720,-0.00201253,-0.00051362,0.00010311,0.00006431,-0.00005844,-
 0.00024843,0.00026557,-0.00012871,0.00007877,0.00008735,-0.00004843,-0
 .00026762,-0.00028557,0.00018153,0.00001330,0.00003650,-0.00005453,0.0
 0000788,0.00000405,0.00000036,-0.07145940,0.32271912,0.00004002,-0.000
 16748,-0.00026086,0.00004351,0.00015495,0.00027368,-0.00011599,-0.0001
 0035,-0.00003489,0.00014846,0.00043179,-0.00089390,-0.00131149,-0.0033
 4050,0.00066266,0.00405198,0.00440918,-0.00556975,0.03447383,-0.206794
 49,-0.13824327,0.00009456,0.00229354,0.00084719,-0.00009664,0.00005606
 ,0.00080211,0.00043052,-0.00112783,0.00019840,-0.00007761,-0.00012529,
 -0.00017455,-0.00005415,-0.00022195,0.00012303,0.00008352,0.00002818,-
 0.00007396,-0.00000745,-0.00000899,-0.00000158,-0.03171257,0.18040371,
 0.13737238,-0.00208071,0.00214040,0.00385908,0.01161014,0.00250160,-0.
 00601279,-0.00164925,-0.00276109,0.00000222,0.00504705,-0.01577201,0.0
 4339027,0.00341802,-0.00324174,-0.00466296,0.00455141,-0.00802116,-0.0
 0262505,-0.00074225,0.00209230,-0.00053385,0.00046734,-0.00210457,0.00
 116419,-0.06578791,-0.04339609,-0.03261606,-0.01319773,-0.01054329,-0.
 00992905,-0.00101261,-0.00267340,0.00018122,-0.15003574,-0.12490854,0.
 08969294,-0.01204379,-0.01120594,0.00189120,0.00042417,0.00207652,0.00
 059868,0.00009587,0.00018153,-0.00002335,0.22110849,0.00168242,0.00134
 908,0.00682163,0.00284235,0.01153116,-0.01447278,-0.00272491,-0.004902
 46,0.00036179,-0.02427096,-0.00550302,0.06057248,-0.00501424,0.0037056
 7,-0.01749052,0.00030185,-0.01165989,-0.01189246,-0.00109028,0.0029467
 0,-0.00087947,-0.00279699,-0.00138549,0.00113066,-0.03112472,-0.133313
 68,-0.07769479,-0.00848779,-0.02948913,-0.01686942,0.00168669,0.000535
 22,-0.00162145,-0.12878412,-0.26658548,0.13518719,-0.01317625,-0.02649
 450,0.00690302,-0.00149343,-0.00036308,0.00037046,0.00003560,0.0001724
 3,0.00007622,0.21320444,0.45699250,0.00135047,0.00182610,-0.00470212,-
 0.00341615,-0.00980968,-0.00562107,0.00020977,0.00124996,0.00035302,0.
 01416004,0.01238177,-0.05394022,0.00874498,0.00090583,-0.07606067,0.00
 496191,-0.00305509,-0.00561111,-0.00110607,0.00169601,0.00124109,-0.00
 028588,-0.00068594,-0.00072938,-0.00090805,-0.02518743,-0.16012444,-0.
 00165637,0.00239351,0.01507133,0.00150435,0.00190591,-0.00064583,0.067
 20112,0.09331569,-0.18608778,-0.00741204,-0.00968617,0.01418944,-0.000
 92069,-0.00213506,-0.00035125,-0.00014436,0.00027913,-0.00051620,-0.08
 214490,-0.06865844,0.46278750,0.00055590,0.00084406,0.00138579,0.00063
 644,0.00069563,-0.00254123,-0.00028920,-0.00027057,0.00035423,-0.00091
 173,-0.00146371,0.00088586,-0.00183740,0.00383932,0.00371616,-0.033367
 64,0.00063054,-0.02301200,-0.18239854,0.12311538,-0.11327928,0.0004565
 2,0.00062218,0.00024916,0.00048138,0.00055313,0.00052119,-0.00004949,-
 0.00050855,0.00036686,0.00024933,-0.00004626,-0.00012077,0.00066667,0.
 00052577,-0.00090070,0.00004531,0.00000033,0.00004212,-0.00000868,-0.0
 0001994,-0.00000915,-0.00418226,0.00681143,-0.00532617,-0.00078819,-0.
 00149900,-0.00086783,0.22099775,0.00041021,0.00020709,0.00068550,0.000
 20292,0.00042461,-0.00122035,-0.00021905,-0.00025358,0.00011279,-0.000
 01056,-0.00135565,0.00022760,-0.00235151,0.00339579,0.00391999,-0.0273
 7605,0.00999067,-0.01746690,0.14348022,-0.18084415,0.09009485,-0.00086
 906,0.00157553,-0.00057566,0.00077265,0.00010727,-0.00061253,0.0001027
 9,-0.00034295,0.00021648,0.00001037,0.00007224,-0.00010842,0.00012838,
 -0.00000820,-0.00016187,0.00003307,0.00000846,-0.00001656,-0.00001081,
 -0.00001692,-0.00000403,0.02035892,-0.01752281,0.02344620,-0.00010309,
 -0.00033920,-0.00028356,-0.13431544,0.18456388,-0.00030545,-0.00033274
 ,-0.00040485,-0.00006885,0.00046985,0.00047044,-0.00003008,-0.00042725
 ,-0.00019141,0.00007869,-0.00032071,-0.00016006,-0.00321448,0.00200828
 ,0.00058885,0.00508156,-0.00008769,-0.00313994,-0.16166163,0.11255112,
 -0.12615612,0.00266432,-0.00119268,0.00145369,0.00066169,0.00016041,-0
 .00061435,-0.00136039,0.00034327,-0.00010184,0.00019993,0.00028973,0.0
 0005458,0.00014030,0.00005305,-0.00016033,0.00006604,-0.00001369,-0.00
 001731,-0.00002604,-0.00002029,-0.00000502,0.01868477,-0.01430762,0.00
 584646,-0.00016494,-0.00045284,-0.00042517,0.13857488,-0.09822008,0.12
 326306,-0.00015039,0.00034527,0.00003007,-0.00038935,-0.00063455,0.000
 15466,0.00087388,0.00011932,0.00046069,-0.00002072,-0.00252185,-0.0001
 3215,0.00050153,-0.00004169,-0.00072539,-0.00016530,-0.00009663,0.0001
 8861,-0.00000220,-0.00006236,-0.00003379,0.00000751,0.00000235,0.00002
 513,-0.00042385,0.00014400,0.00007942,-0.00003267,0.00004089,0.0000631
 9,-0.00001197,-0.00001053,-0.00000599,0.00138917,0.00227475,-0.0151535
 5,-0.05836143,-0.00593970,0.04839677,0.00194357,0.00022254,-0.01423616
 ,-0.00002103,-0.00000826,-0.00001042,0.00029130,0.00103133,0.00014867,
 0.00000549,-0.00000449,-0.00000702,0.05688767,0.00034598,0.00032937,0.
 00001847,-0.00071783,-0.00143164,0.00050802,0.00003786,0.00113309,0.00
 082345,-0.00268530,-0.00337966,-0.00048114,0.00027731,0.00044168,-0.00
 148233,-0.00032770,-0.00024680,0.00031729,0.00001610,-0.00015028,-0.00
 006346,-0.00001269,0.00003486,0.00006144,0.00005357,-0.00017678,0.0004
 2556,0.00002923,0.00002395,0.00008498,0.00000191,0.00000591,0.00001722
 ,0.00572746,0.00273406,-0.03013595,-0.00642755,-0.05421972,0.03727398,
 -0.00680697,-0.00106977,0.02628370,-0.00004787,-0.00001813,-0.00002862
 ,0.00120371,0.00177646,0.00048452,0.00000722,-0.00000563,-0.00000419,0
 .00892563,0.05585314,-0.00000911,-0.00006888,-0.00040982,0.00011249,0.
 00031132,0.00057416,0.00003127,-0.00023533,-0.00077359,-0.00110716,-0.
 00191114,0.00072176,0.00058043,0.00078414,-0.00073311,-0.00015327,-0.0
 0029433,0.00020596,-0.00000036,-0.00006711,-0.00002572,-0.00000740,0.0
 0008914,0.00006332,-0.00025234,-0.00017691,0.00084044,0.00004088,0.000
 09153,-0.00001102,-0.00002884,-0.00003501,0.00000158,0.00275604,0.0014
 2138,-0.01863890,0.04585311,0.03283206,-0.30791158,0.00156745,0.000355
 53,-0.00696664,-0.00003394,0.00000117,-0.00003040,0.00088081,0.0018573
 0,0.00143591,-0.00000507,-0.00000696,-0.00002088,-0.05041407,-0.035292
 59,0.33384989,0.00003566,0.00068599,0.00037608,-0.00095043,-0.00168656
 ,-0.00031900,0.00109050,0.00088482,0.00099667,0.00104349,0.00001828,0.
 00059066,-0.00055396,-0.00098492,0.00069517,0.00008380,0.00004056,-0.0
 0021900,0.00003629,0.00000857,-0.00004129,-0.00011952,-0.00010300,0.00
 001191,0.00005613,-0.00090418,-0.00120680,0.00023634,-0.00000881,-0.00
 018691,-0.00001392,-0.00000073,0.00001145,-0.00976083,-0.00325300,0.00
 139069,-0.30719547,-0.01754163,0.04317534,-0.01384577,-0.00046555,0.00
 261924,-0.00000161,0.00000169,-0.00000115,-0.00029911,0.00123609,-0.00
 141998,-0.00000888,0.00000410,0.00001134,-0.00234146,0.00043567,0.0002
 1448,0.33256696,0.00002309,-0.00007518,-0.00012474,-0.00046213,0.00024
 869,-0.00049243,0.00021708,-0.00025769,-0.00014225,0.00092560,0.000624
 88,0.00057611,-0.00038675,-0.00087757,0.00101067,0.00015633,-0.0000701
 9,-0.00028166,0.00002611,0.00003287,-0.00000128,-0.00008050,-0.0000072
 8,-0.00001799,0.00059803,-0.00255130,-0.00115683,0.00047589,-0.0001559
 8,-0.00035516,-0.00000359,0.00000887,-0.00000756,-0.02809439,-0.004524
 45,0.00561573,-0.01788217,-0.04425455,0.00180906,0.02847502,0.00216106
 ,-0.00460371,-0.00000468,0.00000903,-0.00000120,-0.00177139,0.00026616
 ,-0.00227935,-0.00000689,-0.00000135,0.00000066,-0.00375421,-0.0015611
 5,0.00042110,0.02169512,0.05116898,0.00025692,0.00059030,0.00014312,-0
 .00188107,-0.00312640,0.00002688,0.00122420,0.00163026,0.00057567,0.00
 075967,0.00090800,-0.00142339,-0.00044457,-0.00116613,0.00105042,0.000
 15652,0.00007420,-0.00012464,0.00004402,0.00002312,-0.00000154,-0.0000
 5805,-0.00006477,-0.00000925,-0.00015388,-0.00135160,-0.00137829,0.000
 34562,-0.00006240,-0.00019277,-0.00001585,0.00001324,0.00000237,-0.017
 68078,0.00020947,0.00433145,0.04334585,0.00086770,-0.05505177,-0.01033
 044,-0.00038598,0.00094178,0.00000646,0.00000206,0.00000960,0.00005239
 ,0.00082118,-0.00043139,0.00000411,0.00000700,0.00001401,0.03115007,0.
 00117205,-0.00216829,-0.04673167,-0.00004131,0.05365615,0.00000165,0.0
 0001812,-0.00000922,-0.00017183,-0.00016359,-0.00015504,-0.00004585,-0
 .00011226,0.00005813,0.00016356,-0.00029267,0.00071161,-0.00068915,-0.
 00249489,-0.00108807,-0.00008700,-0.00014682,-0.00027797,0.00043958,-0
 .00016072,-0.00119653,0.00013477,0.00003409,0.00006151,-0.00214039,-0.
 00351818,0.02105280,-0.05312070,0.00191068,-0.02844364,0.00146821,0.00
 084865,-0.03042787,-0.00017662,-0.00020528,0.00031040,-0.00016659,0.00
 011956,-0.00008072,0.00002421,0.00004985,0.00000968,0.00007718,0.00012
 610,-0.00019227,0.00064972,0.00105828,0.00067489,0.00000032,-0.0000445
 9,0.00017682,0.00001105,-0.00004013,-0.00001513,-0.00000943,-0.0000335
 1,0.00000885,0.05239180,0.00005389,0.,-0.00006194,-0.00046328,-0.00017
 684,-0.00036385,-0.00004686,-0.00026979,0.00008099,-0.00047654,-0.0001
 6143,0.00078741,-0.00098026,-0.00413719,-0.00290237,-0.00015450,0.0001
 1897,0.00001395,-0.00030374,0.00051935,-0.00050506,0.00005699,0.000088
 11,0.00007387,-0.00177387,-0.00785804,0.03841820,0.00128348,-0.0489305
 6,-0.00465092,0.00105632,-0.00016506,0.00129671,-0.00030089,-0.0008492
 5,0.00057518,0.00007294,0.00001271,-0.00010490,-0.00000338,0.00001807,
 0.00000438,0.00003638,-0.00008394,0.00022985,0.00077919,0.00273344,0.0
 0150989,0.00017010,0.00011951,-0.00024428,-0.00005503,-0.00007367,-0.0
 0004969,0.00002771,0.00003026,0.00000729,0.00474917,0.05540720,0.00006
 258,0.00005228,0.00000794,-0.00014536,-0.00012050,0.00027105,0.0000934
 0,0.00017304,-0.00003364,0.00008081,-0.00011790,-0.00031595,-0.0004269
 8,0.00050146,0.00116871,-0.00008176,0.00011520,0.00009128,-0.00024027,
 0.00012596,-0.00064476,0.00002343,-0.00010547,0.00000608,0.00203377,0.
 00380341,-0.01381714,-0.02112955,0.00860282,-0.32573069,-0.00006453,-0
 .00075259,-0.00507460,0.00005722,-0.00024173,0.00026487,-0.00004308,0.
 00004197,0.00000091,0.00002224,0.00001948,0.00000138,0.00002550,0.0000
 5651,-0.00002400,-0.00165785,-0.00332136,0.00103014,0.00014423,0.00002
 191,-0.00011313,0.00000481,0.00000941,-0.00000567,0.00000715,0.0000140
 6,-0.00000764,0.02290868,-0.00941268,0.35150278,-0.00001237,-0.0000044
 7,0.00010252,0.00000693,0.00020843,-0.00015399,-0.00000662,-0.00009312
 ,0.00001226,-0.00034084,-0.00019133,-0.00035888,0.00140978,0.00007886,
 0.00014061,0.00012803,0.00054291,-0.00058945,0.00067350,-0.00071401,0.
 00086276,-0.00021073,0.00000178,-0.00003134,0.00866553,-0.01800455,-0.
 00955084,-0.11130521,0.10320396,0.05481165,-0.01351657,0.02435064,0.01
 399937,-0.00069617,-0.00060334,-0.00044308,-0.00031850,0.00005335,0.00
 013152,-0.00000142,-0.00000156,0.00000823,0.00009862,0.00012219,-0.000
 43712,-0.00002622,-0.00261636,0.00132612,-0.00025309,-0.00019896,0.000
 49852,0.00000920,0.00000439,-0.00001026,-0.00004878,-0.00011207,-0.000
 05836,0.00124551,-0.00372781,-0.00167444,0.11449942,-0.00001604,0.0000
 3452,0.00045563,0.00007459,0.00040143,-0.00075911,-0.00004871,-0.00014
 685,0.00016725,-0.00055344,-0.00113207,-0.00060487,0.00125817,0.000398
 62,-0.00454239,-0.00048854,0.00126101,0.00169000,-0.00012224,0.0001859
 1,-0.00029500,0.00005446,-0.00003189,0.00005060,0.00332666,-0.02987719
 ,-0.00932426,0.09815511,-0.21010614,-0.08378455,0.00130413,0.00107432,
 -0.00091605,-0.00096157,-0.00128711,-0.00003742,-0.00059816,0.00019060
 ,0.00025244,0.00001351,-0.00001200,-0.00000166,0.00003195,-0.00004876,
 0.00038700,0.00232262,-0.00197289,0.00383240,0.00031528,0.00022538,-0.
 00025231,0.00002322,0.00000073,-0.00002673,-0.00009021,-0.00021413,-0.
 00012729,-0.00170188,0.00365815,0.00053472,-0.10229891,0.23739835,-0.0
 0010685,-0.00010401,-0.00015575,0.00013683,-0.00015170,0.00039641,-0.0
 0002360,0.00001696,-0.00003809,0.00015877,0.00058162,0.00048158,-0.000
 90955,0.00079929,0.00130151,0.00039044,-0.00121882,0.00066156,-0.00105
 789,0.00026205,-0.00095188,0.00023356,0.00003144,-0.00005832,-0.003562
 37,0.01247877,0.00486888,0.05368529,-0.08922754,-0.09628784,-0.0053335
 7,0.00788148,0.00385136,0.00035298,0.00076629,-0.00017125,0.00023290,-
 0.00012935,-0.00005281,-0.00001735,-0.00001490,-0.00001872,-0.00002436
 ,0.00016638,-0.00031215,-0.00134220,-0.00074838,-0.00086180,-0.0001824
 0,-0.00005541,-0.00018067,0.00001647,0.00000818,0.00000261,0.00002561,
 0.00005808,0.00003750,0.01591310,-0.02470203,-0.00857792,-0.05858579,0
 .09330161,0.09606580\\-0.00000441,-0.00000432,-0.00001226,0.00001172,0
 .00002556,0.00000678,0.00000225,-0.00001474,0.00000089,-0.00000767,-0.
 00001593,0.00000137,0.00001170,0.00000396,0.00001458,0.00003955,0.0000
 4095,-0.00001985,-0.00009615,0.00003975,-0.00002745,-0.00001106,-0.000
 02000,0.00001021,-0.00000251,0.00000389,-0.00000253,0.00003208,0.00001
 722,0.00004457,-0.00005241,0.00000466,-0.00001816,0.00000673,0.0000108
 9,-0.00000067,0.00000784,0.00001096,-0.00000502,0.00001078,-0.00001771
 ,0.00000961,0.00000584,-0.00002966,-0.00001585,-0.00000452,-0.00000877
 ,0.00000040,0.00004951,-0.00003467,0.00004020,-0.00000785,0.00000241,0
 .00000222,-0.00000110,0.00000071,-0.00000825,0.00000113,-0.00000087,-0
 .00001590,0.00000856,-0.00001428,-0.00000489\\\@


 GROWING OLD ISN'T SO BAD -- WHEN YOU CONSIDER THE ALTERNATIVE.

                     -- MAURICE CHEVALIER
 Job cpu time:       0 days  0 hours 15 minutes 54.2 seconds.
 File lengths (MBytes):  RWF=    127 Int=      0 D2E=      0 Chk=      5 Scr=      1
 Normal termination of Gaussian 09 at Fri Aug 20 15:51:20 2021.
