 Entering Gaussian System, Link 0=g09
 Input=B3LYP6-31G.QUZNUV.gjf
 Output=B3LYP6-31G.QUZNUV.log
 Initial command:
 /public/home/users/caep010/software/Gaussian09/g09/l1.exe "/public/home/users/caep010/.cache/gau_scr/Gau-62378.inp" -scrdir="/public/home/users/caep010/.cache/gau_scr/"
 Entering Link 1 = /public/home/users/caep010/software/Gaussian09/g09/l1.exe PID=     62379.
  
 Copyright (c) 1988,1990,1992,1993,1995,1998,2003,2009,2015,
            Gaussian, Inc.  All Rights Reserved.
  
 This is part of the Gaussian(R) 09 program.  It is based on
 the Gaussian(R) 03 system (copyright 2003, Gaussian, Inc.),
 the Gaussian(R) 98 system (copyright 1998, Gaussian, Inc.),
 the Gaussian(R) 94 system (copyright 1995, Gaussian, Inc.),
 the Gaussian 92(TM) system (copyright 1992, Gaussian, Inc.),
 the Gaussian 90(TM) system (copyright 1990, Gaussian, Inc.),
 the Gaussian 88(TM) system (copyright 1988, Gaussian, Inc.),
 the Gaussian 86(TM) system (copyright 1986, Carnegie Mellon
 University), and the Gaussian 82(TM) system (copyright 1983,
 Carnegie Mellon University). Gaussian is a federally registered
 trademark of Gaussian, Inc.
  
 This software contains proprietary and confidential information,
 including trade secrets, belonging to Gaussian, Inc.
  
 This software is provided under written license and may be
 used, copied, transmitted, or stored only in accord with that
 written license.
  
 The following legend is applicable only to US Government
 contracts under FAR:
  
                    RESTRICTED RIGHTS LEGEND
  
 Use, reproduction and disclosure by the US Government is
 subject to restrictions as set forth in subparagraphs (a)
 and (c) of the Commercial Computer Software - Restricted
 Rights clause in FAR 52.227-19.
  
 Gaussian, Inc.
 340 Quinnipiac St., Bldg. 40, Wallingford CT 06492
  
  
 ---------------------------------------------------------------
 Warning -- This program may not be used in any manner that
 competes with the business of Gaussian, Inc. or will provide
 assistance to any competitor of Gaussian, Inc.  The licensee
 of this program is prohibited from giving any competitor of
 Gaussian, Inc. access to this program.  By using this program,
 the user acknowledges that Gaussian, Inc. is engaged in the
 business of creating and licensing software in the field of
 computational chemistry and represents and warrants to the
 licensee that it is not a competitor of Gaussian, Inc. and that
 it will not use this program in any manner prohibited above.
 ---------------------------------------------------------------
  

 Cite this work as:
 Gaussian 09, Revision E.01,
 M. J. Frisch, G. W. Trucks, H. B. Schlegel, G. E. Scuseria, 
 M. A. Robb, J. R. Cheeseman, G. Scalmani, V. Barone, B. Mennucci, 
 G. A. Petersson, H. Nakatsuji, M. Caricato, X. Li, H. P. Hratchian, 
 A. F. Izmaylov, J. Bloino, G. Zheng, J. L. Sonnenberg, M. Hada, 
 M. Ehara, K. Toyota, R. Fukuda, J. Hasegawa, M. Ishida, T. Nakajima, 
 Y. Honda, O. Kitao, H. Nakai, T. Vreven, J. A. Montgomery, Jr., 
 J. E. Peralta, F. Ogliaro, M. Bearpark, J. J. Heyd, E. Brothers, 
 K. N. Kudin, V. N. Staroverov, T. Keith, R. Kobayashi, J. Normand, 
 K. Raghavachari, A. Rendell, J. C. Burant, S. S. Iyengar, J. Tomasi, 
 M. Cossi, N. Rega, J. M. Millam, M. Klene, J. E. Knox, J. B. Cross, 
 V. Bakken, C. Adamo, J. Jaramillo, R. Gomperts, R. E. Stratmann, 
 O. Yazyev, A. J. Austin, R. Cammi, C. Pomelli, J. W. Ochterski, 
 R. L. Martin, K. Morokuma, V. G. Zakrzewski, G. A. Voth, 
 P. Salvador, J. J. Dannenberg, S. Dapprich, A. D. Daniels, 
 O. Farkas, J. B. Foresman, J. V. Ortiz, J. Cioslowski, 
 and D. J. Fox, Gaussian, Inc., Wallingford CT, 2013.
 
 ******************************************
 Gaussian 09:  ES64L-G09RevE.01 30-Nov-2015
                20-Aug-2021 
 ******************************************
 %nproc=32
 Will use up to   32 processors via shared memory.
 %mem=180GB
 -------------------------
 #P OPT Freq B3LYP/6-31G**
 -------------------------
 1/14=-1,18=20,19=15,26=3,38=1/1,3;
 2/9=110,12=2,17=6,18=5,40=1/2;
 3/5=1,6=6,7=101,11=2,16=1,25=1,30=1,71=1,74=-5/1,2,3;
 4//1;
 5/5=2,38=5/2;
 6/7=2,8=2,9=2,10=2,28=1/1;
 7//1,2,3,16;
 1/14=-1,18=20,19=15,26=3/3(2);
 2/9=110/2;
 99//99;
 2/9=110/2;
 3/5=1,6=6,7=101,11=2,16=1,25=1,30=1,71=1,74=-5/1,2,3;
 4/5=5,16=3,69=1/1;
 5/5=2,38=5/2;
 7//1,2,3,16;
 1/14=-1,18=20,19=15,26=3/3(-5);
 2/9=110/2;
 6/7=2,8=2,9=2,10=2,19=2,28=1/1;
 99/9=1/99;
 Leave Link    1 at Fri Aug 20 15:50:21 2021, MaxMem= 24159191040 cpu:         2.2
 (Enter /public/home/users/caep010/software/Gaussian09/g09/l101.exe)
 ------
 QUZNUV
 ------
 Symbolic Z-matrix:
 Charge =  0 Multiplicity = 1
 O                     2.3754    12.7617   5.0457 
 N                     2.5591    11.6225   5.4047 
 O                     2.0335    10.6698   4.865 
 C                     3.4507    11.3865   6.5424 
 C                     3.9485    12.4615   7.234 
 C                     4.7843    12.2198   8.3085 
 H                     5.1261    12.9565   8.7459 
 H                     3.6737    13.3169   7.048 
 C                     5.1172    10.9306   8.6789 
 C                     4.5921    9.8745    7.9624 
 H                     4.8357    8.9692    8.213 
 C                     3.7483    10.0905   6.8895 
 H                     3.3832    9.3826    6.3729 
 C                     5.9771    10.6866   9.8958 
 H                     6.6814    11.3312   9.9461 
 H                     6.3596    9.7713    9.878 
 C                     5.1324    10.7792   11.1341 
 H                     4.6748    11.6952   11.1654 
 N                     5.8971    10.6339   12.3626 
 H                     4.4066    10.1334   11.137 
 H                     6.6591    10.6617   12.3406 
 C                     5.2973    10.5493   13.5207 
 O                     4.0884    10.5486   13.6695 
 H                     5.9083    10.4691   14.2654 
 
 NAtoms=     24 NQM=       24 NQMF=       0 NMMI=      0 NMMIF=      0
                NMic=       0 NMicF=      0.
                    Isotopes and Nuclear Properties:
 (Nuclear quadrupole moments (NQMom) in fm**2, nuclear magnetic moments (NMagM)
  in nuclear magnetons)

  Atom         1           2           3           4           5           6           7           8           9          10
 IAtWgt=          16          14          16          12          12          12           1           1          12          12
 AtmWgt=  15.9949146  14.0030740  15.9949146  12.0000000  12.0000000  12.0000000   1.0078250   1.0078250  12.0000000  12.0000000
 NucSpn=           0           2           0           0           0           0           1           1           0           0
 AtZEff=   0.0000000   0.0000000   0.0000000   0.0000000   0.0000000   0.0000000   0.0000000   0.0000000   0.0000000   0.0000000
 NQMom=    0.0000000   2.0440000   0.0000000   0.0000000   0.0000000   0.0000000   0.0000000   0.0000000   0.0000000   0.0000000
 NMagM=    0.0000000   0.4037610   0.0000000   0.0000000   0.0000000   0.0000000   2.7928460   2.7928460   0.0000000   0.0000000
 AtZNuc=   8.0000000   7.0000000   8.0000000   6.0000000   6.0000000   6.0000000   1.0000000   1.0000000   6.0000000   6.0000000

  Atom        11          12          13          14          15          16          17          18          19          20
 IAtWgt=           1          12           1          12           1           1          12           1          14           1
 AtmWgt=   1.0078250  12.0000000   1.0078250  12.0000000   1.0078250   1.0078250  12.0000000   1.0078250  14.0030740   1.0078250
 NucSpn=           1           0           1           0           1           1           0           1           2           1
 AtZEff=   0.0000000   0.0000000   0.0000000   0.0000000   0.0000000   0.0000000   0.0000000   0.0000000   0.0000000   0.0000000
 NQMom=    0.0000000   0.0000000   0.0000000   0.0000000   0.0000000   0.0000000   0.0000000   0.0000000   2.0440000   0.0000000
 NMagM=    2.7928460   0.0000000   2.7928460   0.0000000   2.7928460   2.7928460   0.0000000   2.7928460   0.4037610   2.7928460
 AtZNuc=   1.0000000   6.0000000   1.0000000   6.0000000   1.0000000   1.0000000   6.0000000   1.0000000   7.0000000   1.0000000

  Atom        21          22          23          24
 IAtWgt=           1          12          16           1
 AtmWgt=   1.0078250  12.0000000  15.9949146   1.0078250
 NucSpn=           1           0           0           1
 AtZEff=   0.0000000   0.0000000   0.0000000   0.0000000
 NQMom=    0.0000000   0.0000000   0.0000000   0.0000000
 NMagM=    2.7928460   0.0000000   0.0000000   2.7928460
 AtZNuc=   1.0000000   6.0000000   8.0000000   1.0000000
 Leave Link  101 at Fri Aug 20 15:50:21 2021, MaxMem= 24159191040 cpu:        10.3
 (Enter /public/home/users/caep010/software/Gaussian09/g09/l103.exe)

 GradGradGradGradGradGradGradGradGradGradGradGradGradGradGradGradGradGrad
 Berny optimization.
 Initialization pass.
                           ----------------------------
                           !    Initial Parameters    !
                           ! (Angstroms and Degrees)  !
 --------------------------                            --------------------------
 ! Name  Definition              Value          Derivative Info.                !
 --------------------------------------------------------------------------------
 ! R1    R(1,2)                  1.2085         estimate D2E/DX2                !
 ! R2    R(2,3)                  1.2146         estimate D2E/DX2                !
 ! R3    R(2,4)                  1.4646         estimate D2E/DX2                !
 ! R4    R(4,5)                  1.3718         estimate D2E/DX2                !
 ! R5    R(4,12)                 1.3743         estimate D2E/DX2                !
 ! R6    R(5,6)                  1.3826         estimate D2E/DX2                !
 ! R7    R(5,8)                  0.9175         estimate D2E/DX2                !
 ! R8    R(6,7)                  0.9224         estimate D2E/DX2                !
 ! R9    R(6,9)                  1.382          estimate D2E/DX2                !
 ! R10   R(9,10)                 1.38           estimate D2E/DX2                !
 ! R11   R(9,14)                 1.5099         estimate D2E/DX2                !
 ! R12   R(10,11)                0.9704         estimate D2E/DX2                !
 ! R13   R(10,12)                1.3819         estimate D2E/DX2                !
 ! R14   R(12,13)                0.9494         estimate D2E/DX2                !
 ! R15   R(14,15)                0.9561         estimate D2E/DX2                !
 ! R16   R(14,16)                0.9922         estimate D2E/DX2                !
 ! R17   R(14,17)                1.5018         estimate D2E/DX2                !
 ! R18   R(17,18)                1.0244         estimate D2E/DX2                !
 ! R19   R(17,19)                1.4543         estimate D2E/DX2                !
 ! R20   R(17,20)                0.9715         estimate D2E/DX2                !
 ! R21   R(19,21)                0.7628         estimate D2E/DX2                !
 ! R22   R(19,22)                1.3069         estimate D2E/DX2                !
 ! R23   R(22,23)                1.218          estimate D2E/DX2                !
 ! R24   R(22,24)                0.9666         estimate D2E/DX2                !
 ! A1    A(1,2,3)              122.7958         estimate D2E/DX2                !
 ! A2    A(1,2,4)              118.3728         estimate D2E/DX2                !
 ! A3    A(3,2,4)              118.8311         estimate D2E/DX2                !
 ! A4    A(2,4,5)              119.0965         estimate D2E/DX2                !
 ! A5    A(2,4,12)             118.6844         estimate D2E/DX2                !
 ! A6    A(5,4,12)             122.2152         estimate D2E/DX2                !
 ! A7    A(4,5,6)              118.3073         estimate D2E/DX2                !
 ! A8    A(4,5,8)              121.3135         estimate D2E/DX2                !
 ! A9    A(6,5,8)              120.1054         estimate D2E/DX2                !
 ! A10   A(5,6,7)              116.9301         estimate D2E/DX2                !
 ! A11   A(5,6,9)              121.1296         estimate D2E/DX2                !
 ! A12   A(7,6,9)              121.9149         estimate D2E/DX2                !
 ! A13   A(6,9,10)             118.8858         estimate D2E/DX2                !
 ! A14   A(6,9,14)             120.2599         estimate D2E/DX2                !
 ! A15   A(10,9,14)            120.762          estimate D2E/DX2                !
 ! A16   A(9,10,11)            118.9689         estimate D2E/DX2                !
 ! A17   A(9,10,12)            121.0512         estimate D2E/DX2                !
 ! A18   A(11,10,12)           119.972          estimate D2E/DX2                !
 ! A19   A(4,12,10)            118.4054         estimate D2E/DX2                !
 ! A20   A(4,12,13)            118.8466         estimate D2E/DX2                !
 ! A21   A(10,12,13)           122.7335         estimate D2E/DX2                !
 ! A22   A(9,14,15)            110.6697         estimate D2E/DX2                !
 ! A23   A(9,14,16)            110.743          estimate D2E/DX2                !
 ! A24   A(9,14,17)            109.5266         estimate D2E/DX2                !
 ! A25   A(15,14,16)           109.8116         estimate D2E/DX2                !
 ! A26   A(15,14,17)           109.2313         estimate D2E/DX2                !
 ! A27   A(16,14,17)           106.7687         estimate D2E/DX2                !
 ! A28   A(14,17,18)           109.3639         estimate D2E/DX2                !
 ! A29   A(14,17,19)           113.2406         estimate D2E/DX2                !
 ! A30   A(14,17,20)           112.437          estimate D2E/DX2                !
 ! A31   A(18,17,19)           107.3615         estimate D2E/DX2                !
 ! A32   A(18,17,20)           105.1042         estimate D2E/DX2                !
 ! A33   A(19,17,20)           108.898          estimate D2E/DX2                !
 ! A34   A(17,19,21)           119.8173         estimate D2E/DX2                !
 ! A35   A(17,19,22)           120.9085         estimate D2E/DX2                !
 ! A36   A(21,19,22)           119.101          estimate D2E/DX2                !
 ! A37   A(19,22,23)           124.3178         estimate D2E/DX2                !
 ! A38   A(19,22,24)           113.4507         estimate D2E/DX2                !
 ! A39   A(23,22,24)           122.2223         estimate D2E/DX2                !
 ! D1    D(1,2,4,5)              5.808          estimate D2E/DX2                !
 ! D2    D(1,2,4,12)          -174.8981         estimate D2E/DX2                !
 ! D3    D(3,2,4,5)           -173.9822         estimate D2E/DX2                !
 ! D4    D(3,2,4,12)             5.3116         estimate D2E/DX2                !
 ! D5    D(2,4,5,6)            179.7416         estimate D2E/DX2                !
 ! D6    D(2,4,5,8)              5.7472         estimate D2E/DX2                !
 ! D7    D(12,4,5,6)             0.4737         estimate D2E/DX2                !
 ! D8    D(12,4,5,8)          -173.5206         estimate D2E/DX2                !
 ! D9    D(2,4,12,10)          179.884          estimate D2E/DX2                !
 ! D10   D(2,4,12,13)            1.2345         estimate D2E/DX2                !
 ! D11   D(5,4,12,10)           -0.8453         estimate D2E/DX2                !
 ! D12   D(5,4,12,13)         -179.4948         estimate D2E/DX2                !
 ! D13   D(4,5,6,7)            178.4097         estimate D2E/DX2                !
 ! D14   D(4,5,6,9)              0.2082         estimate D2E/DX2                !
 ! D15   D(8,5,6,7)             -7.5209         estimate D2E/DX2                !
 ! D16   D(8,5,6,9)            174.2776         estimate D2E/DX2                !
 ! D17   D(5,6,9,10)            -0.4875         estimate D2E/DX2                !
 ! D18   D(5,6,9,14)          -177.0209         estimate D2E/DX2                !
 ! D19   D(7,6,9,10)          -178.5984         estimate D2E/DX2                !
 ! D20   D(7,6,9,14)             4.8682         estimate D2E/DX2                !
 ! D21   D(6,9,10,11)          179.0826         estimate D2E/DX2                !
 ! D22   D(6,9,10,12)            0.102          estimate D2E/DX2                !
 ! D23   D(14,9,10,11)          -4.402          estimate D2E/DX2                !
 ! D24   D(14,9,10,12)         176.6174         estimate D2E/DX2                !
 ! D25   D(6,9,14,15)          -40.4201         estimate D2E/DX2                !
 ! D26   D(6,9,14,16)         -162.4414         estimate D2E/DX2                !
 ! D27   D(6,9,14,17)           80.0653         estimate D2E/DX2                !
 ! D28   D(10,9,14,15)         143.1123         estimate D2E/DX2                !
 ! D29   D(10,9,14,16)          21.0909         estimate D2E/DX2                !
 ! D30   D(10,9,14,17)         -96.4023         estimate D2E/DX2                !
 ! D31   D(9,10,12,4)            0.5459         estimate D2E/DX2                !
 ! D32   D(9,10,12,13)         179.1396         estimate D2E/DX2                !
 ! D33   D(11,10,12,4)        -178.4246         estimate D2E/DX2                !
 ! D34   D(11,10,12,13)          0.1691         estimate D2E/DX2                !
 ! D35   D(9,14,17,18)         -56.9375         estimate D2E/DX2                !
 ! D36   D(9,14,17,19)        -176.6171         estimate D2E/DX2                !
 ! D37   D(9,14,17,20)          59.4182         estimate D2E/DX2                !
 ! D38   D(15,14,17,18)         64.4196         estimate D2E/DX2                !
 ! D39   D(15,14,17,19)        -55.26           estimate D2E/DX2                !
 ! D40   D(15,14,17,20)       -179.2247         estimate D2E/DX2                !
 ! D41   D(16,14,17,18)       -176.8938         estimate D2E/DX2                !
 ! D42   D(16,14,17,19)         63.4266         estimate D2E/DX2                !
 ! D43   D(16,14,17,20)        -60.5382         estimate D2E/DX2                !
 ! D44   D(14,17,19,21)         12.0731         estimate D2E/DX2                !
 ! D45   D(14,17,19,22)       -172.7522         estimate D2E/DX2                !
 ! D46   D(18,17,19,21)       -108.7463         estimate D2E/DX2                !
 ! D47   D(18,17,19,22)         66.4284         estimate D2E/DX2                !
 ! D48   D(20,17,19,21)        137.9504         estimate D2E/DX2                !
 ! D49   D(20,17,19,22)        -46.8749         estimate D2E/DX2                !
 ! D50   D(17,19,22,23)          1.9674         estimate D2E/DX2                !
 ! D51   D(17,19,22,24)       -179.1176         estimate D2E/DX2                !
 ! D52   D(21,19,22,23)        177.1761         estimate D2E/DX2                !
 ! D53   D(21,19,22,24)         -3.9089         estimate D2E/DX2                !
 --------------------------------------------------------------------------------
 Trust Radius=3.00D-01 FncErr=1.00D-07 GrdErr=1.00D-06
 Number of steps in this run=    126 maximum allowed number of steps=    144.
 GradGradGradGradGradGradGradGradGradGradGradGradGradGradGradGradGradGrad

 Leave Link  103 at Fri Aug 20 15:50:21 2021, MaxMem= 24159191040 cpu:         0.4
 (Enter /public/home/users/caep010/software/Gaussian09/g09/l202.exe)
                          Input orientation:                          
 ---------------------------------------------------------------------
 Center     Atomic      Atomic             Coordinates (Angstroms)
 Number     Number       Type             X           Y           Z
 ---------------------------------------------------------------------
      1          8           0        2.375400   12.761700    5.045700
      2          7           0        2.559100   11.622500    5.404700
      3          8           0        2.033500   10.669800    4.865000
      4          6           0        3.450700   11.386500    6.542400
      5          6           0        3.948500   12.461500    7.234000
      6          6           0        4.784300   12.219800    8.308500
      7          1           0        5.126100   12.956500    8.745900
      8          1           0        3.673700   13.316900    7.048000
      9          6           0        5.117200   10.930600    8.678900
     10          6           0        4.592100    9.874500    7.962400
     11          1           0        4.835700    8.969200    8.213000
     12          6           0        3.748300   10.090500    6.889500
     13          1           0        3.383200    9.382600    6.372900
     14          6           0        5.977100   10.686600    9.895800
     15          1           0        6.681400   11.331200    9.946100
     16          1           0        6.359600    9.771300    9.878000
     17          6           0        5.132400   10.779200   11.134100
     18          1           0        4.674800   11.695200   11.165400
     19          7           0        5.897100   10.633900   12.362600
     20          1           0        4.406600   10.133400   11.137000
     21          1           0        6.659100   10.661700   12.340600
     22          6           0        5.297300   10.549300   13.520700
     23          8           0        4.088400   10.548600   13.669500
     24          1           0        5.908300   10.469100   14.265400
 ---------------------------------------------------------------------
                    Distance matrix (angstroms):
                    1          2          3          4          5
     1  O    0.000000
     2  N    1.208471   0.000000
     3  O    2.127344   1.214565   0.000000
     4  C    2.299469   1.464585   2.309932   0.000000
     5  C    2.711719   2.445545   3.534059   1.371765   0.000000
     6  C    4.091738   3.706796   4.671947   2.364738   1.382581
     7  H    4.614735   4.419577   5.463932   3.182338   1.979295
     8  H    2.450109   2.610318   3.803010   2.007935   0.917508
     9  C    4.906173   4.212242   4.911523   2.747672   2.407748
    10  C    4.664421   3.705458   4.095464   2.367559   2.763577
    11  H    5.519776   4.484357   4.685453   3.248456   3.733862
    12  C    3.524168   2.442509   2.715645   1.374285   2.404247
    13  H    3.767683   2.575598   2.398403   2.012188   3.246642
    14  C    6.387625   5.720893   6.392278   4.256507   3.788227
    15  H    6.678464   6.140238   6.917948   4.693150   4.012706
    16  H    6.940278   6.154767   6.682261   4.711348   4.476753
    17  C    6.971368   6.337117   6.994052   4.927539   4.409369
    18  H    6.623850   6.137356   6.908180   4.792269   4.070704
    19  N    8.394458   7.780228   8.434613   6.358145   5.782707
    20  H    6.938132   6.204026   6.727356   4.857402   4.567638
    21  H    8.716401   8.114176   8.790952   6.666205   6.055080
    22  C    9.233517   8.632436   9.251381   7.266877   6.708082
    23  O    9.066538   8.473425   9.041931   7.204463   6.715238
    24  H   10.136087   9.542509  10.169655   8.156356   7.566443
                    6          7          8          9         10
     6  C    0.000000
     7  H    0.922428   0.000000
     8  H    2.006470   2.263232   0.000000
     9  C    1.382047   2.027027   3.230782   0.000000
    10  C    2.378478   3.224555   3.678275   1.380018   0.000000
    11  H    3.252409   4.033222   4.648652   2.035533   0.970417
    12  C    2.760575   3.682188   3.231152   2.404497   1.381944
    13  H    3.709357   4.630507   4.002358   3.274247   2.056676
    14  C    2.508584   2.683080   4.509334   1.509904   2.513119
    15  H    2.659010   2.549713   4.624743   2.052559   3.228346
    16  H    3.307575   3.598426   5.272024   2.079754   2.608492
    17  C    3.190692   3.231745   5.026325   2.459911   3.342168
    18  H    2.906729   2.765598   4.537080   2.638752   3.685240
    19  N    4.493232   4.366856   6.355074   3.777025   4.652040
    20  H    3.534987   3.768943   5.233711   2.680063   3.190537
    21  H    4.711728   4.531894   6.631313   3.982187   4.905182
    22  C    5.497342   5.350013   7.224371   4.860129   5.643347
    23  O    5.658401   5.578229   7.188861   5.109838   5.768805
    24  H    6.309753   6.104414   8.074297   5.661078   6.466355
                   11         12         13         14         15
    11  H    0.000000
    12  C    2.047292   0.000000
    13  H    2.380467   0.949366   0.000000
    14  C    2.661592   3.789555   4.565036   0.000000
    15  H    3.462555   4.414206   5.238599   0.956074   0.000000
    16  H    2.395383   3.981446   4.614734   0.992168   1.594202
    17  C    3.449196   4.517374   5.261104   1.501825   2.028657
    18  H    4.021645   4.660127   5.475802   2.079698   2.376054
    19  N    4.595321   5.904867   6.615282   2.468659   2.634545
    20  H    3.176360   4.298425   4.930284   2.076795   2.833317
    21  H    4.819380   6.205926   6.926836   2.538265   2.486435
    22  C    5.557110   6.825153   7.491062   3.690648   3.912143
    23  O    5.729429   6.803964   7.422751   4.222208   4.604326
    24  H    6.327062   7.694988   8.357522   4.375551   4.471829
                   16         17         18         19         20
    16  H    0.000000
    17  C    2.024764   0.000000
    18  H    2.863100   1.024419   0.000000
    19  N    2.670435   1.454335   2.013371   0.000000
    20  H    2.351682   0.971520   1.584915   1.993536   0.000000
    21  H    2.635699   1.949426   2.527185   0.762824   2.607970
    22  C    3.873374   2.403311   2.692217   1.306948   2.578438
    23  O    4.487540   2.751611   2.815861   2.233083   2.585962
    24  H    4.465409   3.240868   3.554552   1.909956   3.486357
                   21         22         23         24
    21  H    0.000000
    22  C    1.805483   0.000000
    23  O    2.896078   1.218023   0.000000
    24  H    2.075006   0.966608   1.916625   0.000000
 Stoichiometry    C9H10N2O3
 Framework group  C1[X(C9H10N2O3)]
 Deg. of freedom    66
 Full point group                 C1      NOp   1
 Largest Abelian subgroup         C1      NOp   1
 Largest concise Abelian subgroup C1      NOp   1
                         Standard orientation:                         
 ---------------------------------------------------------------------
 Center     Atomic      Atomic             Coordinates (Angstroms)
 Number     Number       Type             X           Y           Z
 ---------------------------------------------------------------------
      1          8           0        4.294720   -1.247751    0.146731
      2          7           0        3.754064   -0.201526    0.417854
      3          8           0        4.311690    0.688421    1.027948
      4          6           0        2.365803   -0.005311   -0.005515
      5          6           0        1.690720   -1.050148   -0.583718
      6          6           0        0.379265   -0.848543   -0.972270
      7          1           0       -0.049389   -1.556616   -1.379407
      8          1           0        2.063644   -1.886633   -0.638866
      9          6           0       -0.240249    0.373301   -0.789635
     10          6           0        0.469525    1.398960   -0.199131
     11          1           0        0.040137    2.261364   -0.082529
     12          6           0        1.778867    1.219408    0.204790
     13          1           0        2.292945    1.911481    0.602352
     14          6           0       -1.693162    0.552536   -1.159402
     15          1           0       -1.890875    0.101813   -1.979057
     16          1           0       -1.918524    1.515219   -1.242173
     17          6           0       -2.561348   -0.003366   -0.067290
     18          1           0       -2.323761   -0.987739    0.087611
     19          7           0       -3.981223    0.056957   -0.376167
     20          1           0       -2.406467    0.431951    0.787322
     21          1           0       -4.208411    0.219479   -1.086007
     22          6           0       -4.877574   -0.254914    0.522390
     23          8           0       -4.618205   -0.578133    1.667745
     24          1           0       -5.785911   -0.190173    0.198255
 ---------------------------------------------------------------------
 Rotational constants (GHZ):      2.0575441      0.2414006      0.2404813
 Leave Link  202 at Fri Aug 20 15:50:21 2021, MaxMem= 24159191040 cpu:         0.9
 (Enter /public/home/users/caep010/software/Gaussian09/g09/l301.exe)
 Standard basis: 6-31G(d,p) (6D, 7F)
 Ernie: Thresh=  0.10000D-02 Tol=  0.10000D-05 Strict=F.
 There are   260 symmetry adapted cartesian basis functions of A   symmetry.
 There are   260 symmetry adapted basis functions of A   symmetry.
   260 basis functions,   462 primitive gaussians,   260 cartesian basis functions
    51 alpha electrons       51 beta electrons
       nuclear repulsion energy       834.7324283619 Hartrees.
 IExCor=  402 DFT=T Ex+Corr=B3LYP ExCW=0 ScaHFX=  0.200000
 ScaDFX=  0.800000  0.720000  1.000000  0.810000 ScalE2=  1.000000  1.000000
 IRadAn=      0 IRanWt=     -1 IRanGd=            0 ICorTp=0 IEmpDi=  4
 NAtoms=   24 NActive=   24 NUniq=   24 SFac= 1.00D+00 NAtFMM=   60 NAOKFM=F Big=F
 Integral buffers will be    131072 words long.
 Raffenetti 2 integral format.
 Two-electron integral symmetry is turned on.
 Leave Link  301 at Fri Aug 20 15:50:21 2021, MaxMem= 24159191040 cpu:         2.0
 (Enter /public/home/users/caep010/software/Gaussian09/g09/l302.exe)
 NPDir=0 NMtPBC=     1 NCelOv=     1 NCel=       1 NClECP=     1 NCelD=      1
         NCelK=      1 NCelE2=     1 NClLst=     1 CellRange=     0.0.
 One-electron integrals computed using PRISM.
 NBasis=   260 RedAO= T EigKep=  3.55D-04  NBF=   260
 NBsUse=   260 1.00D-06 EigRej= -1.00D+00 NBFU=   260
 Precomputing XC quadrature grid using
 IXCGrd= 4 IRadAn=           0 IRanWt=          -1 IRanGd=           0 AccXCQ= 0.00D+00.
 Generated NRdTot=       0 NPtTot=           0 NUsed=           0 NTot=          32
 NSgBfM=   256   256   256   256   256 MxSgAt=    24 MxSgA2=    24.
 Leave Link  302 at Fri Aug 20 15:50:22 2021, MaxMem= 24159191040 cpu:        14.4
 (Enter /public/home/users/caep010/software/Gaussian09/g09/l303.exe)
 DipDrv:  MaxL=1.
 Leave Link  303 at Fri Aug 20 15:50:22 2021, MaxMem= 24159191040 cpu:         1.3
 (Enter /public/home/users/caep010/software/Gaussian09/g09/l401.exe)
 ExpMin= 1.61D-01 ExpMax= 5.48D+03 ExpMxC= 8.25D+02 IAcc=1 IRadAn=         1 AccDes= 0.00D+00
 Harris functional with IExCor=  402 and IRadAn=       1 diagonalized for initial guess.
 HarFok:  IExCor=  402 AccDes= 0.00D+00 IRadAn=         1 IDoV= 1 UseB2=F ITyADJ=14
 ICtDFT=  3500011 ScaDFX=  1.000000  1.000000  1.000000  1.000000
 FoFCou: FMM=F IPFlag=           0 FMFlag=      100000 FMFlg1=           0
         NFxFlg=           0 DoJE=T BraDBF=F KetDBF=T FulRan=T
         wScrn=  0.000000 ICntrl=     500 IOpCl=  0 I1Cent=   200000004 NGrid=           0
         NMat0=    1 NMatS0=      1 NMatT0=    0 NMatD0=    1 NMtDS0=    0 NMtDT0=    0
 Petite list used in FoFCou.
 Harris En= -683.997533394969    
 JPrj=0 DoOrth=F DoCkMO=F.
 Leave Link  401 at Fri Aug 20 15:50:22 2021, MaxMem= 24159191040 cpu:        13.6
 (Enter /public/home/users/caep010/software/Gaussian09/g09/l502.exe)
 Closed shell SCF:
 Using DIIS extrapolation, IDIIS=  1040.
 Integral symmetry usage will be decided dynamically.
 Keep R1 ints in memory in canonical form, NReq=584760699.
 IVT=      231624 IEndB=      231624 NGot= 24159191040 MDV= 23583320002
 LenX= 23583320002 LenY= 23583251961
 Requested convergence on RMS density matrix=1.00D-08 within 128 cycles.
 Requested convergence on MAX density matrix=1.00D-06.
 Requested convergence on             energy=1.00D-06.
 No special actions if energy rises.
 FoFCou: FMM=F IPFlag=           0 FMFlag=           0 FMFlg1=           0
         NFxFlg=           0 DoJE=F BraDBF=F KetDBF=F FulRan=T
         wScrn=  0.000000 ICntrl=     600 IOpCl=  0 I1Cent=           0 NGrid=           0
         NMat0=    1 NMatS0=  33930 NMatT0=    0 NMatD0=    1 NMtDS0=    0 NMtDT0=    0
 Symmetry not used in FoFCou.
 Integral accuracy reduced to 1.0D-05 until final iterations.

 Cycle   1  Pass 0  IDiag  1:
 E= -683.395425164582    
 DIIS: error= 4.05D-02 at cycle   1 NSaved=   1.
 NSaved= 1 IEnMin= 1 EnMin= -683.395425164582     IErMin= 1 ErrMin= 4.05D-02
 ErrMax= 4.05D-02  0.00D+00 EMaxC= 1.00D-01 BMatC= 5.31D-01 BMatP= 5.31D-01
 IDIUse=3 WtCom= 5.95D-01 WtEn= 4.05D-01
 Coeff-Com:  0.100D+01
 Coeff-En:   0.100D+01
 Coeff:      0.100D+01
 Gap=     0.179 Goal=   None    Shift=    0.000
 GapD=    0.179 DampG=1.000 DampE=0.500 DampFc=0.5000 IDamp=-1.
 Damping current iteration by 5.00D-01
 RMSDP=6.36D-03 MaxDP=2.41D-01              OVMax= 3.40D-01

 Cycle   2  Pass 0  IDiag  1:
 E= -683.528130054501     Delta-E=       -0.132704889919 Rises=F Damp=T
 DIIS: error= 1.47D-02 at cycle   2 NSaved=   2.
 NSaved= 2 IEnMin= 2 EnMin= -683.528130054501     IErMin= 2 ErrMin= 1.47D-02
 ErrMax= 1.47D-02  0.00D+00 EMaxC= 1.00D-01 BMatC= 8.45D-02 BMatP= 5.31D-01
 IDIUse=3 WtCom= 8.53D-01 WtEn= 1.47D-01
 Coeff-Com:  0.217D+00 0.783D+00
 Coeff-En:   0.324D+00 0.676D+00
 Coeff:      0.233D+00 0.767D+00
 Gap=     0.190 Goal=   None    Shift=    0.000
 RMSDP=1.95D-03 MaxDP=7.96D-02 DE=-1.33D-01 OVMax= 2.28D-01

 Cycle   3  Pass 0  IDiag  1:
 E= -683.811411117764     Delta-E=       -0.283281063263 Rises=F Damp=F
 DIIS: error= 1.05D-02 at cycle   3 NSaved=   3.
 NSaved= 3 IEnMin= 3 EnMin= -683.811411117764     IErMin= 3 ErrMin= 1.05D-02
 ErrMax= 1.05D-02  0.00D+00 EMaxC= 1.00D-01 BMatC= 4.51D-02 BMatP= 8.45D-02
 IDIUse=3 WtCom= 8.95D-01 WtEn= 1.05D-01
 Coeff-Com:  0.539D-01 0.416D+00 0.530D+00
 Coeff-En:   0.000D+00 0.000D+00 0.100D+01
 Coeff:      0.482D-01 0.373D+00 0.579D+00
 Gap=     0.196 Goal=   None    Shift=    0.000
 RMSDP=1.11D-03 MaxDP=4.60D-02 DE=-2.83D-01 OVMax= 9.23D-02

 Cycle   4  Pass 0  IDiag  1:
 E= -683.841638690243     Delta-E=       -0.030227572479 Rises=F Damp=F
 DIIS: error= 5.72D-03 at cycle   4 NSaved=   4.
 NSaved= 4 IEnMin= 4 EnMin= -683.841638690243     IErMin= 4 ErrMin= 5.72D-03
 ErrMax= 5.72D-03  0.00D+00 EMaxC= 1.00D-01 BMatC= 1.12D-02 BMatP= 4.51D-02
 IDIUse=3 WtCom= 9.43D-01 WtEn= 5.72D-02
 Coeff-Com:  0.156D-01 0.124D+00 0.351D+00 0.509D+00
 Coeff-En:   0.000D+00 0.000D+00 0.213D+00 0.787D+00
 Coeff:      0.147D-01 0.116D+00 0.343D+00 0.525D+00
 Gap=     0.169 Goal=   None    Shift=    0.000
 RMSDP=4.78D-04 MaxDP=2.84D-02 DE=-3.02D-02 OVMax= 4.40D-02

 Cycle   5  Pass 0  IDiag  1:
 E= -683.850261558168     Delta-E=       -0.008622867925 Rises=F Damp=F
 DIIS: error= 1.57D-03 at cycle   5 NSaved=   5.
 NSaved= 5 IEnMin= 5 EnMin= -683.850261558168     IErMin= 5 ErrMin= 1.57D-03
 ErrMax= 1.57D-03  0.00D+00 EMaxC= 1.00D-01 BMatC= 1.15D-03 BMatP= 1.12D-02
 IDIUse=3 WtCom= 9.84D-01 WtEn= 1.57D-02
 Coeff-Com:  0.410D-02 0.179D-01 0.140D+00 0.323D+00 0.516D+00
 Coeff-En:   0.000D+00 0.000D+00 0.000D+00 0.454D-01 0.955D+00
 Coeff:      0.403D-02 0.176D-01 0.137D+00 0.319D+00 0.522D+00
 Gap=     0.164 Goal=   None    Shift=    0.000
 RMSDP=1.51D-04 MaxDP=7.77D-03 DE=-8.62D-03 OVMax= 1.24D-02

 Cycle   6  Pass 0  IDiag  1:
 E= -683.851097299830     Delta-E=       -0.000835741662 Rises=F Damp=F
 DIIS: error= 5.91D-04 at cycle   6 NSaved=   6.
 NSaved= 6 IEnMin= 6 EnMin= -683.851097299830     IErMin= 6 ErrMin= 5.91D-04
 ErrMax= 5.91D-04  0.00D+00 EMaxC= 1.00D-01 BMatC= 1.35D-04 BMatP= 1.15D-03
 IDIUse=3 WtCom= 9.94D-01 WtEn= 5.91D-03
 Coeff-Com:  0.131D-02 0.176D-02 0.563D-01 0.150D+00 0.327D+00 0.464D+00
 Coeff-En:   0.000D+00 0.000D+00 0.000D+00 0.000D+00 0.525D-01 0.948D+00
 Coeff:      0.130D-02 0.175D-02 0.560D-01 0.149D+00 0.325D+00 0.467D+00
 Gap=     0.166 Goal=   None    Shift=    0.000
 RMSDP=4.89D-05 MaxDP=2.79D-03 DE=-8.36D-04 OVMax= 4.23D-03

 Cycle   7  Pass 0  IDiag  1:
 E= -683.851183255065     Delta-E=       -0.000085955235 Rises=F Damp=F
 DIIS: error= 4.50D-04 at cycle   7 NSaved=   7.
 NSaved= 7 IEnMin= 7 EnMin= -683.851183255065     IErMin= 7 ErrMin= 4.50D-04
 ErrMax= 4.50D-04  0.00D+00 EMaxC= 1.00D-01 BMatC= 2.10D-05 BMatP= 1.35D-04
 IDIUse=3 WtCom= 9.95D-01 WtEn= 4.50D-03
 Coeff-Com:  0.490D-03-0.942D-03 0.228D-01 0.653D-01 0.168D+00 0.320D+00
 Coeff-Com:  0.425D+00
 Coeff-En:   0.000D+00 0.000D+00 0.000D+00 0.000D+00 0.000D+00 0.129D+00
 Coeff-En:   0.871D+00
 Coeff:      0.488D-03-0.937D-03 0.227D-01 0.650D-01 0.167D+00 0.319D+00
 Coeff:      0.427D+00
 Gap=     0.167 Goal=   None    Shift=    0.000
 RMSDP=2.02D-05 MaxDP=1.10D-03 DE=-8.60D-05 OVMax= 2.46D-03

 Cycle   8  Pass 0  IDiag  1:
 E= -683.851197515101     Delta-E=       -0.000014260036 Rises=F Damp=F
 DIIS: error= 2.03D-04 at cycle   8 NSaved=   8.
 NSaved= 8 IEnMin= 8 EnMin= -683.851197515101     IErMin= 8 ErrMin= 2.03D-04
 ErrMax= 2.03D-04  0.00D+00 EMaxC= 1.00D-01 BMatC= 4.34D-06 BMatP= 2.10D-05
 IDIUse=3 WtCom= 9.98D-01 WtEn= 2.03D-03
 Coeff-Com:  0.166D-03-0.126D-02 0.739D-02 0.233D-01 0.718D-01 0.159D+00
 Coeff-Com:  0.322D+00 0.417D+00
 Coeff-En:   0.000D+00 0.000D+00 0.000D+00 0.000D+00 0.000D+00 0.000D+00
 Coeff-En:   0.188D+00 0.812D+00
 Coeff:      0.166D-03-0.126D-02 0.737D-02 0.232D-01 0.717D-01 0.159D+00
 Coeff:      0.322D+00 0.418D+00
 Gap=     0.167 Goal=   None    Shift=    0.000
 RMSDP=7.40D-06 MaxDP=4.77D-04 DE=-1.43D-05 OVMax= 8.91D-04

 Initial convergence to 1.0D-05 achieved.  Increase integral accuracy.
 Cycle   9  Pass 1  IDiag  1:
 E= -683.851196367347     Delta-E=        0.000001147755 Rises=F Damp=F
 DIIS: error= 2.32D-05 at cycle   1 NSaved=   1.
 NSaved= 1 IEnMin= 1 EnMin= -683.851196367347     IErMin= 1 ErrMin= 2.32D-05
 ErrMax= 2.32D-05  0.00D+00 EMaxC= 1.00D-01 BMatC= 2.71D-07 BMatP= 2.71D-07
 IDIUse=1 WtCom= 1.00D+00 WtEn= 0.00D+00
 Coeff-Com:  0.100D+01
 Coeff:      0.100D+01
 Gap=     0.167 Goal=   None    Shift=    0.000
 RMSDP=7.40D-06 MaxDP=4.77D-04 DE= 1.15D-06 OVMax= 3.54D-04

 Cycle  10  Pass 1  IDiag  1:
 E= -683.851195791039     Delta-E=        0.000000576307 Rises=F Damp=F
 DIIS: error= 6.63D-05 at cycle   2 NSaved=   2.
 NSaved= 2 IEnMin= 1 EnMin= -683.851196367347     IErMin= 1 ErrMin= 2.32D-05
 ErrMax= 6.63D-05  0.00D+00 EMaxC= 1.00D-01 BMatC= 9.64D-07 BMatP= 2.71D-07
 IDIUse=1 WtCom= 1.00D+00 WtEn= 0.00D+00
 Coeff-Com:  0.669D+00 0.331D+00
 Coeff:      0.669D+00 0.331D+00
 Gap=     0.167 Goal=   None    Shift=    0.000
 RMSDP=4.01D-06 MaxDP=1.47D-04 DE= 5.76D-07 OVMax= 3.41D-04

 Cycle  11  Pass 1  IDiag  1:
 E= -683.851196613335     Delta-E=       -0.000000822296 Rises=F Damp=F
 DIIS: error= 2.22D-05 at cycle   3 NSaved=   3.
 NSaved= 3 IEnMin= 3 EnMin= -683.851196613335     IErMin= 3 ErrMin= 2.22D-05
 ErrMax= 2.22D-05  0.00D+00 EMaxC= 1.00D-01 BMatC= 4.43D-08 BMatP= 2.71D-07
 IDIUse=1 WtCom= 1.00D+00 WtEn= 0.00D+00
 Coeff-Com:  0.219D+00 0.188D+00 0.593D+00
 Coeff:      0.219D+00 0.188D+00 0.593D+00
 Gap=     0.167 Goal=   None    Shift=    0.000
 RMSDP=1.16D-06 MaxDP=6.96D-05 DE=-8.22D-07 OVMax= 1.49D-04

 Cycle  12  Pass 1  IDiag  1:
 E= -683.851196620073     Delta-E=       -0.000000006738 Rises=F Damp=F
 DIIS: error= 1.63D-05 at cycle   4 NSaved=   4.
 NSaved= 4 IEnMin= 4 EnMin= -683.851196620073     IErMin= 4 ErrMin= 1.63D-05
 ErrMax= 1.63D-05  0.00D+00 EMaxC= 1.00D-01 BMatC= 3.33D-08 BMatP= 4.43D-08
 IDIUse=1 WtCom= 1.00D+00 WtEn= 0.00D+00
 Coeff-Com:  0.367D-02 0.701D-01 0.501D+00 0.425D+00
 Coeff:      0.367D-02 0.701D-01 0.501D+00 0.425D+00
 Gap=     0.167 Goal=   None    Shift=    0.000
 RMSDP=6.83D-07 MaxDP=2.99D-05 DE=-6.74D-09 OVMax= 6.94D-05

 Cycle  13  Pass 1  IDiag  1:
 E= -683.851196647858     Delta-E=       -0.000000027785 Rises=F Damp=F
 DIIS: error= 1.39D-06 at cycle   5 NSaved=   5.
 NSaved= 5 IEnMin= 5 EnMin= -683.851196647858     IErMin= 5 ErrMin= 1.39D-06
 ErrMax= 1.39D-06  0.00D+00 EMaxC= 1.00D-01 BMatC= 1.10D-09 BMatP= 3.33D-08
 IDIUse=1 WtCom= 1.00D+00 WtEn= 0.00D+00
 Coeff-Com: -0.115D-01 0.315D-01 0.269D+00 0.257D+00 0.454D+00
 Coeff:     -0.115D-01 0.315D-01 0.269D+00 0.257D+00 0.454D+00
 Gap=     0.167 Goal=   None    Shift=    0.000
 RMSDP=1.29D-07 MaxDP=6.41D-06 DE=-2.78D-08 OVMax= 1.07D-05

 Cycle  14  Pass 1  IDiag  1:
 E= -683.851196648675     Delta-E=       -0.000000000817 Rises=F Damp=F
 DIIS: error= 3.54D-07 at cycle   6 NSaved=   6.
 NSaved= 6 IEnMin= 6 EnMin= -683.851196648675     IErMin= 6 ErrMin= 3.54D-07
 ErrMax= 3.54D-07  0.00D+00 EMaxC= 1.00D-01 BMatC= 6.12D-11 BMatP= 1.10D-09
 IDIUse=1 WtCom= 1.00D+00 WtEn= 0.00D+00
 Coeff-Com: -0.662D-02 0.129D-01 0.116D+00 0.114D+00 0.259D+00 0.505D+00
 Coeff:     -0.662D-02 0.129D-01 0.116D+00 0.114D+00 0.259D+00 0.505D+00
 Gap=     0.167 Goal=   None    Shift=    0.000
 RMSDP=3.42D-08 MaxDP=1.41D-06 DE=-8.17D-10 OVMax= 2.31D-06

 Cycle  15  Pass 1  IDiag  1:
 E= -683.851196648732     Delta-E=       -0.000000000057 Rises=F Damp=F
 DIIS: error= 1.02D-07 at cycle   7 NSaved=   7.
 NSaved= 7 IEnMin= 7 EnMin= -683.851196648732     IErMin= 7 ErrMin= 1.02D-07
 ErrMax= 1.02D-07  0.00D+00 EMaxC= 1.00D-01 BMatC= 5.44D-12 BMatP= 6.12D-11
 IDIUse=1 WtCom= 1.00D+00 WtEn= 0.00D+00
 Coeff-Com: -0.227D-02 0.333D-02 0.318D-01 0.319D-01 0.896D-01 0.275D+00
 Coeff-Com:  0.571D+00
 Coeff:     -0.227D-02 0.333D-02 0.318D-01 0.319D-01 0.896D-01 0.275D+00
 Coeff:      0.571D+00
 Gap=     0.167 Goal=   None    Shift=    0.000
 RMSDP=1.06D-08 MaxDP=4.19D-07 DE=-5.71D-11 OVMax= 9.70D-07

 Cycle  16  Pass 1  IDiag  1:
 E= -683.851196648758     Delta-E=       -0.000000000026 Rises=F Damp=F
 DIIS: error= 4.21D-08 at cycle   8 NSaved=   8.
 NSaved= 8 IEnMin= 8 EnMin= -683.851196648758     IErMin= 8 ErrMin= 4.21D-08
 ErrMax= 4.21D-08  0.00D+00 EMaxC= 1.00D-01 BMatC= 7.10D-13 BMatP= 5.44D-12
 IDIUse=1 WtCom= 1.00D+00 WtEn= 0.00D+00
 Coeff-Com: -0.519D-03 0.356D-03 0.445D-02 0.450D-02 0.202D-01 0.966D-01
 Coeff-Com:  0.321D+00 0.554D+00
 Coeff:     -0.519D-03 0.356D-03 0.445D-02 0.450D-02 0.202D-01 0.966D-01
 Coeff:      0.321D+00 0.554D+00
 Gap=     0.167 Goal=   None    Shift=    0.000
 RMSDP=4.04D-09 MaxDP=1.48D-07 DE=-2.61D-11 OVMax= 2.53D-07

 SCF Done:  E(RB3LYP) =  -683.851196649     A.U. after   16 cycles
            NFock= 16  Conv=0.40D-08     -V/T= 2.0041
 KE= 6.810596929017D+02 PE=-3.265517794894D+03 EE= 1.065874476982D+03
 Leave Link  502 at Fri Aug 20 15:50:42 2021, MaxMem= 24159191040 cpu:       156.2
 (Enter /public/home/users/caep010/software/Gaussian09/g09/l601.exe)
 Copying SCF densities to generalized density rwf, IOpCl= 0 IROHF=0.

 **********************************************************************

            Population analysis using the SCF density.

 **********************************************************************

 Orbital symmetries:
       Occupied  (A) (A) (A) (A) (A) (A) (A) (A) (A) (A) (A) (A)
                 (A) (A) (A) (A) (A) (A) (A) (A) (A) (A) (A) (A)
                 (A) (A) (A) (A) (A) (A) (A) (A) (A) (A) (A) (A)
                 (A) (A) (A) (A) (A) (A) (A) (A) (A) (A) (A) (A)
                 (A) (A) (A)
       Virtual   (A) (A) (A) (A) (A) (A) (A) (A) (A) (A) (A) (A)
                 (A) (A) (A) (A) (A) (A) (A) (A) (A) (A) (A) (A)
                 (A) (A) (A) (A) (A) (A) (A) (A) (A) (A) (A) (A)
                 (A) (A) (A) (A) (A) (A) (A) (A) (A) (A) (A) (A)
                 (A) (A) (A) (A) (A) (A) (A) (A) (A) (A) (A) (A)
                 (A) (A) (A) (A) (A) (A) (A) (A) (A) (A) (A) (A)
                 (A) (A) (A) (A) (A) (A) (A) (A) (A) (A) (A) (A)
                 (A) (A) (A) (A) (A) (A) (A) (A) (A) (A) (A) (A)
                 (A) (A) (A) (A) (A) (A) (A) (A) (A) (A) (A) (A)
                 (A) (A) (A) (A) (A) (A) (A) (A) (A) (A) (A) (A)
                 (A) (A) (A) (A) (A) (A) (A) (A) (A) (A) (A) (A)
                 (A) (A) (A) (A) (A) (A) (A) (A) (A) (A) (A) (A)
                 (A) (A) (A) (A) (A) (A) (A) (A) (A) (A) (A) (A)
                 (A) (A) (A) (A) (A) (A) (A) (A) (A) (A) (A) (A)
                 (A) (A) (A) (A) (A) (A) (A) (A) (A) (A) (A) (A)
                 (A) (A) (A) (A) (A) (A) (A) (A) (A) (A) (A) (A)
                 (A) (A) (A) (A) (A) (A) (A) (A) (A) (A) (A) (A)
                 (A) (A) (A) (A) (A)
 The electronic state is 1-A.
 Alpha  occ. eigenvalues --  -19.17835 -19.17713 -19.10896 -14.57234 -14.35087
 Alpha  occ. eigenvalues --  -10.26874 -10.25071 -10.22658 -10.21813 -10.20875
 Alpha  occ. eigenvalues --  -10.20543 -10.20541 -10.20043 -10.19558  -1.24187
 Alpha  occ. eigenvalues --   -1.06008  -1.04622  -0.97126  -0.91007  -0.84941
 Alpha  occ. eigenvalues --   -0.79774  -0.79644  -0.72330  -0.67925  -0.66821
 Alpha  occ. eigenvalues --   -0.66180  -0.61982  -0.57579  -0.56642  -0.54186
 Alpha  occ. eigenvalues --   -0.53103  -0.52635  -0.51044  -0.49995  -0.47900
 Alpha  occ. eigenvalues --   -0.47450  -0.47059  -0.43202  -0.42675  -0.40652
 Alpha  occ. eigenvalues --   -0.39351  -0.38929  -0.38558  -0.37499  -0.31072
 Alpha  occ. eigenvalues --   -0.31026  -0.29012  -0.28493  -0.28277  -0.26805
 Alpha  occ. eigenvalues --   -0.25149
 Alpha virt. eigenvalues --   -0.08482  -0.03360   0.00249   0.02945   0.08715
 Alpha virt. eigenvalues --    0.10817   0.12554   0.13459   0.13977   0.15925
 Alpha virt. eigenvalues --    0.16791   0.18096   0.18162   0.18851   0.20176
 Alpha virt. eigenvalues --    0.21368   0.22128   0.23139   0.24193   0.27984
 Alpha virt. eigenvalues --    0.29348   0.30131   0.31312   0.31519   0.34467
 Alpha virt. eigenvalues --    0.37997   0.38671   0.47436   0.48199   0.49006
 Alpha virt. eigenvalues --    0.49384   0.49911   0.50171   0.52530   0.53002
 Alpha virt. eigenvalues --    0.55399   0.56628   0.57211   0.58576   0.59275
 Alpha virt. eigenvalues --    0.59716   0.60652   0.63589   0.64221   0.65970
 Alpha virt. eigenvalues --    0.67480   0.67610   0.70371   0.70806   0.73224
 Alpha virt. eigenvalues --    0.74170   0.76893   0.78079   0.79178   0.80780
 Alpha virt. eigenvalues --    0.83795   0.85225   0.86164   0.87204   0.88342
 Alpha virt. eigenvalues --    0.89072   0.89684   0.91250   0.92366   0.93817
 Alpha virt. eigenvalues --    0.94220   0.95302   0.97625   0.98303   0.99401
 Alpha virt. eigenvalues --    0.99696   0.99848   1.00306   1.00742   1.04133
 Alpha virt. eigenvalues --    1.05469   1.06626   1.08512   1.09436   1.11607
 Alpha virt. eigenvalues --    1.14185   1.15588   1.19310   1.21836   1.23346
 Alpha virt. eigenvalues --    1.26093   1.27041   1.29162   1.33461   1.33691
 Alpha virt. eigenvalues --    1.34934   1.36035   1.37376   1.39548   1.42515
 Alpha virt. eigenvalues --    1.43770   1.45047   1.46143   1.47855   1.49992
 Alpha virt. eigenvalues --    1.55649   1.57378   1.66875   1.68862   1.71072
 Alpha virt. eigenvalues --    1.71477   1.72231   1.75015   1.78015   1.79285
 Alpha virt. eigenvalues --    1.80809   1.81309   1.82777   1.83138   1.83301
 Alpha virt. eigenvalues --    1.86214   1.89082   1.89921   1.92395   1.93104
 Alpha virt. eigenvalues --    1.94849   1.96023   1.97986   1.99196   2.00140
 Alpha virt. eigenvalues --    2.03406   2.06693   2.07513   2.08069   2.11621
 Alpha virt. eigenvalues --    2.12451   2.13157   2.13777   2.14880   2.16799
 Alpha virt. eigenvalues --    2.20849   2.24926   2.25957   2.28515   2.30499
 Alpha virt. eigenvalues --    2.32116   2.35341   2.38684   2.40015   2.42285
 Alpha virt. eigenvalues --    2.43949   2.45419   2.47249   2.48380   2.50024
 Alpha virt. eigenvalues --    2.51201   2.52786   2.53830   2.56499   2.58129
 Alpha virt. eigenvalues --    2.60093   2.60993   2.64360   2.66593   2.69264
 Alpha virt. eigenvalues --    2.70671   2.72368   2.72827   2.75071   2.77031
 Alpha virt. eigenvalues --    2.80646   2.82830   2.83746   2.88354   2.90036
 Alpha virt. eigenvalues --    2.91253   2.92849   2.94928   3.00063   3.00993
 Alpha virt. eigenvalues --    3.04539   3.05110   3.10032   3.11966   3.19305
 Alpha virt. eigenvalues --    3.19979   3.27991   3.34853   3.47911   3.51701
 Alpha virt. eigenvalues --    3.57100   3.61259   3.65137   3.68717   3.75444
 Alpha virt. eigenvalues --    3.81356   3.81948   3.84093   3.86429   3.90165
 Alpha virt. eigenvalues --    3.93348   4.02949   4.03108   4.11733   4.12290
 Alpha virt. eigenvalues --    4.16870   4.21680   4.31023   4.36031   4.42457
 Alpha virt. eigenvalues --    4.47915   4.61953   4.88727   4.91885
          Condensed to atoms (all electrons):
               1          2          3          4          5          6
     1  O    8.282388   0.305979  -0.120913  -0.097197  -0.001576   0.001052
     2  N    0.305979   5.945561   0.302881   0.162456  -0.042693   0.004487
     3  O   -0.120913   0.302881   8.287840  -0.094955   0.008007  -0.000052
     4  C   -0.097197   0.162456  -0.094955   4.950767   0.486940  -0.006716
     5  C   -0.001576  -0.042693   0.008007   0.486940   4.919422   0.476168
     6  C    0.001052   0.004487  -0.000052  -0.006716   0.476168   4.874865
     7  H   -0.000001  -0.000179   0.000001   0.006556  -0.047946   0.380922
     8  H    0.020997  -0.016394   0.000266  -0.041881   0.371138  -0.044525
     9  C   -0.000013   0.000335  -0.000007  -0.044373  -0.019187   0.530029
    10  C   -0.000052   0.004530   0.000958  -0.008536  -0.055097  -0.022521
    11  H    0.000001  -0.000129  -0.000002   0.005282   0.000826   0.008476
    12  C    0.008049  -0.041554  -0.003946   0.489379  -0.089023  -0.055215
    13  H    0.000337  -0.017011   0.023574  -0.039749   0.009166   0.000143
    14  C    0.000000   0.000002   0.000000   0.000307   0.006835  -0.064362
    15  H    0.000000  -0.000000   0.000000   0.000043  -0.000128  -0.007398
    16  H    0.000000  -0.000000   0.000000   0.000013  -0.000253   0.005805
    17  C   -0.000000   0.000000  -0.000000   0.000021   0.000126  -0.005527
    18  H    0.000000  -0.000000   0.000000  -0.000024  -0.000162   0.005673
    19  N    0.000000  -0.000000   0.000000  -0.000000   0.000001   0.000146
    20  H    0.000000  -0.000000   0.000000  -0.000013  -0.000028  -0.000635
    21  H   -0.000000  -0.000000   0.000000   0.000000  -0.000000   0.000004
    22  C   -0.000000   0.000000  -0.000000   0.000000  -0.000000  -0.000010
    23  O    0.000000   0.000000   0.000000  -0.000000  -0.000000  -0.000001
    24  H    0.000000   0.000000   0.000000   0.000000   0.000000  -0.000000
               7          8          9         10         11         12
     1  O   -0.000001   0.020997  -0.000013  -0.000052   0.000001   0.008049
     2  N   -0.000179  -0.016394   0.000335   0.004530  -0.000129  -0.041554
     3  O    0.000001   0.000266  -0.000007   0.000958  -0.000002  -0.003946
     4  C    0.006556  -0.041881  -0.044373  -0.008536   0.005282   0.489379
     5  C   -0.047946   0.371138  -0.019187  -0.055097   0.000826  -0.089023
     6  C    0.380922  -0.044525   0.530029  -0.022521   0.008476  -0.055215
     7  H    0.668485  -0.010605  -0.059289   0.009125  -0.000342   0.001038
     8  H   -0.010605   0.620744   0.006567   0.000166   0.000038   0.009543
     9  C   -0.059289   0.006567   4.715420   0.539382  -0.051176  -0.023899
    10  C    0.009125   0.000166   0.539382   4.893012   0.380046   0.468235
    11  H   -0.000342   0.000038  -0.051176   0.380046   0.639696  -0.046688
    12  C    0.001038   0.009543  -0.023899   0.468235  -0.046688   4.943150
    13  H    0.000040  -0.000295   0.005720  -0.041946  -0.007605   0.368616
    14  C   -0.012022  -0.000207   0.386471  -0.057112  -0.012888   0.007391
    15  H    0.004172  -0.000007  -0.019497   0.005146   0.000219  -0.000362
    16  H    0.000114   0.000005  -0.020945  -0.008070   0.005803   0.000059
    17  C    0.000226  -0.000004  -0.049328  -0.004255   0.000201  -0.000076
    18  H    0.001245   0.000010  -0.002512  -0.000163   0.000021   0.000013
    19  N   -0.000065  -0.000000   0.003322   0.000043  -0.000022   0.000001
    20  H    0.000039   0.000000  -0.000848   0.003747   0.000318  -0.000128
    21  H    0.000006  -0.000000   0.000178   0.000007   0.000003  -0.000000
    22  C   -0.000002  -0.000000  -0.000102  -0.000007  -0.000001  -0.000000
    23  O   -0.000000  -0.000000   0.000003  -0.000001  -0.000000  -0.000000
    24  H   -0.000000  -0.000000   0.000005  -0.000000  -0.000000   0.000000
              13         14         15         16         17         18
     1  O    0.000337   0.000000   0.000000   0.000000  -0.000000   0.000000
     2  N   -0.017011   0.000002  -0.000000  -0.000000   0.000000  -0.000000
     3  O    0.023574   0.000000   0.000000   0.000000  -0.000000   0.000000
     4  C   -0.039749   0.000307   0.000043   0.000013   0.000021  -0.000024
     5  C    0.009166   0.006835  -0.000128  -0.000253   0.000126  -0.000162
     6  C    0.000143  -0.064362  -0.007398   0.005805  -0.005527   0.005673
     7  H    0.000040  -0.012022   0.004172   0.000114   0.000226   0.001245
     8  H   -0.000295  -0.000207  -0.000007   0.000005  -0.000004   0.000010
     9  C    0.005720   0.386471  -0.019497  -0.020945  -0.049328  -0.002512
    10  C   -0.041946  -0.057112   0.005146  -0.008070  -0.004255  -0.000163
    11  H   -0.007605  -0.012888   0.000219   0.005803   0.000201   0.000021
    12  C    0.368616   0.007391  -0.000362   0.000059  -0.000076   0.000013
    13  H    0.599010  -0.000183   0.000004  -0.000006  -0.000002   0.000000
    14  C   -0.000183   4.994829   0.376569   0.377692   0.360959  -0.045942
    15  H    0.000004   0.376569   0.612982  -0.048215  -0.036488  -0.010279
    16  H   -0.000006   0.377692  -0.048215   0.611896  -0.040126   0.008961
    17  C   -0.000002   0.360959  -0.036488  -0.040126   4.774560   0.408802
    18  H    0.000000  -0.045942  -0.010279   0.008961   0.408802   0.604027
    19  N   -0.000000  -0.033280  -0.003764  -0.000153   0.243213  -0.050474
    20  H    0.000002  -0.033690   0.008772  -0.011242   0.402245  -0.051729
    21  H    0.000000  -0.002823   0.002717   0.000654  -0.049447   0.003679
    22  C    0.000000   0.007162  -0.000182   0.000029  -0.018106  -0.003485
    23  O   -0.000000   0.001008  -0.000015  -0.000015   0.009315   0.003787
    24  H   -0.000000   0.000041  -0.000019  -0.000013   0.009136  -0.000013
              19         20         21         22         23         24
     1  O    0.000000   0.000000  -0.000000  -0.000000   0.000000   0.000000
     2  N   -0.000000  -0.000000  -0.000000   0.000000   0.000000   0.000000
     3  O    0.000000   0.000000   0.000000  -0.000000   0.000000   0.000000
     4  C   -0.000000  -0.000013   0.000000   0.000000  -0.000000   0.000000
     5  C    0.000001  -0.000028  -0.000000  -0.000000  -0.000000   0.000000
     6  C    0.000146  -0.000635   0.000004  -0.000010  -0.000001  -0.000000
     7  H   -0.000065   0.000039   0.000006  -0.000002  -0.000000  -0.000000
     8  H   -0.000000   0.000000  -0.000000  -0.000000  -0.000000  -0.000000
     9  C    0.003322  -0.000848   0.000178  -0.000102   0.000003   0.000005
    10  C    0.000043   0.003747   0.000007  -0.000007  -0.000001  -0.000000
    11  H   -0.000022   0.000318   0.000003  -0.000001  -0.000000  -0.000000
    12  C    0.000001  -0.000128  -0.000000  -0.000000  -0.000000   0.000000
    13  H   -0.000000   0.000002   0.000000   0.000000  -0.000000  -0.000000
    14  C   -0.033280  -0.033690  -0.002823   0.007162   0.001008   0.000041
    15  H   -0.003764   0.008772   0.002717  -0.000182  -0.000015  -0.000019
    16  H   -0.000153  -0.011242   0.000654   0.000029  -0.000015  -0.000013
    17  C    0.243213   0.402245  -0.049447  -0.018106   0.009315   0.009136
    18  H   -0.050474  -0.051729   0.003679  -0.003485   0.003787  -0.000013
    19  N    6.856532  -0.044909   0.401711   0.273156  -0.108324  -0.144048
    20  H   -0.044909   0.575221   0.006403  -0.004441   0.010262   0.000573
    21  H    0.401711   0.006403   0.481107  -0.020782   0.005095  -0.004066
    22  C    0.273156  -0.004441  -0.020782   4.370593   0.595931   0.400096
    23  O   -0.108324   0.010262   0.005095   0.595931   8.030399  -0.056822
    24  H   -0.144048   0.000573  -0.004066   0.400096  -0.056822   0.728217
 Mulliken charges:
               1
     1  O   -0.399053
     2  N    0.391729
     3  O   -0.403653
     4  C    0.231680
     5  C   -0.022537
     6  C   -0.080810
     7  H    0.058481
     8  H    0.084446
     9  C    0.103744
    10  C   -0.106638
    11  H    0.077922
    12  C   -0.034584
    13  H    0.100184
    14  C   -0.256756
    15  H    0.115730
    16  H    0.118008
    17  C   -0.005447
    18  H    0.128564
    19  N   -0.393086
    20  H    0.140080
    21  H    0.175555
    22  C    0.400151
    23  O   -0.490622
    24  H    0.066912
 Sum of Mulliken charges =  -0.00000
 Mulliken charges with hydrogens summed into heavy atoms:
               1
     1  O   -0.399053
     2  N    0.391729
     3  O   -0.403653
     4  C    0.231680
     5  C    0.061910
     6  C   -0.022329
     9  C    0.103744
    10  C   -0.028717
    12  C    0.065601
    14  C   -0.023019
    17  C    0.263196
    19  N   -0.217531
    22  C    0.467063
    23  O   -0.490622
 Electronic spatial extent (au):  <R**2>=           4352.6045
 Charge=              0.0000 electrons
 Dipole moment (field-independent basis, Debye):
    X=             -3.7845    Y=              1.6142    Z=             -4.9291  Tot=              6.4206
 Quadrupole moment (field-independent basis, Debye-Ang):
   XX=           -103.0106   YY=            -76.2083   ZZ=            -83.4670
   XY=             -2.8045   XZ=             13.2803   YZ=              2.4582
 Traceless Quadrupole moment (field-independent basis, Debye-Ang):
   XX=            -15.4486   YY=             11.3536   ZZ=              4.0950
   XY=             -2.8045   XZ=             13.2803   YZ=              2.4582
 Octapole moment (field-independent basis, Debye-Ang**2):
  XXX=           -118.9748  YYY=              0.7104  ZZZ=             -4.9176  XYY=             -2.2244
  XXY=             29.9180  XXZ=            -94.1677  XZZ=             18.4298  YZZ=             -0.2506
  YYZ=             -0.1812  XYZ=            -11.0039
 Hexadecapole moment (field-independent basis, Debye-Ang**3):
 XXXX=          -5010.4494 YYYY=           -371.1830 ZZZZ=           -371.1614 XXXY=            -42.9305
 XXXZ=            241.6728 YYYX=              5.0712 YYYZ=              7.7210 ZZZX=             66.3194
 ZZZY=              6.9389 XXYY=           -871.8214 XXZZ=           -934.8372 YYZZ=           -125.5641
 XXYZ=             23.1880 YYXZ=              4.9600 ZZXY=            -28.5294
 N-N= 8.347324283619D+02 E-N=-3.265517798206D+03  KE= 6.810596929017D+02
 No NMR shielding tensors so no spin-rotation constants.
 Leave Link  601 at Fri Aug 20 15:50:42 2021, MaxMem= 24159191040 cpu:        11.3
 (Enter /public/home/users/caep010/software/Gaussian09/g09/l701.exe)
 Compute integral first derivatives.
 ... and contract with generalized density number  0.
 Leave Link  701 at Fri Aug 20 15:50:42 2021, MaxMem= 24159191040 cpu:        11.4
 (Enter /public/home/users/caep010/software/Gaussian09/g09/l702.exe)
 L702 exits ... SP integral derivatives will be done elsewhere.
 Leave Link  702 at Fri Aug 20 15:50:43 2021, MaxMem= 24159191040 cpu:         0.5
 (Enter /public/home/users/caep010/software/Gaussian09/g09/l703.exe)
 Compute integral first derivatives, UseDBF=F ICtDFT=           0.
 Integral derivatives from FoFJK, PRISM(SPDF).
 Calling FoFJK, ICntrl=      2127 FMM=F ISym2X=0 I1Cent= 0 IOpClX= 0 NMat=1 NMatS=1 NMatT=0.
 FoFJK:  IHMeth= 1 ICntrl=    2127 DoSepK=F KAlg= 0 I1Cent=   0 FoldK=F
 IRaf=         0 NMat=   1 IRICut=       1 DoRegI=T DoRafI=F ISym2E= 0.
 FoFCou: FMM=F IPFlag=           0 FMFlag=      100000 FMFlg1=         800
         NFxFlg=           0 DoJE=F BraDBF=F KetDBF=F FulRan=T
         wScrn=  0.000000 ICntrl=    2127 IOpCl=  0 I1Cent=           0 NGrid=           0
         NMat0=    1 NMatS0=      1 NMatT0=    0 NMatD0=    1 NMtDS0=    0 NMtDT0=    0
 Symmetry not used in FoFCou.
 Leave Link  703 at Fri Aug 20 15:50:44 2021, MaxMem= 24159191040 cpu:        29.6
 (Enter /public/home/users/caep010/software/Gaussian09/g09/l716.exe)
 Dipole        =-1.48894561D+00 6.35059593D-01-1.93927519D+00
 ***** Axes restored to original set *****
 -------------------------------------------------------------------
 Center     Atomic                   Forces (Hartrees/Bohr)
 Number     Number              X              Y              Z
 -------------------------------------------------------------------
      1        8           0.000305073    0.038061196   -0.003704228
      2        7           0.003396814   -0.006939531    0.007123282
      3        8          -0.006826284   -0.029094865   -0.006413045
      4        6          -0.007999746   -0.000302093   -0.008674006
      5        6           0.050138198   -0.159656727    0.043807480
      6        6          -0.062813487   -0.125302685   -0.086385685
      7        1           0.068253612    0.143582395    0.091913562
      8        1          -0.053210674    0.177381932   -0.044686329
      9        6           0.009459694    0.000052079    0.010463279
     10        6          -0.025806757    0.083844121   -0.028644342
     11        1           0.025788169   -0.105001736    0.027970187
     12        6           0.050041291    0.089413041    0.065733426
     13        1          -0.052729952   -0.105772219   -0.073652934
     14        6          -0.119645830   -0.016952217   -0.010387965
     15        1           0.100643754    0.091077202    0.004551193
     16        1           0.038095769   -0.081786171   -0.007590870
     17        6           0.082615135    0.039192495    0.014348741
     18        1          -0.025862636    0.052651605    0.000612641
     19        7          -0.486829799   -0.018362536   -0.029509941
     20        1          -0.082072933   -0.079713364   -0.000550457
     21        1           0.523574190    0.018729320   -0.017673729
     22        6          -0.090475848    0.004249544   -0.053702387
     23        8          -0.019536880    0.000503816    0.003656533
     24        1           0.081499126   -0.009854603    0.101395594
 -------------------------------------------------------------------
 Cartesian Forces:  Max     0.523574190 RMS     0.104950683
 Leave Link  716 at Fri Aug 20 15:50:44 2021, MaxMem= 24159191040 cpu:         0.7
 (Enter /public/home/users/caep010/software/Gaussian09/g09/l103.exe)

 GradGradGradGradGradGradGradGradGradGradGradGradGradGradGradGradGradGrad
 Berny optimization.
 FormGI is forming the generalized inverse of G from B-inverse, IUseBI=4.
 Internal  Forces:  Max     0.524200387 RMS     0.062026908
 Search for a local minimum.
 Step number   1 out of a maximum of  126
 All quantities printed in internal units (Hartrees-Bohrs-Radians)
 RMS Force = .62027D-01 SwitMx=.10000D-02 MixMth= 1
 Mixed Optimization -- RFO/linear search
 Second derivative matrix not updated -- first step.
 ITU=  0
     Eigenvalues ---    0.00635   0.00742   0.00837   0.00838   0.00973
     Eigenvalues ---    0.01651   0.01757   0.01971   0.02324   0.02333
     Eigenvalues ---    0.02341   0.02354   0.02378   0.02412   0.02433
     Eigenvalues ---    0.02923   0.02924   0.04207   0.04713   0.05540
     Eigenvalues ---    0.05846   0.08748   0.09775   0.12461   0.13037
     Eigenvalues ---    0.15911   0.15963   0.15993   0.15995   0.15998
     Eigenvalues ---    0.16000   0.21889   0.22001   0.22003   0.22004
     Eigenvalues ---    0.22008   0.22988   0.23989   0.24952   0.24998
     Eigenvalues ---    0.25000   0.25000   0.31360   0.32187   0.36396
     Eigenvalues ---    0.37683   0.43641   0.44085   0.44913   0.48687
     Eigenvalues ---    0.48866   0.49092   0.49678   0.50266   0.53068
     Eigenvalues ---    0.53292   0.54076   0.56326   0.57825   0.64408
     Eigenvalues ---    0.65300   0.65717   0.96264   0.97832   1.00679
     Eigenvalues ---    1.34070
 RFO step:  Lambda=-3.46861479D-01 EMin= 6.34938560D-03
 Linear search not attempted -- first point.
 Maximum step size (   0.300) exceeded in Quadratic search.
    -- Step size scaled by   0.552
 Iteration  1 RMS(Cart)=  0.03323706 RMS(Int)=  0.00017149
 Iteration  2 RMS(Cart)=  0.00019706 RMS(Int)=  0.00000421
 Iteration  3 RMS(Cart)=  0.00000009 RMS(Int)=  0.00000421
 ITry= 1 IFail=0 DXMaxC= 1.66D-01 DCOld= 1.00D+10 DXMaxT= 3.00D-01 DXLimC= 3.00D+00 Rises=F
 Variable       Old X    -DE/DX   Delta X   Delta X   Delta X     New X
                                 (Linear)    (Quad)   (Total)
    R1        2.28368   0.03694   0.00000   0.01507   0.01507   2.29875
    R2        2.29520   0.02862   0.00000   0.01193   0.01193   2.30712
    R3        2.76766   0.00455   0.00000   0.00354   0.00354   2.77120
    R4        2.59226   0.02066   0.00000   0.01337   0.01337   2.60563
    R5        2.59702   0.01893   0.00000   0.01230   0.01230   2.60932
    R6        2.61270   0.01447   0.00000   0.00962   0.00962   2.62232
    R7        1.73384   0.19037   0.00000   0.10472   0.10472   1.83855
    R8        1.74314   0.18355   0.00000   0.10230   0.10230   1.84543
    R9        2.61169   0.02032   0.00000   0.01348   0.01348   2.62517
   R10        2.60786   0.02254   0.00000   0.01486   0.01486   2.62272
   R11        2.85330   0.00533   0.00000   0.00446   0.00446   2.85777
   R12        1.83382   0.11165   0.00000   0.07009   0.07009   1.90391
   R13        2.61150   0.01218   0.00000   0.00804   0.00804   2.61953
   R14        1.79404   0.13923   0.00000   0.08312   0.08312   1.87716
   R15        1.80672   0.13578   0.00000   0.08240   0.08240   1.88911
   R16        1.87493   0.09027   0.00000   0.05951   0.05951   1.93444
   R17        2.83804   0.02538   0.00000   0.02096   0.02096   2.85900
   R18        1.93587   0.05865   0.00000   0.04135   0.04135   1.97722
   R19        2.74829   0.00832   0.00000   0.00635   0.00635   2.75464
   R20        1.83591   0.11430   0.00000   0.07194   0.07194   1.90784
   R21        1.44153   0.52420   0.00000   0.17155   0.17155   1.61308
   R22        2.46977   0.05892   0.00000   0.03254   0.03254   2.50232
   R23        2.30173   0.01984   0.00000   0.00837   0.00837   2.31010
   R24        1.82662   0.13045   0.00000   0.08117   0.08117   1.90779
    A1        2.14319   0.01572   0.00000   0.01455   0.01455   2.15774
    A2        2.06600  -0.00693   0.00000  -0.00641  -0.00641   2.05958
    A3        2.07399  -0.00879   0.00000  -0.00813  -0.00813   2.06586
    A4        2.07863  -0.00201   0.00000  -0.00185  -0.00185   2.07678
    A5        2.07143  -0.00022   0.00000  -0.00020  -0.00020   2.07124
    A6        2.13306   0.00223   0.00000   0.00205   0.00205   2.13511
    A7        2.06485  -0.00062   0.00000  -0.00051  -0.00051   2.06434
    A8        2.11732  -0.00168   0.00000  -0.00187  -0.00187   2.11545
    A9        2.09624   0.00253   0.00000   0.00273   0.00272   2.09896
   A10        2.04082   0.00531   0.00000   0.00562   0.00562   2.04644
   A11        2.11411  -0.00193   0.00000  -0.00177  -0.00177   2.11234
   A12        2.12782  -0.00337   0.00000  -0.00383  -0.00383   2.12398
   A13        2.07495   0.00197   0.00000   0.00190   0.00190   2.07685
   A14        2.09893  -0.00065   0.00000  -0.00063  -0.00063   2.09830
   A15        2.10769  -0.00129   0.00000  -0.00122  -0.00122   2.10647
   A16        2.07640   0.00250   0.00000   0.00267   0.00267   2.07907
   A17        2.11274  -0.00093   0.00000  -0.00091  -0.00091   2.11183
   A18        2.09391  -0.00156   0.00000  -0.00175  -0.00175   2.09215
   A19        2.06656  -0.00072   0.00000  -0.00075  -0.00075   2.06581
   A20        2.07426   0.00298   0.00000   0.00323   0.00323   2.07749
   A21        2.14210  -0.00224   0.00000  -0.00246  -0.00246   2.13964
   A22        1.93155  -0.00181   0.00000  -0.00228  -0.00229   1.92926
   A23        1.93283  -0.00378   0.00000  -0.00442  -0.00443   1.92840
   A24        1.91160   0.00260   0.00000   0.00274   0.00274   1.91434
   A25        1.91657  -0.00112   0.00000  -0.00167  -0.00169   1.91489
   A26        1.90645   0.00014   0.00000   0.00050   0.00050   1.90695
   A27        1.86347   0.00423   0.00000   0.00548   0.00548   1.86894
   A28        1.90876   0.00242   0.00000   0.00259   0.00260   1.91136
   A29        1.97642  -0.00878   0.00000  -0.00882  -0.00882   1.96760
   A30        1.96240   0.00024   0.00000  -0.00055  -0.00057   1.96183
   A31        1.87381   0.00431   0.00000   0.00479   0.00480   1.87861
   A32        1.83441   0.00041   0.00000   0.00130   0.00129   1.83571
   A33        1.90063   0.00230   0.00000   0.00173   0.00170   1.90233
   A34        2.09121  -0.00122   0.00000  -0.00139  -0.00139   2.08981
   A35        2.11025  -0.00117   0.00000  -0.00114  -0.00114   2.10911
   A36        2.07870   0.00242   0.00000   0.00257   0.00257   2.08128
   A37        2.16976   0.00107   0.00000   0.00105   0.00105   2.17080
   A38        1.98009   0.00064   0.00000   0.00076   0.00076   1.98085
   A39        2.13318  -0.00169   0.00000  -0.00177  -0.00177   2.13141
    D1        0.10137  -0.00041   0.00000  -0.00062  -0.00062   0.10075
    D2       -3.05255   0.00003   0.00000   0.00002   0.00002  -3.05253
    D3       -3.03656  -0.00108   0.00000  -0.00166  -0.00166  -3.03822
    D4        0.09271  -0.00064   0.00000  -0.00102  -0.00102   0.09169
    D5        3.13708   0.00032   0.00000   0.00047   0.00047   3.13755
    D6        0.10031  -0.00236   0.00000  -0.00347  -0.00347   0.09684
    D7        0.00827  -0.00011   0.00000  -0.00017  -0.00017   0.00809
    D8       -3.02851  -0.00280   0.00000  -0.00412  -0.00411  -3.03262
    D9        3.13957  -0.00007   0.00000  -0.00010  -0.00009   3.13947
   D10        0.02155  -0.00061   0.00000  -0.00092  -0.00092   0.02063
   D11       -0.01475   0.00034   0.00000   0.00054   0.00054  -0.01421
   D12       -3.13277  -0.00019   0.00000  -0.00028  -0.00028  -3.13306
   D13        3.11384   0.00027   0.00000   0.00042   0.00042   3.11426
   D14        0.00363  -0.00017   0.00000  -0.00026  -0.00026   0.00337
   D15       -0.13127   0.00266   0.00000   0.00403   0.00404  -0.12723
   D16        3.04172   0.00223   0.00000   0.00335   0.00336   3.04507
   D17       -0.00851   0.00019   0.00000   0.00031   0.00031  -0.00820
   D18       -3.08960  -0.00040   0.00000  -0.00062  -0.00062  -3.09022
   D19       -3.11713  -0.00043   0.00000  -0.00058  -0.00058  -3.11771
   D20        0.08497  -0.00101   0.00000  -0.00151  -0.00151   0.08346
   D21        3.12558   0.00035   0.00000   0.00051   0.00051   3.12609
   D22        0.00178   0.00006   0.00000   0.00008   0.00008   0.00186
   D23       -0.07683   0.00096   0.00000   0.00146   0.00146  -0.07537
   D24        3.08256   0.00067   0.00000   0.00103   0.00103   3.08359
   D25       -0.70546  -0.00141   0.00000  -0.00168  -0.00167  -0.70713
   D26       -2.83514   0.00383   0.00000   0.00501   0.00501  -2.83013
   D27        1.39740  -0.00070   0.00000  -0.00073  -0.00073   1.39668
   D28        2.49778  -0.00212   0.00000  -0.00273  -0.00272   2.49506
   D29        0.36811   0.00312   0.00000   0.00396   0.00395   0.37206
   D30       -1.68254  -0.00140   0.00000  -0.00178  -0.00178  -1.68432
   D31        0.00953  -0.00034   0.00000  -0.00050  -0.00050   0.00903
   D32        3.12658   0.00030   0.00000   0.00044   0.00044   3.12701
   D33       -3.11410  -0.00066   0.00000  -0.00098  -0.00098  -3.11507
   D34        0.00295  -0.00003   0.00000  -0.00004  -0.00004   0.00291
   D35       -0.99375  -0.00045   0.00000  -0.00044  -0.00044  -0.99419
   D36       -3.08255  -0.00188   0.00000  -0.00259  -0.00258  -3.08513
   D37        1.03704   0.00174   0.00000   0.00247   0.00247   1.03951
   D38        1.12433  -0.00096   0.00000  -0.00123  -0.00123   1.12310
   D39       -0.96447  -0.00239   0.00000  -0.00338  -0.00337  -0.96784
   D40       -3.12806   0.00123   0.00000   0.00169   0.00168  -3.12638
   D41       -3.08738   0.00017   0.00000   0.00014   0.00013  -3.08725
   D42        1.10700  -0.00127   0.00000  -0.00201  -0.00201   1.10500
   D43       -1.05659   0.00235   0.00000   0.00305   0.00305  -1.05354
   D44        0.21072   0.00156   0.00000   0.00223   0.00223   0.21295
   D45       -3.01509   0.00203   0.00000   0.00291   0.00291  -3.01219
   D46       -1.89798   0.00102   0.00000   0.00117   0.00118  -1.89680
   D47        1.15939   0.00149   0.00000   0.00185   0.00186   1.16125
   D48        2.40769  -0.00276   0.00000  -0.00362  -0.00362   2.40407
   D49       -0.81812  -0.00230   0.00000  -0.00294  -0.00294  -0.82106
   D50        0.03434  -0.00074   0.00000  -0.00111  -0.00111   0.03323
   D51       -3.12619   0.00072   0.00000   0.00103   0.00102  -3.12517
   D52        3.09231  -0.00045   0.00000  -0.00063  -0.00063   3.09168
   D53       -0.06822   0.00101   0.00000   0.00151   0.00151  -0.06671
         Item               Value     Threshold  Converged?
 Maximum Force            0.524200     0.000450     NO 
 RMS     Force            0.062027     0.000300     NO 
 Maximum Displacement     0.165600     0.001800     NO 
 RMS     Displacement     0.033233     0.001200     NO 
 Predicted change in Energy=-1.543111D-01
 Lowest energy point so far.  Saving SCF results.
 GradGradGradGradGradGradGradGradGradGradGradGradGradGradGradGradGradGrad

 Leave Link  103 at Fri Aug 20 15:50:44 2021, MaxMem= 24159191040 cpu:         2.8
 (Enter /public/home/users/caep010/software/Gaussian09/g09/l202.exe)
                          Input orientation:                          
 ---------------------------------------------------------------------
 Center     Atomic      Atomic             Coordinates (Angstroms)
 Number     Number       Type             X           Y           Z
 ---------------------------------------------------------------------
      1          8           0        2.380506   12.771942    5.026519
      2          7           0        2.558450   11.622689    5.383301
      3          8           0        2.036917   10.659081    4.844777
      4          6           0        3.446608   11.386107    6.525973
      5          6           0        3.944400   12.468114    7.220716
      6          6           0        4.779530   12.227103    8.302428
      7          1           0        5.142295   13.004403    8.769201
      8          1           0        3.654863   13.374382    7.017192
      9          6           0        5.111051   10.930896    8.676281
     10          6           0        4.585418    9.867606    7.955628
     11          1           0        4.835313    8.927139    8.216673
     12          6           0        3.743190   10.083776    6.876062
     13          1           0        3.363483    9.341163    6.336533
     14          6           0        5.968587   10.686666    9.897725
     15          1           0        6.705862   11.359834    9.948939
     16          1           0        6.363849    9.742668    9.875090
     17          6           0        5.117818   10.782455   11.145099
     18          1           0        4.651144   11.718311   11.178823
     19          7           0        5.894282   10.631757   12.369545
     20          1           0        4.364003   10.110880   11.149249
     21          1           0        6.746732   10.661683   12.336727
     22          6           0        5.294867   10.542807   13.546921
     23          8           0        4.082849   10.544078   13.706277
     24          1           0        5.937884   10.456559   14.320420
 ---------------------------------------------------------------------
                    Distance matrix (angstroms):
                    1          2          3          4          5
     1  O    0.000000
     2  N    1.216446   0.000000
     3  O    2.148316   1.220878   0.000000
     4  C    2.303362   1.466457   2.311323   0.000000
     5  C    2.711564   2.451876   3.543469   1.378841   0.000000
     6  C    4.096797   3.717501   4.683584   2.374815   1.387670
     7  H    4.657166   4.477691   5.526754   3.244427   2.029868
     8  H    2.439201   2.634417   3.835360   2.058616   0.972921
     9  C    4.915901   4.223513   4.919817   2.757065   2.417184
    10  C    4.677230   3.715613   4.098619   2.376267   2.777344
    11  H    5.566477   4.525272   4.711722   3.291427   3.784726
    12  C    3.536093   2.449530   2.714490   1.380793   2.417506
    13  H    3.801661   2.600401   2.392074   2.055381   3.301070
    14  C    6.399324   5.734562   6.402427   4.268291   3.799640
    15  H    6.703206   6.173749   6.952882   4.726534   4.036974
    16  H    6.967939   6.179945   6.698224   4.735797   4.508602
    17  C    6.991993   6.360399   7.014358   4.949107   4.429349
    18  H    6.642047   6.162515   6.933706   4.817705   4.090025
    19  N    8.417069   7.804956   8.455894   6.380242   5.803851
    20  H    6.964434   6.228302   6.742567   4.882878   4.600651
    21  H    8.772472   8.174068   8.849388   6.721642   6.106540
    22  C    9.276842   8.677489   9.292742   7.308962   6.749180
    23  O    9.121379   8.529896   9.095342   7.257450   6.766357
    24  H   10.217267   9.625619  10.249213   8.235528   7.643699
                    6          7          8          9         10
     6  C    0.000000
     7  H    0.976561   0.000000
     8  H    2.057414   2.327848   0.000000
     9  C    1.389181   2.075823   3.292974   0.000000
    10  C    2.392735   3.288086   3.747542   1.387882   0.000000
    11  H    3.301549   4.125967   4.755016   2.074202   1.007507
    12  C    2.775315   3.751204   3.294814   2.414424   1.386196
    13  H    3.768100   4.743561   4.100616   3.325006   2.095646
    14  C    2.516302   2.707070   4.568873   1.512264   2.521063
    15  H    2.678416   2.557563   4.686378   2.084963   3.270523
    16  H    3.340023   3.654326   5.356821   2.102031   2.619688
    17  C    3.206591   3.253082   5.089002   2.473286   3.360525
    18  H    2.923868   2.775165   4.588499   2.663504   3.717313
    19  N    4.508796   4.376917   6.417528   3.787233   4.666875
    20  H    3.571478   3.826596   5.312929   2.710365   3.210518
    21  H    4.753525   4.559583   6.724273   4.018308   4.949331
    22  C    5.532371   5.376740   7.303752   4.889533   5.676423
    23  O    5.702589   5.616969   7.275827   5.148562   5.812071
    24  H    6.379094   6.159586   8.189201   5.724069   6.533500
                   11         12         13         14         15
    11  H    0.000000
    12  C    2.080332   0.000000
    13  H    2.423350   0.993349   0.000000
    14  C    2.684433   3.800831   4.612920   0.000000
    15  H    3.523877   4.455146   5.319399   0.999676   0.000000
    16  H    2.398303   3.997297   4.656693   1.023659   1.654586
    17  C    3.478172   4.538990   5.317642   1.512919   2.070278
    18  H    4.074173   4.691465   5.545870   2.107406   2.421360
    19  N    4.612318   5.925018   6.668419   2.473546   2.654824
    20  H    3.197401   4.318133   4.975514   2.114836   2.912891
    21  H    4.861791   6.258922   7.013735   2.560247   2.488095
    22  C    5.588659   6.864311   7.560680   3.713654   3.950179
    23  O    5.772040   6.854130   7.501841   4.252224   4.654380
    24  H    6.388311   7.770079   8.462512   4.428784   4.529409
                   16         17         18         19         20
    16  H    0.000000
    17  C    2.060746   0.000000
    18  H    2.921685   1.046302   0.000000
    19  N    2.689475   1.457695   2.035635   0.000000
    20  H    2.399676   1.009587   1.633143   2.025386   0.000000
    21  H    2.655343   2.021861   2.617001   0.853606   2.718618
    22  C    3.907081   2.420232   2.721043   1.324169   2.608045
    23  O    4.530256   2.772656   2.844258   2.252961   2.608659
    24  H    4.522394   3.295661   3.621788   1.959212   3.557095
                   21         22         23         24
    21  H    0.000000
    22  C    1.893835   0.000000
    23  O    2.997628   1.222451   0.000000
    24  H    2.152057   1.009560   1.956013   0.000000
 Stoichiometry    C9H10N2O3
 Framework group  C1[X(C9H10N2O3)]
[...]
 1190,-0.00103085,0.05539286,-0.00006046,0.00007351,-0.00010253,0.00036
 203,-0.00006180,0.00044740,-0.00015361,-0.00012589,-0.00009860,-0.0003
 8907,-0.00004741,-0.00042075,0.00088603,0.00048994,0.00011110,-0.00150
 420,-0.00062118,-0.00196714,0.00003729,0.00030581,-0.00003308,-0.00011
 405,-0.00000683,-0.00011009,-0.00536370,0.01511864,-0.00113304,0.00093
 738,0.00080028,-0.00046601,-0.00049381,-0.00058381,-0.00006305,0.00020
 534,-0.00008290,0.00024663,-0.00003071,0.00001569,0.00001837,-0.081852
 16,0.08195265,-0.01097522,0.01012096,-0.02423747,0.00233092,0.08609714
 ,-0.00003836,0.00009526,-0.00003243,0.00028103,-0.00004686,0.00008442,
 -0.00004071,-0.00003008,0.00002319,-0.00005378,0.00049183,-0.00040239,
 -0.00021751,-0.00016396,-0.00020990,0.00081601,0.00022606,0.00021693,0
 .00009785,0.00026167,-0.00017335,0.00002777,0.00000396,0.00001888,-0.0
 0011981,-0.00066699,0.00177789,-0.00182669,0.00053281,-0.00161272,0.00
 058904,0.00016039,-0.00014095,0.00007213,0.00005820,0.00104063,0.00002
 715,-0.00001756,0.00000220,0.08416025,-0.28255618,0.02179765,0.0067995
 7,-0.01697927,0.00149079,-0.09331743,0.30280155,-0.00008387,-0.0000401
 0,-0.00010068,0.00012589,0.00006331,0.00032335,-0.00010957,-0.00009466
 ,-0.00010621,-0.00002623,0.00023652,-0.00011716,0.00076433,0.00061189,
 -0.00110750,-0.00320919,-0.00084090,-0.00318830,-0.00032804,0.00005926
 ,0.00023621,-0.00014596,-0.00001272,-0.00027716,-0.01073771,0.02813688
 ,-0.00555018,0.00131979,0.00075631,0.00056146,-0.00044304,-0.00046997,
 0.00040746,0.00043980,-0.00008368,-0.00008987,-0.00002599,-0.00000045,
 0.00004530,-0.01190046,0.02237544,-0.04586955,0.00021496,-0.00040487,-
 0.00056889,0.01056462,-0.02298092,0.05811188,-0.00015279,0.00035100,-0
 .00041988,0.00096284,-0.00015056,0.00130570,-0.00039604,-0.00029344,-0
 .00033645,-0.00085450,0.00034078,-0.00156259,-0.00018043,0.00068826,0.
 00089928,-0.00198460,0.00047328,-0.00244072,0.00041757,0.00013396,-0.0
 0018216,-0.00002466,-0.00002390,-0.00022148,0.01519644,-0.00461197,-0.
 01025754,-0.00228842,0.00028537,-0.00279131,0.00039412,-0.00066066,-0.
 00030758,-0.00039997,-0.00031938,0.00137845,-0.00002116,-0.00001892,-0
 .00018342,-0.11688526,0.01065877,0.03907455,-0.01743639,0.00712258,0.0
 2321614,-0.00889897,0.00321818,0.01192283,0.53479867,0.00004328,-0.000
 15439,0.00012276,-0.00018960,0.00019238,-0.00028256,0.00007270,-0.0000
 1802,0.00009489,0.00036941,0.00055711,0.00017863,-0.00002776,-0.000815
 81,-0.00073772,0.00170095,-0.00055853,0.00189465,-0.00046195,0.0000611
 3,0.00031088,-0.00002517,0.00002193,0.00012118,-0.00361773,-0.00050533
 ,0.00222817,-0.00082181,0.00020537,-0.00072458,0.00009507,-0.00017945,
 -0.00027916,-0.00002199,-0.00026988,0.00048056,0.00001670,-0.00000691,
 -0.00000080,0.01113859,-0.08331019,-0.01253610,-0.01254914,0.00510723,
 0.01760382,0.02072209,-0.00624982,-0.02733552,0.02257629,0.63570988,0.
 00031215,-0.00057087,0.00078471,-0.00136486,0.00023453,-0.00212324,0.0
 0069116,0.00041063,0.00068416,0.00111519,0.00005788,0.00158473,-0.0014
 8971,-0.00024978,-0.00079114,0.00112429,-0.00247560,0.00214226,0.00016
 951,0.00016357,-0.00017537,0.00003200,0.00001356,0.00005651,0.00259382
 ,-0.00202762,-0.03464278,0.00241149,0.00121148,0.00151939,-0.00010875,
 -0.00022064,-0.00000943,-0.00059045,0.00083468,-0.00055652,0.00009340,
 -0.00006158,0.00007820,0.05114859,-0.01609928,-0.10706815,0.00136250,-
 0.00132772,-0.00224898,0.00100524,-0.00063868,-0.00076941,0.02415489,-
 0.01026824,0.43159296,0.00000085,-0.00002986,0.00002362,-0.00005571,-0
 .00000692,-0.00007530,0.00000663,0.00001672,-0.00000087,-0.00003267,-0
 .00022445,0.00014118,0.00007560,-0.00003105,0.00014027,0.00018198,0.00
 015717,-0.00001903,-0.00011826,-0.00009658,0.00012606,0.00002548,0.000
 00002,0.00001425,-0.00041480,-0.00032815,-0.00103511,0.00045604,-0.000
 02539,0.00034212,-0.00002002,0.00003922,0.00002783,-0.00014526,0.00016
 167,-0.00032494,0.00000093,0.00000106,0.00000785,-0.00682408,0.0194800
 5,0.00292393,0.00067416,-0.00005107,-0.00101180,-0.00153474,0.00049806
 ,0.00351302,-0.07679261,0.07602320,-0.00225666,0.08124311,-0.00001844,
 0.00005551,-0.00004736,0.00006912,-0.00001661,0.00011005,-0.00002971,-
 0.00001053,-0.00002144,-0.00006142,0.00012427,-0.00018778,-0.00006033,
 0.00004094,-0.00010027,-0.00025444,0.00009391,-0.00030075,0.00005017,0
 .00004128,-0.00003755,-0.00000700,0.00000146,-0.00002540,0.00035723,0.
 00044066,0.00040417,-0.00037080,-0.00024728,-0.00027977,0.00003876,0.0
 0011059,0.00007161,0.00013413,-0.00003492,0.00016079,0.00000608,-0.000
 01070,-0.00000967,0.00116045,-0.00451818,-0.00065921,0.00013276,0.0009
 5511,-0.00018120,0.00055235,0.00128917,-0.00071620,0.07972862,-0.28868
 834,0.00500891,-0.08902306,0.30794810,-0.00000850,0.00001846,-0.000009
 14,0.00002456,0.00001918,-0.00002810,0.00000873,0.00000996,0.00002290,
 0.00014941,0.00035393,-0.00006538,-0.00034381,0.00005773,-0.00036598,-
 0.00021507,0.00010190,0.00028298,0.00027517,0.00008129,-0.00019474,-0.
 00000680,-0.00000583,-0.00003271,0.00099385,-0.00054029,0.00225983,-0.
 00063071,-0.00019186,-0.00030474,0.00008291,0.00011023,0.00004376,0.00
 017575,-0.00023089,0.00033572,0.00000125,-0.00000199,-0.00001214,0.008
 37780,-0.02540758,-0.00067997,-0.00057492,0.00075576,0.00111955,0.0033
 6314,-0.00080903,-0.00450774,-0.00068207,-0.00349672,-0.04830900,0.003
 72759,-0.00503609,0.06125477,-0.00000161,0.00003487,-0.00007617,0.0000
 7556,0.00001403,0.00019758,-0.00003171,-0.00004805,-0.00006028,-0.0000
 4172,0.00009249,-0.00008776,0.00005297,-0.00012680,-0.00000179,0.00023
 247,0.00005628,0.00029217,-0.00010519,-0.00000962,0.00000092,-0.000003
 62,0.00000446,0.00005698,0.00035972,0.00045582,0.00238250,0.00014790,-
 0.00016720,0.00024545,-0.00015895,0.00019469,0.00005256,0.00028827,-0.
 00000312,0.00012782,0.00000957,0.00000684,0.00005251,0.01159236,-0.003
 17704,0.00464211,0.00172187,0.00057518,-0.00081523,0.00080059,-0.00071
 674,-0.00099994,-0.10069362,0.00252291,-0.07059896,-0.00737719,-0.0009
 0358,-0.01199331,0.25583773,0.00017113,-0.00011470,0.00034715,-0.00069
 732,0.00001893,-0.00099209,0.00037645,0.00024845,0.00039958,0.00055399
 ,0.00036461,0.00050751,-0.00055478,-0.00007124,-0.00070680,0.00031897,
 -0.00034230,0.00062841,0.00017764,0.00013311,-0.00019043,-0.00002274,0
 .00000799,0.00000238,-0.00123994,0.00267050,-0.00153297,0.00023593,-0.
 00075697,0.00053126,-0.00008749,0.00014320,0.00028017,0.00040840,0.000
 12345,0.00009127,0.00007451,-0.00005787,0.00008631,-0.00112936,0.00121
 276,0.00145279,0.00105551,0.00016447,-0.00066431,-0.00191117,0.0003759
 1,0.00107860,-0.00627744,-0.11528011,0.00665105,0.02007177,-0.00187142
 ,0.03617876,0.11958762,0.79551256,-0.00035867,0.00043827,-0.00078837,0
 .00140328,-0.00020716,0.00198250,-0.00066875,-0.00034011,-0.00071227,-
 0.00083496,0.00011847,-0.00129956,0.00001648,0.00061175,0.00069105,-0.
 00133658,-0.00016117,-0.00134298,0.00026800,-0.00005346,-0.00004383,-0
 .00003151,-0.00002016,-0.00012789,0.00774679,-0.00244206,-0.00296711,-
 0.00087342,0.00072955,-0.00124833,0.00020301,-0.00012527,-0.00012325,-
 0.00026156,-0.00030873,0.00072630,-0.00004584,0.00002759,-0.00012877,-
 0.01881975,0.00467539,-0.04292650,-0.00109577,0.00072800,0.00322106,-0
 .00123239,0.00036406,0.00231786,-0.06884710,0.01706577,-0.17266039,-0.
 00598618,0.00066576,-0.00877872,0.27825369,0.01384376,0.50998105,-0.00
 001660,-0.00000717,-0.00003324,-0.00000059,0.00004529,0.00000483,0.000
 00655,0.00001548,-0.00000653,0.00015232,0.00032417,0.00005715,-0.00028
 075,-0.00007520,-0.00038401,0.00039143,-0.00046444,0.00052496,-0.00002
 011,0.00007684,-0.00000495,-0.00001437,0.00000148,0.00001753,0.0001020
 2,0.00055045,-0.00138130,0.00008997,-0.00030474,-0.00000607,0.00003338
 ,0.00025334,0.00010256,0.00022088,-0.00002463,0.00024444,0.00003218,-0
 .00001607,0.00001364,-0.01635841,-0.01237573,0.00388183,-0.00126544,0.
 00112704,0.00297817,0.00059737,-0.00008633,-0.00075040,-0.21262944,-0.
 12713032,-0.00029950,0.01104390,0.00707341,0.00053776,-0.01357413,-0.0
 0841016,-0.01036408,0.23219927,-0.00000642,0.00000843,-0.00002091,0.00
 003557,-0.00002076,0.00006041,-0.00000945,-0.00000327,-0.00002444,0.00
 001110,-0.00001735,0.00003488,0.00001986,0.00003978,0.00002200,-0.0000
 6820,-0.00012261,0.00007335,0.00003418,0.00001346,-0.00004069,-0.00000
 550,-0.00000239,0.00000433,0.00004962,0.00023427,0.00036109,0.00022834
 ,0.00027886,0.00008790,-0.00000374,-0.00015324,-0.00025342,0.00002393,
 -0.00008486,0.00004178,-0.00000616,0.00001405,-0.00000096,0.00614814,0
 .00480105,-0.00087536,0.00137594,0.00073978,-0.00158321,0.00018744,0.0
 0060981,0.00053554,-0.13205551,-0.15357039,-0.00072234,-0.02350525,-0.
 01643035,-0.00021789,0.00525726,0.00486122,-0.00202938,0.14139731,0.15
 880820,0.00002068,-0.00004461,0.00008079,-0.00005700,-0.00003594,-0.00
 013086,0.00000830,-0.00000053,0.00002942,-0.00008676,-0.00043950,0.000
 09992,0.00032276,0.00011002,0.00032787,-0.00030963,0.00046711,-0.00041
 202,-0.00002160,-0.00014777,0.00007060,-0.00000161,0.00000083,-0.00000
 477,0.00130031,0.00029814,0.00180991,-0.00014425,0.00035994,0.00022705
 ,0.00013218,-0.00053327,-0.00025940,-0.00045251,0.00008839,-0.00043505
 ,-0.00000179,0.00000038,-0.00004491,0.02174951,0.01614924,-0.00267011,
 0.00319105,-0.00150741,-0.00436175,-0.00078934,-0.00005505,0.00100113,
 0.00373267,0.00325732,-0.04619158,0.00061292,0.00004413,0.00006936,-0.
 02935880,-0.01960963,-0.01132439,0.00353736,0.00247432,0.06368910,-0.0
 0002699,0.00001820,-0.00003439,0.00005233,-0.00001196,0.00006982,-0.00
 003076,0.00000071,-0.00003243,-0.00000203,0.00000789,-0.00001242,-0.00
 000496,-0.00000193,-0.00003614,0.00007577,-0.00006896,0.00003607,0.000
 01912,-0.00000559,0.00001090,0.00000257,-0.00000105,-0.00000137,-0.000
 35594,-0.00020044,0.00023905,0.00001841,0.00001899,-0.00007060,-0.0000
 0825,0.00005546,0.00001507,0.00001364,-0.00002322,-0.00001009,-0.00000
 312,0.00000273,-0.00000459,0.00041458,0.00076709,0.00126551,-0.0000167
 1,-0.00029305,0.00023459,0.00003651,0.00003714,-0.00001530,-0.00935897
 ,-0.01121981,-0.00033575,0.00068358,0.00011197,0.00048219,-0.09298340,
 -0.14225680,-0.11008426,-0.00225553,0.00023399,-0.00442764,0.10230919,
 0.00003523,-0.00006588,0.00008894,-0.00013160,0.00004178,-0.00020965,0
 .00005645,0.00001704,0.00006720,0.00007469,-0.00004349,0.00013957,-0.0
 0000052,-0.00004956,-0.00003074,0.00011243,0.00006027,0.00009432,-0.00
 003244,-0.00000206,0.00001251,0.00000566,0.00000375,0.00001621,-0.0002
 9168,-0.00002210,-0.00004388,0.00007576,0.,0.00014026,-0.00000261,-0.0
 0004193,-0.00001379,-0.00005427,0.00003813,-0.00009701,0.00000117,-0.0
 0000101,0.00000410,0.00055089,-0.00019299,0.00030072,-0.00018980,-0.00
 001101,-0.00008534,-0.00001053,-0.00009646,-0.00003396,0.00626370,0.01
 008452,0.00577257,0.00013148,0.00065720,0.00002856,-0.13738221,-0.2991
 0502,-0.13073396,0.00171944,0.00015418,0.00222039,0.14321834,0.3094199
 1,0.00000180,0.00001512,-0.00001876,0.00003381,0.00000168,0.00005310,-
 0.00000214,-0.00001111,-0.00000445,-0.00001330,0.00010913,-0.00007965,
 -0.00009034,0.00002640,-0.00001604,-0.00008642,-0.00013982,-0.00002914
 ,0.00003410,0.00002935,-0.00005340,-0.00001349,0.00000052,-0.00000627,
 0.00086331,0.00030619,-0.00057784,0.00001014,-0.00001426,-0.00003832,-
 0.00002658,0.00002450,0.00002303,0.00008746,-0.00000934,0.00015892,0.0
 0000885,-0.00000446,0.00000313,-0.00223614,-0.00033740,-0.00131566,0.0
 0061041,0.00028736,-0.00058928,-0.00002545,0.00000327,0.00007572,-0.00
 660894,-0.02125105,-0.00642566,0.00015127,0.00062320,0.00100080,-0.109
 82157,-0.13246431,-0.13382881,-0.00032092,0.00098607,-0.00248536,0.107
 55142,0.13927879,0.13476340,0.00001503,-0.00006979,0.00008544,-0.00003
 231,0.00005860,-0.00013222,0.00000657,-0.00002599,0.00005112,0.0000203
 1,0.00000674,0.00001207,-0.00003780,-0.00005190,0.00004065,-0.00001031
 ,-0.00001800,0.00003451,-0.00000455,-0.00003588,-0.00000556,0.00000307
 ,0.00000037,-0.00000339,0.00007011,0.00004221,-0.00015513,0.00006341,0
 .00027498,-0.00011649,-0.00000284,-0.00011110,-0.00011559,-0.00007705,
 -0.00006060,0.00001272,-0.00000446,0.00000490,-0.00003363,-0.00057150,
 -0.00014774,0.00121325,0.00011939,-0.00037164,0.00001134,0.00091419,0.
 00004246,-0.00037050,-0.00171877,0.02010149,-0.00804847,-0.00300706,0.
 00038261,-0.00462187,-0.08209731,0.03169852,-0.06221978,-0.00059460,0.
 00185905,-0.00129989,-0.00296581,-0.01725430,0.01351687,0.36660972,-0.
 00031594,0.00020534,-0.00063062,0.00128853,0.00003728,0.00177591,-0.00
 066691,-0.00046482,-0.00067636,-0.00075708,0.00012886,-0.00110334,0.00
 018455,0.00021339,0.00069710,-0.00075268,0.00012650,-0.00093577,0.0000
 0517,-0.00020907,0.00014399,-0.00001306,-0.00000736,-0.00004656,0.0038
 4576,-0.00203606,0.00000083,-0.00064922,0.00133750,-0.00158108,-0.0000
 7297,-0.00010917,-0.00040206,-0.00015027,-0.00064820,0.00061693,-0.000
 08843,0.00007417,-0.00017727,-0.00555968,0.00314772,-0.00635582,-0.000
 16403,-0.00078758,0.00123696,0.00189805,0.00023198,-0.00251012,0.01910
 464,0.00012397,0.02521098,-0.00411140,-0.00005145,-0.00355375,0.014691
 46,-0.29290538,0.07718689,-0.00563376,0.00115378,-0.00512905,0.0082162
 1,-0.01640428,0.00864611,0.14177422,0.88274911,0.00016617,-0.00020878,
 0.00038136,-0.00053738,0.00009290,-0.00085441,0.00026933,0.00010113,0.
 00032105,0.00023713,-0.00013700,0.00043933,-0.00010121,-0.00012182,0.0
 0002331,0.00030155,-0.00003640,0.00035798,-0.00001378,0.00003378,-0.00
 004678,0.00002689,-0.00000153,0.00002123,-0.00026162,-0.00058952,-0.00
 099181,0.00037367,0.00018772,0.00028652,-0.00007349,-0.00015413,-0.000
 10949,-0.00015390,0.00012144,-0.00022460,-0.00000371,0.00000112,0.0000
 0760,-0.00201739,0.00284252,0.00035767,0.00026098,-0.00024750,0.000007
 88,0.00072847,-0.00056120,-0.00185285,-0.00773947,0.03160594,-0.017457
 16,-0.00228579,-0.00053389,-0.00334755,-0.05806100,0.09650672,-0.16020
 822,-0.00094148,0.00143655,0.00004725,0.00850776,-0.02366599,0.0088403
 4,0.27070209,0.10823341,0.61689906,0.00003828,0.00002045,0.00001968,-0
 .00017066,-0.00004998,-0.00014731,0.00010146,0.00008871,0.00005138,0.0
 0009820,-0.00001351,0.00016726,-0.00003390,-0.00002275,-0.00011080,0.0
 0022423,-0.00004579,0.00022035,-0.00001415,0.00005523,-0.00001269,0.00
 000225,0.00000170,0.00001903,-0.00073377,0.00005164,-0.00003642,0.0001
 6970,-0.00041564,0.00029849,-0.00009940,0.00014017,0.00025030,0.000106
 20,0.00014094,-0.00010412,0.00001221,-0.00001268,0.00006665,0.00105233
 ,0.00016060,0.00187022,0.00016141,0.00001587,-0.00036818,-0.00032295,-
 0.00035107,0.00006783,-0.00702930,0.00069722,0.00003178,0.00158614,0.0
 0077325,0.00072033,0.02194918,-0.01531689,0.00609365,0.00187040,-0.000
 28246,0.00172842,0.00559681,0.00199678,-0.00400346,-0.16271058,-0.1801
 9879,-0.11645946,0.13358723,0.00016517,-0.00008172,0.00031839,-0.00067
 198,-0.00005959,-0.00091673,0.00035360,0.00026310,0.00035396,0.0003773
 5,-0.00010239,0.00057846,-0.00007816,-0.00006682,-0.00031655,0.0003105
 0,-0.00005405,0.00045507,0.00001130,0.00012304,-0.00008517,0.00001224,
 -0.00000048,0.00001400,-0.00181096,0.00096137,-0.00038889,0.00033503,-
 0.00071908,0.00086926,0.00007091,-0.00000459,0.00023820,0.00004789,0.0
 0036711,-0.00034345,0.00005174,-0.00004527,0.00009957,0.00231748,-0.00
 087056,0.00200441,0.00020490,0.00025663,-0.00045014,-0.00086965,-0.000
 34102,0.00147121,-0.00573415,0.00223466,-0.01076137,0.00016409,0.00032
 481,0.00061825,-0.01884047,-0.09444451,-0.01243463,0.00177054,-0.00121
 997,0.00210466,0.00135826,-0.00498020,0.00421363,-0.18141122,-0.513781
 01,-0.22184672,0.21496478,0.61520545,-0.00009758,0.00016131,-0.0002392
 4,0.00025350,-0.00009543,0.00045096,-0.00012297,0.00000583,-0.00016962
 ,-0.00010795,0.00002421,-0.00018819,0.00011102,0.00008747,-0.00011201,
 -0.00010414,-0.00002997,-0.00021902,-0.00000407,0.00002648,0.00001839,
 -0.00001835,0.00000211,-0.00000963,-0.00038123,0.00081549,0.00084244,-
 0.00015775,-0.00075647,0.00022678,0.00019836,0.00025922,0.00037259,0.0
 0016397,0.00018041,0.00002253,0.00002978,-0.00002038,0.00004354,0.0022
 1225,-0.00207549,0.00037401,-0.00027416,0.00084985,-0.00042587,-0.0013
 9578,0.00083238,0.00106983,-0.00100772,-0.00112549,-0.00295810,0.00191
 024,0.00112305,0.00132798,0.00828007,-0.00848324,0.03215232,0.00246715
 ,-0.00025737,0.00108162,-0.00397040,0.00594847,0.00165001,-0.11548975,
 -0.21632763,-0.22623299,0.12827944,0.25303009,0.20046938,-0.00004275,0
 .00005614,-0.00009614,0.00014659,-0.00003206,0.00021574,-0.00006968,-0
 .00002409,-0.00008135,-0.00008408,0.00000423,-0.00011571,0.00002355,0.
 00006136,0.00004520,-0.00011787,-0.00000542,-0.00014242,0.00001449,-0.
 00000240,0.00000317,-0.00000363,-0.00000179,-0.00001156,0.00040657,0.0
 0000389,-0.00008371,-0.00008096,-0.00007510,-0.00006033,0.00004377,0.0
 0003217,0.00002831,0.00000042,0.00000967,0.00004713,-0.00000013,0.0000
 0032,-0.00000202,-0.00087874,0.00015318,-0.00130466,-0.00001810,0.0001
 1400,0.00003462,-0.00027639,0.00010180,0.00021313,0.00597628,-0.000014
 63,-0.00115290,0.00034401,0.00015785,0.00015661,0.00400026,0.00317364,
 -0.01092431,0.00027029,-0.00091904,0.00061466,-0.00121004,0.00110793,0
 .00037932,-0.11398688,0.00812564,-0.09292435,0.00455867,-0.01309919,-0
 .02077391,0.10098436,0.00000527,-0.00000133,0.00000872,-0.00003116,-0.
 00000020,-0.00003868,0.00001523,0.00001337,0.00001255,0.00002588,0.000
 00207,0.00003183,-0.00000640,-0.00000001,-0.00004052,0.00000789,0.0000
 2178,0.00003821,0.00000509,0.00000696,-0.00000677,0.00000002,0.0000007
 0,0.00000154,-0.00017136,0.00009028,0.00007605,-0.00002699,-0.00010444
 ,0.00006445,0.00001269,0.00002329,0.00005371,0.00002096,0.00002632,-0.
 00002139,0.00000422,-0.00000310,0.00000850,0.00044975,-0.00016847,0.00
 012200,-0.00003651,0.00004653,0.00002041,-0.00024041,0.00000959,0.0001
 9910,-0.00079949,-0.00469099,-0.00014609,0.00068867,-0.00020323,0.0011
 5791,0.01788090,-0.00088765,0.03240083,0.00017377,-0.00009167,-0.00007
 212,0.00003585,0.00053922,-0.00031956,0.00331201,-0.06212522,0.0069412
 6,-0.02239777,-0.00296490,-0.03417490,0.00107191,0.07046110,-0.0000455
 6,0.00006492,-0.00011548,0.00015339,-0.00003558,0.00025705,-0.00007409
 ,-0.00002533,-0.00009670,-0.00008197,0.00001421,-0.00012121,0.00004305
 ,0.00002687,0.00003324,-0.00003401,-0.00000913,-0.00008208,-0.00001129
 ,-0.00000635,0.00002038,-0.00000501,-0.00000015,-0.00000106,0.00011721
 ,-0.00003018,0.00026281,-0.00004286,-0.00007009,-0.00005170,0.00000937
 ,0.00004704,0.00006204,0.00003929,-0.00000611,0.00004624,-0.00000017,0
 .00000060,0.00000569,0.00040463,-0.00029711,0.00049810,0.00003011,0.00
 005850,-0.00008473,-0.00000342,-0.00003567,-0.00004468,-0.00209608,0.0
 0307335,0.00394400,-0.00066644,-0.00007509,-0.00108174,-0.01270955,0.0
 0605807,-0.01256274,0.00012511,-0.00009223,-0.00021379,0.00062298,0.00
 080174,-0.00109981,-0.09306779,0.01568030,-0.21666472,-0.01864236,-0.0
 1882551,-0.00954772,0.12593547,-0.00631706,0.23663861\\0.00000218,-0.0
 0000353,-0.00000057,0.00000411,-0.00000380,-0.00000332,0.00000837,-0.0
 0000523,-0.00000433,0.00000436,0.00000293,-0.00000257,-0.00000320,-0.0
 0000011,-0.00000393,0.00000068,-0.00000096,0.00000324,-0.00000571,0.00
 000214,0.00000186,-0.00000207,-0.00000181,0.00000155,0.00000110,0.0000
 0485,-0.00000142,0.00000107,-0.00000431,-0.00000361,0.00000488,0.00000
 033,-0.00000102,0.00000578,-0.00000562,0.00000184,0.00000902,-0.000002
 86,-0.00000318,0.00000168,0.00000330,0.00000409,-0.00000663,0.00000435
 ,0.00000041,0.00000399,0.00000509,0.00000211,-0.00000835,-0.00000175,0
 .00000184,-0.00000241,-0.00000139,0.00000377,-0.00001645,-0.00000917,-
 0.00000335,0.00000025,-0.00000028,-0.00000318,0.00000069,0.00001199,0.
 00000734,0.00000185,0.00000165,0.00000456,0.00000173,0.00000107,0.0000
 0048,-0.00000694,0.00000311,-0.00000261\\\@


 THE MORE POWERFUL THE METHOD, THE MORE CATASTROPHIC THE ERRORS.
     -- M.D. KAMEN
 Job cpu time:       0 days  0 hours 21 minutes 10.9 seconds.
 File lengths (MBytes):  RWF=    187 Int=      0 D2E=      0 Chk=      6 Scr=      1
 Normal termination of Gaussian 09 at Fri Aug 20 15:59:39 2021.
