 Entering Gaussian System, Link 0=g09
 Input=B3LYP6-31G.WASRAJ.gjf
 Output=B3LYP6-31G.WASRAJ.log
 Initial command:
 /public/home/users/caep010/software/Gaussian09/g09/l1.exe "/public/home/users/caep010/.cache/gau_scr/Gau-70699.inp" -scrdir="/public/home/users/caep010/.cache/gau_scr/"
 Entering Link 1 = /public/home/users/caep010/software/Gaussian09/g09/l1.exe PID=     70700.
  
 Copyright (c) 1988,1990,1992,1993,1995,1998,2003,2009,2015,
            Gaussian, Inc.  All Rights Reserved.
  
 This is part of the Gaussian(R) 09 program.  It is based on
 the Gaussian(R) 03 system (copyright 2003, Gaussian, Inc.),
 the Gaussian(R) 98 system (copyright 1998, Gaussian, Inc.),
 the Gaussian(R) 94 system (copyright 1995, Gaussian, Inc.),
 the Gaussian 92(TM) system (copyright 1992, Gaussian, Inc.),
 the Gaussian 90(TM) system (copyright 1990, Gaussian, Inc.),
 the Gaussian 88(TM) system (copyright 1988, Gaussian, Inc.),
 the Gaussian 86(TM) system (copyright 1986, Carnegie Mellon
 University), and the Gaussian 82(TM) system (copyright 1983,
 Carnegie Mellon University). Gaussian is a federally registered
 trademark of Gaussian, Inc.
  
 This software contains proprietary and confidential information,
 including trade secrets, belonging to Gaussian, Inc.
  
 This software is provided under written license and may be
 used, copied, transmitted, or stored only in accord with that
 written license.
  
 The following legend is applicable only to US Government
 contracts under FAR:
  
                    RESTRICTED RIGHTS LEGEND
  
 Use, reproduction and disclosure by the US Government is
 subject to restrictions as set forth in subparagraphs (a)
 and (c) of the Commercial Computer Software - Restricted
 Rights clause in FAR 52.227-19.
  
 Gaussian, Inc.
 340 Quinnipiac St., Bldg. 40, Wallingford CT 06492
  
  
 ---------------------------------------------------------------
 Warning -- This program may not be used in any manner that
 competes with the business of Gaussian, Inc. or will provide
 assistance to any competitor of Gaussian, Inc.  The licensee
 of this program is prohibited from giving any competitor of
 Gaussian, Inc. access to this program.  By using this program,
 the user acknowledges that Gaussian, Inc. is engaged in the
 business of creating and licensing software in the field of
 computational chemistry and represents and warrants to the
 licensee that it is not a competitor of Gaussian, Inc. and that
 it will not use this program in any manner prohibited above.
 ---------------------------------------------------------------
  

 Cite this work as:
 Gaussian 09, Revision E.01,
 M. J. Frisch, G. W. Trucks, H. B. Schlegel, G. E. Scuseria, 
 M. A. Robb, J. R. Cheeseman, G. Scalmani, V. Barone, B. Mennucci, 
 G. A. Petersson, H. Nakatsuji, M. Caricato, X. Li, H. P. Hratchian, 
 A. F. Izmaylov, J. Bloino, G. Zheng, J. L. Sonnenberg, M. Hada, 
 M. Ehara, K. Toyota, R. Fukuda, J. Hasegawa, M. Ishida, T. Nakajima, 
 Y. Honda, O. Kitao, H. Nakai, T. Vreven, J. A. Montgomery, Jr., 
 J. E. Peralta, F. Ogliaro, M. Bearpark, J. J. Heyd, E. Brothers, 
 K. N. Kudin, V. N. Staroverov, T. Keith, R. Kobayashi, J. Normand, 
 K. Raghavachari, A. Rendell, J. C. Burant, S. S. Iyengar, J. Tomasi, 
 M. Cossi, N. Rega, J. M. Millam, M. Klene, J. E. Knox, J. B. Cross, 
 V. Bakken, C. Adamo, J. Jaramillo, R. Gomperts, R. E. Stratmann, 
 O. Yazyev, A. J. Austin, R. Cammi, C. Pomelli, J. W. Ochterski, 
 R. L. Martin, K. Morokuma, V. G. Zakrzewski, G. A. Voth, 
 P. Salvador, J. J. Dannenberg, S. Dapprich, A. D. Daniels, 
 O. Farkas, J. B. Foresman, J. V. Ortiz, J. Cioslowski, 
 and D. J. Fox, Gaussian, Inc., Wallingford CT, 2013.
 
 ******************************************
 Gaussian 09:  ES64L-G09RevE.01 30-Nov-2015
                20-Aug-2021 
 ******************************************
 %nproc=32
 Will use up to   32 processors via shared memory.
 %mem=180GB
 -------------------------
 #P OPT Freq B3LYP/6-31G**
 -------------------------
 1/14=-1,18=20,19=15,26=3,38=1/1,3;
 2/9=110,12=2,17=6,18=5,40=1/2;
 3/5=1,6=6,7=101,11=2,16=1,25=1,30=1,71=1,74=-5/1,2,3;
 4//1;
 5/5=2,38=5/2;
 6/7=2,8=2,9=2,10=2,28=1/1;
 7//1,2,3,16;
 1/14=-1,18=20,19=15,26=3/3(2);
 2/9=110/2;
 99//99;
 2/9=110/2;
 3/5=1,6=6,7=101,11=2,16=1,25=1,30=1,71=1,74=-5/1,2,3;
 4/5=5,16=3,69=1/1;
 5/5=2,38=5/2;
 7//1,2,3,16;
 1/14=-1,18=20,19=15,26=3/3(-5);
 2/9=110/2;
 6/7=2,8=2,9=2,10=2,19=2,28=1/1;
 99/9=1/99;
 Leave Link    1 at Fri Aug 20 15:41:59 2021, MaxMem= 24159191040 cpu:         2.1
 (Enter /public/home/users/caep010/software/Gaussian09/g09/l101.exe)
 ------
 WASRAJ
 ------
 Symbolic Z-matrix:
 Charge =  0 Multiplicity = 1
 O                     2.7003    0.1999    9.5257 
 N                     1.9657    1.1753    9.4909 
 C                     2.0613    2.1065    8.3933 
 O                     1.123     1.395     10.3697 
 C                     2.8887    1.7356    7.3408 
 C                     1.3439    3.3352    8.3677 
 N                     0.55      3.7502    9.3732 
 N                    -0.067     5.0092    9.301 
 H                     0.1913    5.5568    9.9782 
 H                    -0.9087    4.8476    9.5291 
 C                     3.0035    2.5517    6.2523 
 N                     3.8453    2.1541    5.1296 
 O                     4.5641    1.1695    5.2591 
 O                     3.796     2.8307    4.1112 
 C                     2.2957    3.7398    6.1785 
 H                     2.4392    4.3129    5.4773 
 C                     1.5018    4.1304    7.2082 
 H                     1.1       4.9174    7.2264 
 H                     0.4783    3.1969    10.0427 
 H                     3.3527    0.9416    7.3478 
 
 NAtoms=     20 NQM=       20 NQMF=       0 NMMI=      0 NMMIF=      0
                NMic=       0 NMicF=      0.
                    Isotopes and Nuclear Properties:
 (Nuclear quadrupole moments (NQMom) in fm**2, nuclear magnetic moments (NMagM)
  in nuclear magnetons)

  Atom         1           2           3           4           5           6           7           8           9          10
 IAtWgt=          16          14          12          16          12          12          14          14           1           1
 AtmWgt=  15.9949146  14.0030740  12.0000000  15.9949146  12.0000000  12.0000000  14.0030740  14.0030740   1.0078250   1.0078250
 NucSpn=           0           2           0           0           0           0           2           2           1           1
 AtZEff=   0.0000000   0.0000000   0.0000000   0.0000000   0.0000000   0.0000000   0.0000000   0.0000000   0.0000000   0.0000000
 NQMom=    0.0000000   2.0440000   0.0000000   0.0000000   0.0000000   0.0000000   2.0440000   2.0440000   0.0000000   0.0000000
 NMagM=    0.0000000   0.4037610   0.0000000   0.0000000   0.0000000   0.0000000   0.4037610   0.4037610   2.7928460   2.7928460
 AtZNuc=   8.0000000   7.0000000   6.0000000   8.0000000   6.0000000   6.0000000   7.0000000   7.0000000   1.0000000   1.0000000

  Atom        11          12          13          14          15          16          17          18          19          20
 IAtWgt=          12          14          16          16          12           1          12           1           1           1
 AtmWgt=  12.0000000  14.0030740  15.9949146  15.9949146  12.0000000   1.0078250  12.0000000   1.0078250   1.0078250   1.0078250
 NucSpn=           0           2           0           0           0           1           0           1           1           1
 AtZEff=   0.0000000   0.0000000   0.0000000   0.0000000   0.0000000   0.0000000   0.0000000   0.0000000   0.0000000   0.0000000
 NQMom=    0.0000000   2.0440000   0.0000000   0.0000000   0.0000000   0.0000000   0.0000000   0.0000000   0.0000000   0.0000000
 NMagM=    0.0000000   0.4037610   0.0000000   0.0000000   0.0000000   2.7928460   0.0000000   2.7928460   2.7928460   2.7928460
 AtZNuc=   6.0000000   7.0000000   8.0000000   8.0000000   6.0000000   1.0000000   6.0000000   1.0000000   1.0000000   1.0000000
 Leave Link  101 at Fri Aug 20 15:41:59 2021, MaxMem= 24159191040 cpu:        10.7
 (Enter /public/home/users/caep010/software/Gaussian09/g09/l103.exe)

 GradGradGradGradGradGradGradGradGradGradGradGradGradGradGradGradGradGrad
 Berny optimization.
 Initialization pass.
                           ----------------------------
                           !    Initial Parameters    !
                           ! (Angstroms and Degrees)  !
 --------------------------                            --------------------------
 ! Name  Definition              Value          Derivative Info.                !
 --------------------------------------------------------------------------------
 ! R1    R(1,2)                  1.2216         estimate D2E/DX2                !
 ! R2    R(2,3)                  1.4426         estimate D2E/DX2                !
 ! R3    R(2,4)                  1.2372         estimate D2E/DX2                !
 ! R4    R(3,5)                  1.3892         estimate D2E/DX2                !
 ! R5    R(3,6)                  1.423          estimate D2E/DX2                !
 ! R6    R(5,11)                 1.3653         estimate D2E/DX2                !
 ! R7    R(5,20)                 0.9197         estimate D2E/DX2                !
 ! R8    R(6,7)                  1.3467         estimate D2E/DX2                !
 ! R9    R(6,17)                 1.4148         estimate D2E/DX2                !
 ! R10   R(7,8)                  1.4039         estimate D2E/DX2                !
 ! R11   R(7,19)                 0.8715         estimate D2E/DX2                !
 ! R12   R(8,9)                  0.9084         estimate D2E/DX2                !
 ! R13   R(8,10)                 0.8869         estimate D2E/DX2                !
 ! R14   R(11,12)                1.4585         estimate D2E/DX2                !
 ! R15   R(11,15)                1.3849         estimate D2E/DX2                !
 ! R16   R(12,13)                1.2259         estimate D2E/DX2                !
 ! R17   R(12,14)                1.2237         estimate D2E/DX2                !
 ! R18   R(15,16)                0.9169         estimate D2E/DX2                !
 ! R19   R(15,17)                1.3576         estimate D2E/DX2                !
 ! R20   R(17,18)                0.8838         estimate D2E/DX2                !
 ! A1    A(1,2,3)              119.8183         estimate D2E/DX2                !
 ! A2    A(1,2,4)              122.0834         estimate D2E/DX2                !
 ! A3    A(3,2,4)              118.0965         estimate D2E/DX2                !
 ! A4    A(2,3,5)              116.3323         estimate D2E/DX2                !
 ! A5    A(2,3,6)              122.5232         estimate D2E/DX2                !
 ! A6    A(5,3,6)              121.1415         estimate D2E/DX2                !
 ! A7    A(3,5,11)             119.6378         estimate D2E/DX2                !
 ! A8    A(3,5,20)             121.6838         estimate D2E/DX2                !
 ! A9    A(11,5,20)            118.6668         estimate D2E/DX2                !
 ! A10   A(3,6,7)              123.3568         estimate D2E/DX2                !
 ! A11   A(3,6,17)             116.345          estimate D2E/DX2                !
 ! A12   A(7,6,17)             120.2982         estimate D2E/DX2                !
 ! A13   A(6,7,8)              119.8047         estimate D2E/DX2                !
 ! A14   A(6,7,19)             115.2421         estimate D2E/DX2                !
 ! A15   A(8,7,19)             124.9386         estimate D2E/DX2                !
 ! A16   A(7,8,9)              112.1659         estimate D2E/DX2                !
 ! A17   A(7,8,10)             103.9136         estimate D2E/DX2                !
 ! A18   A(9,8,10)             100.8339         estimate D2E/DX2                !
 ! A19   A(5,11,12)            119.9531         estimate D2E/DX2                !
 ! A20   A(5,11,15)            120.8176         estimate D2E/DX2                !
 ! A21   A(12,11,15)           119.198          estimate D2E/DX2                !
 ! A22   A(11,12,13)           118.4279         estimate D2E/DX2                !
 ! A23   A(11,12,14)           117.8176         estimate D2E/DX2                !
 ! A24   A(13,12,14)           123.7537         estimate D2E/DX2                !
 ! A25   A(11,15,16)           119.8            estimate D2E/DX2                !
 ! A26   A(11,15,17)           120.3491         estimate D2E/DX2                !
 ! A27   A(16,15,17)           119.4537         estimate D2E/DX2                !
 ! A28   A(6,17,15)            121.6779         estimate D2E/DX2                !
 ! A29   A(6,17,18)            115.6495         estimate D2E/DX2                !
 ! A30   A(15,17,18)           122.5243         estimate D2E/DX2                !
 ! D1    D(1,2,3,5)              7.8322         estimate D2E/DX2                !
 ! D2    D(1,2,3,6)           -172.7948         estimate D2E/DX2                !
 ! D3    D(4,2,3,5)           -171.6901         estimate D2E/DX2                !
 ! D4    D(4,2,3,6)              7.6829         estimate D2E/DX2                !
 ! D5    D(2,3,5,11)           178.4143         estimate D2E/DX2                !
 ! D6    D(2,3,5,20)            -0.3307         estimate D2E/DX2                !
 ! D7    D(6,3,5,11)            -0.968          estimate D2E/DX2                !
 ! D8    D(6,3,5,20)          -179.7131         estimate D2E/DX2                !
 ! D9    D(2,3,6,7)              1.939          estimate D2E/DX2                !
 ! D10   D(2,3,6,17)          -178.0804         estimate D2E/DX2                !
 ! D11   D(5,3,6,7)           -178.7175         estimate D2E/DX2                !
 ! D12   D(5,3,6,17)             1.2631         estimate D2E/DX2                !
 ! D13   D(3,5,11,12)         -178.5414         estimate D2E/DX2                !
 ! D14   D(3,5,11,15)           -0.5907         estimate D2E/DX2                !
 ! D15   D(20,5,11,12)           0.2415         estimate D2E/DX2                !
 ! D16   D(20,5,11,15)         178.1922         estimate D2E/DX2                !
 ! D17   D(3,6,7,8)            176.5896         estimate D2E/DX2                !
 ! D18   D(3,6,7,19)            -2.0875         estimate D2E/DX2                !
 ! D19   D(17,6,7,8)            -3.3902         estimate D2E/DX2                !
 ! D20   D(17,6,7,19)          177.9327         estimate D2E/DX2                !
 ! D21   D(3,6,17,15)           -0.0332         estimate D2E/DX2                !
 ! D22   D(3,6,17,18)         -175.7118         estimate D2E/DX2                !
 ! D23   D(7,6,17,15)          179.948          estimate D2E/DX2                !
 ! D24   D(7,6,17,18)            4.2694         estimate D2E/DX2                !
 ! D25   D(6,7,8,9)           -118.8078         estimate D2E/DX2                !
 ! D26   D(6,7,8,10)           133.1317         estimate D2E/DX2                !
 ! D27   D(19,7,8,9)            59.7325         estimate D2E/DX2                !
 ! D28   D(19,7,8,10)          -48.328          estimate D2E/DX2                !
 ! D29   D(5,11,12,13)          -8.9468         estimate D2E/DX2                !
 ! D30   D(5,11,12,14)         171.3799         estimate D2E/DX2                !
 ! D31   D(15,11,12,13)        173.0694         estimate D2E/DX2                !
 ! D32   D(15,11,12,14)         -6.6039         estimate D2E/DX2                !
 ! D33   D(5,11,15,16)         174.5526         estimate D2E/DX2                !
 ! D34   D(5,11,15,17)           1.825          estimate D2E/DX2                !
 ! D35   D(12,11,15,16)         -7.4815         estimate D2E/DX2                !
 ! D36   D(12,11,15,17)        179.7909         estimate D2E/DX2                !
 ! D37   D(11,15,17,6)          -1.4889         estimate D2E/DX2                !
 ! D38   D(11,15,17,18)        173.8904         estimate D2E/DX2                !
 ! D39   D(16,15,17,6)        -174.2416         estimate D2E/DX2                !
 ! D40   D(16,15,17,18)          1.1377         estimate D2E/DX2                !
 --------------------------------------------------------------------------------
 Trust Radius=3.00D-01 FncErr=1.00D-07 GrdErr=1.00D-06
 Number of steps in this run=    100 maximum allowed number of steps=    120.
 GradGradGradGradGradGradGradGradGradGradGradGradGradGradGradGradGradGrad

 Leave Link  103 at Fri Aug 20 15:41:59 2021, MaxMem= 24159191040 cpu:         0.4
 (Enter /public/home/users/caep010/software/Gaussian09/g09/l202.exe)
                          Input orientation:                          
 ---------------------------------------------------------------------
 Center     Atomic      Atomic             Coordinates (Angstroms)
 Number     Number       Type             X           Y           Z
 ---------------------------------------------------------------------
      1          8           0        2.700300    0.199900    9.525700
      2          7           0        1.965700    1.175300    9.490900
      3          6           0        2.061300    2.106500    8.393300
      4          8           0        1.123000    1.395000   10.369700
      5          6           0        2.888700    1.735600    7.340800
      6          6           0        1.343900    3.335200    8.367700
      7          7           0        0.550000    3.750200    9.373200
      8          7           0       -0.067000    5.009200    9.301000
      9          1           0        0.191300    5.556800    9.978200
     10          1           0       -0.908700    4.847600    9.529100
     11          6           0        3.003500    2.551700    6.252300
     12          7           0        3.845300    2.154100    5.129600
     13          8           0        4.564100    1.169500    5.259100
     14          8           0        3.796000    2.830700    4.111200
     15          6           0        2.295700    3.739800    6.178500
     16          1           0        2.439200    4.312900    5.477300
     17          6           0        1.501800    4.130400    7.208200
     18          1           0        1.100000    4.917400    7.226400
     19          1           0        0.478300    3.196900   10.042700
     20          1           0        3.352700    0.941600    7.347800
 ---------------------------------------------------------------------
                    Distance matrix (angstroms):
                    1          2          3          4          5
     1  O    0.000000
     2  N    1.221578   0.000000
     3  C    2.307764   1.442567   0.000000
     4  O    2.151389   1.237215   2.300608   0.000000
     5  C    2.677248   2.405992   1.389213   3.522491   0.000000
     6  C    3.607061   2.512644   1.423033   2.796637   2.449418
     7  N    4.153514   2.940777   2.438438   2.620746   3.695779
     8  N    5.553180   4.343584   3.712041   3.952298   4.826490
     9  H    5.932640   4.752210   4.232420   4.282746   5.369675
    10  H    5.884387   4.663628   4.198163   4.093270   5.375263
    11  C    4.042034   3.668792   2.381139   4.671961   1.365295
    12  N    4.945262   4.848905   3.719766   5.953637   2.445328
    13  O    4.755812   4.965868   4.118882   6.165245   2.731467
    14  O    6.118699   5.918743   4.676540   6.955213   3.528846
    15  C    4.888593   4.202089   2.761875   4.943629   2.391528
    16  H    5.777065   5.116417   3.676148   5.846546   3.212033
    17  C    4.717631   3.762783   2.411156   4.197736   2.770585
    18  H    5.486579   4.458779   3.191694   4.721034   3.651902
    19  H    3.766508   2.569768   2.532860   1.941497   3.904573
    20  H    2.391442   2.563447   2.029230   3.782726   0.919664
                    6          7          8          9         10
     6  C    0.000000
     7  N    1.346675   0.000000
     8  N    2.379908   1.403917   0.000000
     9  H    2.976189   1.938684   0.908397   0.000000
    10  H    2.951340   1.832047   0.886906   1.383711   0.000000
    11  C    2.800547   4.146816   4.976128   5.551705   5.595881
    12  N    4.258790   5.604880   6.392047   6.959814   7.015059
    13  O    4.972257   6.300701   7.247575   7.787149   7.855753
    14  O    4.938128   6.250651   6.826614   7.405888   7.453572
    15  C    2.421202   3.640561   4.116277   4.708260   4.766752
    16  H    3.241912   4.366205   4.624560   5.182513   5.283126
    17  C    1.414820   2.395350   2.759209   3.380078   3.422201
    18  H    1.966065   2.504717   2.382075   2.967654   3.056497
    19  H    1.890507   0.871500   2.032708   2.378163   2.216385
    20  H    3.287065   4.454841   5.661688   6.181709   6.178546
                   11         12         13         14         15
    11  C    0.000000
    12  N    1.458482   0.000000
    13  O    2.309198   1.225920   0.000000
    14  O    2.300045   1.223665   2.160379   0.000000
    15  C    1.384922   2.452732   3.549278   2.711290   0.000000
    16  H    2.005214   2.599698   3.800497   2.429826   0.916906
    17  C    2.379315   3.703827   4.684400   4.067429   1.357618
    18  H    3.188843   4.423694   5.469645   4.618139   1.978518
    19  H    4.600005   6.046708   6.609610   6.806168   4.304617
    20  H    1.978505   2.575504   2.425303   3.773698   3.211609
                   16         17         18         19         20
    16  H    0.000000
    17  C    1.976876   0.000000
    18  H    2.284344   0.883823   0.000000
    19  H    5.092491   3.154895   3.358300   0.000000
    20  H    3.962186   3.689684   4.571256   4.539938   0.000000
 Stoichiometry    C6H6N4O4
 Framework group  C1[X(C6H6N4O4)]
 Deg. of freedom    54
 Full point group                 C1      NOp   1
 Largest Abelian subgroup         C1      NOp   1
 Largest concise Abelian subgroup C1      NOp   1
                         Standard orientation:                         
 ---------------------------------------------------------------------
 Center     Atomic      Atomic             Coordinates (Angstroms)
 Number     Number       Type             X           Y           Z
 ---------------------------------------------------------------------
      1          8           0        0.957413    2.884221    0.104599
      2          7           0        1.471077    1.783928   -0.028666
      3          6           0        0.647971    0.599621    0.001531
      4          8           0        2.688251    1.643345   -0.200198
      5          6           0       -0.725999    0.804320    0.016309
      6          6           0        1.196444   -0.713466    0.002608
      7          7           0        2.519712   -0.963202    0.013851
      8          7           0        2.979265   -2.287780    0.086560
      9          1           0        3.475968   -2.437781    0.832194
     10          1           0        3.603964   -2.331559   -0.541483
     11          6           0       -1.568726   -0.269841    0.012121
     12          7           0       -3.012337   -0.062773   -0.004610
     13          8           0       -3.440573    1.075045    0.153075
     14          8           0       -3.727740   -1.041638   -0.170075
     15          6           0       -1.071131   -1.561910   -0.018948
     16          1           0       -1.645157   -2.273158    0.054111
     17          6           0        0.268574   -1.781477   -0.008527
     18          1           0        0.616891   -2.591526    0.051802
     19          1           0        3.031219   -0.257944   -0.008144
     20          1           0       -1.088524    1.649505    0.011806
 ---------------------------------------------------------------------
 Rotational constants (GHZ):      1.1044672      0.4921108      0.3417074
 Leave Link  202 at Fri Aug 20 15:42:00 2021, MaxMem= 24159191040 cpu:         0.4
 (Enter /public/home/users/caep010/software/Gaussian09/g09/l301.exe)
 Standard basis: 6-31G(d,p) (6D, 7F)
 Ernie: Thresh=  0.10000D-02 Tol=  0.10000D-05 Strict=F.
 There are   240 symmetry adapted cartesian basis functions of A   symmetry.
 There are   240 symmetry adapted basis functions of A   symmetry.
   240 basis functions,   434 primitive gaussians,   240 cartesian basis functions
    51 alpha electrons       51 beta electrons
       nuclear repulsion energy       894.1890176549 Hartrees.
 IExCor=  402 DFT=T Ex+Corr=B3LYP ExCW=0 ScaHFX=  0.200000
 ScaDFX=  0.800000  0.720000  1.000000  0.810000 ScalE2=  1.000000  1.000000
 IRadAn=      0 IRanWt=     -1 IRanGd=            0 ICorTp=0 IEmpDi=  4
 NAtoms=   20 NActive=   20 NUniq=   20 SFac= 1.00D+00 NAtFMM=   60 NAOKFM=F Big=F
 Integral buffers will be    131072 words long.
 Raffenetti 2 integral format.
 Two-electron integral symmetry is turned on.
 Leave Link  301 at Fri Aug 20 15:42:00 2021, MaxMem= 24159191040 cpu:         2.3
 (Enter /public/home/users/caep010/software/Gaussian09/g09/l302.exe)
 NPDir=0 NMtPBC=     1 NCelOv=     1 NCel=       1 NClECP=     1 NCelD=      1
         NCelK=      1 NCelE2=     1 NClLst=     1 CellRange=     0.0.
 One-electron integrals computed using PRISM.
 NBasis=   240 RedAO= T EigKep=  3.04D-04  NBF=   240
 NBsUse=   240 1.00D-06 EigRej= -1.00D+00 NBFU=   240
 Precomputing XC quadrature grid using
 IXCGrd= 4 IRadAn=           0 IRanWt=          -1 IRanGd=           0 AccXCQ= 0.00D+00.
 Generated NRdTot=       0 NPtTot=           0 NUsed=           0 NTot=          32
 NSgBfM=   238   238   238   238   238 MxSgAt=    20 MxSgA2=    20.
 Leave Link  302 at Fri Aug 20 15:42:00 2021, MaxMem= 24159191040 cpu:        12.7
 (Enter /public/home/users/caep010/software/Gaussian09/g09/l303.exe)
 DipDrv:  MaxL=1.
 Leave Link  303 at Fri Aug 20 15:42:00 2021, MaxMem= 24159191040 cpu:         0.8
 (Enter /public/home/users/caep010/software/Gaussian09/g09/l401.exe)
 ExpMin= 1.61D-01 ExpMax= 5.48D+03 ExpMxC= 8.25D+02 IAcc=1 IRadAn=         1 AccDes= 0.00D+00
 Harris functional with IExCor=  402 and IRadAn=       1 diagonalized for initial guess.
 HarFok:  IExCor=  402 AccDes= 0.00D+00 IRadAn=         1 IDoV= 1 UseB2=F ITyADJ=14
 ICtDFT=  3500011 ScaDFX=  1.000000  1.000000  1.000000  1.000000
 FoFCou: FMM=F IPFlag=           0 FMFlag=      100000 FMFlg1=           0
         NFxFlg=           0 DoJE=T BraDBF=F KetDBF=T FulRan=T
         wScrn=  0.000000 ICntrl=     500 IOpCl=  0 I1Cent=   200000004 NGrid=           0
         NMat0=    1 NMatS0=      1 NMatT0=    0 NMatD0=    1 NMtDS0=    0 NMtDT0=    0
 Petite list used in FoFCou.
 Harris En= -751.877484802865    
 JPrj=0 DoOrth=F DoCkMO=F.
 Leave Link  401 at Fri Aug 20 15:42:01 2021, MaxMem= 24159191040 cpu:        12.0
 (Enter /public/home/users/caep010/software/Gaussian09/g09/l502.exe)
 Closed shell SCF:
 Using DIIS extrapolation, IDIIS=  1040.
 Integral symmetry usage will be decided dynamically.
 Keep R1 ints in memory in canonical form, NReq=425397124.
 IVT=      200824 IEndB=      200824 NGot= 24159191040 MDV= 23740792557
 LenX= 23740792557 LenY= 23740734516
 Requested convergence on RMS density matrix=1.00D-08 within 128 cycles.
 Requested convergence on MAX density matrix=1.00D-06.
 Requested convergence on             energy=1.00D-06.
 No special actions if energy rises.
 FoFCou: FMM=F IPFlag=           0 FMFlag=           0 FMFlg1=           0
         NFxFlg=           0 DoJE=F BraDBF=F KetDBF=F FulRan=T
         wScrn=  0.000000 ICntrl=     600 IOpCl=  0 I1Cent=           0 NGrid=           0
         NMat0=    1 NMatS0=  28920 NMatT0=    0 NMatD0=    1 NMtDS0=    0 NMtDT0=    0
 Symmetry not used in FoFCou.
 Integral accuracy reduced to 1.0D-05 until final iterations.

 Cycle   1  Pass 0  IDiag  1:
 E= -751.300878313223    
 DIIS: error= 3.65D-02 at cycle   1 NSaved=   1.
 NSaved= 1 IEnMin= 1 EnMin= -751.300878313223     IErMin= 1 ErrMin= 3.65D-02
 ErrMax= 3.65D-02  0.00D+00 EMaxC= 1.00D-01 BMatC= 6.19D-01 BMatP= 6.19D-01
 IDIUse=3 WtCom= 6.35D-01 WtEn= 3.65D-01
 Coeff-Com:  0.100D+01
 Coeff-En:   0.100D+01
 Coeff:      0.100D+01
 Gap=     0.172 Goal=   None    Shift=    0.000
 GapD=    0.172 DampG=1.000 DampE=0.500 DampFc=0.5000 IDamp=-1.
 Damping current iteration by 5.00D-01
 RMSDP=6.89D-03 MaxDP=2.53D-01              OVMax= 3.40D-01

 Cycle   2  Pass 0  IDiag  1:
 E= -751.398828977887     Delta-E=       -0.097950664664 Rises=F Damp=T
 DIIS: error= 1.72D-02 at cycle   2 NSaved=   2.
 NSaved= 2 IEnMin= 2 EnMin= -751.398828977887     IErMin= 2 ErrMin= 1.72D-02
 ErrMax= 1.72D-02  0.00D+00 EMaxC= 1.00D-01 BMatC= 1.21D-01 BMatP= 6.19D-01
 IDIUse=3 WtCom= 8.28D-01 WtEn= 1.72D-01
 Coeff-Com:  0.269D+00 0.731D+00
 Coeff-En:   0.405D+00 0.595D+00
 Coeff:      0.292D+00 0.708D+00
 Gap=     0.146 Goal=   None    Shift=    0.000
 RMSDP=2.07D-03 MaxDP=6.78D-02 DE=-9.80D-02 OVMax= 2.31D-01

 Cycle   3  Pass 0  IDiag  1:
 E= -751.761859059400     Delta-E=       -0.363030081513 Rises=F Damp=F
 DIIS: error= 1.28D-02 at cycle   3 NSaved=   3.
 NSaved= 3 IEnMin= 3 EnMin= -751.761859059400     IErMin= 3 ErrMin= 1.28D-02
 ErrMax= 1.28D-02  0.00D+00 EMaxC= 1.00D-01 BMatC= 2.89D-02 BMatP= 1.21D-01
 IDIUse=3 WtCom= 8.72D-01 WtEn= 1.28D-01
 Coeff-Com:  0.104D+00 0.330D+00 0.565D+00
 Coeff-En:   0.000D+00 0.000D+00 0.100D+01
 Coeff:      0.910D-01 0.288D+00 0.621D+00
 Gap=     0.156 Goal=   None    Shift=    0.000
 RMSDP=1.28D-03 MaxDP=6.55D-02 DE=-3.63D-01 OVMax= 1.04D-01

 Cycle   4  Pass 0  IDiag  1:
 E= -751.765770813559     Delta-E=       -0.003911754159 Rises=F Damp=F
 DIIS: error= 1.71D-02 at cycle   4 NSaved=   4.
 NSaved= 4 IEnMin= 4 EnMin= -751.765770813559     IErMin= 3 ErrMin= 1.28D-02
 ErrMax= 1.71D-02  0.00D+00 EMaxC= 1.00D-01 BMatC= 2.74D-02 BMatP= 2.89D-02
 IDIUse=3 WtCom= 8.29D-01 WtEn= 1.71D-01
 Coeff-Com:  0.459D-01 0.131D+00 0.460D+00 0.363D+00
 Coeff-En:   0.000D+00 0.000D+00 0.467D+00 0.533D+00
 Coeff:      0.381D-01 0.108D+00 0.462D+00 0.392D+00
 Gap=     0.151 Goal=   None    Shift=    0.000
 RMSDP=7.56D-04 MaxDP=4.81D-02 DE=-3.91D-03 OVMax= 9.32D-02

 Cycle   5  Pass 0  IDiag  1:
 E= -751.785124315439     Delta-E=       -0.019353501880 Rises=F Damp=F
 DIIS: error= 5.05D-03 at cycle   5 NSaved=   5.
 NSaved= 5 IEnMin= 5 EnMin= -751.785124315439     IErMin= 5 ErrMin= 5.05D-03
 ErrMax= 5.05D-03  0.00D+00 EMaxC= 1.00D-01 BMatC= 3.75D-03 BMatP= 2.74D-02
 IDIUse=3 WtCom= 9.50D-01 WtEn= 5.05D-02
 Coeff-Com:  0.155D-01 0.245D-01 0.228D+00 0.292D+00 0.439D+00
 Coeff-En:   0.000D+00 0.000D+00 0.000D+00 0.139D+00 0.861D+00
 Coeff:      0.147D-01 0.232D-01 0.217D+00 0.284D+00 0.461D+00
 Gap=     0.150 Goal=   None    Shift=    0.000
 RMSDP=2.82D-04 MaxDP=1.56D-02 DE=-1.94D-02 OVMax= 2.73D-02

 Cycle   6  Pass 0  IDiag  1:
 E= -751.787978409085     Delta-E=       -0.002854093647 Rises=F Damp=F
 DIIS: error= 8.25D-04 at cycle   6 NSaved=   6.
 NSaved= 6 IEnMin= 6 EnMin= -751.787978409085     IErMin= 6 ErrMin= 8.25D-04
 ErrMax= 8.25D-04  0.00D+00 EMaxC= 1.00D-01 BMatC= 2.89D-04 BMatP= 3.75D-03
 IDIUse=3 WtCom= 9.92D-01 WtEn= 8.25D-03
 Coeff-Com:  0.300D-02-0.153D-02 0.734D-01 0.120D+00 0.285D+00 0.520D+00
 Coeff-En:   0.000D+00 0.000D+00 0.000D+00 0.000D+00 0.685D-01 0.932D+00
 Coeff:      0.298D-02-0.152D-02 0.727D-01 0.119D+00 0.283D+00 0.523D+00
 Gap=     0.151 Goal=   None    Shift=    0.000
 RMSDP=8.15D-05 MaxDP=3.84D-03 DE=-2.85D-03 OVMax= 4.42D-03

 Cycle   7  Pass 0  IDiag  1:
 E= -751.788217963248     Delta-E=       -0.000239554163 Rises=F Damp=F
 DIIS: error= 2.58D-04 at cycle   7 NSaved=   7.
 NSaved= 7 IEnMin= 7 EnMin= -751.788217963248     IErMin= 7 ErrMin= 2.58D-04
 ErrMax= 2.58D-04  0.00D+00 EMaxC= 1.00D-01 BMatC= 1.53D-05 BMatP= 2.89D-04
 IDIUse=3 WtCom= 9.97D-01 WtEn= 2.58D-03
 Coeff-Com:  0.657D-03-0.222D-02 0.254D-01 0.469D-01 0.128D+00 0.289D+00
 Coeff-Com:  0.512D+00
 Coeff-En:   0.000D+00 0.000D+00 0.000D+00 0.000D+00 0.000D+00 0.000D+00
 Coeff-En:   0.100D+01
 Coeff:      0.656D-03-0.221D-02 0.253D-01 0.468D-01 0.128D+00 0.288D+00
 Coeff:      0.513D+00
 Gap=     0.151 Goal=   None    Shift=    0.000
 RMSDP=2.06D-05 MaxDP=1.11D-03 DE=-2.40D-04 OVMax= 1.86D-03

 Cycle   8  Pass 0  IDiag  1:
 E= -751.788225368149     Delta-E=       -0.000007404901 Rises=F Damp=F
 DIIS: error= 2.76D-04 at cycle   8 NSaved=   8.
 NSaved= 8 IEnMin= 8 EnMin= -751.788225368149     IErMin= 7 ErrMin= 2.58D-04
 ErrMax= 2.76D-04  0.00D+00 EMaxC= 1.00D-01 BMatC= 6.30D-06 BMatP= 1.53D-05
 IDIUse=3 WtCom= 9.97D-01 WtEn= 2.58D-03
 Coeff-Com:  0.290D-04-0.143D-02 0.816D-02 0.171D-01 0.543D-01 0.140D+00
 Coeff-Com:  0.391D+00 0.391D+00
 Coeff-En:   0.000D+00 0.000D+00 0.000D+00 0.000D+00 0.000D+00 0.000D+00
 Coeff-En:   0.315D+00 0.685D+00
 Coeff:      0.289D-04-0.142D-02 0.813D-02 0.171D-01 0.541D-01 0.139D+00
 Coeff:      0.391D+00 0.391D+00
 Gap=     0.151 Goal=   None    Shift=    0.000
 RMSDP=1.10D-05 MaxDP=6.90D-04 DE=-7.40D-06 OVMax= 1.16D-03

 Cycle   9  Pass 0  IDiag  1:
 E= -751.788230008781     Delta-E=       -0.000004640631 Rises=F Damp=F
 DIIS: error= 8.97D-05 at cycle   9 NSaved=   9.
 NSaved= 9 IEnMin= 9 EnMin= -751.788230008781     IErMin= 9 ErrMin= 8.97D-05
 ErrMax= 8.97D-05  0.00D+00 EMaxC= 1.00D-01 BMatC= 6.68D-07 BMatP= 6.30D-06
 IDIUse=1 WtCom= 1.00D+00 WtEn= 0.00D+00
 Coeff-Com: -0.807D-04-0.648D-03 0.195D-02 0.482D-02 0.186D-01 0.536D-01
 Coeff-Com:  0.197D+00 0.277D+00 0.448D+00
 Coeff:     -0.807D-04-0.648D-03 0.195D-02 0.482D-02 0.186D-01 0.536D-01
 Coeff:      0.197D+00 0.277D+00 0.448D+00
 Gap=     0.151 Goal=   None    Shift=    0.000
 RMSDP=3.61D-06 MaxDP=2.26D-04 DE=-4.64D-06 OVMax= 3.45D-04

 Initial convergence to 1.0D-05 achieved.  Increase integral accuracy.
 Cycle  10  Pass 1  IDiag  1:
 E= -751.788205309473     Delta-E=        0.000024699308 Rises=F Damp=F
 DIIS: error= 1.65D-05 at cycle   1 NSaved=   1.
 NSaved= 1 IEnMin= 1 EnMin= -751.788205309473     IErMin= 1 ErrMin= 1.65D-05
 ErrMax= 1.65D-05  0.00D+00 EMaxC= 1.00D-01 BMatC= 1.28D-07 BMatP= 1.28D-07
 IDIUse=1 WtCom= 1.00D+00 WtEn= 0.00D+00
 Coeff-Com:  0.100D+01
 Coeff:      0.100D+01
 Gap=     0.151 Goal=   None    Shift=    0.000
 RMSDP=3.61D-06 MaxDP=2.26D-04 DE= 2.47D-05 OVMax= 1.97D-04

 Cycle  11  Pass 1  IDiag  1:
 E= -751.788205216640     Delta-E=        0.000000092833 Rises=F Damp=F
 DIIS: error= 4.39D-05 at cycle   2 NSaved=   2.
 NSaved= 2 IEnMin= 1 EnMin= -751.788205309473     IErMin= 1 ErrMin= 1.65D-05
 ErrMax= 4.39D-05  0.00D+00 EMaxC= 1.00D-01 BMatC= 2.89D-07 BMatP= 1.28D-07
 IDIUse=1 WtCom= 1.00D+00 WtEn= 0.00D+00
 Coeff-Com:  0.621D+00 0.379D+00
 Coeff:      0.621D+00 0.379D+00
 Gap=     0.151 Goal=   None    Shift=    0.000
 RMSDP=2.41D-06 MaxDP=1.47D-04 DE= 9.28D-08 OVMax= 2.14D-04

 Cycle  12  Pass 1  IDiag  1:
 E= -751.788205415082     Delta-E=       -0.000000198442 Rises=F Damp=F
 DIIS: error= 2.27D-05 at cycle   3 NSaved=   3.
 NSaved= 3 IEnMin= 3 EnMin= -751.788205415082     IErMin= 1 ErrMin= 1.65D-05
 ErrMax= 2.27D-05  0.00D+00 EMaxC= 1.00D-01 BMatC= 3.65D-08 BMatP= 1.28D-07
 IDIUse=1 WtCom= 1.00D+00 WtEn= 0.00D+00
 Coeff-Com:  0.143D+00 0.253D+00 0.604D+00
 Coeff:      0.143D+00 0.253D+00 0.604D+00
 Gap=     0.151 Goal=   None    Shift=    0.000
 RMSDP=1.08D-06 MaxDP=6.80D-05 DE=-1.98D-07 OVMax= 1.21D-04

 Cycle  13  Pass 1  IDiag  1:
 E= -751.788205425466     Delta-E=       -0.000000010384 Rises=F Damp=F
 DIIS: error= 1.53D-05 at cycle   4 NSaved=   4.
 NSaved= 4 IEnMin= 4 EnMin= -751.788205425466     IErMin= 4 ErrMin= 1.53D-05
 ErrMax= 1.53D-05  0.00D+00 EMaxC= 1.00D-01 BMatC= 2.25D-08 BMatP= 3.65D-08
 IDIUse=1 WtCom= 1.00D+00 WtEn= 0.00D+00
 Coeff-Com: -0.112D-01 0.131D+00 0.501D+00 0.380D+00
 Coeff:     -0.112D-01 0.131D+00 0.501D+00 0.380D+00
 Gap=     0.151 Goal=   None    Shift=    0.000
 RMSDP=5.62D-07 MaxDP=3.32D-05 DE=-1.04D-08 OVMax= 5.39D-05

 Cycle  14  Pass 1  IDiag  1:
 E= -751.788205443689     Delta-E=       -0.000000018223 Rises=F Damp=F
 DIIS: error= 8.40D-07 at cycle   5 NSaved=   5.
 NSaved= 5 IEnMin= 5 EnMin= -751.788205443689     IErMin= 5 ErrMin= 8.40D-07
 ErrMax= 8.40D-07  0.00D+00 EMaxC= 1.00D-01 BMatC= 3.52D-10 BMatP= 2.25D-08
 IDIUse=1 WtCom= 1.00D+00 WtEn= 0.00D+00
 Coeff-Com: -0.122D-01 0.634D-01 0.256D+00 0.215D+00 0.478D+00
 Coeff:     -0.122D-01 0.634D-01 0.256D+00 0.215D+00 0.478D+00
 Gap=     0.151 Goal=   None    Shift=    0.000
 RMSDP=9.83D-08 MaxDP=4.35D-06 DE=-1.82D-08 OVMax= 6.31D-06

 Cycle  15  Pass 1  IDiag  1:
 E= -751.788205443918     Delta-E=       -0.000000000229 Rises=F Damp=F
 DIIS: error= 2.87D-07 at cycle   6 NSaved=   6.
 NSaved= 6 IEnMin= 6 EnMin= -751.788205443918     IErMin= 6 ErrMin= 2.87D-07
 ErrMax= 2.87D-07  0.00D+00 EMaxC= 1.00D-01 BMatC= 3.30D-11 BMatP= 3.52D-10
 IDIUse=1 WtCom= 1.00D+00 WtEn= 0.00D+00
 Coeff-Com: -0.610D-02 0.254D-01 0.104D+00 0.914D-01 0.276D+00 0.509D+00
 Coeff:     -0.610D-02 0.254D-01 0.104D+00 0.914D-01 0.276D+00 0.509D+00
 Gap=     0.151 Goal=   None    Shift=    0.000
 RMSDP=3.25D-08 MaxDP=1.68D-06 DE=-2.29D-10 OVMax= 2.61D-06

 Cycle  16  Pass 1  IDiag  1:
 E= -751.788205443982     Delta-E=       -0.000000000064 Rises=F Damp=F
 DIIS: error= 2.64D-07 at cycle   7 NSaved=   7.
 NSaved= 7 IEnMin= 7 EnMin= -751.788205443982     IErMin= 7 ErrMin= 2.64D-07
 ErrMax= 2.64D-07  0.00D+00 EMaxC= 1.00D-01 BMatC= 8.75D-12 BMatP= 3.30D-11
 IDIUse=1 WtCom= 1.00D+00 WtEn= 0.00D+00
 Coeff-Com: -0.226D-02 0.756D-02 0.316D-01 0.288D-01 0.111D+00 0.361D+00
 Coeff-Com:  0.462D+00
 Coeff:     -0.226D-02 0.756D-02 0.316D-01 0.288D-01 0.111D+00 0.361D+00
 Coeff:      0.462D+00
 Gap=     0.151 Goal=   None    Shift=    0.000
 RMSDP=1.46D-08 MaxDP=9.28D-07 DE=-6.41D-11 OVMax= 1.32D-06

 Cycle  17  Pass 1  IDiag  1:
 E= -751.788205443984     Delta-E=       -0.000000000003 Rises=F Damp=F
 DIIS: error= 1.41D-07 at cycle   8 NSaved=   8.
 NSaved= 8 IEnMin= 8 EnMin= -751.788205443984     IErMin= 8 ErrMin= 1.41D-07
 ErrMax= 1.41D-07  0.00D+00 EMaxC= 1.00D-01 BMatC= 2.06D-12 BMatP= 8.75D-12
 IDIUse=1 WtCom= 1.00D+00 WtEn= 0.00D+00
 Coeff-Com: -0.197D-03-0.668D-03-0.210D-02-0.141D-02 0.161D-01 0.161D+00
 Coeff-Com:  0.356D+00 0.471D+00
 Coeff:     -0.197D-03-0.668D-03-0.210D-02-0.141D-02 0.161D-01 0.161D+00
 Coeff:      0.356D+00 0.471D+00
 Gap=     0.151 Goal=   None    Shift=    0.000
 RMSDP=7.19D-09 MaxDP=3.42D-07 DE=-2.50D-12 OVMax= 5.15D-07

 SCF Done:  E(RB3LYP) =  -751.788205444     A.U. after   17 cycles
            NFock= 17  Conv=0.72D-08     -V/T= 2.0059
 KE= 7.473868963123D+02 PE=-3.546147171648D+03 EE= 1.152783052236D+03
 Leave Link  502 at Fri Aug 20 15:42:15 2021, MaxMem= 24159191040 cpu:       128.3
 (Enter /public/home/users/caep010/software/Gaussian09/g09/l601.exe)
 Copying SCF densities to generalized density rwf, IOpCl= 0 IROHF=0.

 **********************************************************************

            Population analysis using the SCF density.

 **********************************************************************

 Orbital symmetries:
       Occupied  (A) (A) (A) (A) (A) (A) (A) (A) (A) (A) (A) (A)
                 (A) (A) (A) (A) (A) (A) (A) (A) (A) (A) (A) (A)
                 (A) (A) (A) (A) (A) (A) (A) (A) (A) (A) (A) (A)
                 (A) (A) (A) (A) (A) (A) (A) (A) (A) (A) (A) (A)
                 (A) (A) (A)
       Virtual   (A) (A) (A) (A) (A) (A) (A) (A) (A) (A) (A) (A)
                 (A) (A) (A) (A) (A) (A) (A) (A) (A) (A) (A) (A)
                 (A) (A) (A) (A) (A) (A) (A) (A) (A) (A) (A) (A)
                 (A) (A) (A) (A) (A) (A) (A) (A) (A) (A) (A) (A)
                 (A) (A) (A) (A) (A) (A) (A) (A) (A) (A) (A) (A)
                 (A) (A) (A) (A) (A) (A) (A) (A) (A) (A) (A) (A)
                 (A) (A) (A) (A) (A) (A) (A) (A) (A) (A) (A) (A)
                 (A) (A) (A) (A) (A) (A) (A) (A) (A) (A) (A) (A)
                 (A) (A) (A) (A) (A) (A) (A) (A) (A) (A) (A) (A)
                 (A) (A) (A) (A) (A) (A) (A) (A) (A) (A) (A) (A)
                 (A) (A) (A) (A) (A) (A) (A) (A) (A) (A) (A) (A)
                 (A) (A) (A) (A) (A) (A) (A) (A) (A) (A) (A) (A)
                 (A) (A) (A) (A) (A) (A) (A) (A) (A) (A) (A) (A)
                 (A) (A) (A) (A) (A) (A) (A) (A) (A) (A) (A) (A)
                 (A) (A) (A) (A) (A) (A) (A) (A) (A) (A) (A) (A)
                 (A) (A) (A) (A) (A) (A) (A) (A) (A)
 The electronic state is 1-A.
 Alpha  occ. eigenvalues --  -19.19110 -19.19005 -19.17893 -19.17779 -14.58511
 Alpha  occ. eigenvalues --  -14.57248 -14.41042 -14.38283 -10.28792 -10.26893
 Alpha  occ. eigenvalues --  -10.25264 -10.22389 -10.21590 -10.20165  -1.24187
 Alpha  occ. eigenvalues --   -1.22987  -1.06818  -1.05792  -1.05299  -0.93316
 Alpha  occ. eigenvalues --   -0.89113  -0.84224  -0.81333  -0.73824  -0.71744
 Alpha  occ. eigenvalues --   -0.66964  -0.62827  -0.59290  -0.58778  -0.57159
 Alpha  occ. eigenvalues --   -0.55677  -0.54815  -0.54204  -0.53586  -0.52989
 Alpha  occ. eigenvalues --   -0.51057  -0.50133  -0.47752  -0.45799  -0.42679
 Alpha  occ. eigenvalues --   -0.41675  -0.36122  -0.33643  -0.32154  -0.31893
 Alpha  occ. eigenvalues --   -0.31043  -0.30928  -0.30294  -0.29775  -0.28966
 Alpha  occ. eigenvalues --   -0.25015
 Alpha virt. eigenvalues --   -0.09911  -0.08464  -0.01929   0.01172   0.06105
 Alpha virt. eigenvalues --    0.10531   0.13058   0.14183   0.15010   0.16648
 Alpha virt. eigenvalues --    0.17582   0.18857   0.20611   0.22551   0.23753
 Alpha virt. eigenvalues --    0.26295   0.28108   0.28683   0.31190   0.32151
 Alpha virt. eigenvalues --    0.33857   0.37912   0.44456   0.45619   0.47092
 Alpha virt. eigenvalues --    0.47480   0.49107   0.50310   0.53914   0.54676
 Alpha virt. eigenvalues --    0.54929   0.56809   0.58439   0.59429   0.60062
 Alpha virt. eigenvalues --    0.61491   0.62851   0.64239   0.67476   0.67870
 Alpha virt. eigenvalues --    0.70120   0.70732   0.72086   0.74839   0.75795
 Alpha virt. eigenvalues --    0.76376   0.77909   0.79952   0.80535   0.81663
 Alpha virt. eigenvalues --    0.84391   0.85244   0.87915   0.89551   0.91256
 Alpha virt. eigenvalues --    0.93276   0.93930   0.94512   0.94986   0.96012
 Alpha virt. eigenvalues --    0.97494   0.98133   0.98386   0.99546   0.99975
 Alpha virt. eigenvalues --    1.00466   1.03657   1.06251   1.07870   1.09736
 Alpha virt. eigenvalues --    1.11794   1.17432   1.18476   1.19508   1.21413
 Alpha virt. eigenvalues --    1.22786   1.24620   1.25708   1.28536   1.29472
 Alpha virt. eigenvalues --    1.32397   1.34832   1.35733   1.37453   1.38983
 Alpha virt. eigenvalues --    1.40038   1.42359   1.45443   1.47156   1.49095
 Alpha virt. eigenvalues --    1.53353   1.56697   1.62735   1.64920   1.66937
 Alpha virt. eigenvalues --    1.68908   1.70093   1.72195   1.73625   1.75049
 Alpha virt. eigenvalues --    1.76900   1.77972   1.79883   1.80192   1.81176
 Alpha virt. eigenvalues --    1.82881   1.83682   1.87891   1.88461   1.90086
 Alpha virt. eigenvalues --    1.90293   1.93163   1.94830   1.96272   1.97072
 Alpha virt. eigenvalues --    2.02235   2.03810   2.05944   2.07375   2.12410
 Alpha virt. eigenvalues --    2.12561   2.13889   2.15425   2.17094   2.19148
 Alpha virt. eigenvalues --    2.22672   2.23286   2.26154   2.31268   2.32587
 Alpha virt. eigenvalues --    2.34403   2.40337   2.41308   2.43832   2.45740
 Alpha virt. eigenvalues --    2.47277   2.48673   2.50300   2.52692   2.54290
 Alpha virt. eigenvalues --    2.55237   2.57592   2.59126   2.60093   2.64772
 Alpha virt. eigenvalues --    2.66769   2.68358   2.71229   2.73467   2.74264
 Alpha virt. eigenvalues --    2.76577   2.80464   2.83005   2.86358   2.88872
 Alpha virt. eigenvalues --    2.89063   2.90061   2.91686   2.92508   2.94074
 Alpha virt. eigenvalues --    3.00320   3.03756   3.05682   3.11355   3.18196
 Alpha virt. eigenvalues --    3.28206   3.32222   3.39888   3.52600   3.61028
 Alpha virt. eigenvalues --    3.69625   3.69863   3.77628   3.83213   3.83847
 Alpha virt. eigenvalues --    3.84566   3.97868   4.00122   4.03518   4.07091
 Alpha virt. eigenvalues --    4.09745   4.12068   4.14150   4.19603   4.26318
 Alpha virt. eigenvalues --    4.33607   4.44644   4.49632   4.88227
          Condensed to atoms (all electrons):
               1          2          3          4          5          6
     1  O    8.252931   0.309031  -0.092374  -0.104785  -0.002726   0.005030
     2  N    0.309031   6.023903   0.145935   0.255163  -0.046703  -0.039408
     3  C   -0.092374   0.145935   5.236424  -0.069293   0.404974   0.364913
     4  O   -0.104785   0.255163  -0.069293   8.337296   0.008831  -0.017441
     5  C   -0.002726  -0.046703   0.404974   0.008831   5.102823  -0.066903
     6  C    0.005030  -0.039408   0.364913  -0.017441  -0.066903   4.801164
     7  N   -0.000048  -0.011173  -0.087435  -0.021866   0.007421   0.311945
     8  N    0.000001   0.000014   0.003578   0.000747  -0.000051  -0.072596
     9  H   -0.000000   0.000004  -0.000017  -0.000035   0.000002   0.002592
    10  H   -0.000000  -0.000002  -0.000168  -0.000039   0.000006   0.003189
    11  C    0.001575   0.005204  -0.011025   0.000005   0.420925  -0.048501
    12  N   -0.000004  -0.000057   0.004447   0.000000  -0.034402   0.000443
    13  O    0.000000  -0.000006   0.001330  -0.000000  -0.004039   0.000004
    14  O    0.000000   0.000000   0.000014  -0.000000   0.007834  -0.000016
    15  C    0.000004  -0.000067  -0.059354  -0.000010  -0.085670  -0.001770
    16  H    0.000000   0.000007   0.000461  -0.000000   0.010011   0.006757
    17  C   -0.000057   0.005369  -0.017508   0.000042  -0.058606   0.468260
    18  H    0.000001  -0.000137   0.011715   0.000003   0.001099  -0.038926
    19  H    0.000546  -0.001846  -0.016864   0.050461  -0.000674  -0.023406
    20  H    0.022942  -0.017809  -0.035748   0.000344   0.350342   0.009228
               7          8          9         10         11         12
     1  O   -0.000048   0.000001  -0.000000  -0.000000   0.001575  -0.000004
     2  N   -0.011173   0.000014   0.000004  -0.000002   0.005204  -0.000057
     3  C   -0.087435   0.003578  -0.000017  -0.000168  -0.011025   0.004447
     4  O   -0.021866   0.000747  -0.000035  -0.000039   0.000005   0.000000
     5  C    0.007421  -0.000051   0.000002   0.000006   0.420925  -0.034402
     6  C    0.311945  -0.072596   0.002592   0.003189  -0.048501   0.000443
     7  N    6.841431   0.236113  -0.042419  -0.045649  -0.000050   0.000001
     8  N    0.236113   6.474572   0.374407   0.382127   0.000005   0.000000
     9  H   -0.042419   0.374407   0.450495  -0.048842  -0.000001  -0.000000
    10  H   -0.045649   0.382127  -0.048842   0.446755  -0.000001  -0.000000
    11  C   -0.000050   0.000005  -0.000001  -0.000001   5.077596   0.157267
    12  N    0.000001   0.000000  -0.000000  -0.000000   0.157267   5.975108
    13  O   -0.000000  -0.000000   0.000000   0.000000  -0.095453   0.294143
    14  O   -0.000000   0.000000   0.000000   0.000000  -0.100178   0.299988
    15  C    0.007531   0.000150  -0.000010   0.000008   0.450629  -0.044878
    16  H   -0.000161  -0.000021   0.000001   0.000001  -0.042583  -0.016211
    17  C   -0.062229  -0.011060   0.000465   0.000654  -0.004377   0.004236
    18  H   -0.023028   0.024606  -0.000879  -0.000406   0.006117  -0.000147
    19  H    0.364791  -0.028257  -0.001040  -0.001264  -0.000028   0.000000
    20  H   -0.000060   0.000001  -0.000000  -0.000000  -0.036301  -0.017047
              13         14         15         16         17         18
     1  O    0.000000   0.000000   0.000004   0.000000  -0.000057   0.000001
     2  N   -0.000006   0.000000  -0.000067   0.000007   0.005369  -0.000137
     3  C    0.001330   0.000014  -0.059354   0.000461  -0.017508   0.011715
     4  O   -0.000000  -0.000000  -0.000010  -0.000000   0.000042   0.000003
     5  C   -0.004039   0.007834  -0.085670   0.010011  -0.058606   0.001099
     6  C    0.000004  -0.000016  -0.001770   0.006757   0.468260  -0.038926
     7  N   -0.000000  -0.000000   0.007531  -0.000161  -0.062229  -0.023028
     8  N   -0.000000   0.000000   0.000150  -0.000021  -0.011060   0.024606
     9  H    0.000000   0.000000  -0.000010   0.000001   0.000465  -0.000879
    10  H    0.000000   0.000000   0.000008   0.000001   0.000654  -0.000406
    11  C   -0.095453  -0.100178   0.450629  -0.042583  -0.004377   0.006117
    12  N    0.294143   0.299988  -0.044878  -0.016211   0.004236  -0.000147
    13  O    8.280910  -0.108561   0.007817   0.000251  -0.000019   0.000001
    14  O   -0.108561   8.280445  -0.000418   0.021696   0.001396   0.000002
    15  C    0.007817  -0.000418   4.922968   0.372056   0.488366  -0.056084
    16  H    0.000251   0.021696   0.372056   0.612721  -0.043438  -0.009941
    17  C   -0.000019   0.001396   0.488366  -0.043438   4.870067   0.379390
    18  H    0.000001   0.000002  -0.056084  -0.009941   0.379390   0.643112
    19  H    0.000000  -0.000000  -0.000112   0.000003   0.010180   0.000201
    20  H    0.024888   0.000347   0.010755  -0.000287  -0.000885   0.000021
              19         20
     1  O    0.000546   0.022942
     2  N   -0.001846  -0.017809
     3  C   -0.016864  -0.035748
     4  O    0.050461   0.000344
     5  C   -0.000674   0.350342
     6  C   -0.023406   0.009228
     7  N    0.364791  -0.000060
     8  N   -0.028257   0.000001
     9  H   -0.001040  -0.000000
    10  H   -0.001264  -0.000000
    11  C   -0.000028  -0.036301
    12  N    0.000000  -0.017047
    13  O    0.000000   0.024888
    14  O   -0.000000   0.000347
    15  C   -0.000112   0.010755
    16  H    0.000003  -0.000287
    17  C    0.010180  -0.000885
    18  H    0.000201   0.000021
    19  H    0.406886  -0.000029
    20  H   -0.000029   0.579516
 Mulliken charges:
               1
     1  O   -0.392067
     2  N    0.372576
     3  C    0.215996
     4  O   -0.439423
     5  C   -0.014494
     6  C    0.335444
     7  N   -0.475115
     8  N   -0.384337
     9  H    0.265278
    10  H    0.263631
    11  C    0.219176
    12  N    0.377113
    13  O   -0.401268
    14  O   -0.402550
    15  C   -0.011908
    16  H    0.088678
    17  C   -0.030246
    18  H    0.063281
    19  H    0.240455
    20  H    0.109782
 Sum of Mulliken charges =  -0.00000
 Mulliken charges with hydrogens summed into heavy atoms:
               1
     1  O   -0.392067
     2  N    0.372576
     3  C    0.215996
     4  O   -0.439423
     5  C    0.095288
     6  C    0.335444
     7  N   -0.234661
     8  N    0.144571
    11  C    0.219176
    12  N    0.377113
    13  O   -0.401268
    14  O   -0.402550
    15  C    0.076770
    17  C    0.033035
 Electronic spatial extent (au):  <R**2>=           2942.2912
 Charge=             -0.0000 electrons
 Dipole moment (field-independent basis, Debye):
    X=              5.9659    Y=             -4.7272    Z=              0.4460  Tot=              7.6248
 Quadrupole moment (field-independent basis, Debye-Ang):
   XX=            -82.2107   YY=            -83.4113   ZZ=            -75.1377
   XY=            -11.9463   XZ=              1.3585   YZ=             -1.7306
 Traceless Quadrupole moment (field-independent basis, Debye-Ang):
   XX=             -1.9575   YY=             -3.1580   ZZ=              5.1155
   XY=            -11.9463   XZ=              1.3585   YZ=             -1.7306
 Octapole moment (field-independent basis, Debye-Ang**2):
  XXX=            139.8341  YYY=            -26.0563  ZZZ=              0.5389  XYY=              6.3283
  XXY=            -45.9290  XXZ=              6.0897  XZZ=              2.3698  YZZ=              3.5164
  YYZ=              1.9938  XYZ=              0.8821
 Hexadecapole moment (field-independent basis, Debye-Ang**3):
 XXXX=          -2363.8789 YYYY=          -1166.8107 ZZZZ=            -71.0383 XXXY=           -200.2582
 XXXZ=              9.5842 YYYX=            -53.4679 YYYZ=            -11.2354 ZZZX=              1.9306
 ZZZY=             -1.7821 XXYY=           -551.3612 XXZZ=           -369.5646 YYZZ=           -186.7451
 XXYZ=            -12.8976 YYXZ=              7.9221 ZZXY=             -6.4187
 N-N= 8.941890176549D+02 E-N=-3.546147182273D+03  KE= 7.473868963123D+02
 No NMR shielding tensors so no spin-rotation constants.
 Leave Link  601 at Fri Aug 20 15:42:15 2021, MaxMem= 24159191040 cpu:        11.2
 (Enter /public/home/users/caep010/software/Gaussian09/g09/l701.exe)
 Compute integral first derivatives.
 ... and contract with generalized density number  0.
 Leave Link  701 at Fri Aug 20 15:42:16 2021, MaxMem= 24159191040 cpu:        11.2
 (Enter /public/home/users/caep010/software/Gaussian09/g09/l702.exe)
 L702 exits ... SP integral derivatives will be done elsewhere.
 Leave Link  702 at Fri Aug 20 15:42:16 2021, MaxMem= 24159191040 cpu:         0.5
 (Enter /public/home/users/caep010/software/Gaussian09/g09/l703.exe)
 Compute integral first derivatives, UseDBF=F ICtDFT=           0.
 Integral derivatives from FoFJK, PRISM(SPDF).
 Calling FoFJK, ICntrl=      2127 FMM=F ISym2X=0 I1Cent= 0 IOpClX= 0 NMat=1 NMatS=1 NMatT=0.
 FoFJK:  IHMeth= 1 ICntrl=    2127 DoSepK=F KAlg= 0 I1Cent=   0 FoldK=F
 IRaf=         0 NMat=   1 IRICut=       1 DoRegI=T DoRafI=F ISym2E= 0.
 FoFCou: FMM=F IPFlag=           0 FMFlag=      100000 FMFlg1=         800
         NFxFlg=           0 DoJE=F BraDBF=F KetDBF=F FulRan=T
         wScrn=  0.000000 ICntrl=    2127 IOpCl=  0 I1Cent=           0 NGrid=           0
         NMat0=    1 NMatS0=      1 NMatT0=    0 NMatD0=    1 NMtDS0=    0 NMtDT0=    0
 Symmetry not used in FoFCou.
 Leave Link  703 at Fri Aug 20 15:42:17 2021, MaxMem= 24159191040 cpu:        28.2
 (Enter /public/home/users/caep010/software/Gaussian09/g09/l716.exe)
 Dipole        = 2.34715013D+00-1.85983961D+00 1.75456333D-01
 ***** Axes restored to original set *****
 -------------------------------------------------------------------
 Center     Atomic                   Forces (Hartrees/Bohr)
 Number     Number              X              Y              Z
 -------------------------------------------------------------------
      1        8           0.009144020   -0.006940292   -0.006287862
      2        7          -0.001362949   -0.000528349    0.003439669
      3        6          -0.000315829   -0.000860190   -0.000218377
      4        8          -0.009644774    0.007689084    0.007750101
      5        6          -0.085565989    0.144460687   -0.000810155
      6        6           0.002694894   -0.005338366   -0.007617938
      7        7           0.032056221    0.118009319   -0.151505020
      8        7           0.097371092   -0.051794812   -0.118364669
      9        1           0.061406193    0.081024412    0.096574245
     10        1          -0.172849019   -0.030309508    0.025573820
     11        6           0.001616069   -0.003102489   -0.009967633
     12        7           0.001567977   -0.002224466    0.004521369
     13        8           0.003198501   -0.009456513    0.006092624
     14        8          -0.003733281    0.011238823   -0.009252472
     15        6          -0.019089058   -0.100645933    0.131004040
     16        1           0.026053914    0.116463438   -0.150613253
     17        6           0.105248439   -0.213655069    0.013951298
     18        1          -0.116542721    0.226142626   -0.001599825
     19        1          -0.024038168   -0.118207536    0.160064624
     20        1           0.092784470   -0.161964867    0.007265412
 -------------------------------------------------------------------
 Cartesian Forces:  Max     0.226142626 RMS     0.082226630
 Leave Link  716 at Fri Aug 20 15:42:17 2021, MaxMem= 24159191040 cpu:         0.7
 (Enter /public/home/users/caep010/software/Gaussian09/g09/l103.exe)

 GradGradGradGradGradGradGradGradGradGradGradGradGradGradGradGradGradGrad
 Berny optimization.
 FormGI is forming the generalized inverse of G from B-inverse, IUseBI=4.
 Internal  Forces:  Max     0.254318344 RMS     0.050609675
 Search for a local minimum.
 Step number   1 out of a maximum of  100
 All quantities printed in internal units (Hartrees-Bohrs-Radians)
 RMS Force = .50610D-01 SwitMx=.10000D-02 MixMth= 1
 Mixed Optimization -- RFO/linear search
 Second derivative matrix not updated -- first step.
 ITU=  0
     Eigenvalues ---    0.00918   0.00918   0.01129   0.01129   0.01243
     Eigenvalues ---    0.01744   0.01765   0.01872   0.01966   0.02077
     Eigenvalues ---    0.02276   0.02331   0.02372   0.02397   0.02440
     Eigenvalues ---    0.02522   0.06639   0.15876   0.15962   0.15996
     Eigenvalues ---    0.15997   0.16000   0.16000   0.22001   0.22361
     Eigenvalues ---    0.23491   0.24602   0.24985   0.24998   0.25000
     Eigenvalues ---    0.25000   0.25000   0.25000   0.25000   0.37155
     Eigenvalues ---    0.39235   0.40282   0.41609   0.44978   0.45528
     Eigenvalues ---    0.47252   0.50511   0.52434   0.55735   0.65139
     Eigenvalues ---    0.65879   0.68236   0.74709   0.75704   0.79863
     Eigenvalues ---    0.88145   0.92808   0.93778   0.94687
 RFO step:  Lambda=-2.42553774D-01 EMin= 9.18182155D-03
 Linear search not attempted -- first point.
 Maximum step size (   0.300) exceeded in Quadratic search.
    -- Step size scaled by   0.592
 Iteration  1 RMS(Cart)=  0.03633428 RMS(Int)=  0.00036033
 Iteration  2 RMS(Cart)=  0.00043118 RMS(Int)=  0.00002519
 Iteration  3 RMS(Cart)=  0.00000035 RMS(Int)=  0.00002518
 ITry= 1 IFail=0 DXMaxC= 1.45D-01 DCOld= 1.00D+10 DXMaxT= 3.00D-01 DXLimC= 3.00D+00 Rises=F
 Variable       Old X    -DE/DX   Delta X   Delta X   Delta X     New X
                                 (Linear)    (Quad)   (Total)
    R1        2.30845   0.01086   0.00000   0.00540   0.00540   2.31385
    R2        2.72606   0.00371   0.00000   0.00346   0.00346   2.72951
    R3        2.33800   0.01344   0.00000   0.00708   0.00708   2.34507
    R4        2.62523   0.00674   0.00000   0.00522   0.00522   2.63045
    R5        2.68914   0.00429   0.00000   0.00327   0.00327   2.69241
    R6        2.58003   0.01705   0.00000   0.01341   0.01341   2.59345
    R7        1.73791   0.18670   0.00000   0.12359   0.12359   1.86151
    R8        2.54485   0.01239   0.00000   0.00917   0.00917   2.55402
    R9        2.67362   0.01005   0.00000   0.00865   0.00865   2.68227
   R10        2.65302   0.00502   0.00000   0.00429   0.00429   2.65731
   R11        1.64690   0.19999   0.00000   0.11367   0.11367   1.76057
   R12        1.71662   0.13830   0.00000   0.08849   0.08849   1.80511
   R13        1.67601   0.17614   0.00000   0.10533   0.10533   1.78134
   R14        2.75613  -0.00033   0.00000  -0.00032  -0.00032   2.75581
   R15        2.61712   0.01836   0.00000   0.01550   0.01551   2.63263
   R16        2.31665   0.01011   0.00000   0.00511   0.00511   2.32177
   R17        2.31239   0.01407   0.00000   0.00705   0.00705   2.31945
   R18        1.73270   0.19205   0.00000   0.12609   0.12609   1.85880
   R19        2.56553   0.02109   0.00000   0.01639   0.01640   2.58192
   R20        1.67018   0.25432   0.00000   0.15056   0.15056   1.82075
    A1        2.09122  -0.00699   0.00000  -0.00840  -0.00840   2.08282
    A2        2.13076   0.00980   0.00000   0.01178   0.01178   2.14254
    A3        2.06117  -0.00280   0.00000  -0.00336  -0.00336   2.05781
    A4        2.03038   0.00077   0.00000   0.00150   0.00151   2.03189
    A5        2.13843  -0.00502   0.00000  -0.00545  -0.00545   2.13298
    A6        2.11432   0.00425   0.00000   0.00396   0.00395   2.11827
    A7        2.08807  -0.00370   0.00000  -0.00487  -0.00487   2.08320
    A8        2.12378  -0.00333   0.00000  -0.00518  -0.00518   2.11860
    A9        2.07113   0.00704   0.00000   0.01007   0.01008   2.08120
   A10        2.15298  -0.00532   0.00000  -0.00594  -0.00594   2.14705
   A11        2.03060   0.00436   0.00000   0.00432   0.00431   2.03492
   A12        2.09960   0.00097   0.00000   0.00162   0.00162   2.10122
   A13        2.09099   0.00116   0.00000   0.00148   0.00148   2.09247
   A14        2.01135   0.01033   0.00000   0.01529   0.01529   2.02665
   A15        2.18059  -0.01148   0.00000  -0.01677  -0.01677   2.16382
   A16        1.95766  -0.01614   0.00000  -0.02184  -0.02178   1.93588
   A17        1.81363   0.01546   0.00000   0.02517   0.02524   1.83888
   A18        1.75988   0.01497   0.00000   0.02752   0.02769   1.78757
   A19        2.09358  -0.00371   0.00000  -0.00501  -0.00501   2.08856
   A20        2.10867   0.00263   0.00000   0.00428   0.00429   2.11295
   A21        2.08040   0.00109   0.00000   0.00077   0.00076   2.08116
   A22        2.06696  -0.00486   0.00000  -0.00583  -0.00583   2.06112
   A23        2.05630  -0.00367   0.00000  -0.00440  -0.00440   2.05190
   A24        2.15991   0.00852   0.00000   0.01024   0.01024   2.17015
   A25        2.09090   0.00164   0.00000   0.00131   0.00129   2.09219
   A26        2.10049  -0.00509   0.00000  -0.00496  -0.00496   2.09553
   A27        2.08486   0.00383   0.00000   0.00454   0.00452   2.08938
   A28        2.12368  -0.00241   0.00000  -0.00264  -0.00264   2.12104
   A29        2.01846   0.00610   0.00000   0.00858   0.00857   2.02703
   A30        2.13845  -0.00354   0.00000  -0.00561  -0.00562   2.13284
    D1        0.13670  -0.00086   0.00000  -0.00193  -0.00193   0.13477
    D2       -3.01584  -0.00055   0.00000  -0.00134  -0.00134  -3.01718
    D3       -2.99656  -0.00175   0.00000  -0.00401  -0.00401  -3.00056
    D4        0.13409  -0.00144   0.00000  -0.00342  -0.00342   0.13067
    D5        3.11392   0.00073   0.00000   0.00165   0.00165   3.11557
    D6       -0.00577   0.00008   0.00000   0.00026   0.00027  -0.00551
    D7       -0.01690   0.00049   0.00000   0.00114   0.00114  -0.01576
    D8       -3.13658  -0.00016   0.00000  -0.00026  -0.00025  -3.13683
    D9        0.03384  -0.00116   0.00000  -0.00266  -0.00267   0.03117
   D10       -3.10809  -0.00129   0.00000  -0.00290  -0.00290  -3.11099
   D11       -3.11921  -0.00086   0.00000  -0.00206  -0.00208  -3.12128
   D12        0.02204  -0.00099   0.00000  -0.00230  -0.00231   0.01974
   D13       -3.11613  -0.00002   0.00000   0.00000   0.00000  -3.11613
   D14       -0.01031   0.00055   0.00000   0.00131   0.00131  -0.00900
   D15        0.00422   0.00049   0.00000   0.00117   0.00117   0.00539
   D16        3.11004   0.00106   0.00000   0.00247   0.00248   3.11252
   D17        3.08207   0.00011   0.00000   0.00034   0.00034   3.08241
   D18       -0.03643   0.00012   0.00000   0.00022   0.00022  -0.03622
   D19       -0.05917   0.00024   0.00000   0.00058   0.00058  -0.05859
   D20        3.10551   0.00025   0.00000   0.00046   0.00046   3.10597
   D21       -0.00058   0.00057   0.00000   0.00121   0.00120   0.00062
   D22       -3.06675  -0.00138   0.00000  -0.00331  -0.00333  -3.07008
   D23        3.14069   0.00045   0.00000   0.00098   0.00097  -3.14153
   D24        0.07452  -0.00151   0.00000  -0.00354  -0.00356   0.07096
   D25       -2.07359   0.00887   0.00000   0.01685   0.01678  -2.05681
   D26        2.32359  -0.00985   0.00000  -0.01901  -0.01894   2.30465
   D27        1.04253   0.00919   0.00000   0.01746   0.01739   1.05992
   D28       -0.84348  -0.00953   0.00000  -0.01840  -0.01833  -0.86181
   D29       -0.15615   0.00134   0.00000   0.00314   0.00314  -0.15301
   D30        2.99114   0.00085   0.00000   0.00199   0.00199   2.99313
   D31        3.02063   0.00075   0.00000   0.00178   0.00178   3.02241
   D32       -0.11526   0.00026   0.00000   0.00063   0.00063  -0.11463
   D33        3.04652   0.00265   0.00000   0.00579   0.00578   3.05230
   D34        0.03185  -0.00118   0.00000  -0.00261  -0.00261   0.02925
   D35       -0.13058   0.00311   0.00000   0.00697   0.00697  -0.12361
   D36        3.13794  -0.00071   0.00000  -0.00143  -0.00142   3.13652
   D37       -0.02599   0.00061   0.00000   0.00133   0.00133  -0.02466
   D38        3.03496   0.00312   0.00000   0.00678   0.00676   3.04172
   D39       -3.04109  -0.00305   0.00000  -0.00681  -0.00681  -3.04790
   D40        0.01986  -0.00054   0.00000  -0.00136  -0.00138   0.01848
         Item               Value     Threshold  Converged?
 Maximum Force            0.254318     0.000450     NO 
 RMS     Force            0.050610     0.000300     NO 
 Maximum Displacement     0.144609     0.001800     NO 
 RMS     Displacement     0.036354     0.001200     NO 
 Predicted change in Energy=-1.121724D-01
 Lowest energy point so far.  Saving SCF results.
 GradGradGradGradGradGradGradGradGradGradGradGradGradGradGradGradGradGrad

 Leave Link  103 at Fri Aug 20 15:42:17 2021, MaxMem= 24159191040 cpu:         4.4
 (Enter /public/home/users/caep010/software/Gaussian09/g09/l202.exe)
                          Input orientation:                          
 ---------------------------------------------------------------------
 Center     Atomic      Atomic             Coordinates (Angstroms)
 Number     Number       Type             X           Y           Z
 ---------------------------------------------------------------------
      1          8           0        2.701838    0.202641    9.527240
      2          7           0        1.964541    1.179664    9.494543
      3          6           0        2.064536    2.105042    8.390026
      4          8           0        1.119496    1.412876   10.372888
      5          6           0        2.894793    1.727091    7.338639
      6          6           0        1.346106    3.335100    8.362393
      7          7           0        0.549291    3.745429    9.373996
      8          7           0       -0.073375    5.004565    9.309020
      9          1           0        0.220925    5.567776   10.022203
     10          1           0       -0.975700    4.848751    9.532870
     11          6           0        3.010194    2.547058    6.244198
     12          7           0        3.853156    2.142667    5.125021
     13          8           0        4.565845    1.151840    5.265932
     14          8           0        3.805418    2.821631    4.103633
     15          6           0        2.302217    3.744272    6.165121
     16          1           0        2.454525    4.354502    5.408845
     17          6           0        1.502812    4.136491    7.201402
     18          1           0        1.063550    4.993924    7.214996
     19          1           0        0.466378    3.160104   10.094063
     20          1           0        3.388554    0.874878    7.355670
 ---------------------------------------------------------------------
                    Distance matrix (angstroms):
                    1          2          3          4          5
     1  O    0.000000
     2  N    1.224438   0.000000
     3  C    2.306196   1.444397   0.000000
     4  O    2.164161   1.240959   2.303027   0.000000
     5  C    2.674165   2.411010   1.391973   3.529459   0.000000
     6  C    3.606547   2.511998   1.424763   2.790769   2.456053
     7  N    4.148287   2.932681   2.440293   2.600715   3.703748
     8  N    5.550486   4.337902   3.717855   3.931283   4.840894
     9  H    5.931660   4.751227   4.248933   4.265396   5.394622
    10  H    5.925424   4.701987   4.251713   4.111047   5.435083
    11  C    4.045953   3.678029   2.386257   4.680511   1.372393
    12  N    4.946592   4.856641   3.723015   5.962013   2.447706
    13  O    4.747025   4.964746   4.114013   6.166560   2.723865
    14  O    6.123113   5.928473   4.681596   6.964361   3.534476
    15  C    4.899662   4.216194   2.773764   4.953740   2.407760
    16  H    5.853229   5.197366   3.754944   5.922600   3.289563
    17  C    4.724655   3.770215   2.419741   4.198015   2.785975
    18  H    5.566584   4.533950   3.275409   4.774863   3.747124
    19  H    3.750354   2.554616   2.563397   1.886031   3.942472
    20  H    2.374700   2.587563   2.082359   3.813354   0.985067
                    6          7          8          9         10
     6  C    0.000000
     7  N    1.351527   0.000000
     8  N    2.387078   1.406186   0.000000
     9  H    3.000974   1.961873   0.955222   0.000000
    10  H    3.008644   1.888957   0.942643   1.479308   0.000000
    11  C    2.806590   4.157856   4.994084   5.583734   5.656899
    12  N    4.264713   5.615884   6.412016   6.993345   7.076007
    13  O    4.972063   6.303618   7.260331   7.810310   7.910919
    14  O    4.944583   6.263584   6.848817   7.444419   7.512983
    15  C    2.430961   3.656450   4.137134   4.747002   4.827665
    16  H    3.315300   4.441093   4.692997   5.267264   5.386864
    17  C    1.419396   2.404641   2.771276   3.413023   3.476504
    18  H    2.036677   2.546465   2.382781   2.986592   3.090656
    19  H    1.950186   0.931652   2.075972   2.421217   2.290426
    20  H    3.352280   4.513880   5.731914   6.258400   6.291151
                   11         12         13         14         15
    11  C    0.000000
    12  N    1.458312   0.000000
    13  O    2.307312   1.228625   0.000000
    14  O    2.299955   1.227397   2.171956   0.000000
    15  C    1.393128   2.460154   3.557142   2.713045   0.000000
    16  H    2.067229   2.632288   3.838638   2.424497   0.983632
    17  C    2.390552   3.716290   4.694290   4.077625   1.366295
    18  H    3.273992   4.503284   5.552165   4.681589   2.048942
    19  H    4.654920   6.098920   6.644517   6.866513   4.375858
    20  H    2.043211   2.607478   2.414483   3.813053   3.291042
                   16         17         18         19         20
    16  H    0.000000
    17  C    2.041212   0.000000
    18  H    2.367669   0.963497   0.000000
    19  H    5.227865   3.224130   3.465333   0.000000
    20  H    4.095158   3.770669   4.732016   4.610875   0.000000
 Stoichiometry    C6H6N4O4
 Framework group  C1[X(C6H6N4O4)]
 Deg. of freedom    54
 Full point group                 C1      NOp   1
 RotChk:  IX=0 Diff= 4.80D-03
 Largest Abelian subgroup         C1      NOp   1
 Largest concise Abelian subgroup C1      NOp   1
                         Standard orientation:                         
 ---------------------------------------------------------------------
 Center     Atomic      Atomic             Coordinates (Angstroms)
 Number     Number       Type             X           Y           Z
 ---------------------------------------------------------------------
      1          8           0        0.951359    2.884467    0.103841
      2          7           0        1.471908    1.784152   -0.028769
      3          6           0        0.643611    0.601219    0.000818
      4          8           0        2.692362    1.634508   -0.196332
      5          6           0       -0.732682    0.809058    0.015283
      6          6           0        1.195334   -0.712382    0.002168
      7          7           0        2.525325   -0.952508    0.011434
      8          7           0        2.998175   -2.274803    0.084298
      9          1           0        3.507873   -2.411339    0.880549
     10          1           0        3.653305   -2.343219   -0.590017
     11          6           0       -1.576654   -0.273146    0.012334
     12          7           0       -3.019655   -0.063077   -0.004841
     13          8           0       -3.439613    1.081253    0.148991
     14          8           0       -3.734977   -1.047064   -0.167901
     15          6           0       -1.077882   -1.573628   -0.015615
     16          1           0       -1.694347   -2.336501    0.058735
     17          6           0        0.271189   -1.789680   -0.006098
     18          1           0        0.649185   -2.673709    0.056659
     19          1           0        3.077662   -0.202649   -0.013264
     20          1           0       -1.114491    1.717108    0.010351
 ---------------------------------------------------------------------
 Rotational constants (GHZ):      1.1027907      0.4896002      0.3403691
 Leave Link  202 at Fri Aug 20 15:42:17 2021, MaxMem= 24159191040 cpu:         0.6
 (Enter /public/home/users/caep010/software/Gaussian09/g09/l301.exe)
 Standard basis: 6-31G(d,p) (6D, 7F)
 Ernie: Thresh=  0.10000D-02 Tol=  0.10000D-05 Strict=F.
 There are   240 symmetry adapted cartesian basis functions of A   symmetry.
 There are   240 symmetry adapted basis functions of A   symmetry.
   240 basis functions,   434 primitive gaussians,   240 cartesian basis functions
    51 alpha electrons       51 beta electrons
       nuclear repulsion energy       890.1383819931 Hartrees.
 IExCor=  402 DFT=T Ex+Corr=B3LYP ExCW=0 ScaHFX=  0.200000
 ScaDFX=  0.800000  0.720000  1.000000  0.810000 ScalE2=  1.000000  1.000000
 IRadAn=      0 IRanWt=     -1 IRanGd=            0 ICorTp=0 IEmpDi=  4
 NAtoms=   20 NActive=   20 NUniq=   20 SFac= 1.00D+00 NAtFMM=   60 NAOKFM=F Big=F
 Integral buffers will be    131072 words long.
 Raffenetti 2 integral format.
 Two-electron integral symmetry is turned on.
 Leave Link  301 at Fri Aug 20 15:42:17 2021, MaxMem= 24159191040 cpu:         1.7
 (Enter /public/home/users/caep010/software/Gaussian09/g09/l302.exe)
 NPDir=0 NMtPBC=     1 NCelOv=     1 NCel=       1 NClECP=     1 NCelD=      1
         NCelK=      1 NCelE2=     1 NClLst=     1 CellRange=     0.0.
 One-electron integrals computed using PRISM.
 NBasis=   240 RedAO= T EigKep=  3.23D-04  NBF=   240
 NBsUse=   240 1.00D-06 EigRej= -1.00D+00 NBFU=   240
 Precomputing XC quadrature grid using
 IXCGrd= 4 IRadAn=           0 IRanWt=          -1 IRanGd=           0 AccXCQ= 0.00D+00.
 Generated NRdTot=       0 NPtTot=           0 NUsed=           0 NTot=          32
 NSgBfM=   238   238   238   238   238 MxSgAt=    20 MxSgA2=    20.
 Leave Link  302 at Fri Aug 20 15:42:18 2021, MaxMem= 24159191040 cpu:        12.0
 (Enter /public/home/users/caep010/software/Gaussian09/g09/l303.exe)
 DipDrv:  MaxL=1.
 Leave Link  303 at Fri Aug 20 15:42:18 2021, MaxMem= 24159191040 cpu:         0.9
 (Enter /public/home/users/caep010/software/Gaussian09/g09/l401.exe)
 Initial guess from the checkpoint file:  "/public/home/users/caep010/.cache/gau_scr/Gau-70700.chk"
 B after Tr=    -0.000000   -0.000000   -0.000000
         Rot=    1.000000    0.000251   -0.000015   -0.000719 Ang=   0.09 deg.
 Guess basis will be translated and rotated to current coordinates.
 JPrj=2 DoOrth=T DoCkMO=T.
 Generating alternative initial guess.
 ExpMin= 1.61D-01 ExpMax= 5.48D+03 ExpMxC= 8.25D+02 IAcc=1 IRadAn=         1 AccDes= 0.00D+00
 Harris functional with IExCor=  402 and IRadAn=       1 diagonalized for initial guess.
 HarFok:  IExCor=  402 AccDes= 0.00D+00 IRadAn=         1 IDoV= 1 UseB2=F ITyADJ=14
 ICtDFT=  3500011 ScaDFX=  1.000000  1.000000  1.000000  1.000000
 FoFCou: FMM=F IPFlag=           0 FMFlag=      100000 FMFlg1=           0
         NFxFlg=           0 DoJE=T BraDBF=F KetDBF=T FulRan=T
         wScrn=  0.000000 ICntrl=     500 IOpCl=  0 I1Cent=   200000004 NGrid=           0
         NMat0=    1 NMatS0=      1 NMatT0=    0 NMatD0=    1 NMtDS0=    0 NMtDT0=    0
 Petite list used in FoFCou.
 Harris En= -751.944211692757    
 Leave Link  401 at Fri Aug 20 15:42:18 2021, MaxMem= 24159191040 cpu:        18.0
 (Enter /public/home/users/caep010/software/Gaussian09/g09/l502.exe)
 Closed shell SCF:
 Using DIIS extrapolation, IDIIS=  1040.
 Integral symmetry usage will be decided dynamically.
 Keep R1 ints in memory in canonical form, NReq=425397124.
 IVT=      200824 IEndB=      200824 NGot= 24159191040 MDV= 23740792557
 LenX= 23740792557 LenY= 23740734516
 Requested convergence on RMS density matrix=1.00D-08 within 128 cycles.
 Requested convergence on MAX density matrix=1.00D-06.
 Requested convergence on             energy=1.00D-06.
 No special actions if energy rises.
 FoFCou: FMM=F IPFlag=           0 FMFlag=           0 FMFlg1=           0
         NFxFlg=           0 DoJE=F BraDBF=F KetDBF=F FulRan=T
         wScrn=  0.000000 ICntrl=     600 IOpCl=  0 I1Cent=           0 NGrid=           0
         NMat0=    1 NMatS0=  28920 NMatT0=    0 NMatD0=    1 NMtDS0=    0 NMtDT0=    0
 Symmetry not used in FoFCou.
 Integral accuracy reduced to 1.0D-05 until final iterations.

 Cycle   1  Pass 0  IDiag  1:
 E= -751.886637283101    
 DIIS: error= 3.10D-03 at cycle   1 NSaved=   1.
 NSaved= 1 IEnMin= 1 EnMin= -751.886637283101     IErMin= 1 ErrMin= 3.10D-03
 ErrMax= 3.10D-03  0.00D+00 EMaxC= 1.00D-01 BMatC= 4.95D-03 BMatP= 4.95D-03
 IDIUse=3 WtCom= 9.69D-01 WtEn= 3.10D-02
 Coeff-Com:  0.100D+01
 Coeff-En:   0.100D+01
 Coeff:      0.100D+01
 Gap=     1.863 Goal=   None    Shift=    0.000
 GapD=    1.863 DampG=2.000 DampE=1.000 DampFc=2.0000 IDamp=-1.
 RMSDP=6.99D-04 MaxDP=1.47D-02              OVMax= 2.11D-02

 Cycle   2  Pass 0  IDiag  1:
 E= -751.891025321425     Delta-E=       -0.004388038324 Rises=F Damp=F
 DIIS: error= 2.33D-03 at cycle   2 NSaved=   2.
 NSaved= 2 IEnMin= 2 EnMin= -751.891025321425     IErMin= 2 ErrMin= 2.33D-03
 ErrMax= 2.33D-03  0.00D+00 EMaxC= 1.00D-01 BMatC= 1.26D-03 BMatP= 4.95D-03
 IDIUse=3 WtCom= 9.77D-01 WtEn= 2.33D-02
 Coeff-Com:  0.279D+00 0.721D+00
 Coeff-En:   0.000D+00 0.100D+01
 Coeff:      0.273D+00 0.727D+00
 Gap=     0.152 Goal=   None    Shift=    0.000
 RMSDP=2.75D-04 MaxDP=1.29D-02 DE=-4.39D-03 OVMax= 2.56D-02

 Cycle   3  Pass 0  IDiag  1:
 E= -751.891469592906     Delta-E=       -0.000444271481 Rises=F Damp=F
 DIIS: error= 1.64D-03 at cycle   3 NSaved=   3.
 NSaved= 3 IEnMin= 3 EnMin= -751.891469592906     IErMin= 3 ErrMin= 1.64D-03
 ErrMax= 1.64D-03  0.00D+00 EMaxC= 1.00D-01 BMatC= 8.33D-04 BMatP= 1.26D-03
 IDIUse=3 WtCom= 9.84D-01 WtEn= 1.64D-02
 Coeff-Com:  0.495D-01 0.444D+00 0.507D+00
 Coeff-En:   0.000D+00 0.398D+00 0.602D+00
 Coeff:      0.487D-01 0.443D+00 0.508D+00
 Gap=     0.148 Goal=   None    Shift=    0.000
 RMSDP=1.36D-04 MaxDP=6.66D-03 DE=-4.44D-04 OVMax= 1.38D-02

 Cycle   4  Pass 0  IDiag  1:
 E= -751.892182693522     Delta-E=       -0.000713100616 Rises=F Damp=F
 DIIS: error= 5.42D-04 at cycle   4 NSaved=   4.
 NSaved= 4 IEnMin= 4 EnMin= -751.892182693522     IErMin= 4 ErrMin= 5.42D-04
 ErrMax= 5.42D-04  0.00D+00 EMaxC= 1.00D-01 BMatC= 5.44D-05 BMatP= 8.33D-04
 IDIUse=3 WtCom= 9.95D-01 WtEn= 5.42D-03
 Coeff-Com:  0.116D-01 0.209D+00 0.286D+00 0.493D+00
 Coeff-En:   0.000D+00 0.000D+00 0.000D+00 0.100D+01
 Coeff:      0.115D-01 0.208D+00 0.284D+00 0.496D+00
 Gap=     0.148 Goal=   None    Shift=    0.000
 RMSDP=4.17D-05 MaxDP=2.00D-03 DE=-7.13D-04 OVMax= 3.67D-03

 Cycle   5  Pass 0  IDiag  1:
 E= -751.892208835922     Delta-E=       -0.000026142400 Rises=F Damp=F
 DIIS: error= 4.17D-04 at cycle   5 NSaved=   5.
 NSaved= 5 IEnMin= 5 EnMin= -751.892208835922     IErMin= 5 ErrMin= 4.17D-04
 ErrMax= 4.17D-04  0.00D+00 EMaxC= 1.00D-01 BMatC= 2.45D-05 BMatP= 5.44D-05
 IDIUse=3 WtCom= 9.96D-01 WtEn= 4.17D-03
 Coeff-Com: -0.837D-03 0.733D-01 0.118D+00 0.390D+00 0.420D+00
 Coeff-En:   0.000D+00 0.000D+00 0.000D+00 0.336D+00 0.664D+00
 Coeff:     -0.834D-03 0.730D-01 0.118D+00 0.389D+00 0.421D+00
 Gap=     0.148 Goal=   None    Shift=    0.000
 RMSDP=2.06D-05 MaxDP=1.10D-03 DE=-2.61D-05 OVMax= 1.98D-03

 Cycle   6  Pass 0  IDiag  1:
 E= -751.892226266711     Delta-E=       -0.000017430789 Rises=F Damp=F
 DIIS: error= 9.89D-05 at cycle   6 NSaved=   6.
 NSaved= 6 IEnMin= 6 EnMin= -751.892226266711     IErMin= 6 ErrMin= 9.89D-05
 ErrMax= 9.89D-05  0.00D+00 EMaxC= 1.00D-01 BMatC= 2.44D-06 BMatP= 2.45D-05
 IDIUse=1 WtCom= 1.00D+00 WtEn= 0.00D+00
 Coeff-Com: -0.190D-02 0.279D-01 0.505D-01 0.218D+00 0.295D+00 0.411D+00
 Coeff:     -0.190D-02 0.279D-01 0.505D-01 0.218D+00 0.295D+00 0.411D+00
 Gap=     0.148 Goal=   None    Shift=    0.000
 RMSDP=6.81D-06 MaxDP=2.69D-04 DE=-1.74D-05 OVMax= 6.22D-04

 Initial convergence to 1.0D-05 achieved.  Increase integral accuracy.
 Cycle   7  Pass 1  IDiag  1:
 E= -751.892198836227     Delta-E=        0.000027430485 Rises=F Damp=F
 DIIS: error= 2.05D-05 at cycle   1 NSaved=   1.
 NSaved= 1 IEnMin= 1 EnMin= -751.892198836227     IErMin= 1 ErrMin= 2.05D-05
 ErrMax= 2.05D-05  0.00D+00 EMaxC= 1.00D-01 BMatC= 1.58D-07 BMatP= 1.58D-07
 IDIUse=1 WtCom= 1.00D+00 WtEn= 0.00D+00
 Coeff-Com:  0.100D+01
 Coeff:      0.100D+01
 Gap=     0.148 Goal=   None    Shift=    0.000
 RMSDP=6.81D-06 MaxDP=2.69D-04 DE= 2.74D-05 OVMax= 3.89D-04

 Cycle   8  Pass 1  IDiag  1:
[...]
 .11315738,0.09651507,-0.01013514,0.63379276,0.00040791,-0.00066129,-0.
 00113919,-0.00166935,-0.00099765,0.00415953,0.00111965,0.00453707,-0.0
 0054811,0.00375187,-0.00428921,-0.00088577,0.00038851,-0.00058183,0.00
 179455,0.01402543,-0.01891660,-0.01472533,0.07071603,-0.22100194,0.037
 70847,0.02117352,0.46019675,-0.00132831,0.00013377,0.00124267,0.003000
 16,0.00039889,-0.00581653,0.00377458,0.00019673,-0.00110169,-0.0036172
 5,0.00537030,0.00225739,0.00122384,-0.00084580,0.00046034,0.00751949,-
 0.02779053,0.00686607,0.01721549,-0.00959624,-0.08421271,0.06364152,0.
 19342956,0.36137846,-0.00016284,0.00032668,-0.00006411,0.00023501,-0.0
 0034889,0.00046690,-0.00145688,0.00021874,0.00046566,-0.00013399,0.000
 06671,-0.00020808,-0.00016329,0.00017455,-0.00048669,0.00171624,0.0043
 4646,-0.00083270,0.00318165,0.01906958,0.02235432,-0.09196086,-0.05316
 447,-0.08842508,0.09927843,-0.00028986,-0.00017415,0.00016784,0.000561
 80,0.00043491,-0.00127714,0.00102215,-0.00060092,-0.00011110,-0.000420
 57,0.00067452,0.00076784,0.00023427,0.00006862,0.00027400,-0.00322562,
 -0.00320056,0.00308702,0.00733324,-0.03266696,-0.02779061,-0.05140859,
 -0.13887217,-0.14922052,0.05248328,0.17812402,0.00018047,0.00008382,-0
 .00005380,-0.00045039,-0.00016673,0.00064072,-0.00009932,0.00040046,-0
 .00066618,0.00017324,-0.00026459,-0.00055376,0.00007981,-0.00008925,0.
 00015891,-0.00045940,-0.00181920,-0.00114914,0.00404984,0.01296702,0.0
 0401792,-0.11094271,-0.20097831,-0.26319784,0.09973488,0.18173672,0.26
 136822,0.00002377,-0.00006357,-0.00012073,-0.00012974,-0.00010547,0.00
 037163,-0.00028406,0.00012584,0.00045069,0.00025731,-0.00028355,-0.000
 09628,0.00018733,0.00018941,0.00001134,-0.00144946,0.00041809,-0.00322
 076,-0.01324787,0.00742068,0.00940281,-0.40522385,-0.06497122,0.007326
 75,-0.01071874,-0.00447733,0.00678996,0.43073629,0.00017587,-0.0001899
 8,0.00033061,0.00041483,0.00061123,-0.00128363,0.00019267,-0.00151335,
 -0.00095673,-0.00081629,0.00010264,0.00048499,-0.00031244,-0.00036139,
 0.00014911,0.00175522,-0.00157875,0.00541766,0.04931720,-0.00964031,-0
 .00699325,-0.09213014,-0.06466294,-0.01689998,-0.02276305,-0.00280951,
 0.00710587,0.06208720,0.07862588,0.00003292,-0.00027448,-0.00022164,-0
 .00021909,0.00021569,0.00082607,0.00010992,0.00010486,-0.00091545,0.00
 059409,-0.00033625,-0.00037894,-0.00008770,-0.00029235,0.00023271,0.00
 295826,-0.00101305,0.00035841,-0.00400306,0.00713263,-0.00256158,0.056
 53209,-0.01135399,-0.02421205,-0.03361519,-0.00619263,-0.00201611,-0.0
 2040640,0.01248579,0.02950807,0.00119015,-0.00145451,-0.00198579,0.000
 39682,0.00628745,0.00650647,0.00164265,-0.00988448,0.01407974,0.000412
 83,-0.00197826,-0.00015614,-0.07966904,0.00154891,0.03821790,0.0011498
 5,0.00488974,-0.01342556,-0.00544889,0.00051991,0.00814792,0.00002351,
 -0.00089112,0.00013079,-0.00022712,0.00016553,-0.00005809,-0.00006309,
 0.00032257,-0.00001533,0.30072559,0.00068307,-0.00343580,0.00158974,0.
 00690683,0.00983632,-0.01489060,-0.02946731,0.02440034,0.03172513,-0.0
 0460529,0.00293748,0.00441703,0.02384197,-0.20484969,0.11148562,0.0028
 9326,-0.03691123,0.02997179,0.00525297,0.00191293,-0.01216345,-0.00086
 296,0.00136320,-0.00032632,0.00006912,-0.00024364,0.00017176,0.0000166
 5,-0.00023249,0.00011688,-0.18463208,0.60597448,-0.00423418,0.00547409
 ,0.00118781,0.00585368,-0.01375286,0.01145827,0.03468698,-0.00386702,-
 0.05530431,0.00260673,-0.00035762,-0.00517760,0.01475509,0.15199013,-0
 .24447939,-0.01133978,0.02636128,-0.01056119,0.00322120,-0.00362693,-0
 .00263957,0.00008589,-0.00026485,-0.00032113,0.00030610,-0.00016211,-0
 .00002515,0.00004018,-0.00027648,-0.00019477,-0.13141210,-0.17430746,0
 .54362315,-0.00178928,0.00322207,-0.00066377,0.00330544,-0.00474494,0.
 00507067,0.01067275,0.00051849,-0.00543055,-0.00002178,0.00035753,-0.0
 0237393,-0.01041517,-0.01023086,0.02129276,-0.00560582,0.00266363,0.00
 450382,0.00306840,-0.00097201,-0.00514736,-0.00014769,0.00026425,-0.00
 025970,0.00023839,-0.00020203,0.00013621,0.00006249,-0.00023362,-0.000
 18231,-0.09513614,0.02043800,0.02125105,0.41136891,0.00174839,-0.00314
 756,-0.00016845,-0.00122537,0.00700405,-0.00162084,-0.00051368,-0.0016
 6478,0.01109306,-0.00084322,-0.00110947,0.00151860,-0.01145401,0.01631
 495,-0.00122197,0.00185807,-0.00408158,-0.00073655,-0.00131890,0.00017
 701,0.00182937,0.00002058,-0.00014062,-0.00002294,-0.00009990,0.000063
 71,0.00001149,0.00000868,0.00016428,-0.00005808,0.01834150,-0.10645095
 ,0.00334463,-0.21521692,0.79867496,0.00088609,-0.00284528,0.00109535,0
 .00136487,0.00477480,-0.00415765,-0.00434037,0.00921563,0.00617901,-0.
 00111075,-0.00066398,0.00159448,0.02258313,-0.00344205,-0.04202943,0.0
 0536368,-0.00220821,-0.00898387,-0.00482053,0.00121340,0.00707959,0.00
 000726,-0.00046986,0.00036432,-0.00038103,0.00016910,0.00004298,-0.000
 02422,0.00040865,0.00011542,0.02345947,-0.00046403,-0.11373260,-0.1113
 4131,-0.21173341,0.65039263,0.00077634,-0.00155909,0.00045102,-0.00065
 466,0.00244694,-0.00194947,-0.00204449,0.00058232,0.00184437,-0.000095
 60,-0.00039450,0.00080915,0.00143003,0.00345705,-0.00324993,0.00170244
 ,0.00007605,-0.00232391,-0.00117438,0.00012652,0.00196520,-0.00002020,
 -0.00011522,0.00025883,-0.00009619,0.00005894,-0.00004642,-0.00000791,
 0.00008710,0.00006833,-0.01525033,0.04092321,0.01561910,-0.19583998,0.
 19744083,0.01112098,0.18733845,-0.00127154,0.00237947,-0.00006474,0.00
 107559,-0.00407926,0.00201106,0.00240417,-0.00020249,-0.00488653,0.000
 07490,0.00064025,-0.00068090,-0.00343760,-0.00379401,0.01196795,-0.001
 84467,0.00095645,0.00283056,0.00127454,0.00006619,-0.00238197,0.000050
 74,0.00018745,-0.00023838,0.00009835,-0.00005481,0.00003838,-0.0000210
 8,-0.00013529,0.00001156,0.03653820,-0.02713765,-0.01993109,0.19220454
 ,-0.43098682,0.02469495,-0.25870571,0.52702910,0.00014861,0.00045789,-
 0.00062982,-0.00050599,-0.00048140,0.00111601,-0.00007147,-0.00157466,
 0.00109714,0.00031524,0.00017119,-0.00063251,0.00400091,-0.00056158,-0
 .00504035,-0.00030782,-0.00065404,0.00170949,0.00077138,-0.00031191,-0
 .00107690,0.00008073,0.00006786,-0.00016623,0.00008555,-0.00000861,-0.
 00004715,0.00000748,-0.00006527,-0.00005359,0.02022844,-0.02789449,0.0
 0962046,0.01662866,0.01518158,-0.12160575,-0.01659360,-0.05426279,0.11
 566249,0.00041804,-0.00085381,0.00033309,-0.00105555,0.00145203,-0.001
 56784,-0.00148319,-0.00117764,0.00189572,-0.00013348,-0.00015262,0.000
 98199,0.00045718,0.00465668,0.00104892,0.00086984,-0.00082664,-0.00040
 433,-0.00054110,0.00016955,0.00085063,-0.00005248,-0.00005168,0.000076
 98,-0.00006481,0.00000940,0.00001008,-0.00001244,0.00005289,0.00004373
 ,0.00855088,-0.01266848,0.03009455,-0.10152433,-0.00703304,0.05511247,
 0.02562171,0.02961475,-0.03092181,0.07115355,-0.00027885,0.00046733,0.
 00012763,-0.00004951,-0.00094895,-0.00004568,-0.00106833,0.00160386,-0
 .00092649,0.00006519,0.00015526,0.00005338,0.00190172,0.00120177,-0.00
 079244,0.00123183,-0.00039439,-0.00164566,-0.00079157,0.00043683,0.000
 99888,0.00000964,-0.00002590,-0.00003060,-0.00007231,0.00003694,-0.000
 00654,-0.00001318,0.00007845,0.00002837,-0.00692646,0.01272287,0.01790
 361,-0.00177094,-0.25971483,0.19716882,0.01580996,-0.07005171,0.072000
 38,-0.01376985,0.31709583,-0.00027184,0.00117164,-0.00063235,0.0000130
 0,-0.00277345,0.00181874,0.00177926,-0.00072934,-0.00359080,0.00075216
 ,0.00044912,-0.00152211,0.00394730,-0.00579538,0.00266097,-0.00257268,
 0.00209323,0.00263224,0.00186810,-0.00073741,-0.00256717,0.00001070,0.
 00007787,-0.00014863,0.00019244,-0.00007709,-0.00001943,0.00001588,-0.
 00017007,-0.00011334,0.02405489,0.02833330,-0.05570536,0.04957931,0.20
 673062,-0.38268208,-0.01640535,0.04692136,0.00620719,-0.06388057,-0.27
 894164,0.43734396,0.00051456,-0.00102156,0.00017247,-0.00005709,0.0048
 6114,-0.00671800,-0.01891993,0.01053774,0.01806010,-0.00275177,0.00174
 831,0.00371333,0.01861261,0.01341677,-0.03536776,-0.00065959,-0.032776
 53,0.03404764,0.00798458,0.00425639,-0.01064348,-0.00096149,0.00113201
 ,0.00062879,0.00007117,-0.00019935,0.00001357,-0.00008191,-0.00038728,
 0.00026660,-0.11861030,0.08441626,0.01956485,-0.02080551,0.01533040,0.
 01218099,0.00225538,0.00139958,0.00201176,-0.00114045,0.00701587,-0.00
 254803,0.36164919,-0.00128123,0.00166962,0.00058733,-0.00047328,-0.006
 71756,0.00694878,0.01993010,-0.01590739,-0.02251331,0.00359707,-0.0019
 1414,-0.00420411,-0.00309032,-0.03546640,0.05021554,-0.01784262,0.0427
 9066,-0.01354516,-0.00098604,-0.00738532,0.01431888,0.00172750,-0.0010
 3763,-0.00199171,-0.00014751,0.00030279,-0.00031074,-0.00008398,0.0002
 7779,-0.00008155,0.10734469,-0.25529358,0.01154842,0.01276545,-0.00396
 899,-0.02450377,-0.00186192,0.00366875,0.00391326,0.00186362,-0.007686
 94,0.00629603,-0.18271120,0.57510270,0.00044453,0.00011701,-0.00091556
 ,-0.00110065,-0.00274934,0.00395992,0.00817072,-0.00543604,-0.01200336
 ,0.00176675,-0.00084303,-0.00202017,-0.01799479,0.02022090,0.01833381,
 0.01834914,0.01358444,-0.04850744,-0.00518369,0.00483019,0.00883734,0.
 00001068,-0.00091534,0.00100020,-0.00003713,0.00015988,-0.00023348,-0.
 00005319,0.00009100,-0.00005777,-0.00456245,0.05320608,-0.10664074,0.0
 1488661,-0.02916809,-0.00157416,0.00544353,-0.00201365,-0.00360107,0.0
 0286843,-0.00306137,-0.00047423,-0.21310786,-0.12737064,0.65965483,0.0
 0022894,-0.00003250,-0.00007533,-0.00062226,-0.00014721,-0.00030657,-0
 .00044627,0.00035319,0.00043547,0.00000053,-0.00002166,-0.00005575,0.0
 0062936,0.00436019,0.00148363,0.00383157,0.00447159,0.00553974,-0.0001
 0186,-0.00103090,0.00027128,0.00037153,0.00021276,0.00002280,0.0000075
 7,0.00005560,-0.00004482,0.00000061,-0.00004014,0.00012780,0.00708833,
 0.00824470,-0.01196603,-0.00131828,-0.00046506,-0.00322731,0.00055482,
 -0.00085031,0.00064432,-0.00138044,-0.00023300,0.00220442,-0.05060108,
 -0.01223955,0.02992205,0.04199836,-0.00014099,0.00020465,0.00021835,-0
 .00017942,-0.00056635,-0.00000057,0.00050347,0.00004015,-0.00095907,-0
 .00005430,0.00003190,0.00002069,0.00443766,-0.00353592,-0.00016530,0.0
 0489341,0.00156767,-0.00057401,-0.00037768,0.00049628,-0.00041688,0.00
 013714,0.00007962,0.00020105,0.00003064,0.00004582,-0.00005805,0.00000
 650,-0.00002130,0.00003076,-0.00334618,-0.01028801,0.02245279,-0.00251
 350,-0.00262872,0.00379089,-0.00008632,0.00128982,-0.00076049,-0.00039
 439,0.00241383,-0.00213982,-0.01147670,-0.15522009,0.14077042,0.009499
 30,0.15678692,0.00003859,0.00002141,0.00007609,-0.00027326,-0.00005927
 ,-0.00031784,0.00027754,-0.00068506,0.00021449,-0.00002085,-0.00003936
 ,0.00003687,0.00140169,-0.00002389,0.00144965,0.00509558,0.00019380,0.
 00001348,-0.00041780,0.00077385,-0.00060878,0.00010424,0.00006145,0.00
 025367,0.00005107,0.00004354,-0.00006706,0.00000928,-0.00003119,0.0000
 0702,0.00022997,0.00139656,0.00338995,-0.00107439,0.00007083,-0.001487
 46,-0.00015811,0.00062551,0.00004681,0.00237371,-0.00243223,-0.0020550
 0,0.02911638,0.14215359,-0.24364637,-0.03637516,-0.15328273,0.25479654
 ,-0.00067465,0.00028342,-0.00167514,0.00122507,0.00462732,0.00477551,0
 .01736078,-0.00381888,-0.01922177,0.00147206,-0.00146866,-0.00185870,-
 0.00878906,-0.00513956,0.01878599,-0.08910722,0.02582080,0.01015329,-0
 .00130506,-0.01461352,0.03701798,0.00000006,-0.00251080,0.00113751,-0.
 00044118,-0.00069912,0.00071478,-0.00026503,0.00026263,-0.00018335,-0.
 01828406,0.03721065,0.00637286,0.00585673,0.00433338,-0.00438596,-0.00
 209341,0.00089587,0.00131428,-0.00002241,-0.00181341,0.00139125,-0.176
 23859,0.05970526,0.15806788,0.00277799,0.00173342,0.00181864,0.3826144
 7,-0.00084729,-0.00113718,0.00122939,0.00538812,-0.00433862,0.00164366
 ,0.00473166,-0.01964593,0.01689776,0.00051127,-0.00025112,-0.00108466,
 -0.00219992,-0.00351241,0.00619422,0.00687392,-0.17770524,0.10237851,-
 0.00536834,0.02099164,-0.00121334,-0.00102058,-0.00062427,0.00164891,-
 0.00011609,0.00002745,-0.00043271,0.00007899,0.00063699,-0.00090509,0.
 02013536,-0.00400126,-0.02524381,0.00431607,-0.00551606,0.00422317,0.0
 0086458,-0.00035364,-0.00209502,-0.00114651,0.00184884,-0.00018457,0.0
 8426101,-0.13630377,-0.06716695,-0.01028878,0.01033378,0.01285228,-0.2
 4272307,0.59639480,-0.00048452,-0.00082205,0.00031892,0.00397192,0.003
 03245,-0.00388755,-0.02821196,0.03242740,0.02172233,-0.00394361,0.0025
 1354,0.00412009,0.01569882,0.01153307,-0.04208678,0.03010006,0.0679158
 6,-0.19474417,0.02731174,0.01561069,-0.05530653,-0.00044515,0.00435814
 ,-0.00464019,0.00026994,-0.00041956,0.00027917,-0.00016739,-0.00018748
 ,-0.00050366,0.02434344,-0.05628063,0.02176612,-0.00436924,0.00419115,
 0.00947819,0.00134629,-0.00215023,-0.00103462,0.00069035,0.00102809,-0
 .00264036,0.13221569,-0.02253423,-0.27113728,0.01446545,-0.00899005,-0
 .01204196,-0.21856399,-0.05853447,0.58034748,-0.00006532,-0.00007637,0
 .00016400,0.00025580,-0.00053146,-0.00016226,0.00212890,0.00139002,0.0
 0205523,-0.00010386,0.00016730,0.00008445,-0.00025079,-0.00056715,0.00
 004575,0.00673879,-0.00355879,-0.00102898,-0.00222147,0.00023798,-0.00
 015018,-0.00218785,-0.00083703,0.00202930,0.00029276,0.00026575,-0.000
 22424,-0.00005562,0.00006437,0.00025514,0.00367845,0.00211116,0.004924
 77,0.00089393,0.00124256,-0.00004538,-0.00062803,-0.00011857,0.0000116
 3,-0.00002516,-0.00013633,0.00008457,-0.00538227,0.01449408,-0.0011994
 5,-0.00280796,-0.00223898,-0.00218577,-0.11311012,0.13332921,0.0011015
 4,0.11316010,0.00004642,-0.00031679,0.00022883,0.00034654,-0.00029440,
 -0.00046945,0.00046519,0.00039480,0.00301778,0.00000958,-0.00003659,0.
 00006294,-0.00075458,0.00017895,0.00059964,0.00861058,-0.01231754,0.00
 164138,0.00060082,-0.00195964,-0.00130519,0.00078993,0.00000230,-0.003
 07612,0.00010879,0.00028165,-0.00027524,-0.00001155,0.00021319,0.00004
 621,0.00243502,0.00310625,0.00031770,0.00041951,0.00031582,0.00057729,
 -0.00022350,-0.00014657,-0.00016618,-0.00000212,0.00002006,-0.00007783
 ,0.00217214,-0.00192504,0.00055387,-0.00212617,-0.00049958,-0.00119691
 ,0.13239676,-0.27763746,0.01451093,-0.14518965,0.29092438,0.00003494,0
 .00045175,-0.00055850,-0.00108580,0.00112574,0.00064895,0.00302791,0.0
 0133692,-0.00284479,0.00025113,-0.00022423,-0.00018130,0.00024238,0.00
 025818,-0.00126607,-0.01383568,0.02375000,0.00425418,-0.00052712,-0.00
 064404,-0.00051780,0.00031701,-0.00011947,-0.00200927,0.00009405,-0.00
 035252,0.00010545,0.00018214,-0.00030092,0.00052373,0.00458432,0.00090
 624,-0.00167025,0.00082056,-0.00091832,0.00106311,0.00012154,-0.000356
 49,-0.00053603,-0.00005688,0.00016632,-0.00012912,0.01176943,-0.021833
 06,0.00394442,-0.00230435,-0.00099082,-0.00007879,0.00207872,0.0128163
 5,-0.05253280,-0.00556071,-0.01500478,0.05189060,0.00306316,-0.0004869
 2,-0.00128689,-0.00810872,0.00130054,0.00854498,-0.00012370,0.00112005
 ,-0.00222630,0.00140836,-0.00314336,-0.00537317,-0.00100618,-0.0001231
 6,0.00099516,-0.00095043,-0.01869922,0.01307693,-0.03460127,0.00145586
 ,0.05362285,-0.00345182,0.01106481,-0.01441564,0.00041175,-0.00128926,
 0.00043194,0.00028250,0.00189284,-0.00231510,-0.00014623,0.00147191,-0
 .00049149,0.00015512,0.00001710,-0.00014978,-0.00015117,0.00010411,-0.
 00001124,-0.00000242,0.00002819,-0.00002606,0.00201135,-0.00165738,0.0
 0040015,-0.00063355,-0.00013638,-0.00007384,-0.00052695,0.00370457,0.0
 0472602,-0.00014361,-0.00002590,-0.00005551,0.04254194,-0.00359445,0.0
 0285195,0.00573783,0.01169266,0.00030384,-0.02440756,-0.00002593,-0.00
 555470,0.00514192,-0.00863713,-0.00379269,0.01616536,0.00117533,-0.000
 32828,-0.00234799,-0.01128394,0.01752719,-0.00284677,0.00204635,-0.176
 48114,0.17811220,0.00083254,-0.01456258,0.00864870,-0.00030120,-0.0014
 4529,0.00189036,-0.00032025,0.00041786,0.00033361,0.00196411,-0.003709
 93,0.00079441,-0.00084912,0.00028200,0.00133234,0.00041412,-0.00063126
 ,-0.00019054,0.00007687,0.00017308,-0.00032181,-0.00287680,0.00436078,
 0.00198214,-0.00011333,-0.00024187,-0.00033462,0.00620072,0.00042963,-
 0.00726141,0.00000211,-0.00021933,0.00002679,0.00340555,0.18049592,0.0
 0199344,0.00006366,-0.00162551,-0.00240754,-0.00548018,0.00749240,-0.0
 0100903,0.00304669,-0.00206625,0.00041140,0.00617585,-0.01061448,-0.00
 036912,0.00001802,0.00012751,0.00510712,0.01066026,-0.02520368,0.05310
 279,0.17934419,-0.29061855,-0.00358691,-0.01014807,0.01229803,-0.00004
 713,-0.00073977,0.00142797,-0.00055481,0.00074905,-0.00032413,-0.00099
 293,0.00166642,0.00048472,0.00074931,-0.00023701,-0.00103044,-0.000332
 87,0.00036769,0.00012127,-0.00007543,-0.00023040,0.00037880,0.00166809
 ,-0.00022309,-0.00151807,-0.00009958,-0.00029007,-0.00026600,0.0021049
 7,-0.00272077,0.00324737,-0.00008274,0.00007659,-0.00012237,-0.0555312
 7,-0.18203486,0.30760069,0.00133440,-0.00140244,-0.00126978,-0.0043827
 1,0.00128093,-0.00212876,-0.00316941,0.01482452,0.00050630,0.00086922,
 -0.00030224,-0.00031815,-0.11630583,0.13207485,-0.00166669,0.00186406,
 0.00136838,0.00413863,0.00015084,0.00055138,-0.00030662,-0.00018284,-0
 .00004588,0.00005917,-0.00000710,0.00002178,0.00001062,-0.00001060,0.0
 0005759,0.00003864,0.00797613,-0.00224364,0.00006055,-0.00301819,-0.00
 217140,-0.00225228,-0.00162281,0.00051414,0.00216295,0.00036708,0.0008
 6134,-0.00018875,0.00311113,0.00094726,0.00290875,0.00042209,-0.000296
 73,0.00006249,-0.00044943,-0.00048417,-0.00005539,-0.00016670,-0.00006
 781,-0.00009809,-0.00002813,0.00019178,-0.00004778,0.11324879,-0.00173
 160,-0.00151512,0.00455670,-0.00089792,-0.00237148,-0.00093862,0.00436
 074,-0.00125773,-0.00060872,0.00046799,-0.00009485,-0.00020511,0.13231
 602,-0.28148605,0.01292466,0.00179888,0.00154740,0.00029637,-0.0001210
 8,0.00008703,0.00044328,-0.00011290,0.00000825,0.00001124,0.00002050,0
 .00000757,-0.00000453,-0.00000083,0.00001699,0.00000110,0.00862011,-0.
 00969965,0.00160318,-0.00043561,-0.00358640,-0.00123842,0.00065865,0.0
 0135602,-0.00276518,0.00018101,0.00056777,-0.00012477,0.00090180,0.000
 65375,0.00320851,0.00039127,-0.00028860,-0.00010756,-0.00068324,0.0003
 6382,0.00005879,-0.00005022,-0.00008444,-0.00009364,-0.00000392,0.0001
 2481,-0.00006422,-0.14567964,0.29565091,-0.00092300,0.00395533,-0.0026
 6097,0.00016119,-0.00490042,0.00004522,0.01151444,-0.01961216,0.005414
 89,-0.00112423,0.00119522,0.00131057,-0.00191598,0.01336105,-0.0513165
 0,0.00368582,0.00107500,-0.00289641,0.00039911,-0.00077790,0.00039055,
 0.00013027,-0.00010916,-0.00029488,0.00007621,-0.00005430,-0.00001224,
 0.00003565,-0.00005775,-0.00001842,-0.01137498,0.02134042,0.00492159,-
 0.00407642,0.00191435,-0.00012163,0.00201130,-0.00250225,-0.00115685,0
 .00052621,-0.00136245,0.00123808,0.00295543,0.00312954,-0.00340083,-0.
 00066206,0.00114292,0.00028468,0.00015525,-0.00030286,-0.00072378,-0.0
 0011668,-0.00006146,0.00001664,0.00015827,-0.00042007,0.00021072,-0.00
 161581,-0.01695306,0.04876958\\-0.00000132,-0.00000866,0.00000615,0.00
 000796,0.00000775,-0.00001632,-0.00000941,-0.00000265,0.00001015,0.000
 00366,-0.00000263,0.00000409,0.00000308,0.00001989,-0.00001913,0.00000
 907,0.00000215,0.00000723,-0.00000717,-0.00002939,-0.00002962,0.000010
 50,0.00000454,-0.00000562,0.00000065,0.00001505,0.00001926,-0.00001590
 ,-0.00000436,0.00000493,-0.00000307,0.00000169,0.00000550,0.00000957,-
 0.00000023,-0.00001148,-0.00000786,-0.00000467,0.00001417,-0.00001114,
 0.00001964,-0.00000063,-0.00000406,-0.00001074,0.00000344,0.00000330,0
 .00000886,-0.00000493,0.00000130,0.00000333,0.00000092,-0.00000133,-0.
 00000269,-0.00000127,0.00000581,-0.00000371,0.00001554,0.00000634,-0.0
 0001316,-0.00000238\\\@


 ON INDUCTION, OR "WHY DO YOU BELIEVE THE SUN WILL RISE TOMORROW?":

 ... THE FARMER WHO HAS FED THE CHICKEN EVERY DAY THROUGHOUT ITS
 LIFE AT LAST WRINGS ITS NECK INSTEAD, SHOWING THAT MORE REFINED VIEWS
 AS TO THE UNIFORMITY OF NATURE WOULD HAVE BEEN USEFUL TO THE CHICKEN.

                               -- BERTRAND RUSSELL
 Job cpu time:       0 days  0 hours 17 minutes 24.9 seconds.
 File lengths (MBytes):  RWF=    143 Int=      0 D2E=      0 Chk=      5 Scr=      1
 Normal termination of Gaussian 09 at Fri Aug 20 15:46:18 2021.
