 Entering Gaussian System, Link 0=g09
 Input=B3LYP6-31G.SOXNEA.gjf
 Output=B3LYP6-31G.SOXNEA.log
 Initial command:
 /public/home/users/caep010/software/Gaussian09/g09/l1.exe "/public/home/users/caep010/.cache/gau_scr/Gau-172068.inp" -scrdir="/public/home/users/caep010/.cache/gau_scr/"
 Entering Link 1 = /public/home/users/caep010/software/Gaussian09/g09/l1.exe PID=    172069.
  
 Copyright (c) 1988,1990,1992,1993,1995,1998,2003,2009,2015,
            Gaussian, Inc.  All Rights Reserved.
  
 This is part of the Gaussian(R) 09 program.  It is based on
 the Gaussian(R) 03 system (copyright 2003, Gaussian, Inc.),
 the Gaussian(R) 98 system (copyright 1998, Gaussian, Inc.),
 the Gaussian(R) 94 system (copyright 1995, Gaussian, Inc.),
 the Gaussian 92(TM) system (copyright 1992, Gaussian, Inc.),
 the Gaussian 90(TM) system (copyright 1990, Gaussian, Inc.),
 the Gaussian 88(TM) system (copyright 1988, Gaussian, Inc.),
 the Gaussian 86(TM) system (copyright 1986, Carnegie Mellon
 University), and the Gaussian 82(TM) system (copyright 1983,
 Carnegie Mellon University). Gaussian is a federally registered
 trademark of Gaussian, Inc.
  
 This software contains proprietary and confidential information,
 including trade secrets, belonging to Gaussian, Inc.
  
 This software is provided under written license and may be
 used, copied, transmitted, or stored only in accord with that
 written license.
  
 The following legend is applicable only to US Government
 contracts under FAR:
  
                    RESTRICTED RIGHTS LEGEND
  
 Use, reproduction and disclosure by the US Government is
 subject to restrictions as set forth in subparagraphs (a)
 and (c) of the Commercial Computer Software - Restricted
 Rights clause in FAR 52.227-19.
  
 Gaussian, Inc.
 340 Quinnipiac St., Bldg. 40, Wallingford CT 06492
  
  
 ---------------------------------------------------------------
 Warning -- This program may not be used in any manner that
 competes with the business of Gaussian, Inc. or will provide
 assistance to any competitor of Gaussian, Inc.  The licensee
 of this program is prohibited from giving any competitor of
 Gaussian, Inc. access to this program.  By using this program,
 the user acknowledges that Gaussian, Inc. is engaged in the
 business of creating and licensing software in the field of
 computational chemistry and represents and warrants to the
 licensee that it is not a competitor of Gaussian, Inc. and that
 it will not use this program in any manner prohibited above.
 ---------------------------------------------------------------
  

 Cite this work as:
 Gaussian 09, Revision E.01,
 M. J. Frisch, G. W. Trucks, H. B. Schlegel, G. E. Scuseria, 
 M. A. Robb, J. R. Cheeseman, G. Scalmani, V. Barone, B. Mennucci, 
 G. A. Petersson, H. Nakatsuji, M. Caricato, X. Li, H. P. Hratchian, 
 A. F. Izmaylov, J. Bloino, G. Zheng, J. L. Sonnenberg, M. Hada, 
 M. Ehara, K. Toyota, R. Fukuda, J. Hasegawa, M. Ishida, T. Nakajima, 
 Y. Honda, O. Kitao, H. Nakai, T. Vreven, J. A. Montgomery, Jr., 
 J. E. Peralta, F. Ogliaro, M. Bearpark, J. J. Heyd, E. Brothers, 
 K. N. Kudin, V. N. Staroverov, T. Keith, R. Kobayashi, J. Normand, 
 K. Raghavachari, A. Rendell, J. C. Burant, S. S. Iyengar, J. Tomasi, 
 M. Cossi, N. Rega, J. M. Millam, M. Klene, J. E. Knox, J. B. Cross, 
 V. Bakken, C. Adamo, J. Jaramillo, R. Gomperts, R. E. Stratmann, 
 O. Yazyev, A. J. Austin, R. Cammi, C. Pomelli, J. W. Ochterski, 
 R. L. Martin, K. Morokuma, V. G. Zakrzewski, G. A. Voth, 
 P. Salvador, J. J. Dannenberg, S. Dapprich, A. D. Daniels, 
 O. Farkas, J. B. Foresman, J. V. Ortiz, J. Cioslowski, 
 and D. J. Fox, Gaussian, Inc., Wallingford CT, 2013.
 
 ******************************************
 Gaussian 09:  ES64L-G09RevE.01 30-Nov-2015
                20-Aug-2021 
 ******************************************
 %nproc=32
 Will use up to   32 processors via shared memory.
 %mem=180GB
 -------------------------
 #P OPT Freq B3LYP/6-31G**
 -------------------------
 1/14=-1,18=20,19=15,26=3,38=1/1,3;
 2/9=110,12=2,17=6,18=5,40=1/2;
 3/5=1,6=6,7=101,11=2,16=1,25=1,30=1,71=1,74=-5/1,2,3;
 4//1;
 5/5=2,38=5/2;
 6/7=2,8=2,9=2,10=2,28=1/1;
 7//1,2,3,16;
 1/14=-1,18=20,19=15,26=3/3(2);
 2/9=110/2;
 99//99;
 2/9=110/2;
 3/5=1,6=6,7=101,11=2,16=1,25=1,30=1,71=1,74=-5/1,2,3;
 4/5=5,16=3,69=1/1;
 5/5=2,38=5/2;
 7//1,2,3,16;
 1/14=-1,18=20,19=15,26=3/3(-5);
 2/9=110/2;
 6/7=2,8=2,9=2,10=2,19=2,28=1/1;
 99/9=1/99;
 Leave Link    1 at Fri Aug 20 15:37:33 2021, MaxMem= 24159191040 cpu:         3.1
 (Enter /public/home/users/caep010/software/Gaussian09/g09/l101.exe)
 ------
 SOXNEA
 ------
 Symbolic Z-matrix:
 Charge =  0 Multiplicity = 1
 O                     1.6994   -0.0366    7.1497 
 C                     1.6824    0.2973    5.9694 
 C                     1.5634    1.738     5.5848 
 C                     1.5604    2.6735    6.6105 
 H                     1.6085    2.402     7.4993 
 C                     1.473     2.1718    4.2647 
 H                     1.4639    1.5491    3.5738 
 C                     1.4857    4.0088    6.2893 
 N                     1.492     4.9844    7.3787 
 O                     1.4282    6.166     7.0799 
 C                     1.4112    4.4571    4.9853 
 H                     1.3718    5.3665    4.794 
 C                     1.3962    3.5166    3.9733 
 H                     1.3334    3.7933    3.0877 
 O                     1.5429    4.584     8.5346 
 C                     1.7784   -0.6639    4.9205 
 H                     1.7698   -0.4252    4.0214 
 N                     1.8806   -1.9175    5.3192 
 N                     1.9589   -2.9487    5.7224 
 
 NAtoms=     19 NQM=       19 NQMF=       0 NMMI=      0 NMMIF=      0
                NMic=       0 NMicF=      0.
                    Isotopes and Nuclear Properties:
 (Nuclear quadrupole moments (NQMom) in fm**2, nuclear magnetic moments (NMagM)
  in nuclear magnetons)

  Atom         1           2           3           4           5           6           7           8           9          10
 IAtWgt=          16          12          12          12           1          12           1          12          14          16
 AtmWgt=  15.9949146  12.0000000  12.0000000  12.0000000   1.0078250  12.0000000   1.0078250  12.0000000  14.0030740  15.9949146
 NucSpn=           0           0           0           0           1           0           1           0           2           0
 AtZEff=   0.0000000   0.0000000   0.0000000   0.0000000   0.0000000   0.0000000   0.0000000   0.0000000   0.0000000   0.0000000
 NQMom=    0.0000000   0.0000000   0.0000000   0.0000000   0.0000000   0.0000000   0.0000000   0.0000000   2.0440000   0.0000000
 NMagM=    0.0000000   0.0000000   0.0000000   0.0000000   2.7928460   0.0000000   2.7928460   0.0000000   0.4037610   0.0000000
 AtZNuc=   8.0000000   6.0000000   6.0000000   6.0000000   1.0000000   6.0000000   1.0000000   6.0000000   7.0000000   8.0000000

  Atom        11          12          13          14          15          16          17          18          19
 IAtWgt=          12           1          12           1          16          12           1          14          14
 AtmWgt=  12.0000000   1.0078250  12.0000000   1.0078250  15.9949146  12.0000000   1.0078250  14.0030740  14.0030740
 NucSpn=           0           1           0           1           0           0           1           2           2
 AtZEff=   0.0000000   0.0000000   0.0000000   0.0000000   0.0000000   0.0000000   0.0000000   0.0000000   0.0000000
 NQMom=    0.0000000   0.0000000   0.0000000   0.0000000   0.0000000   0.0000000   0.0000000   2.0440000   2.0440000
 NMagM=    0.0000000   2.7928460   0.0000000   2.7928460   0.0000000   0.0000000   2.7928460   0.4037610   0.4037610
 AtZNuc=   6.0000000   1.0000000   6.0000000   1.0000000   8.0000000   6.0000000   1.0000000   7.0000000   7.0000000
 Leave Link  101 at Fri Aug 20 15:37:33 2021, MaxMem= 24159191040 cpu:        10.3
 (Enter /public/home/users/caep010/software/Gaussian09/g09/l103.exe)

 GradGradGradGradGradGradGradGradGradGradGradGradGradGradGradGradGradGrad
 Berny optimization.
 Initialization pass.
                           ----------------------------
                           !    Initial Parameters    !
                           ! (Angstroms and Degrees)  !
 --------------------------                            --------------------------
 ! Name  Definition              Value          Derivative Info.                !
 --------------------------------------------------------------------------------
 ! R1    R(1,2)                  1.2267         estimate D2E/DX2                !
 ! R2    R(2,3)                  1.4959         estimate D2E/DX2                !
 ! R3    R(2,16)                 1.4259         estimate D2E/DX2                !
 ! R4    R(3,4)                  1.3882         estimate D2E/DX2                !
 ! R5    R(3,6)                  1.3925         estimate D2E/DX2                !
 ! R6    R(4,5)                  0.9306         estimate D2E/DX2                !
 ! R7    R(4,8)                  1.3754         estimate D2E/DX2                !
 ! R8    R(6,7)                  0.9302         estimate D2E/DX2                !
 ! R9    R(6,13)                 1.3782         estimate D2E/DX2                !
 ! R10   R(8,9)                  1.4624         estimate D2E/DX2                !
 ! R11   R(8,11)                 1.3809         estimate D2E/DX2                !
 ! R12   R(9,10)                 1.2205         estimate D2E/DX2                !
 ! R13   R(9,15)                 1.2243         estimate D2E/DX2                !
 ! R14   R(11,12)                0.9301         estimate D2E/DX2                !
 ! R15   R(11,13)                1.3816         estimate D2E/DX2                !
 ! R16   R(13,14)                0.9299         estimate D2E/DX2                !
 ! R17   R(16,17)                0.9303         estimate D2E/DX2                !
 ! R18   R(16,18)                1.3194         estimate D2E/DX2                !
 ! R19   R(18,19)                1.11           estimate D2E/DX2                !
 ! A1    A(1,2,3)              120.7049         estimate D2E/DX2                !
 ! A2    A(1,2,16)             121.5559         estimate D2E/DX2                !
 ! A3    A(3,2,16)             117.7389         estimate D2E/DX2                !
 ! A4    A(2,3,4)              117.3368         estimate D2E/DX2                !
 ! A5    A(2,3,6)              123.2942         estimate D2E/DX2                !
 ! A6    A(4,3,6)              119.3647         estimate D2E/DX2                !
 ! A7    A(3,4,5)              120.5942         estimate D2E/DX2                !
 ! A8    A(3,4,8)              118.8025         estimate D2E/DX2                !
 ! A9    A(5,4,8)              120.6033         estimate D2E/DX2                !
 ! A10   A(3,6,7)              119.7521         estimate D2E/DX2                !
 ! A11   A(3,6,13)             120.5346         estimate D2E/DX2                !
 ! A12   A(7,6,13)             119.7132         estimate D2E/DX2                !
 ! A13   A(4,8,9)              118.2593         estimate D2E/DX2                !
 ! A14   A(4,8,11)             122.5898         estimate D2E/DX2                !
 ! A15   A(9,8,11)             119.1503         estimate D2E/DX2                !
 ! A16   A(8,9,10)             117.5985         estimate D2E/DX2                !
 ! A17   A(8,9,15)             119.0323         estimate D2E/DX2                !
 ! A18   A(10,9,15)            123.3623         estimate D2E/DX2                !
 ! A19   A(8,11,12)            120.9238         estimate D2E/DX2                !
 ! A20   A(8,11,13)            118.1165         estimate D2E/DX2                !
 ! A21   A(12,11,13)           120.9596         estimate D2E/DX2                !
 ! A22   A(6,13,11)            120.5815         estimate D2E/DX2                !
 ! A23   A(6,13,14)            119.7006         estimate D2E/DX2                !
 ! A24   A(11,13,14)           119.7179         estimate D2E/DX2                !
 ! A25   A(2,16,17)            122.5028         estimate D2E/DX2                !
 ! A26   A(2,16,18)            115.0485         estimate D2E/DX2                !
 ! A27   A(17,16,18)           122.4487         estimate D2E/DX2                !
 ! A28   L(16,18,19,1,-1)      176.2846         estimate D2E/DX2                !
 ! A29   L(16,18,19,1,-2)      179.7225         estimate D2E/DX2                !
 ! D1    D(1,2,3,4)              4.0138         estimate D2E/DX2                !
 ! D2    D(1,2,3,6)           -176.7492         estimate D2E/DX2                !
 ! D3    D(16,2,3,4)          -175.8076         estimate D2E/DX2                !
 ! D4    D(16,2,3,6)             3.4294         estimate D2E/DX2                !
 ! D5    D(1,2,16,17)         -179.7841         estimate D2E/DX2                !
 ! D6    D(1,2,16,18)            0.2056         estimate D2E/DX2                !
 ! D7    D(3,2,16,17)            0.0357         estimate D2E/DX2                !
 ! D8    D(3,2,16,18)         -179.9746         estimate D2E/DX2                !
 ! D9    D(2,3,4,5)             -1.5577         estimate D2E/DX2                !
 ! D10   D(2,3,4,8)            178.4116         estimate D2E/DX2                !
 ! D11   D(6,3,4,5)            179.174          estimate D2E/DX2                !
 ! D12   D(6,3,4,8)             -0.8567         estimate D2E/DX2                !
 ! D13   D(2,3,6,7)              1.5342         estimate D2E/DX2                !
 ! D14   D(2,3,6,13)          -178.4984         estimate D2E/DX2                !
 ! D15   D(4,3,6,7)           -179.2435         estimate D2E/DX2                !
 ! D16   D(4,3,6,13)             0.7239         estimate D2E/DX2                !
 ! D17   D(3,4,8,9)           -179.6159         estimate D2E/DX2                !
 ! D18   D(3,4,8,11)             0.1101         estimate D2E/DX2                !
 ! D19   D(5,4,8,9)              0.3534         estimate D2E/DX2                !
 ! D20   D(5,4,8,11)          -179.9206         estimate D2E/DX2                !
 ! D21   D(3,6,13,11)            0.1747         estimate D2E/DX2                !
 ! D22   D(3,6,13,14)         -179.8015         estimate D2E/DX2                !
 ! D23   D(7,6,13,11)         -179.8578         estimate D2E/DX2                !
 ! D24   D(7,6,13,14)            0.166          estimate D2E/DX2                !
 ! D25   D(4,8,9,10)           179.8429         estimate D2E/DX2                !
 ! D26   D(4,8,9,15)            -1.0799         estimate D2E/DX2                !
 ! D27   D(11,8,9,10)            0.1072         estimate D2E/DX2                !
 ! D28   D(11,8,9,15)          179.1845         estimate D2E/DX2                !
 ! D29   D(4,8,11,12)         -179.2589         estimate D2E/DX2                !
 ! D30   D(4,8,11,13)            0.7722         estimate D2E/DX2                !
 ! D31   D(9,8,11,12)            0.4647         estimate D2E/DX2                !
 ! D32   D(9,8,11,13)         -179.5041         estimate D2E/DX2                !
 ! D33   D(8,11,13,6)           -0.906          estimate D2E/DX2                !
 ! D34   D(8,11,13,14)         179.0702         estimate D2E/DX2                !
 ! D35   D(12,11,13,6)         179.1252         estimate D2E/DX2                !
 ! D36   D(12,11,13,14)         -0.8986         estimate D2E/DX2                !
 --------------------------------------------------------------------------------
 Trust Radius=3.00D-01 FncErr=1.00D-07 GrdErr=1.00D-06
 Number of steps in this run=     94 maximum allowed number of steps=    114.
 GradGradGradGradGradGradGradGradGradGradGradGradGradGradGradGradGradGrad

 Leave Link  103 at Fri Aug 20 15:37:33 2021, MaxMem= 24159191040 cpu:         0.3
 (Enter /public/home/users/caep010/software/Gaussian09/g09/l202.exe)
                          Input orientation:                          
 ---------------------------------------------------------------------
 Center     Atomic      Atomic             Coordinates (Angstroms)
 Number     Number       Type             X           Y           Z
 ---------------------------------------------------------------------
      1          8           0        1.699400   -0.036600    7.149700
      2          6           0        1.682400    0.297300    5.969400
      3          6           0        1.563400    1.738000    5.584800
      4          6           0        1.560400    2.673500    6.610500
      5          1           0        1.608500    2.402000    7.499300
      6          6           0        1.473000    2.171800    4.264700
      7          1           0        1.463900    1.549100    3.573800
      8          6           0        1.485700    4.008800    6.289300
      9          7           0        1.492000    4.984400    7.378700
     10          8           0        1.428200    6.166000    7.079900
     11          6           0        1.411200    4.457100    4.985300
     12          1           0        1.371800    5.366500    4.794000
     13          6           0        1.396200    3.516600    3.973300
     14          1           0        1.333400    3.793300    3.087700
     15          8           0        1.542900    4.584000    8.534600
     16          6           0        1.778400   -0.663900    4.920500
     17          1           0        1.769800   -0.425200    4.021400
     18          7           0        1.880600   -1.917500    5.319200
     19          7           0        1.958900   -2.948700    5.722400
 ---------------------------------------------------------------------
                    Distance matrix (angstroms):
                    1          2          3          4          5
     1  O    0.000000
     2  C    1.226738   0.000000
     3  C    2.369939   1.495893   0.000000
     4  C    2.766713   2.464187   1.388247   0.000000
     5  H    2.465208   2.603040   2.026879   0.930587   0.000000
     6  C    3.640263   2.542361   1.392486   2.400441   3.245611
     7  H    3.918796   2.711760   2.022302   3.239619   4.019689
     8  C    4.141403   3.730450   2.378842   1.375418   2.015189
     9  N    5.030497   4.898090   3.709756   2.436200   2.587838
    10  O    6.208918   5.978250   4.675552   3.526382   3.791583
    11  C    4.996101   4.283216   2.788561   2.417595   3.253085
    12  H    5.903400   5.212948   3.718614   3.253843   4.020315
    13  C    4.775634   3.798713   2.405890   2.773554   3.704063
    14  H    5.594813   4.544008   3.242324   3.703458   4.633963
    15  O    4.826218   4.997550   4.098958   2.711545   2.416045
    16  C    2.317127   1.425943   2.501328   3.747247   4.009840
    17  H    3.153130   2.079507   2.676986   4.043418   4.484960
    18  N    2.630846   2.316761   3.678837   4.779881   4.846128
    19  N    3.253437   3.267105   4.705370   5.705844   5.648906
                    6          7          8          9         10
     6  C    0.000000
     7  H    0.930151   0.000000
     8  C    2.733813   3.663951   0.000000
     9  N    4.196198   5.126338   1.462405   0.000000
    10  O    4.886818   5.797394   2.298231   1.220463   0.000000
    11  C    2.397015   3.232889   1.380920   2.452129   2.703327
    12  H    3.239831   4.008730   2.022930   2.615554   2.422338
    13  C    1.378151   2.008791   2.369415   3.709496   4.083051
    14  H    2.008502   2.299947   3.212457   4.456069   4.645035
    15  O    4.904655   5.816046   2.318512   1.224343   2.152216
    16  C    2.926523   2.609575   4.877849   6.166690   7.171693
    17  H    2.625204   2.047384   4.988431   6.372787   7.274272
    18  N    4.242698   3.903508   6.018145   7.213097   8.285391
    19  N    5.346074   5.009163   6.996578   8.117598   9.230504
                   11         12         13         14         15
    11  C    0.000000
    12  H    0.930138   0.000000
    13  C    1.381633   2.023925   0.000000
    14  H    2.011857   2.321183   0.929943   0.000000
    15  O    3.554009   3.825398   4.686824   5.507978   0.000000
    16  C    5.134557   6.045416   4.303469   4.839815   6.376334
    17  H    4.989444   5.856544   3.959757   4.342578   6.746298
    18  N    6.400574   7.320613   5.619211   6.155669   7.261015
    19  N    7.462517   8.387441   6.721316   7.265498   8.051279
                   16         17         18         19
    16  C    0.000000
    17  H    0.930286   0.000000
    18  N    1.319439   1.980788   0.000000
    19  N    2.428155   3.049133   1.109989   0.000000
 Stoichiometry    C8H5N3O3
 Framework group  C1[X(C8H5N3O3)]
 Deg. of freedom    51
 Full point group                 C1      NOp   1
 Largest Abelian subgroup         C1      NOp   1
 Largest concise Abelian subgroup C1      NOp   1
                         Standard orientation:                         
 ---------------------------------------------------------------------
 Center     Atomic      Atomic             Coordinates (Angstroms)
 Number     Number       Type             X           Y           Z
 ---------------------------------------------------------------------
      1          8           0       -1.909060   -1.524195    0.084166
      2          6           0       -1.806599   -0.302944    0.029993
      3          6           0       -0.461673    0.351875    0.038940
      4          6           0        0.651380   -0.477657    0.024117
      5          1           0        0.552592   -1.402960    0.031022
      6          6           0       -0.283949    1.732957    0.045602
      7          1           0       -1.025775    2.293717    0.066191
      8          6           0        1.902669    0.092772   -0.001601
      9          7           0        3.066679   -0.792174   -0.025634
     10          8           0        4.171024   -0.273237   -0.051297
     11          6           0        2.096793    1.459946   -0.011059
     12          1           0        2.953587    1.820900   -0.038864
     13          6           0        0.982465    2.276064    0.022609
     14          1           0        1.087781    3.199994    0.030156
     15          8           0        2.892493   -2.003832   -0.001961
     16          6           0       -2.954464    0.539528   -0.047208
     17          1           0       -2.891993    1.466643   -0.091795
     18          7           0       -4.112406   -0.092987   -0.050969
     19          7           0       -5.050211   -0.686758   -0.045160
 ---------------------------------------------------------------------
 Rotational constants (GHZ):      1.8446607      0.3422879      0.2888277
 Leave Link  202 at Fri Aug 20 15:37:33 2021, MaxMem= 24159191040 cpu:         0.4
 (Enter /public/home/users/caep010/software/Gaussian09/g09/l301.exe)
 Standard basis: 6-31G(d,p) (6D, 7F)
 Ernie: Thresh=  0.10000D-02 Tol=  0.10000D-05 Strict=F.
 There are   235 symmetry adapted cartesian basis functions of A   symmetry.
 There are   235 symmetry adapted basis functions of A   symmetry.
   235 basis functions,   427 primitive gaussians,   235 cartesian basis functions
    49 alpha electrons       49 beta electrons
       nuclear repulsion energy       802.1245601607 Hartrees.
 IExCor=  402 DFT=T Ex+Corr=B3LYP ExCW=0 ScaHFX=  0.200000
 ScaDFX=  0.800000  0.720000  1.000000  0.810000 ScalE2=  1.000000  1.000000
 IRadAn=      0 IRanWt=     -1 IRanGd=            0 ICorTp=0 IEmpDi=  4
 NAtoms=   19 NActive=   19 NUniq=   19 SFac= 1.00D+00 NAtFMM=   60 NAOKFM=F Big=F
 Integral buffers will be    131072 words long.
 Raffenetti 2 integral format.
 Two-electron integral symmetry is turned on.
 Leave Link  301 at Fri Aug 20 15:37:33 2021, MaxMem= 24159191040 cpu:         1.9
 (Enter /public/home/users/caep010/software/Gaussian09/g09/l302.exe)
 NPDir=0 NMtPBC=     1 NCelOv=     1 NCel=       1 NClECP=     1 NCelD=      1
         NCelK=      1 NCelE2=     1 NClLst=     1 CellRange=     0.0.
 One-electron integrals computed using PRISM.
 NBasis=   235 RedAO= T EigKep=  3.51D-04  NBF=   235
 NBsUse=   235 1.00D-06 EigRej= -1.00D+00 NBFU=   235
 Precomputing XC quadrature grid using
 IXCGrd= 4 IRadAn=           0 IRanWt=          -1 IRanGd=           0 AccXCQ= 0.00D+00.
 Generated NRdTot=       0 NPtTot=           0 NUsed=           0 NTot=          32
 NSgBfM=   233   233   233   233   233 MxSgAt=    19 MxSgA2=    19.
 Leave Link  302 at Fri Aug 20 15:37:34 2021, MaxMem= 24159191040 cpu:        18.9
 (Enter /public/home/users/caep010/software/Gaussian09/g09/l303.exe)
 DipDrv:  MaxL=1.
 Leave Link  303 at Fri Aug 20 15:37:34 2021, MaxMem= 24159191040 cpu:         0.9
 (Enter /public/home/users/caep010/software/Gaussian09/g09/l401.exe)
 ExpMin= 1.61D-01 ExpMax= 5.48D+03 ExpMxC= 8.25D+02 IAcc=1 IRadAn=         1 AccDes= 0.00D+00
 Harris functional with IExCor=  402 and IRadAn=       1 diagonalized for initial guess.
 HarFok:  IExCor=  402 AccDes= 0.00D+00 IRadAn=         1 IDoV= 1 UseB2=F ITyADJ=14
 ICtDFT=  3500011 ScaDFX=  1.000000  1.000000  1.000000  1.000000
 FoFCou: FMM=F IPFlag=           0 FMFlag=      100000 FMFlg1=           0
         NFxFlg=           0 DoJE=T BraDBF=F KetDBF=T FulRan=T
         wScrn=  0.000000 ICntrl=     500 IOpCl=  0 I1Cent=   200000004 NGrid=           0
         NMat0=    1 NMatS0=      1 NMatT0=    0 NMatD0=    1 NMtDS0=    0 NMtDT0=    0
 Petite list used in FoFCou.
 Harris En= -697.619937469001    
 JPrj=0 DoOrth=F DoCkMO=F.
 Leave Link  401 at Fri Aug 20 15:37:35 2021, MaxMem= 24159191040 cpu:        12.3
 (Enter /public/home/users/caep010/software/Gaussian09/g09/l502.exe)
 Closed shell SCF:
 Using DIIS extrapolation, IDIIS=  1040.
 Integral symmetry usage will be decided dynamically.
 Keep R1 ints in memory in canonical form, NReq=391255824.
 IVT=      193499 IEndB=      193499 NGot= 24159191040 MDV= 23774507227
 LenX= 23774507227 LenY= 23774451561
 Requested convergence on RMS density matrix=1.00D-08 within 128 cycles.
 Requested convergence on MAX density matrix=1.00D-06.
 Requested convergence on             energy=1.00D-06.
 No special actions if energy rises.
 FoFCou: FMM=F IPFlag=           0 FMFlag=           0 FMFlg1=           0
         NFxFlg=           0 DoJE=F BraDBF=F KetDBF=F FulRan=T
         wScrn=  0.000000 ICntrl=     600 IOpCl=  0 I1Cent=           0 NGrid=           0
         NMat0=    1 NMatS0=  27730 NMatT0=    0 NMatD0=    1 NMtDS0=    0 NMtDT0=    0
 Symmetry not used in FoFCou.
 Integral accuracy reduced to 1.0D-05 until final iterations.

 Cycle   1  Pass 0  IDiag  1:
 E= -697.097172234968    
 DIIS: error= 5.52D-02 at cycle   1 NSaved=   1.
 NSaved= 1 IEnMin= 1 EnMin= -697.097172234968     IErMin= 1 ErrMin= 5.52D-02
 ErrMax= 5.52D-02  0.00D+00 EMaxC= 1.00D-01 BMatC= 4.96D-01 BMatP= 4.96D-01
 IDIUse=3 WtCom= 4.48D-01 WtEn= 5.52D-01
 Coeff-Com:  0.100D+01
 Coeff-En:   0.100D+01
 Coeff:      0.100D+01
 Gap=     0.186 Goal=   None    Shift=    0.000
 GapD=    0.186 DampG=1.000 DampE=0.500 DampFc=0.5000 IDamp=-1.
 Damping current iteration by 5.00D-01
 RMSDP=9.26D-03 MaxDP=4.39D-01              OVMax= 9.78D-01

 Cycle   2  Pass 0  IDiag  1:
 E= -696.498179794534     Delta-E=        0.598992440434 Rises=F Damp=T
 DIIS: error= 7.21D-02 at cycle   2 NSaved=   2.
 NSaved= 2 IEnMin= 1 EnMin= -697.097172234968     IErMin= 1 ErrMin= 5.52D-02
 ErrMax= 7.21D-02  0.00D+00 EMaxC= 1.00D-01 BMatC= 4.01D-01 BMatP= 4.96D-01
 IDIUse=3 WtCom= 2.79D-01 WtEn= 7.21D-01
 Coeff-Com:  0.465D+00 0.535D+00
 Coeff-En:   0.743D+00 0.257D+00
 Coeff:      0.665D+00 0.335D+00
 Gap=    -0.059 Goal=   None    Shift=    0.000
 RMSDP=4.04D-03 MaxDP=1.67D-01 DE= 5.99D-01 OVMax= 9.22D-01

 Cycle   3  Pass 0  IDiag  1:
 E= -697.255751579329     Delta-E=       -0.757571784795 Rises=F Damp=F
 DIIS: error= 4.60D-02 at cycle   3 NSaved=   3.
 NSaved= 3 IEnMin= 3 EnMin= -697.255751579329     IErMin= 3 ErrMin= 4.60D-02
 ErrMax= 4.60D-02  0.00D+00 EMaxC= 1.00D-01 BMatC= 3.31D-01 BMatP= 4.01D-01
 IDIUse=3 WtCom= 5.40D-01 WtEn= 4.60D-01
 EnCoef did     1 forward-backward iterations
 Coeff-Com:  0.366D+00 0.270D+00 0.363D+00
 Coeff-En:   0.369D+00 0.157D-01 0.615D+00
 Coeff:      0.368D+00 0.153D+00 0.479D+00
 Gap=     0.176 Goal=   None    Shift=    0.000
 RMSDP=3.01D-03 MaxDP=1.24D-01 DE=-7.58D-01 OVMax= 2.74D-01

 Cycle   4  Pass 0  IDiag  1:
 E= -697.456499888240     Delta-E=       -0.200748308911 Rises=F Damp=F
 DIIS: error= 2.66D-02 at cycle   4 NSaved=   4.
 NSaved= 4 IEnMin= 4 EnMin= -697.456499888240     IErMin= 4 ErrMin= 2.66D-02
 ErrMax= 2.66D-02  0.00D+00 EMaxC= 1.00D-01 BMatC= 8.67D-02 BMatP= 3.31D-01
 IDIUse=3 WtCom= 7.34D-01 WtEn= 2.66D-01
 Coeff-Com:  0.168D+00 0.237D-01 0.328D+00 0.481D+00
 Coeff-En:   0.000D+00 0.000D+00 0.239D+00 0.761D+00
 Coeff:      0.123D+00 0.174D-01 0.304D+00 0.556D+00
 Gap=     0.201 Goal=   None    Shift=    0.000
 RMSDP=1.52D-03 MaxDP=7.65D-02 DE=-2.01D-01 OVMax= 1.53D-01

 Cycle   5  Pass 0  IDiag  1:
 E= -697.516161595674     Delta-E=       -0.059661707434 Rises=F Damp=F
 DIIS: error= 1.12D-02 at cycle   5 NSaved=   5.
 NSaved= 5 IEnMin= 5 EnMin= -697.516161595674     IErMin= 5 ErrMin= 1.12D-02
 ErrMax= 1.12D-02  0.00D+00 EMaxC= 1.00D-01 BMatC= 1.82D-02 BMatP= 8.67D-02
 IDIUse=3 WtCom= 8.88D-01 WtEn= 1.12D-01
 Coeff-Com:  0.616D-01 0.118D-02 0.167D+00 0.375D+00 0.395D+00
 Coeff-En:   0.000D+00 0.000D+00 0.000D+00 0.209D+00 0.791D+00
 Coeff:      0.547D-01 0.105D-02 0.148D+00 0.357D+00 0.439D+00
 Gap=     0.164 Goal=   None    Shift=    0.000
 RMSDP=5.98D-04 MaxDP=3.98D-02 DE=-5.97D-02 OVMax= 6.46D-02

 Cycle   6  Pass 0  IDiag  1:
 E= -697.529273907508     Delta-E=       -0.013112311834 Rises=F Damp=F
 DIIS: error= 4.13D-03 at cycle   6 NSaved=   6.
 NSaved= 6 IEnMin= 6 EnMin= -697.529273907508     IErMin= 6 ErrMin= 4.13D-03
 ErrMax= 4.13D-03  0.00D+00 EMaxC= 1.00D-01 BMatC= 3.76D-03 BMatP= 1.82D-02
 IDIUse=3 WtCom= 9.59D-01 WtEn= 4.13D-02
 Coeff-Com:  0.877D-02-0.910D-02 0.444D-01 0.162D+00 0.347D+00 0.448D+00
 Coeff-En:   0.000D+00 0.000D+00 0.000D+00 0.000D+00 0.204D+00 0.796D+00
 Coeff:      0.841D-02-0.873D-02 0.425D-01 0.155D+00 0.341D+00 0.462D+00
 Gap=     0.164 Goal=   None    Shift=    0.000
 RMSDP=2.23D-04 MaxDP=1.08D-02 DE=-1.31D-02 OVMax= 1.41D-02

 Cycle   7  Pass 0  IDiag  1:
 E= -697.532072154983     Delta-E=       -0.002798247475 Rises=F Damp=F
 DIIS: error= 1.40D-03 at cycle   7 NSaved=   7.
 NSaved= 7 IEnMin= 7 EnMin= -697.532072154983     IErMin= 7 ErrMin= 1.40D-03
 ErrMax= 1.40D-03  0.00D+00 EMaxC= 1.00D-01 BMatC= 3.50D-04 BMatP= 3.76D-03
 IDIUse=3 WtCom= 9.86D-01 WtEn= 1.40D-02
 Coeff-Com:  0.125D-02-0.783D-02 0.108D-01 0.479D-01 0.168D+00 0.300D+00
 Coeff-Com:  0.480D+00
 Coeff-En:   0.000D+00 0.000D+00 0.000D+00 0.000D+00 0.000D+00 0.119D-01
 Coeff-En:   0.988D+00
 Coeff:      0.123D-02-0.772D-02 0.106D-01 0.472D-01 0.166D+00 0.296D+00
 Coeff:      0.487D+00
 Gap=     0.165 Goal=   None    Shift=    0.000
 RMSDP=8.34D-05 MaxDP=4.26D-03 DE=-2.80D-03 OVMax= 7.32D-03

 Cycle   8  Pass 0  IDiag  1:
 E= -697.532298964318     Delta-E=       -0.000226809334 Rises=F Damp=F
 DIIS: error= 9.83D-04 at cycle   8 NSaved=   8.
 NSaved= 8 IEnMin= 8 EnMin= -697.532298964318     IErMin= 8 ErrMin= 9.83D-04
 ErrMax= 9.83D-04  0.00D+00 EMaxC= 1.00D-01 BMatC= 7.33D-05 BMatP= 3.50D-04
 IDIUse=3 WtCom= 9.90D-01 WtEn= 9.83D-03
 Coeff-Com:  0.173D-02-0.566D-02 0.490D-02 0.124D-01 0.730D-01 0.146D+00
 Coeff-Com:  0.333D+00 0.435D+00
 Coeff-En:   0.000D+00 0.000D+00 0.000D+00 0.000D+00 0.000D+00 0.000D+00
 Coeff-En:   0.994D-01 0.901D+00
 Coeff:      0.171D-02-0.561D-02 0.485D-02 0.123D-01 0.723D-01 0.144D+00
 Coeff:      0.331D+00 0.439D+00
 Gap=     0.165 Goal=   None    Shift=    0.000
 RMSDP=3.52D-05 MaxDP=2.09D-03 DE=-2.27D-04 OVMax= 4.26D-03

 Cycle   9  Pass 0  IDiag  1:
 E= -697.532347489328     Delta-E=       -0.000048525010 Rises=F Damp=F
 DIIS: error= 4.44D-04 at cycle   9 NSaved=   9.
 NSaved= 9 IEnMin= 9 EnMin= -697.532347489328     IErMin= 9 ErrMin= 4.44D-04
 ErrMax= 4.44D-04  0.00D+00 EMaxC= 1.00D-01 BMatC= 2.18D-05 BMatP= 7.33D-05
 IDIUse=3 WtCom= 9.96D-01 WtEn= 4.44D-03
 Coeff-Com:  0.215D-02-0.361D-02 0.252D-02-0.377D-02 0.142D-01 0.385D-01
 Coeff-Com:  0.133D+00 0.337D+00 0.480D+00
 Coeff-En:   0.000D+00 0.000D+00 0.000D+00 0.000D+00 0.000D+00 0.000D+00
 Coeff-En:   0.000D+00 0.795D-01 0.921D+00
 Coeff:      0.214D-02-0.359D-02 0.251D-02-0.375D-02 0.142D-01 0.383D-01
 Coeff:      0.132D+00 0.336D+00 0.482D+00
 Gap=     0.165 Goal=   None    Shift=    0.000
 RMSDP=1.72D-05 MaxDP=7.70D-04 DE=-4.85D-05 OVMax= 1.56D-03

 Cycle  10  Pass 0  IDiag  1:
 E= -697.532364180941     Delta-E=       -0.000016691613 Rises=F Damp=F
 DIIS: error= 2.32D-04 at cycle  10 NSaved=  10.
 NSaved=10 IEnMin=10 EnMin= -697.532364180941     IErMin=10 ErrMin= 2.32D-04
 ErrMax= 2.32D-04  0.00D+00 EMaxC= 1.00D-01 BMatC= 5.42D-06 BMatP= 2.18D-05
 IDIUse=3 WtCom= 9.98D-01 WtEn= 2.32D-03
 Coeff-Com:  0.180D-02-0.208D-02 0.158D-02-0.577D-02-0.538D-02-0.176D-02
 Coeff-Com:  0.149D-01 0.126D+00 0.317D+00 0.554D+00
 Coeff-En:   0.000D+00 0.000D+00 0.000D+00 0.000D+00 0.000D+00 0.000D+00
 Coeff-En:   0.000D+00 0.000D+00 0.000D+00 0.100D+01
 Coeff:      0.180D-02-0.208D-02 0.158D-02-0.576D-02-0.536D-02-0.175D-02
 Coeff:      0.149D-01 0.126D+00 0.316D+00 0.555D+00
 Gap=     0.165 Goal=   None    Shift=    0.000
 RMSDP=8.80D-06 MaxDP=3.53D-04 DE=-1.67D-05 OVMax= 5.48D-04

 Initial convergence to 1.0D-05 achieved.  Increase integral accuracy.
 Cycle  11  Pass 1  IDiag  1:
 E= -697.532388052234     Delta-E=       -0.000023871293 Rises=F Damp=F
 DIIS: error= 1.30D-04 at cycle   1 NSaved=   1.
 NSaved= 1 IEnMin= 1 EnMin= -697.532388052234     IErMin= 1 ErrMin= 1.30D-04
 ErrMax= 1.30D-04  0.00D+00 EMaxC= 1.00D-01 BMatC= 1.45D-06 BMatP= 1.45D-06
 IDIUse=3 WtCom= 9.99D-01 WtEn= 1.30D-03
 Coeff-Com:  0.100D+01
 Coeff-En:   0.100D+01
 Coeff:      0.100D+01
 Gap=     0.165 Goal=   None    Shift=    0.000
 RMSDP=8.80D-06 MaxDP=3.53D-04 DE=-2.39D-05 OVMax= 2.47D-03

 Cycle  12  Pass 1  IDiag  1:
 E= -697.532382365718     Delta-E=        0.000005686516 Rises=F Damp=F
 DIIS: error= 2.81D-04 at cycle   2 NSaved=   2.
 NSaved= 2 IEnMin= 1 EnMin= -697.532388052234     IErMin= 1 ErrMin= 1.30D-04
 ErrMax= 2.81D-04  0.00D+00 EMaxC= 1.00D-01 BMatC= 7.05D-06 BMatP= 1.45D-06
 IDIUse=3 WtCom= 3.73D-01 WtEn= 6.27D-01
 Coeff-Com:  0.694D+00 0.306D+00
 Coeff-En:   0.763D+00 0.237D+00
 Coeff:      0.737D+00 0.263D+00
 Gap=     0.165 Goal=   None    Shift=    0.000
 RMSDP=1.07D-05 MaxDP=5.36D-04 DE= 5.69D-06 OVMax= 1.34D-03

 Cycle  13  Pass 1  IDiag  1:
 E= -697.532389568281     Delta-E=       -0.000007202563 Rises=F Damp=F
 DIIS: error= 3.03D-05 at cycle   3 NSaved=   3.
 NSaved= 3 IEnMin= 3 EnMin= -697.532389568281     IErMin= 3 ErrMin= 3.03D-05
 ErrMax= 3.03D-05  0.00D+00 EMaxC= 1.00D-01 BMatC= 2.40D-07 BMatP= 1.45D-06
 IDIUse=1 WtCom= 1.00D+00 WtEn= 0.00D+00
 Coeff-Com:  0.408D+00 0.113D+00 0.479D+00
 Coeff:      0.408D+00 0.113D+00 0.479D+00
 Gap=     0.165 Goal=   None    Shift=    0.000
 RMSDP=2.36D-06 MaxDP=1.12D-04 DE=-7.20D-06 OVMax= 2.06D-04

 Cycle  14  Pass 1  IDiag  1:
 E= -697.532389777058     Delta-E=       -0.000000208777 Rises=F Damp=F
 DIIS: error= 1.35D-05 at cycle   4 NSaved=   4.
 NSaved= 4 IEnMin= 4 EnMin= -697.532389777058     IErMin= 4 ErrMin= 1.35D-05
 ErrMax= 1.35D-05  0.00D+00 EMaxC= 1.00D-01 BMatC= 2.94D-08 BMatP= 2.40D-07
 IDIUse=1 WtCom= 1.00D+00 WtEn= 0.00D+00
 Coeff-Com:  0.725D-01-0.269D-01 0.332D+00 0.622D+00
 Coeff:      0.725D-01-0.269D-01 0.332D+00 0.622D+00
 Gap=     0.165 Goal=   None    Shift=    0.000
 RMSDP=6.82D-07 MaxDP=4.58D-05 DE=-2.09D-07 OVMax= 6.33D-05

 Cycle  15  Pass 1  IDiag  1:
 E= -697.532389797438     Delta-E=       -0.000000020380 Rises=F Damp=F
 DIIS: error= 5.20D-06 at cycle   5 NSaved=   5.
 NSaved= 5 IEnMin= 5 EnMin= -697.532389797438     IErMin= 5 ErrMin= 5.20D-06
 ErrMax= 5.20D-06  0.00D+00 EMaxC= 1.00D-01 BMatC= 4.41D-09 BMatP= 2.94D-08
 IDIUse=1 WtCom= 1.00D+00 WtEn= 0.00D+00
 Coeff-Com:  0.197D-02-0.313D-01 0.166D+00 0.410D+00 0.453D+00
 Coeff:      0.197D-02-0.313D-01 0.166D+00 0.410D+00 0.453D+00
 Gap=     0.165 Goal=   None    Shift=    0.000
 RMSDP=3.71D-07 MaxDP=1.50D-05 DE=-2.04D-08 OVMax= 2.03D-05

 Cycle  16  Pass 1  IDiag  1:
 E= -697.532389801071     Delta-E=       -0.000000003633 Rises=F Damp=F
 DIIS: error= 1.73D-06 at cycle   6 NSaved=   6.
 NSaved= 6 IEnMin= 6 EnMin= -697.532389801071     IErMin= 6 ErrMin= 1.73D-06
 ErrMax= 1.73D-06  0.00D+00 EMaxC= 1.00D-01 BMatC= 3.30D-10 BMatP= 4.41D-09
 IDIUse=1 WtCom= 1.00D+00 WtEn= 0.00D+00
 Coeff-Com: -0.301D-02-0.146D-01 0.694D-01 0.183D+00 0.277D+00 0.489D+00
 Coeff:     -0.301D-02-0.146D-01 0.694D-01 0.183D+00 0.277D+00 0.489D+00
 Gap=     0.165 Goal=   None    Shift=    0.000
 RMSDP=9.28D-08 MaxDP=3.65D-06 DE=-3.63D-09 OVMax= 6.47D-06

 Cycle  17  Pass 1  IDiag  1:
 E= -697.532389801347     Delta-E=       -0.000000000276 Rises=F Damp=F
 DIIS: error= 3.31D-07 at cycle   7 NSaved=   7.
 NSaved= 7 IEnMin= 7 EnMin= -697.532389801347     IErMin= 7 ErrMin= 3.31D-07
 ErrMax= 3.31D-07  0.00D+00 EMaxC= 1.00D-01 BMatC= 2.96D-11 BMatP= 3.30D-10
 IDIUse=1 WtCom= 1.00D+00 WtEn= 0.00D+00
 Coeff-Com: -0.263D-02-0.531D-02 0.227D-01 0.648D-01 0.115D+00 0.278D+00
 Coeff-Com:  0.527D+00
 Coeff:     -0.263D-02-0.531D-02 0.227D-01 0.648D-01 0.115D+00 0.278D+00
 Coeff:      0.527D+00
 Gap=     0.165 Goal=   None    Shift=    0.000
 RMSDP=3.03D-08 MaxDP=1.02D-06 DE=-2.76D-10 OVMax= 2.57D-06

 Cycle  18  Pass 1  IDiag  1:
 E= -697.532389801365     Delta-E=       -0.000000000018 Rises=F Damp=F
 DIIS: error= 2.78D-07 at cycle   8 NSaved=   8.
 NSaved= 8 IEnMin= 8 EnMin= -697.532389801365     IErMin= 8 ErrMin= 2.78D-07
 ErrMax= 2.78D-07  0.00D+00 EMaxC= 1.00D-01 BMatC= 5.67D-12 BMatP= 2.96D-11
 IDIUse=1 WtCom= 1.00D+00 WtEn= 0.00D+00
 Coeff-Com: -0.123D-02-0.168D-02 0.672D-02 0.214D-01 0.424D-01 0.125D+00
 Coeff-Com:  0.345D+00 0.463D+00
 Coeff:     -0.123D-02-0.168D-02 0.672D-02 0.214D-01 0.424D-01 0.125D+00
 Coeff:      0.345D+00 0.463D+00
 Gap=     0.165 Goal=   None    Shift=    0.000
 RMSDP=1.20D-08 MaxDP=7.19D-07 DE=-1.77D-11 OVMax= 1.42D-06

 Cycle  19  Pass 1  IDiag  1:
 E= -697.532389801378     Delta-E=       -0.000000000013 Rises=F Damp=F
 DIIS: error= 1.83D-07 at cycle   9 NSaved=   9.
 NSaved= 9 IEnMin= 9 EnMin= -697.532389801378     IErMin= 9 ErrMin= 1.83D-07
 ErrMax= 1.83D-07  0.00D+00 EMaxC= 1.00D-01 BMatC= 1.59D-12 BMatP= 5.67D-12
 IDIUse=1 WtCom= 1.00D+00 WtEn= 0.00D+00
 Coeff-Com: -0.466D-03-0.370D-03 0.123D-02 0.530D-02 0.124D-01 0.499D-01
 Coeff-Com:  0.175D+00 0.361D+00 0.397D+00
 Coeff:     -0.466D-03-0.370D-03 0.123D-02 0.530D-02 0.124D-01 0.499D-01
 Coeff:      0.175D+00 0.361D+00 0.397D+00
 Gap=     0.165 Goal=   None    Shift=    0.000
 RMSDP=5.33D-09 MaxDP=3.09D-07 DE=-1.32D-11 OVMax= 6.70D-07

 SCF Done:  E(RB3LYP) =  -697.532389801     A.U. after   19 cycles
            NFock= 19  Conv=0.53D-08     -V/T= 2.0063
 KE= 6.931492603448D+02 PE=-3.232106831668D+03 EE= 1.039300621361D+03
 Leave Link  502 at Fri Aug 20 15:37:51 2021, MaxMem= 24159191040 cpu:       132.2
 (Enter /public/home/users/caep010/software/Gaussian09/g09/l601.exe)
 Copying SCF densities to generalized density rwf, IOpCl= 0 IROHF=0.

 **********************************************************************

            Population analysis using the SCF density.

 **********************************************************************

 Orbital symmetries:
       Occupied  (A) (A) (A) (A) (A) (A) (A) (A) (A) (A) (A) (A)
                 (A) (A) (A) (A) (A) (A) (A) (A) (A) (A) (A) (A)
                 (A) (A) (A) (A) (A) (A) (A) (A) (A) (A) (A) (A)
                 (A) (A) (A) (A) (A) (A) (A) (A) (A) (A) (A) (A)
                 (A)
       Virtual   (A) (A) (A) (A) (A) (A) (A) (A) (A) (A) (A) (A)
                 (A) (A) (A) (A) (A) (A) (A) (A) (A) (A) (A) (A)
                 (A) (A) (A) (A) (A) (A) (A) (A) (A) (A) (A) (A)
                 (A) (A) (A) (A) (A) (A) (A) (A) (A) (A) (A) (A)
                 (A) (A) (A) (A) (A) (A) (A) (A) (A) (A) (A) (A)
                 (A) (A) (A) (A) (A) (A) (A) (A) (A) (A) (A) (A)
                 (A) (A) (A) (A) (A) (A) (A) (A) (A) (A) (A) (A)
                 (A) (A) (A) (A) (A) (A) (A) (A) (A) (A) (A) (A)
                 (A) (A) (A) (A) (A) (A) (A) (A) (A) (A) (A) (A)
                 (A) (A) (A) (A) (A) (A) (A) (A) (A) (A) (A) (A)
                 (A) (A) (A) (A) (A) (A) (A) (A) (A) (A) (A) (A)
                 (A) (A) (A) (A) (A) (A) (A) (A) (A) (A) (A) (A)
                 (A) (A) (A) (A) (A) (A) (A) (A) (A) (A) (A) (A)
                 (A) (A) (A) (A) (A) (A) (A) (A) (A) (A) (A) (A)
                 (A) (A) (A) (A) (A) (A) (A) (A) (A) (A) (A) (A)
                 (A) (A) (A) (A) (A) (A)
 The electronic state is 1-A.
 Alpha  occ. eigenvalues --  -19.18261 -19.18223 -19.13456 -14.57515 -14.52476
 Alpha  occ. eigenvalues --  -14.46303 -10.28982 -10.25921 -10.24264 -10.22791
 Alpha  occ. eigenvalues --  -10.21618 -10.21551 -10.21092 -10.20991  -1.23553
 Alpha  occ. eigenvalues --   -1.17326  -1.05742  -1.04390  -0.91223  -0.89172
 Alpha  occ. eigenvalues --   -0.83172  -0.80581  -0.72900  -0.70548  -0.64759
 Alpha  occ. eigenvalues --   -0.62245  -0.59632  -0.58243  -0.54713  -0.53996
 Alpha  occ. eigenvalues --   -0.53240  -0.52191  -0.51481  -0.49186  -0.49055
 Alpha  occ. eigenvalues --   -0.48360  -0.46812  -0.43240  -0.42753  -0.41521
 Alpha  occ. eigenvalues --   -0.39782  -0.38707  -0.31284  -0.31249  -0.29692
 Alpha  occ. eigenvalues --   -0.29243  -0.28622  -0.26669  -0.25910
 Alpha virt. eigenvalues --   -0.09424  -0.07881  -0.07573  -0.02015  -0.00767
 Alpha virt. eigenvalues --    0.07310   0.10098   0.12956   0.15582   0.15954
 Alpha virt. eigenvalues --    0.17499   0.19001   0.21094   0.23120   0.25001
 Alpha virt. eigenvalues --    0.26841   0.27533   0.28599   0.29264   0.31285
 Alpha virt. eigenvalues --    0.36095   0.38128   0.40658   0.43142   0.45799
 Alpha virt. eigenvalues --    0.47475   0.48221   0.48596   0.50444   0.51521
 Alpha virt. eigenvalues --    0.53384   0.55077   0.56283   0.56442   0.56951
 Alpha virt. eigenvalues --    0.57921   0.59559   0.61061   0.61546   0.62184
 Alpha virt. eigenvalues --    0.66751   0.67038   0.67812   0.67968   0.70334
 Alpha virt. eigenvalues --    0.71133   0.74677   0.75595   0.76649   0.76984
 Alpha virt. eigenvalues --    0.80275   0.80795   0.82816   0.84446   0.84991
 Alpha virt. eigenvalues --    0.87665   0.88800   0.89967   0.93087   0.94252
 Alpha virt. eigenvalues --    0.94757   0.95675   0.97533   0.99443   0.99503
 Alpha virt. eigenvalues --    1.00571   1.02598   1.04481   1.05055   1.06276
 Alpha virt. eigenvalues --    1.10411   1.11316   1.16504   1.17335   1.18751
 Alpha virt. eigenvalues --    1.20434   1.23174   1.26705   1.27724   1.30842
 Alpha virt. eigenvalues --    1.31441   1.33800   1.35030   1.35950   1.37404
 Alpha virt. eigenvalues --    1.38092   1.38978   1.40843   1.41640   1.43262
 Alpha virt. eigenvalues --    1.44275   1.45595   1.48936   1.53369   1.55165
 Alpha virt. eigenvalues --    1.67789   1.68248   1.68905   1.70990   1.73521
 Alpha virt. eigenvalues --    1.73743   1.77140   1.78485   1.80898   1.81207
 Alpha virt. eigenvalues --    1.81756   1.84130   1.86351   1.87891   1.89800
 Alpha virt. eigenvalues --    1.91554   1.92719   1.94153   1.94570   1.95848
 Alpha virt. eigenvalues --    1.96662   1.97930   2.02127   2.02771   2.04710
 Alpha virt. eigenvalues --    2.05993   2.08091   2.10600   2.11674   2.14316
 Alpha virt. eigenvalues --    2.17402   2.18732   2.22773   2.26866   2.29913
 Alpha virt. eigenvalues --    2.32570   2.37155   2.40358   2.45317   2.46208
 Alpha virt. eigenvalues --    2.46852   2.48147   2.50913   2.51709   2.54445
 Alpha virt. eigenvalues --    2.55355   2.57378   2.59129   2.61227   2.64929
 Alpha virt. eigenvalues --    2.67089   2.69240   2.71043   2.73000   2.73499
 Alpha virt. eigenvalues --    2.76423   2.82739   2.87213   2.87775   2.89708
 Alpha virt. eigenvalues --    2.90495   2.92785   2.93940   3.00246   3.03565
 Alpha virt. eigenvalues --    3.11517   3.15374   3.19774   3.25619   3.28917
 Alpha virt. eigenvalues --    3.35789   3.52221   3.61329   3.70552   3.74625
 Alpha virt. eigenvalues --    3.82879   3.87301   3.92185   3.94510   3.97168
 Alpha virt. eigenvalues --    4.02870   4.09875   4.12717   4.13525   4.16185
 Alpha virt. eigenvalues --    4.20359   4.38859   4.42459   4.55013   4.64354
 Alpha virt. eigenvalues --    4.90535
          Condensed to atoms (all electrons):
               1          2          3          4          5          6
     1  O    8.095124   0.602837  -0.097267  -0.000882   0.020235   0.004104
     2  C    0.602837   4.552404   0.264707  -0.032476  -0.013505  -0.045860
     3  C   -0.097267   0.264707   5.172401   0.417181  -0.051818   0.499843
     4  C   -0.000882  -0.032476   0.417181   5.082427   0.371385  -0.080130
     5  H    0.020235  -0.013505  -0.051818   0.371385   0.586139   0.009099
     6  C    0.004104  -0.045860   0.499843  -0.080130   0.009099   4.885938
     7  H   -0.000056  -0.018004  -0.051061   0.009591  -0.000206   0.375672
     8  C    0.001456   0.009574  -0.001339   0.404388  -0.044824  -0.050582
     9  N   -0.000004  -0.000158   0.004503  -0.039392  -0.015464   0.000474
    10  O   -0.000000  -0.000000  -0.000038   0.007888   0.000318  -0.000013
    11  C   -0.000002   0.000696  -0.046798  -0.086390   0.008990  -0.029455
    12  H   -0.000000   0.000018   0.000172   0.009188  -0.000214   0.007142
    13  C   -0.000061   0.005994   0.000737  -0.053092  -0.000839   0.515562
    14  H    0.000001  -0.000236   0.005877   0.001628   0.000039  -0.045384
    15  O    0.000001  -0.000022   0.001305  -0.003024   0.022024   0.000007
    16  C   -0.114984   0.299730  -0.122707   0.013622   0.001489  -0.007024
    17  H    0.003951  -0.009959  -0.012466  -0.000430  -0.000060   0.004447
    18  N   -0.004926  -0.006788   0.002074  -0.000125  -0.000002   0.000319
    19  N    0.000784  -0.001034  -0.000189  -0.000000  -0.000000   0.000005
               7          8          9         10         11         12
     1  O   -0.000056   0.001456  -0.000004  -0.000000  -0.000002  -0.000000
     2  C   -0.018004   0.009574  -0.000158  -0.000000   0.000696   0.000018
     3  C   -0.051061  -0.001339   0.004503  -0.000038  -0.046798   0.000172
     4  C    0.009591   0.404388  -0.039392   0.007888  -0.086390   0.009188
     5  H   -0.000206  -0.044824  -0.015464   0.000318   0.008990  -0.000214
     6  C    0.375672  -0.050582   0.000474  -0.000013  -0.029455   0.007142
     7  H    0.678646   0.000258   0.000009  -0.000000   0.007934  -0.000305
     8  C    0.000258   5.046692   0.150827  -0.096871   0.482570  -0.040608
     9  N    0.000009   0.150827   5.978707   0.296621  -0.046012  -0.016528
    10  O   -0.000000  -0.096871   0.296621   8.277424  -0.002062   0.022312
    11  C    0.007934   0.482570  -0.046012  -0.002062   4.900932   0.374184
    12  H   -0.000305  -0.040608  -0.016528   0.022312   0.374184   0.607982
    13  C   -0.055021   0.000965   0.004414   0.001090   0.492165  -0.047624
    14  H   -0.010108   0.005434  -0.000146   0.000001  -0.047392  -0.008733
    15  O    0.000000  -0.090860   0.296116  -0.111330   0.007640   0.000264
    16  C    0.005278  -0.000102   0.000000  -0.000000   0.000015   0.000000
    17  H   -0.001608   0.000019   0.000000  -0.000000  -0.000020  -0.000000
    18  N    0.000024   0.000001  -0.000000   0.000000   0.000000  -0.000000
    19  N   -0.000004   0.000000  -0.000000   0.000000  -0.000000  -0.000000
              13         14         15         16         17         18
     1  O   -0.000061   0.000001   0.000001  -0.114984   0.003951  -0.004926
     2  C    0.005994  -0.000236  -0.000022   0.299730  -0.009959  -0.006788
     3  C    0.000737   0.005877   0.001305  -0.122707  -0.012466   0.002074
     4  C   -0.053092   0.001628  -0.003024   0.013622  -0.000430  -0.000125
     5  H   -0.000839   0.000039   0.022024   0.001489  -0.000060  -0.000002
     6  C    0.515562  -0.045384   0.000007  -0.007024   0.004447   0.000319
     7  H   -0.055021  -0.010108   0.000000   0.005278  -0.001608   0.000024
     8  C    0.000965   0.005434  -0.090860  -0.000102   0.000019   0.000001
     9  N    0.004414  -0.000146   0.296116   0.000000   0.000000  -0.000000
    10  O    0.001090   0.000001  -0.111330  -0.000000  -0.000000   0.000000
    11  C    0.492165  -0.047392   0.007640   0.000015  -0.000020   0.000000
    12  H   -0.047624  -0.008733   0.000264   0.000000  -0.000000  -0.000000
    13  C    4.813241   0.384192  -0.000049  -0.000771   0.000422  -0.000007
    14  H    0.384192   0.642796   0.000001   0.000038   0.000009   0.000000
    15  O   -0.000049   0.000001   8.270803  -0.000000  -0.000000   0.000000
    16  C   -0.000771   0.000038  -0.000000   5.361174   0.368609   0.329194
    17  H    0.000422   0.000009  -0.000000   0.368609   0.558020  -0.026747
    18  N   -0.000007   0.000000   0.000000   0.329194  -0.026747   5.948818
    19  N   -0.000000   0.000000   0.000000  -0.109696   0.004000   0.577371
              19
     1  O    0.000784
     2  C   -0.001034
     3  C   -0.000189
     4  C   -0.000000
     5  H   -0.000000
     6  C    0.000005
     7  H   -0.000004
     8  C    0.000000
     9  N   -0.000000
    10  O    0.000000
    11  C   -0.000000
    12  H   -0.000000
    13  C   -0.000000
    14  H    0.000000
    15  O    0.000000
    16  C   -0.109696
    17  H    0.004000
    18  N    0.577371
    19  N    6.702060
 Mulliken charges:
               1
     1  O   -0.510311
     2  C    0.392083
     3  C    0.014882
     4  C   -0.021357
     5  H    0.107214
     6  C   -0.044164
     7  H    0.058962
     8  C    0.223003
     9  N    0.386033
    10  O   -0.395339
    11  C   -0.016993
    12  H    0.092751
    13  C   -0.061318
    14  H    0.071984
    15  O   -0.392877
    16  C   -0.023865
    17  H    0.111813
    18  N    0.180795
    19  N   -0.173297
 Sum of Mulliken charges =  -0.00000
 Mulliken charges with hydrogens summed into heavy atoms:
               1
     1  O   -0.510311
     2  C    0.392083
     3  C    0.014882
     4  C    0.085858
     6  C    0.014798
     8  C    0.223003
     9  N    0.386033
    10  O   -0.395339
    11  C    0.075758
    13  C    0.010665
    15  O   -0.392877
    16  C    0.087948
    18  N    0.180795
    19  N   -0.173297
 Electronic spatial extent (au):  <R**2>=           3379.1500
 Charge=             -0.0000 electrons
 Dipole moment (field-independent basis, Debye):
    X=             -3.4005    Y=              6.1038    Z=             -0.1350  Tot=              6.9884
 Quadrupole moment (field-independent basis, Debye-Ang):
   XX=            -86.7050   YY=            -76.9072   ZZ=            -76.2284
   XY=             -1.2621   XZ=              0.5761   YZ=              0.1958
 Traceless Quadrupole moment (field-independent basis, Debye-Ang):
   XX=             -6.7581   YY=              3.0397   ZZ=              3.7184
   XY=             -1.2621   XZ=              0.5761   YZ=              0.1958
 Octapole moment (field-independent basis, Debye-Ang**2):
  XXX=            -65.2804  YYY=             21.1789  ZZZ=             -0.1880  XYY=              2.3027
  XXY=             45.7866  XXZ=             -0.5116  XZZ=              6.2302  YZZ=             -8.8631
  YYZ=             -0.4548  XYZ=             -0.1659
 Hexadecapole moment (field-independent basis, Debye-Ang**3):
 XXXX=          -3756.8038 YYYY=           -702.9700 ZZZZ=            -69.5236 XXXY=            -46.3583
 XXXZ=              7.4989 YYYX=             10.5270 YYYZ=              0.7047 ZZZX=             -1.3544
 ZZZY=             -0.3944 XXYY=           -712.5513 XXZZ=           -565.5392 YYZZ=           -136.6534
 XXYZ=             -1.6182 YYXZ=              0.6282 ZZXY=             -7.6430
 N-N= 8.021245601607D+02 E-N=-3.232106832010D+03  KE= 6.931492603448D+02
 No NMR shielding tensors so no spin-rotation constants.
 Leave Link  601 at Fri Aug 20 15:37:51 2021, MaxMem= 24159191040 cpu:        11.5
 (Enter /public/home/users/caep010/software/Gaussian09/g09/l701.exe)
 Compute integral first derivatives.
 ... and contract with generalized density number  0.
 Leave Link  701 at Fri Aug 20 15:37:51 2021, MaxMem= 24159191040 cpu:        11.1
 (Enter /public/home/users/caep010/software/Gaussian09/g09/l702.exe)
 L702 exits ... SP integral derivatives will be done elsewhere.
 Leave Link  702 at Fri Aug 20 15:37:52 2021, MaxMem= 24159191040 cpu:         0.5
 (Enter /public/home/users/caep010/software/Gaussian09/g09/l703.exe)
 Compute integral first derivatives, UseDBF=F ICtDFT=           0.
 Integral derivatives from FoFJK, PRISM(SPDF).
 Calling FoFJK, ICntrl=      2127 FMM=F ISym2X=0 I1Cent= 0 IOpClX= 0 NMat=1 NMatS=1 NMatT=0.
 FoFJK:  IHMeth= 1 ICntrl=    2127 DoSepK=F KAlg= 0 I1Cent=   0 FoldK=F
 IRaf=         0 NMat=   1 IRICut=       1 DoRegI=T DoRafI=F ISym2E= 0.
 FoFCou: FMM=F IPFlag=           0 FMFlag=      100000 FMFlg1=         800
         NFxFlg=           0 DoJE=F BraDBF=F KetDBF=F FulRan=T
         wScrn=  0.000000 ICntrl=    2127 IOpCl=  0 I1Cent=           0 NGrid=           0
         NMat0=    1 NMatS0=      1 NMatT0=    0 NMatD0=    1 NMtDS0=    0 NMtDT0=    0
 Symmetry not used in FoFCou.
 Leave Link  703 at Fri Aug 20 15:37:52 2021, MaxMem= 24159191040 cpu:        25.5
 (Enter /public/home/users/caep010/software/Gaussian09/g09/l716.exe)
 Dipole        =-1.33784229D+00 2.40140414D+00-5.31263549D-02
 ***** Axes restored to original set *****
 -------------------------------------------------------------------
 Center     Atomic                   Forces (Hartrees/Bohr)
 Number     Number              X              Y              Z
 -------------------------------------------------------------------
      1        8           0.000128216    0.001322761    0.010457271
      2        6          -0.002061185    0.007513262    0.016148171
      3        6           0.001096521   -0.003777781   -0.001228122
      4        6          -0.008229005    0.042307242   -0.145818405
      5        1           0.009248229   -0.050336868    0.160659445
      6        6           0.002380547    0.096625122    0.120914812
      7        1          -0.001878091   -0.111632517   -0.127286735
      8        6           0.001014282    0.001454378    0.004497718
      9        7          -0.002162167    0.001327573    0.005990201
     10        8          -0.000188219    0.016151178   -0.010109728
     11        6           0.006286019   -0.149810419    0.031211757
     12        1          -0.007592506    0.165455677   -0.032900644
     13        6           0.010071555   -0.043001322    0.147014078
     14        1          -0.011125160    0.051381054   -0.162072679
     15        8           0.001491794   -0.010775737    0.006019851
     16        6           0.001776540   -0.044845993    0.148181691
     17        1           0.000116688    0.028379274   -0.162491613
     18        7          -0.004797708    0.055757521   -0.030612901
     19        7           0.004423651   -0.053494405    0.021425833
 -------------------------------------------------------------------
 Cartesian Forces:  Max     0.165455677 RMS     0.068616919
 Leave Link  716 at Fri Aug 20 15:37:53 2021, MaxMem= 24159191040 cpu:         0.7
 (Enter /public/home/users/caep010/software/Gaussian09/g09/l103.exe)

 GradGradGradGradGradGradGradGradGradGradGradGradGradGradGradGradGradGrad
 Berny optimization.
 FormGI is forming the generalized inverse of G from B-inverse, IUseBI=4.
 Internal  Forces:  Max     0.170383927 RMS     0.041998897
 Search for a local minimum.
 Step number   1 out of a maximum of   94
 All quantities printed in internal units (Hartrees-Bohrs-Radians)
 RMS Force = .41999D-01 SwitMx=.10000D-02 MixMth= 1
 Mixed Optimization -- RFO/linear search
 Second derivative matrix not updated -- first step.
 ITU=  0
     Eigenvalues ---    0.00820   0.00866   0.00868   0.01287   0.01746
     Eigenvalues ---    0.01746   0.01788   0.01933   0.02232   0.02282
     Eigenvalues ---    0.02323   0.02336   0.02345   0.02357   0.02372
     Eigenvalues ---    0.05131   0.05131   0.16000   0.16000   0.16000
     Eigenvalues ---    0.16000   0.16000   0.21999   0.22000   0.23481
     Eigenvalues ---    0.23507   0.24998   0.25000   0.25000   0.25000
     Eigenvalues ---    0.25000   0.25000   0.32812   0.36665   0.41578
     Eigenvalues ---    0.43522   0.44156   0.47725   0.48242   0.49058
     Eigenvalues ---    0.49737   0.62071   0.62313   0.62389   0.62423
     Eigenvalues ---    0.62426   0.62475   0.92459   0.93485   0.95178
     Eigenvalues ---    1.67020
 RFO step:  Lambda=-1.82728013D-01 EMin= 8.20280558D-03
 Linear search not attempted -- first point.
 Maximum step size (   0.300) exceeded in Quadratic search.
    -- Step size scaled by   0.628
 Iteration  1 RMS(Cart)=  0.03630509 RMS(Int)=  0.00022788
 Iteration  2 RMS(Cart)=  0.00029245 RMS(Int)=  0.00000130
 Iteration  3 RMS(Cart)=  0.00000020 RMS(Int)=  0.00000128
 ITry= 1 IFail=0 DXMaxC= 1.52D-01 DCOld= 1.00D+10 DXMaxT= 3.00D-01 DXLimC= 3.00D+00 Rises=F
 Variable       Old X    -DE/DX   Delta X   Delta X   Delta X     New X
                                 (Linear)    (Quad)   (Total)
    R1        2.31820   0.00970   0.00000   0.00550   0.00550   2.32370
    R2        2.82683   0.00594   0.00000   0.00729   0.00729   2.83412
    R3        2.69464   0.02696   0.00000   0.02827   0.02827   2.72291
    R4        2.62341   0.01142   0.00000   0.01076   0.01076   2.63416
    R5        2.63142   0.01223   0.00000   0.01176   0.01176   2.64318
    R6        1.75855   0.16861   0.00000   0.13129   0.13129   1.88985
    R7        2.59916   0.01485   0.00000   0.01357   0.01356   2.61273
    R8        1.75773   0.16930   0.00000   0.13165   0.13165   1.88938
    R9        2.60433   0.01890   0.00000   0.01761   0.01761   2.62194
   R10        2.76354   0.00588   0.00000   0.00672   0.00672   2.77026
   R11        2.60956   0.01264   0.00000   0.01182   0.01182   2.62138
   R12        2.30634   0.01812   0.00000   0.01002   0.01002   2.31636
   R13        2.31367   0.00927   0.00000   0.00520   0.00520   2.31888
   R14        1.75771   0.16885   0.00000   0.13130   0.13130   1.88901
   R15        2.61091   0.01366   0.00000   0.01289   0.01289   2.62380
   R16        1.75734   0.17038   0.00000   0.13241   0.13241   1.88975
   R17        1.75799   0.16433   0.00000   0.12784   0.12784   1.88582
   R18        2.49338  -0.00496   0.00000  -0.00387  -0.00387   2.48951
   R19        2.09757   0.05779   0.00000   0.01957   0.01957   2.11715
    A1        2.10670  -0.00351   0.00000  -0.00509  -0.00509   2.10160
    A2        2.12155   0.00600   0.00000   0.00870   0.00870   2.13025
    A3        2.05493  -0.00249   0.00000  -0.00361  -0.00361   2.05132
    A4        2.04791  -0.00349   0.00000  -0.00499  -0.00499   2.04293
    A5        2.15189   0.00203   0.00000   0.00302   0.00302   2.15491
    A6        2.08331   0.00146   0.00000   0.00198   0.00198   2.08529
    A7        2.10477  -0.00041   0.00000  -0.00079  -0.00079   2.10398
    A8        2.07349  -0.00133   0.00000  -0.00236  -0.00237   2.07113
    A9        2.10493   0.00174   0.00000   0.00315   0.00315   2.10808
   A10        2.09007   0.00218   0.00000   0.00385   0.00385   2.09392
   A11        2.10373  -0.00031   0.00000  -0.00029  -0.00029   2.10344
   A12        2.08939  -0.00187   0.00000  -0.00356  -0.00356   2.08583
   A13        2.06401   0.00134   0.00000   0.00198   0.00198   2.06599
   A14        2.13960   0.00209   0.00000   0.00297   0.00297   2.14257
   A15        2.07957  -0.00343   0.00000  -0.00495  -0.00495   2.07462
   A16        2.05248  -0.00258   0.00000  -0.00373  -0.00374   2.04875
   A17        2.07751  -0.00822   0.00000  -0.01190  -0.01191   2.06560
   A18        2.15308   0.01083   0.00000   0.01572   0.01571   2.16879
   A19        2.11052  -0.00125   0.00000  -0.00253  -0.00253   2.10799
   A20        2.06152  -0.00074   0.00000  -0.00088  -0.00088   2.06064
   A21        2.11114   0.00199   0.00000   0.00341   0.00341   2.11455
   A22        2.10454  -0.00116   0.00000  -0.00140  -0.00140   2.10315
   A23        2.08917   0.00119   0.00000   0.00182   0.00182   2.09099
   A24        2.08947  -0.00003   0.00000  -0.00042  -0.00043   2.08904
   A25        2.13808   0.01044   0.00000   0.01971   0.01971   2.15779
   A26        2.00797   0.00435   0.00000   0.00678   0.00678   2.01476
   A27        2.13713  -0.01479   0.00000  -0.02649  -0.02649   2.11064
   A28        3.07675  -0.00096   0.00000  -0.00258  -0.00258   3.07417
   A29        3.13675   0.00071   0.00000   0.00189   0.00189   3.13864
    D1        0.07005  -0.00028   0.00000  -0.00087  -0.00087   0.06919
    D2       -3.08485   0.00004   0.00000   0.00010   0.00010  -3.08475
    D3       -3.06842  -0.00010   0.00000  -0.00028  -0.00028  -3.06870
    D4        0.05985   0.00022   0.00000   0.00069   0.00069   0.06054
    D5       -3.13783   0.00040   0.00000   0.00126   0.00126  -3.13657
    D6        0.00359   0.00008   0.00000   0.00026   0.00026   0.00385
    D7        0.00062   0.00020   0.00000   0.00063   0.00063   0.00125
    D8       -3.14115  -0.00012   0.00000  -0.00036  -0.00036  -3.14151
    D9       -0.02719   0.00052   0.00000   0.00157   0.00157  -0.02562
   D10        3.11387   0.00058   0.00000   0.00175   0.00175   3.11562
   D11        3.12718   0.00020   0.00000   0.00062   0.00063   3.12780
   D12       -0.01495   0.00027   0.00000   0.00081   0.00081  -0.01414
   D13        0.02678  -0.00031   0.00000  -0.00101  -0.00101   0.02576
   D14       -3.11538  -0.00052   0.00000  -0.00165  -0.00165  -3.11703
   D15       -3.12839  -0.00002   0.00000  -0.00007  -0.00007  -3.12846
   D16        0.01264  -0.00023   0.00000  -0.00071  -0.00071   0.01193
   D17       -3.13489  -0.00012   0.00000  -0.00039  -0.00039  -3.13528
   D18        0.00192  -0.00003   0.00000  -0.00007  -0.00007   0.00185
   D19        0.00617  -0.00006   0.00000  -0.00020  -0.00021   0.00596
   D20       -3.14021   0.00003   0.00000   0.00011   0.00011  -3.14010
   D21        0.00305  -0.00004   0.00000  -0.00014  -0.00014   0.00291
   D22       -3.13813   0.00002   0.00000   0.00004   0.00004  -3.13808
   D23       -3.13911  -0.00025   0.00000  -0.00077  -0.00077  -3.13988
   D24        0.00290  -0.00019   0.00000  -0.00059  -0.00059   0.00231
   D25        3.13885  -0.00083   0.00000  -0.00274  -0.00274   3.13611
   D26       -0.01885   0.00094   0.00000   0.00307   0.00307  -0.01578
   D27        0.00187  -0.00094   0.00000  -0.00307  -0.00307  -0.00120
   D28        3.12736   0.00083   0.00000   0.00275   0.00275   3.13010
   D29       -3.12866  -0.00021   0.00000  -0.00066  -0.00066  -3.12931
   D30        0.01348  -0.00025   0.00000  -0.00078  -0.00078   0.01270
   D31        0.00811  -0.00010   0.00000  -0.00032  -0.00032   0.00779
   D32       -3.13294  -0.00015   0.00000  -0.00044  -0.00044  -3.13338
   D33       -0.01581   0.00030   0.00000   0.00090   0.00090  -0.01491
   D34        3.12536   0.00024   0.00000   0.00072   0.00072   3.12608
   D35        3.12632   0.00026   0.00000   0.00078   0.00078   3.12710
   D36       -0.01568   0.00020   0.00000   0.00060   0.00059  -0.01509
         Item               Value     Threshold  Converged?
 Maximum Force            0.170384     0.000450     NO 
 RMS     Force            0.041999     0.000300     NO 
 Maximum Displacement     0.151897     0.001800     NO 
 RMS     Displacement     0.036343     0.001200     NO 
 Predicted change in Energy=-8.691512D-02
 Lowest energy point so far.  Saving SCF results.
 GradGradGradGradGradGradGradGradGradGradGradGradGradGradGradGradGradGrad

 Leave Link  103 at Fri Aug 20 15:37:53 2021, MaxMem= 24159191040 cpu:         6.6
 (Enter /public/home/users/caep010/software/Gaussian09/g09/l202.exe)
                          Input orientation:                          
 ---------------------------------------------------------------------
 Center     Atomic      Atomic             Coordinates (Angstroms)
 Number     Number       Type             X           Y           Z
 ---------------------------------------------------------------------
      1          8           0        1.697674   -0.031138    7.173543
      2          6           0        1.681987    0.291916    5.987194
      3          6           0        1.564064    1.734579    5.594676
      4          6           0        1.560889    2.673633    6.624837
      5          1           0        1.612761    2.380866    7.579681
      6          6           0        1.473905    2.168074    4.267895
      7          1           0        1.464187    1.500335    3.523808
      8          6           0        1.485108    4.015187    6.299165
      9          7           0        1.490358    4.997572    7.387252
     10          8           0        1.428429    6.182011    7.077777
     11          6           0        1.409884    4.466639    4.989669
     12          1           0        1.366662    5.444635    4.787445
     13          6           0        1.396032    3.521524    3.972627
     14          1           0        1.328879    3.819472    3.020398
     15          8           0        1.544796    4.587312    8.542454
     16          6           0        1.779148   -0.680610    4.928445
     17          1           0        1.772987   -0.444570    3.958846
     18          7           0        1.880879   -1.934509    5.319480
     19          7           0        1.961471   -2.976431    5.723309
 ---------------------------------------------------------------------
                    Distance matrix (angstroms):
                    1          2          3          4          5
     1  O    0.000000
     2  C    1.229648   0.000000
     3  C    2.372431   1.499751   0.000000
     4  C    2.763254   2.468569   1.393939   0.000000
     5  H    2.447432   2.627645   2.088134   1.000064   0.000000
     6  C    3.650944   2.553283   1.398711   2.412122   3.321518
     7  H    3.964907   2.752451   2.086466   3.316982   4.153013
     8  C    4.145174   3.741502   2.388244   1.382596   2.080149
     9  N    5.037517   4.913256   3.723692   2.446823   2.626625
    10  O    6.219717   5.995571   4.690163   3.539973   3.838565
    11  C    5.008206   4.300861   2.802491   2.431347   3.331631
    12  H    5.982234   5.299938   3.801987   3.330493   4.152568
    13  C    4.791478   3.817148   2.419184   2.789322   3.789315
    14  H    5.675546   4.622793   3.320994   3.789295   4.789283
    15  O    4.819478   4.999860   4.102176   2.709184   2.408309
    16  C    2.338571   1.440901   2.514610   3.765147   4.053316
    17  H    3.242047   2.159835   2.732815   4.108003   4.595563
    18  N    2.663443   2.332888   3.693008   4.800138   4.878817
    19  N    3.293557   3.290872   4.729492   5.735542   5.680524
                    6          7          8          9         10
     6  C    0.000000
     7  H    0.999818   0.000000
     8  C    2.745543   3.745334   0.000000
     9  N    4.211498   5.211291   1.465961   0.000000
    10  O    4.899917   5.877930   2.303166   1.225767   0.000000
    11  C    2.410074   3.309178   1.387172   2.456984   2.702413
    12  H    3.319230   4.142921   2.083902   2.640864   2.406897
    13  C    1.387471   2.071543   2.380003   3.721193   4.089155
    14  H    2.074705   2.377000   3.288316   4.525860   4.696149
    15  O    4.912188   5.892600   2.315866   1.227097   2.168383
    16  C    2.940153   2.613183   4.900596   6.194424   7.199875
    17  H    2.647804   2.016747   5.044740   6.438226   7.331986
    18  N    4.254720   3.898233   6.042789   7.244441   8.317103
    19  N    5.368601   5.012637   7.031448   8.159373   9.273390
                   11         12         13         14         15
    11  C    0.000000
    12  H    0.999620   0.000000
    13  C    1.388455   2.088815   0.000000
    14  H    2.074467   2.401049   1.000011   0.000000
    15  O    3.557393   3.855752   4.694822   5.579364   0.000000
    16  C    5.160841   6.140738   4.326465   4.908577   6.392729
    17  H    5.031343   5.961075   3.983991   4.388618   6.810387
    18  N    6.426920   7.416148   5.640690   6.220834   7.282490
    19  N    7.499451   8.493762   6.753372   7.340994   8.082784
                   16         17         18         19
    16  C    0.000000
    17  H    0.997935   0.000000
    18  N    1.317391   2.020615   0.000000
    19  N    2.436358   3.091791   1.120346   0.000000
 Stoichiometry    C8H5N3O3
 Framework group  C1[X(C8H5N3O3)]
 Deg. of freedom    51
 Full point group                 C1      NOp   1
 RotChk:  IX=0 Diff= 1.43D-03
 Largest Abelian subgroup         C1      NOp   1
 Largest concise Abelian subgroup C1      NOp   1
                         Standard orientation:                         
 ---------------------------------------------------------------------
 Center     Atomic      Atomic             Coordinates (Angstroms)
 Number     Number       Type             X           Y           Z
 ---------------------------------------------------------------------
      1          8           0       -1.901170   -1.538489    0.085836
      2          6           0       -1.809353   -0.313498    0.031061
      3          6           0       -0.463425    0.348070    0.038757
      4          6           0        0.653153   -0.486257    0.024020
      5          1           0        0.544961   -1.480427    0.031099
      6          6           0       -0.285925    1.735458    0.045218
      7          1           0       -1.081429    2.340708    0.067156
      8          6           0        1.910346    0.088560   -0.000959
      9          7           0        3.079944   -0.794914   -0.024490
     10          8           0        4.185450   -0.266158   -0.052422
     11          6           0        2.107903    1.461563   -0.009833
     12          1           0        3.030424    1.845448   -0.038562
     13          6           0        0.988830    2.282793    0.022821
     14          1           0        1.103449    3.276182    0.030751
     15          8           0        2.894567   -2.007755   -0.003998
     16          6           0       -2.969418    0.537598   -0.046930
     17          1           0       -2.922183    1.533180   -0.096523
     18          7           0       -4.129708   -0.086288   -0.050779
     19          7           0       -5.078616   -0.681882   -0.046757
 ---------------------------------------------------------------------
 Rotational constants (GHZ):      1.8265691      0.3395500      0.2864373
 Leave Link  202 at Fri Aug 20 15:37:53 2021, MaxMem= 24159191040 cpu:         0.3
 (Enter /public/home/users/caep010/software/Gaussian09/g09/l301.exe)
 Standard basis: 6-31G(d,p) (6D, 7F)
 Ernie: Thresh=  0.10000D-02 Tol=  0.10000D-05 Strict=F.
 There are   235 symmetry adapted cartesian basis functions of A   symmetry.
 There are   235 symmetry adapted basis functions of A   symmetry.
   235 basis functions,   427 primitive gaussians,   235 cartesian basis functions
    49 alpha electrons       49 beta electrons
       nuclear repulsion energy       796.9313632415 Hartrees.
 IExCor=  402 DFT=T Ex+Corr=B3LYP ExCW=0 ScaHFX=  0.200000
 ScaDFX=  0.800000  0.720000  1.000000  0.810000 ScalE2=  1.000000  1.000000
 IRadAn=      0 IRanWt=     -1 IRanGd=            0 ICorTp=0 IEmpDi=  4
 NAtoms=   19 NActive=   19 NUniq=   19 SFac= 1.00D+00 NAtFMM=   60 NAOKFM=F Big=F
 Integral buffers will be    131072 words long.
 Raffenetti 2 integral format.
 Two-electron integral symmetry is turned on.
 Leave Link  301 at Fri Aug 20 15:37:53 2021, MaxMem= 24159191040 cpu:         1.6
 (Enter /public/home/users/caep010/software/Gaussian09/g09/l302.exe)
 NPDir=0 NMtPBC=     1 NCelOv=     1 NCel=       1 NClECP=     1 NCelD=      1
         NCelK=      1 NCelE2=     1 NClLst=     1 CellRange=     0.0.
 One-electron integrals computed using PRISM.
 NBasis=   235 RedAO= T EigKep=  3.87D-04  NBF=   235
 NBsUse=   235 1.00D-06 EigRej= -1.00D+00 NBFU=   235
 Precomputing XC quadrature grid using
 IXCGrd= 4 IRadAn=           0 IRanWt=          -1 IRanGd=           0 AccXCQ= 0.00D+00.
 Generated NRdTot=       0 NPtTot=           0 NUsed=           0 NTot=          32
 NSgBfM=   233   233   233   233   233 MxSgAt=    19 MxSgA2=    19.
 Leave Link  302 at Fri Aug 20 15:37:54 2021, MaxMem= 24159191040 cpu:        14.2
 (Enter /public/home/users/caep010/software/Gaussian09/g09/l303.exe)
 DipDrv:  MaxL=1.
 Leave Link  303 at Fri Aug 20 15:37:54 2021, MaxMem= 24159191040 cpu:         0.8
 (Enter /public/home/users/caep010/software/Gaussian09/g09/l401.exe)
 Initial guess from the checkpoint file:  "/public/home/users/caep010/.cache/gau_scr/Gau-172069.chk"
 B after Tr=     0.000000    0.000000    0.000000
         Rot=    1.000000   -0.000148   -0.000016    0.000063 Ang=  -0.02 deg.
 Guess basis will be translated and rotated to current coordinates.
 JPrj=2 DoOrth=T DoCkMO=T.
 Generating alternative initial guess.
 ExpMin= 1.61D-01 ExpMax= 5.48D+03 ExpMxC= 8.25D+02 IAcc=1 IRadAn=         1 AccDes= 0.00D+00
 Harris functional with IExCor=  402 and IRadAn=       1 diagonalized for initial guess.
 HarFok:  IExCor=  402 AccDes= 0.00D+00 IRadAn=         1 IDoV= 1 UseB2=F ITyADJ=14
 ICtDFT=  3500011 ScaDFX=  1.000000  1.000000  1.000000  1.000000
 FoFCou: FMM=F IPFlag=           0 FMFlag=      100000 FMFlg1=           0
         NFxFlg=           0 DoJE=T BraDBF=F KetDBF=T FulRan=T
         wScrn=  0.000000 ICntrl=     500 IOpCl=  0 I1Cent=   200000004 NGrid=           0
         NMat0=    1 NMatS0=      1 NMatT0=    0 NMatD0=    1 NMtDS0=    0 NMtDT0=    0
 Petite list used in FoFCou.
 Harris En= -697.662891006667    
 Leave Link  401 at Fri Aug 20 15:37:54 2021, MaxMem= 24159191040 cpu:        14.0
 (Enter /public/home/users/caep010/software/Gaussian09/g09/l502.exe)
 Closed shell SCF:
 Using DIIS extrapolation, IDIIS=  1040.
 Integral symmetry usage will be decided dynamically.
 Keep R1 ints in memory in canonical form, NReq=391255824.
 IVT=      193499 IEndB=      193499 NGot= 24159191040 MDV= 23774507227
 LenX= 23774507227 LenY= 23774451561
 Requested convergence on RMS density matrix=1.00D-08 within 128 cycles.
 Requested convergence on MAX density matrix=1.00D-06.
 Requested convergence on             energy=1.00D-06.
 No special actions if energy rises.
 FoFCou: FMM=F IPFlag=           0 FMFlag=           0 FMFlg1=           0
         NFxFlg=           0 DoJE=F BraDBF=F KetDBF=F FulRan=T
         wScrn=  0.000000 ICntrl=     600 IOpCl=  0 I1Cent=           0 NGrid=           0
         NMat0=    1 NMatS0=  27730 NMatT0=    0 NMatD0=    1 NMtDS0=    0 NMtDT0=    0
 Symmetry not used in FoFCou.
 Integral accuracy reduced to 1.0D-05 until final iterations.

 Cycle   1  Pass 0  IDiag  1:
 E= -697.608573225450    
 DIIS: error= 2.85D-03 at cycle   1 NSaved=   1.
 NSaved= 1 IEnMin= 1 EnMin= -697.608573225450     IErMin= 1 ErrMin= 2.85D-03
 ErrMax= 2.85D-03  0.00D+00 EMaxC= 1.00D-01 BMatC= 3.76D-03 BMatP= 3.76D-03
 IDIUse=3 WtCom= 9.72D-01 WtEn= 2.85D-02
 Coeff-Com:  0.100D+01
 Coeff-En:   0.100D+01
 Coeff:      0.100D+01
 Gap=     1.877 Goal=   None    Shift=    0.000
 GapD=    1.877 DampG=2.000 DampE=1.000 DampFc=2.0000 IDamp=-1.
 RMSDP=6.69D-04 MaxDP=1.38D-02              OVMax= 1.55D-02

 Cycle   2  Pass 0  IDiag  1:
 E= -697.612317655587     Delta-E=       -0.003744430137 Rises=F Damp=F
 DIIS: error= 1.66D-03 at cycle   2 NSaved=   2.
 NSaved= 2 IEnMin= 2 EnMin= -697.612317655587     IErMin= 2 ErrMin= 1.66D-03
 ErrMax= 1.66D-03  0.00D+00 EMaxC= 1.00D-01 BMatC= 8.15D-04 BMatP= 3.76D-03
 IDIUse=3 WtCom= 9.83D-01 WtEn= 1.66D-02
 Coeff-Com:  0.258D+00 0.742D+00
 Coeff-En:   0.000D+00 0.100D+01
 Coeff:      0.253D+00 0.747D+00
 Gap=     0.164 Goal=   None    Shift=    0.000
 RMSDP=2.45D-04 MaxDP=1.09D-02 DE=-3.74D-03 OVMax= 1.86D-02

 Cycle   3  Pass 0  IDiag  1:
 E= -697.612293249943     Delta-E=        0.000024405644 Rises=F Damp=F
 DIIS: error= 2.55D-03 at cycle   3 NSaved=   3.
 NSaved= 3 IEnMin= 2 EnMin= -697.612317655587     IErMin= 2 ErrMin= 1.66D-03
 ErrMax= 2.55D-03  0.00D+00 EMaxC= 1.00D-01 BMatC= 9.20D-04 BMatP= 8.15D-04
 IDIUse=3 WtCom= 1.65D-01 WtEn= 8.35D-01
 Coeff-Com:  0.736D-01 0.505D+00 0.422D+00
 Coeff-En:   0.000D+00 0.506D+00 0.494D+00
 Coeff:      0.122D-01 0.506D+00 0.482D+00
 Gap=     0.164 Goal=   None    Shift=    0.000
 RMSDP=1.59D-04 MaxDP=6.99D-03 DE= 2.44D-05 OVMax= 1.41D-02

 Cycle   4  Pass 0  IDiag  1:
 E= -697.613017392185     Delta-E=       -0.000724142242 Rises=F Damp=F
 DIIS: error= 1.22D-03 at cycle   4 NSaved=   4.
 NSaved= 4 IEnMin= 4 EnMin= -697.613017392185     IErMin= 4 ErrMin= 1.22D-03
 ErrMax= 1.22D-03  0.00D+00 EMaxC= 1.00D-01 BMatC= 1.96D-04 BMatP= 8.15D-04
 IDIUse=3 WtCom= 9.88D-01 WtEn= 1.22D-02
 Coeff-Com:  0.219D-01 0.289D+00 0.325D+00 0.364D+00
 Coeff-En:   0.000D+00 0.000D+00 0.153D+00 0.847D+00
 Coeff:      0.217D-01 0.286D+00 0.323D+00 0.370D+00
 Gap=     0.164 Goal=   None    Shift=    0.000
 RMSDP=5.43D-05 MaxDP=3.16D-03 DE=-7.24D-04 OVMax= 4.21D-03

 Cycle   5  Pass 0  IDiag  1:
 E= -697.613168193391     Delta-E=       -0.000150801206 Rises=F Damp=F
 DIIS: error= 2.98D-04 at cycle   5 NSaved=   5.
 NSaved= 5 IEnMin= 5 EnMin= -697.613168193391     IErMin= 5 ErrMin= 2.98D-04
 ErrMax= 2.98D-04  0.00D+00 EMaxC= 1.00D-01 BMatC= 1.47D-05 BMatP= 1.96D-04
 IDIUse=3 WtCom= 9.97D-01 WtEn= 2.98D-03
 Coeff-Com: -0.226D-03 0.849D-01 0.123D+00 0.244D+00 0.548D+00
 Coeff-En:   0.000D+00 0.000D+00 0.000D+00 0.706D-01 0.929D+00
 Coeff:     -0.226D-03 0.846D-01 0.122D+00 0.244D+00 0.549D+00
 Gap=     0.163 Goal=   None    Shift=    0.000
 RMSDP=1.54D-05 MaxDP=8.27D-04 DE=-1.51D-04 OVMax= 1.22D-03

 Cycle   6  Pass 0  IDiag  1:
 E= -697.613178955721     Delta-E=       -0.000010762331 Rises=F Damp=F
 DIIS: error= 1.29D-04 at cycle   6 NSaved=   6.
 NSaved= 6 IEnMin= 6 EnMin= -697.613178955721     IErMin= 6 ErrMin= 1.29D-04
 ErrMax= 1.29D-04  0.00D+00 EMaxC= 1.00D-01 BMatC= 2.05D-06 BMatP= 1.47D-05
 IDIUse=3 WtCom= 9.99D-01 WtEn= 1.29D-03
 Coeff-Com: -0.186D-02 0.350D-01 0.578D-01 0.132D+00 0.366D+00 0.410D+00
 Coeff-En:   0.000D+00 0.000D+00 0.000D+00 0.000D+00 0.103D+00 0.897D+00
 Coeff:     -0.186D-02 0.350D-01 0.577D-01 0.132D+00 0.366D+00 0.411D+00
 Gap=     0.164 Goal=   None    Shift=    0.000
 RMSDP=6.54D-06 MaxDP=3.13D-04 DE=-1.08D-05 OVMax= 5.81D-04

 Initial convergence to 1.0D-05 achieved.  Increase integral accuracy.
 Cycle   7  Pass 1  IDiag  1:
 E= -697.613160237472     Delta-E=        0.000018718249 Rises=F Damp=F
 DIIS: error= 3.08D-05 at cycle   1 NSaved=   1.
 NSaved= 1 IEnMin= 1 EnMin= -697.613160237472     IErMin= 1 ErrMin= 3.08D-05
 ErrMax= 3.08D-05  0.00D+00 EMaxC= 1.00D-01 BMatC= 1.91D-07 BMatP= 1.91D-07
 IDIUse=1 WtCom= 1.00D+00 WtEn= 0.00D+00
 Coeff-Com:  0.100D+01
 Coeff:      0.100D+01
 Gap=     0.164 Goal=   None    Shift=    0.000
 RMSDP=6.54D-06 MaxDP=3.13D-04 DE= 1.87D-05 OVMax= 4.81D-04

 Cycle   8  Pass 1  IDiag  1:
 E= -697.613159935875     Delta-E=        0.000000301597 Rises=F Damp=F
 DIIS: error= 7.41D-05 at cycle   2 NSaved=   2.
 NSaved= 2 IEnMin= 1 EnMin= -697.613160237472     IErMin= 1 ErrMin= 3.08D-05
 ErrMax= 7.41D-05  0.00D+00 EMaxC= 1.00D-01 BMatC= 5.84D-07 BMatP= 1.91D-07
 IDIUse=1 WtCom= 1.00D+00 WtEn= 0.00D+00
 Coeff-Com:  0.655D+00 0.345D+00
 Coeff:      0.655D+00 0.345D+00
 Gap=     0.164 Goal=   None    Shift=    0.000
 RMSDP=3.77D-06 MaxDP=2.11D-04 DE= 3.02D-07 OVMax= 3.61D-04

 Cycle   9  Pass 1  IDiag  1:
 E= -697.613160415685     Delta-E=       -0.000000479810 Rises=F Damp=F
 DIIS: error= 1.31D-05 at cycle   3 NSaved=   3.
 NSaved= 3 IEnMin= 3 EnMin= -697.613160415685     IErMin= 3 ErrMin= 1.31D-05
 ErrMax= 1.31D-05  0.00D+00 EMaxC= 1.00D-01 BMatC= 1.85D-08 BMatP= 1.91D-07
 IDIUse=1 WtCom= 1.00D+00 WtEn= 0.00D+00
[...]
 50753,-0.00460058,-0.00744417,0.14365846,0.00055250,-0.00138704,-0.007
 68901,-0.00048940,-0.03883431,-0.01683215,-0.00149785,-0.20622359,-0.0
 7002360,-0.01957393,0.69571853,0.00048143,0.00153260,-0.00568789,0.000
 27655,-0.00496809,0.01723724,-0.00559725,-0.12489220,-0.23612618,0.039
 44817,-0.03300234,0.74250622,-0.00059588,-0.00021125,0.00016422,-0.003
 88265,-0.00033451,0.00059680,0.00498652,0.00110223,-0.00079313,-0.0426
 0378,0.00706413,-0.02008431,0.03001311,0.00028640,-0.00120078,0.002182
 06,0.00022168,0.00041390,-0.00337821,-0.00147915,0.01251230,-0.0194485
 1,0.00765827,-0.08272610,0.08520977,-0.00830558,0.08158616,-0.00018463
 ,0.00199792,0.00177675,0.00051410,0.00149095,-0.00240715,-0.00142542,0
 .00526173,-0.01600711,-0.02016974,0.08546230,-0.32342132,0.02198935,-0
 .09042350,0.34362563,0.00244593,-0.00035152,0.00027820,-0.00029163,0.0
 0007799,-0.00107898,-0.06415912,0.00981194,-0.02030784,0.00644259,-0.0
 0419027,-0.00402332,0.00622480,0.00009035,-0.00030206,0.14103344,-0.00
 028938,-0.00595504,0.00158448,0.00185122,-0.00414877,0.03083962,0.0068
 6838,-0.14239295,0.02460312,-0.00179218,0.05679609,-0.00462218,-0.0000
 1179,-0.00354582,-0.00291820,-0.01415384,0.70326447,-0.00048421,-0.004
 93983,0.00395622,-0.00048370,0.01828019,-0.00378244,-0.02067766,0.0774
 1063,-0.30166467,-0.00257000,-0.04526057,-0.04981440,-0.00039784,-0.00
 294448,-0.00120295,0.04658328,0.03996909,0.69556221,0.00050428,-0.0002
 7917,0.00057064,-0.00353243,0.00024105,0.00029165,0.00264280,-0.002555
 95,-0.00116180,0.00640853,0.00039759,-0.00093656,0.00016844,-0.0001630
 7,-0.00005237,-0.03881011,-0.00963931,-0.01447496,0.02620190,0.0001293
 4,0.00029932,-0.00048476,-0.00014247,-0.00008186,-0.00004565,0.0001741
 1,0.01039697,0.00651922,0.00038212,0.00001021,0.00258226,0.00001904,0.
 00037936,0.00039873,-0.00916500,-0.18177760,-0.13832477,0.00819308,0.1
 9531593,-0.00011710,0.00069919,0.00054008,0.00049305,-0.00310836,-0.00
 031982,-0.00082930,-0.02105625,-0.01656007,-0.00106375,0.00315844,-0.0
 0464046,-0.00001399,-0.00125434,-0.00058136,-0.01327537,-0.13908591,-0
 .21731624,0.01520830,0.15024735,0.22715918,-0.00056631,0.00045654,-0.0
 0007453,0.00669777,-0.00030276,-0.00084592,0.00613206,0.00159295,0.005
 46685,-0.06280718,0.01013053,-0.00895966,0.00549948,0.00194501,-0.0003
 7856,-0.00626411,0.00322433,-0.00280442,0.00010088,0.00012443,-0.00011
 040,0.14011548,-0.00003747,0.00165101,0.00233511,0.00019151,0.00209501
 ,-0.00681472,-0.00156761,-0.04671405,-0.05730469,0.01390326,-0.3198728
 9,0.09488966,0.00033722,-0.00374826,0.00245999,0.00312358,-0.03648654,
 0.03061327,0.00014144,-0.00034675,0.00121575,-0.02453973,0.66949753,0.
 00004370,0.00118570,0.00106195,-0.00014341,-0.00389520,-0.00375673,0.0
 0194537,-0.00916679,0.04442850,-0.00608924,0.03646759,-0.14120546,-0.0
 0143052,0.02790705,-0.00045816,-0.00247460,0.03162789,-0.03020443,-0.0
 0017212,0.00122328,-0.00015307,0.03909871,-0.10732666,0.64014735,0.000
 03315,-0.00004653,-0.00014303,0.00088841,-0.00016479,0.00020458,0.0089
 4024,0.00091007,-0.00066130,-0.00173391,-0.00032477,0.00172423,-0.0049
 6477,0.00025817,0.00010372,-0.00124367,0.00019738,-0.00004160,-0.00141
 575,-0.00001485,0.00012399,-0.07806369,0.00059994,-0.00221692,0.227921
 70,-0.00013821,0.00183860,0.00053578,0.00060324,-0.00372001,-0.0026285
 8,0.00077269,-0.00420674,0.00524558,-0.00108514,-0.03097763,-0.0290038
 2,-0.00021090,-0.00032002,0.00063407,0.00003221,-0.00282760,0.00264621
 ,0.00004739,-0.00031805,0.00027447,0.00065732,-0.11322617,-0.00684134,
 -0.03463173,0.83174126,-0.00010697,0.00158674,-0.00237046,0.00037064,-
 0.00426920,0.00278696,-0.00053740,0.00853983,0.00462630,0.00166137,-0.
 02192702,0.01073196,0.00005503,0.00435180,-0.00181146,-0.00032824,0.00
 182620,-0.00151855,0.00011692,0.00021278,-0.00018072,-0.00241602,-0.00
 538543,-0.11530038,0.04999912,-0.16698881,0.80799263,0.00001468,-0.000
 01160,0.00004584,-0.00039700,0.00004834,-0.00000465,-0.00135493,-0.000
 13824,0.00015853,0.00296301,0.00000291,-0.00024012,0.00060048,-0.00014
 945,-0.00006167,0.00012570,-0.00011964,-0.00002576,0.00009360,-0.00002
 213,0.00000416,0.01815715,0.00129231,0.00009674,-0.07523851,0.02264288
 ,-0.00873551,0.02941758,0.00000796,-0.00087681,-0.00006693,-0.00031171
 ,0.00201620,-0.00024240,-0.00018589,-0.00258147,-0.00111416,-0.0005074
 8,0.00196171,-0.00728979,0.00008808,0.00177520,0.00041549,0.00010392,-
 0.00000236,0.00043578,-0.00003889,0.00010693,-0.00023546,0.00251444,-0
 .06356004,-0.00702143,0.02319869,-0.53046335,0.08663249,-0.03272492,0.
 63733156,0.00003225,-0.00055065,0.00078835,-0.00013866,0.00151942,-0.0
 0100468,0.00021185,-0.00268419,0.00013918,-0.00054177,0.00026437,-0.00
 433031,-0.00001981,-0.00118582,-0.00007068,0.00010320,-0.00155042,0.00
 018040,0.00000762,-0.00031063,0.00006658,0.00068512,-0.02358402,0.0161
 1157,-0.00843391,0.07932793,-0.14830810,0.01568233,-0.13736813,0.16965
 586,0.00005259,0.00019494,0.00011761,-0.00070052,-0.00011745,-0.000280
 58,-0.00576815,-0.00119691,-0.00392235,0.00783077,0.00611544,-0.001012
 35,0.00537808,0.00026794,-0.00016031,0.00612742,-0.00268152,0.00426889
 ,0.00719608,0.00051583,-0.00069955,-0.06354755,0.00625107,-0.01983268,
 -0.00222405,-0.00189713,-0.00146836,0.00146106,0.00067039,-0.00061347,
 0.13999813,0.00013112,-0.00037974,-0.00081649,-0.00038416,0.00033446,0
 .00028692,-0.00080891,-0.00221731,-0.01260028,0.00269954,-0.00254123,0
 .03559803,0.00037791,-0.00549341,-0.00014150,0.00046141,-0.04679089,-0
 .01245197,0.00078159,-0.00509964,0.00187160,0.01075331,-0.15247255,0.1
 0691264,-0.00228108,0.01518692,-0.02511275,-0.00008863,-0.00300028,-0.
 00296963,-0.02056582,0.76671569,-0.00027378,0.00204071,0.00025103,0.00
 046482,-0.00197168,-0.00365372,-0.00250907,-0.01416951,-0.06092556,-0.
 00321645,0.07957835,0.00846298,-0.00039601,-0.00029465,0.00124413,0.00
 504372,-0.05954751,0.05255619,-0.00062225,0.00239654,0.00087467,-0.017
 64089,0.04680737,-0.29352714,-0.00161903,-0.01779102,-0.03413836,-0.00
 101472,0.00710665,-0.00862622,0.03903396,-0.00453086,0.67029603,0.0001
 1847,-0.00003866,0.00005437,-0.00087719,-0.00007240,0.00008841,-0.0005
 8804,-0.00001363,-0.00012635,0.00492024,0.00014270,-0.00074528,0.00050
 398,0.00015625,-0.00002429,0.00754379,0.00005207,-0.00068030,-0.000213
 84,-0.00006658,0.00001422,0.00494554,0.00240190,-0.00040064,-0.0043904
 2,0.00028711,0.00031981,-0.00015367,-0.00025572,0.00014888,-0.04003078
 ,0.01397027,-0.00423281,0.02753761,-0.00001873,0.00005772,-0.00005598,
 0.00001297,-0.00037373,0.00003630,-0.00008019,0.00070148,-0.00059384,0
 .00020874,0.00119947,0.00113070,0.00001501,-0.00009804,-0.00013183,0.0
 0002699,-0.00056936,-0.00276145,0.00005135,-0.00057748,0.00030909,0.00
 051881,-0.00559223,0.00199969,-0.00003610,-0.00272458,0.00026816,-0.00
 031472,-0.00045988,-0.00451669,0.01404672,-0.33961273,0.05803861,-0.01
 525794,0.35906036,-0.00000994,0.00019765,0.00020101,0.00010582,-0.0001
 2552,-0.00021870,-0.00000164,-0.00040134,-0.00107004,-0.00079136,0.000
 60762,-0.00612368,-0.00009601,0.00148407,0.00020308,-0.00073873,-0.003
 01424,-0.00327940,0.00009905,-0.00114954,0.00026304,-0.00131786,0.0293
 0600,0.00045135,0.00016136,0.00462963,0.00018464,0.00010242,-0.0037580
 8,-0.00066278,-0.00410399,0.05595024,-0.06907769,0.00492419,-0.0596562
 5,0.06687962,-0.00138953,0.00079929,-0.00067299,0.00709325,-0.00037315
 ,-0.00107152,0.00762631,0.00355910,-0.00193548,-0.00454737,0.00063058,
 0.00055422,-0.00074989,-0.00003641,0.00007596,-0.06175454,0.01544338,-
 0.00696799,0.00415648,-0.00167439,0.00016833,0.00532716,-0.00203469,-0
 .00229584,0.00820862,0.00065873,-0.00109132,-0.00061043,-0.00006906,0.
 00022928,-0.06158670,-0.00524809,-0.01227489,0.00428152,0.00095765,0.0
 0119839,0.13436313,0.00028480,-0.00266353,0.00116073,-0.00057423,0.006
 81346,0.00137703,0.00547614,-0.00424641,0.08160275,0.00091409,-0.06017
 437,-0.01742919,0.00007277,-0.00075643,-0.00059852,0.01082801,-0.32646
 477,0.01119781,0.00136515,-0.01564675,0.00639487,-0.00563357,0.0538982
 9,-0.05289450,0.00051398,0.00430353,0.00715150,0.00002352,-0.00115062,
 -0.00043273,0.00021278,-0.23019472,-0.07504834,-0.00115029,-0.01215752
 ,-0.02324079,-0.02008817,0.67299827,0.00057641,0.00177900,-0.00054444,
 -0.00133462,-0.00092545,-0.00508323,-0.00176414,0.03628260,0.00887430,
 0.00045782,-0.01909508,-0.00600864,0.00008024,-0.00052364,0.00040840,-
 0.00899197,0.07955961,-0.13909404,0.00141911,-0.02511327,0.00859342,-0
 .00400561,-0.00319197,-0.05180906,-0.00108095,0.00813987,-0.00367259,0
 .00026532,-0.00133124,0.00249422,-0.00957958,-0.14255909,-0.24823183,0
 .00018798,0.00548177,0.00967186,0.04952674,-0.01710182,0.74231477,-0.0
 0032672,0.00013825,-0.00006324,0.00056573,-0.00010615,-0.00002515,0.00
 688626,0.00050629,-0.00022005,-0.00065352,-0.00026304,0.00011843,-0.00
 074791,-0.00002175,0.00003571,0.00224088,0.00036088,-0.00170154,-0.003
 83238,-0.00006915,0.00046898,0.00715330,0.00014738,-0.00060051,0.00086
 253,0.00014098,-0.00005252,0.00000341,-0.00002789,0.00000215,0.0026022
 8,0.00050145,-0.00052757,-0.00413253,-0.00014565,0.00037073,-0.0386957
 7,0.00781507,-0.02573424,0.02848343,-0.00008108,-0.00081503,0.00046324
 ,0.00009697,0.00124620,0.00132842,0.00052248,-0.00575816,-0.00015492,-
 0.00001722,-0.00108083,-0.00064166,-0.00003337,0.00004033,0.00003821,0
 .00285041,-0.00483635,0.03064266,-0.00021273,0.00108962,-0.00022254,0.
 00016667,-0.00273193,-0.00258725,-0.00004943,0.00106000,-0.00100052,0.
 00000833,-0.00015106,0.00009544,-0.00207556,0.01019687,-0.02254335,-0.
 00012784,0.00088027,0.00054693,0.00800596,-0.08456475,0.08036615,-0.00
 900885,0.08601228,0.00002148,0.00023498,-0.00011883,0.00001644,-0.0007
 0632,-0.00010164,-0.00050572,0.00101148,0.00155530,0.00011216,-0.00054
 529,0.00039897,0.00005770,0.00003156,-0.00003186,-0.00033465,-0.000612
 97,-0.00175317,0.00035916,0.00020403,0.00074528,-0.00053241,-0.0038639
 5,-0.00079479,-0.00011921,0.00142326,-0.00028243,0.00000934,-0.0003396
 6,-0.00000291,-0.00193130,0.00845059,-0.01734823,0.00042399,0.00006811
 ,0.00092342,-0.02548774,0.08040654,-0.31598360,0.02793563,-0.08558024,
 0.33335132,0.00012093,-0.00004044,0.00007732,-0.00010415,0.00016200,-0
 .00008190,-0.00074976,-0.00022101,-0.00000637,0.00138218,0.00078183,-0
 .00011492,-0.00005326,-0.00025083,0.00005886,0.00022634,0.00005324,0.0
 0000742,0.00010808,-0.00001804,0.00000043,0.01764579,-0.00005255,-0.00
 572954,-0.07733356,0.01235373,-0.03763016,0.02483307,0.00730486,-0.007
 41204,0.00308059,-0.00037699,-0.00013706,0.00055685,0.00003833,0.00013
 327,-0.00119448,-0.00011100,-0.00004640,-0.00042234,-0.00005409,-0.000
 00571,0.03188234,0.00002807,-0.00066932,-0.00039766,-0.00020056,0.0012
 0272,0.00088926,-0.00012461,0.00233808,0.00008174,0.00004716,-0.008431
 50,-0.00352121,-0.00029586,0.00024599,-0.00410040,-0.00007453,0.000383
 79,-0.00155759,-0.00004057,0.00011891,-0.00031515,-0.00123524,0.018377
 20,-0.01666071,0.01187714,-0.16621673,0.11256907,0.00951562,-0.0397519
 8,0.09449637,0.00021063,-0.00406503,-0.00002078,-0.00008343,0.00017604
 ,-0.00147942,-0.00018255,0.00032583,-0.00194025,-0.00003388,-0.0003335
 8,-0.00035557,-0.01951719,0.19676676,0.00003216,-0.00107679,0.00138977
 ,-0.00025103,0.00265921,-0.00115334,0.00004776,-0.00184822,-0.00082421
 ,-0.00047919,0.00683356,-0.00221793,0.00002760,-0.00313652,-0.00134514
 ,0.00005654,0.00093303,-0.00039893,-0.00001740,-0.00019473,0.00003180,
 -0.00626470,-0.00071584,-0.06555390,-0.03799132,0.11961367,-0.51892613
 ,-0.00628761,0.06461056,-0.02635856,0.00012520,-0.00800376,0.00132860,
 0.00005063,0.00034112,0.00155822,-0.00003308,-0.00140367,-0.00255389,-
 0.00000589,-0.00058756,-0.00063674,0.05090554,-0.17736328,0.61577105,0
 .01512057,0.00335706,0.01843828,-0.05929475,0.02255218,0.02371629,0.00
 967026,0.00332446,0.00173096,0.00108213,-0.00032994,-0.00057505,0.0000
 3333,-0.00031367,0.00001953,0.00022624,0.00029270,-0.00057726,-0.00003
 108,0.00047721,0.00027450,-0.00049472,0.00009081,0.00003867,-0.0001783
 3,-0.00031666,-0.00031842,0.00008050,0.00021886,0.00009577,0.00012913,
 0.00018042,0.00002409,-0.00001999,-0.00000485,0.00000538,-0.00044277,0
 .00001461,0.00036352,-0.00001911,-0.00003308,-0.00001355,0.00004416,0.
 00009499,0.00018482,0.09369271,0.00620253,0.02410169,-0.03385115,0.012
 76378,-0.14785371,-0.03270315,0.00638310,-0.02591750,-0.01709517,0.000
 15705,-0.00111926,0.00421694,0.00030185,0.00115502,0.00024503,0.000722
 79,-0.00386063,-0.00177978,0.00070253,-0.00166176,0.00020436,-0.000214
 65,-0.00121069,-0.00055677,0.00012120,0.00201093,0.00261133,0.00000455
 ,-0.00177395,-0.00086719,0.00002633,-0.00090845,0.00001946,0.00011054,
 0.00009079,0.00006306,-0.00054855,-0.00034133,-0.00048746,0.00005437,-
 0.00028891,0.00023970,-0.00008783,-0.00078212,-0.00124253,-0.02843089,
 0.63061855,0.01820000,-0.02247235,-0.07456501,0.02393928,-0.06909051,-
 0.14889792,-0.00009924,0.00001019,0.01106992,-0.00009501,0.00309279,-0
 .00066504,0.00012472,0.00094002,-0.00001654,0.00052458,-0.00058260,-0.
 00048605,-0.00077582,0.00050403,-0.00001846,0.00018641,0.00048088,0.00
 083380,-0.00002158,0.00045868,-0.00021558,0.00000261,-0.00005335,0.000
 07136,-0.00001867,0.00006870,0.00037910,-0.00004470,0.00000532,0.00002
 321,0.00023184,-0.00096730,-0.00007476,0.00000359,-0.00006001,0.000030
 06,0.00000150,-0.00013334,0.00007184,-0.13148665,-0.07083313,0.6565454
 6,0.00377654,0.00146468,0.00168193,-0.00041772,-0.00439693,0.00164673,
 -0.00105222,0.00020744,-0.00046049,-0.00015882,-0.00009600,-0.00007281
 ,-0.00005543,-0.00011225,-0.00004437,-0.00000278,0.00054129,0.00091974
 ,0.00041788,0.00126409,-0.00077539,0.00014150,-0.00000237,-0.00024101,
 0.00005325,0.00004703,0.00010370,-0.00002835,-0.00002446,-0.00003112,0
 .00002957,-0.00003260,0.00017718,0.00002957,-0.00002532,-0.00004044,-0
 .00024591,-0.00027615,-0.00036793,0.00001940,0.00002272,0.00000188,-0.
 00002016,-0.00000586,-0.00007016,-0.02837094,-0.01021996,0.07999045,0.
 02719020,0.00145639,-0.00473338,-0.00516771,0.00236484,0.01530610,-0.0
 1400571,-0.00034254,0.00005444,0.00112793,0.00003022,-0.00011532,0.000
 01074,0.00003200,0.00022110,0.00004925,0.00014240,-0.00196829,-0.00062
 958,0.00138999,-0.00236339,0.00060625,0.00002266,0.00021243,0.00025043
 ,-0.00000598,-0.00017568,-0.00029306,-0.00000241,0.00008581,0.00007646
 ,0.00003198,0.00002823,-0.00002693,0.00000182,0.00002332,0.00003866,-0
 .00000190,-0.00018945,0.00036663,-0.00001546,-0.00002348,-0.00000066,0
 .00000608,0.00002184,0.00016025,-0.00774995,-0.05389225,0.04386122,0.0
 1014916,0.07037594,0.00160304,-0.00348256,-0.00193916,0.00170792,0.008
 51557,-0.00960488,-0.00036353,-0.00057195,0.00001070,-0.00010521,-0.00
 023355,-0.00001315,0.00000199,0.00015352,0.00000114,-0.00044428,0.0012
 2882,-0.00055235,-0.00014113,0.00123716,0.00082066,0.00003741,0.000216
 60,-0.00005649,0.00000829,-0.00005490,-0.00011163,-0.00000678,0.000024
 26,0.00002932,0.00003722,0.00010833,0.00014266,0.00002364,0.00000651,0
 .00002160,-0.00010104,-0.00010891,0.00025554,-0.00000126,0.00000748,-0
 .00000314,-0.00000203,-0.00000362,0.00004860,0.07674900,0.05293008,-0.
 33007826,-0.07908175,-0.06419906,0.34446026,-0.00289743,-0.00079515,0.
 00002611,-0.00305507,0.00916566,-0.00571061,0.00469924,0.00038869,0.00
 248999,0.00039980,0.00129896,-0.00034799,0.00033074,-0.00008544,0.0000
 2003,-0.00014607,-0.00030478,0.00006003,-0.00023170,-0.00013800,0.0002
 0586,-0.00026588,-0.00039156,0.00058395,-0.00018287,0.00005654,0.00009
 365,0.00005238,0.00004767,-0.00001522,-0.00001905,-0.00008810,-0.00041
 336,-0.00004426,0.00000992,-0.00000004,0.00016604,0.00042619,0.0000632
 6,0.00001743,0.00002460,-0.00000961,-0.00000263,0.00002508,-0.00004529
 ,-0.05002387,0.01046007,0.01182773,-0.00549096,-0.00866292,-0.00139891
 ,0.11361037,-0.00656118,0.00099666,0.03141797,0.01695426,-0.09166561,-
 0.03815218,0.00098721,0.00160037,-0.00680252,0.00056902,-0.00376359,-0
 .00096861,-0.00010874,-0.00095525,-0.00037583,-0.00048980,0.00164542,0
 .00029793,-0.00045915,-0.00025474,0.00103743,-0.00020510,0.00125507,-0
 .00092126,-0.00023389,-0.00269783,-0.00272834,0.00004887,0.00165009,0.
 00086590,-0.00001123,0.00090271,-0.00000031,-0.00012692,-0.00006278,0.
 00000299,0.00044453,0.00039268,0.00092953,0.00002601,0.00022388,-0.000
 20637,0.00009738,0.00085801,0.00142124,0.00158662,-0.32792722,0.085979
 62,0.00059199,-0.02665020,0.00949179,-0.02272897,1.52121010,0.00185307
 ,0.00200743,-0.01422756,-0.00751574,-0.00977677,0.03784565,0.00214476,
 -0.00232405,-0.00489736,0.00017018,-0.00077921,0.00170599,0.00020609,0
 .00061094,0.00015718,-0.00034408,-0.00057775,-0.00179300,0.00033455,0.
 00027751,0.00063980,-0.00017615,-0.00042540,-0.00033211,0.00001583,0.0
 0098281,0.00127972,0.00001551,-0.00087720,-0.00041922,0.00006324,-0.00
 022582,0.00001180,0.00003454,0.00004822,0.00006666,-0.00011642,-0.0001
 6318,0.00043967,-0.00000308,-0.00021016,0.00011322,-0.00004244,-0.0004
 0676,-0.00061166,0.01506200,0.06083362,-0.13132793,-0.00489425,0.04200
 890,-0.00398876,0.00051524,-0.42373767,0.26543734,-0.00043884,0.000255
 32,-0.00027153,0.00447782,-0.00055650,0.00211388,-0.00135783,0.0000152
 5,-0.00056871,-0.00021758,-0.00035197,0.00010659,-0.00008540,0.0000335
 6,-0.00001383,0.00003491,0.00010756,0.00004788,0.00006836,0.00003134,-
 0.00007695,0.00009335,0.00014557,-0.00018009,0.00006163,-0.00002006,-0
 .00003533,-0.00001975,-0.00000882,0.00000756,-0.00000889,0.00001736,0.
 00013412,0.00001317,-0.00000299,-0.00000062,-0.00000513,-0.00011371,-0
 .00003496,-0.00000436,-0.00000488,0.00000210,0.00000001,-0.00000442,0.
 00001543,0.01879653,0.00149121,-0.00249105,0.00418537,0.00115362,0.001
 47742,-0.05691620,0.00961909,-0.00732283,0.03132282,0.00287373,0.00286
 267,-0.01498376,-0.00844613,0.02762937,0.02705019,0.00006872,-0.001664
 14,0.00074241,-0.00009117,0.00156165,0.00116839,0.00010177,0.00051476,
 0.00023610,0.00015297,-0.00046280,-0.00084355,0.00007770,0.00041077,-0
 .00074079,0.00002405,-0.00102443,0.00029763,0.00011258,0.00173313,0.00
 195522,-0.00001560,-0.00115570,-0.00062581,0.00000156,-0.00058890,-0.0
 0004274,0.00007077,0.00003889,-0.00000167,-0.00024224,-0.00018142,-0.0
 0063588,0.00000112,-0.00016538,0.00014078,-0.00006747,-0.00056492,-0.0
 0099975,0.00498914,-0.09043920,0.02879113,0.00090352,0.00378223,-0.005
 26556,0.01129151,-1.07675778,0.33273455,-0.01180653,1.13447122,-0.0011
 1614,-0.00205461,0.00686983,0.00486919,-0.00633967,-0.01618620,-0.0006
 2075,0.00058033,0.00124040,-0.00011728,-0.00007721,-0.00078890,-0.0000
 7211,-0.00028112,-0.00006259,0.00005459,0.00033991,0.00060559,-0.00005
 259,-0.00017953,0.00003568,0.00005262,0.00028806,0.00011720,-0.0000123
 0,-0.00060348,-0.00076581,-0.00000597,0.00047259,0.00024664,-0.0000229
 3,0.00016509,-0.00001845,-0.00001627,-0.00001755,-0.00001542,0.0000635
 3,0.00009770,0.00000389,-0.00000016,0.00009969,-0.00006023,0.00002423,
 0.00021929,0.00038056,-0.00373189,0.03805276,0.01732079,0.00155811,-0.
 00423403,0.00055733,-0.00794481,0.34244866,-0.15009945,0.00709091,-0.3
 6897687,0.14061916\\-0.00000063,0.00000092,0.00000029,-0.00000059,0.00
 000058,0.00000221,0.00000008,0.00000007,0.00000149,-0.00000096,-0.0000
 0071,-0.00000089,-0.00000110,0.00000118,0.00000008,0.00000083,0.000000
 37,-0.00000110,0.00000093,-0.00000043,0.00000061,-0.00000067,0.0000010
 7,-0.00000216,-0.00000089,0.00000241,-0.00000104,-0.00000173,-0.000000
 16,-0.00000286,0.00000058,-0.00000031,0.00000070,0.00000004,-0.0000001
 2,-0.00000213,0.00000093,-0.00000270,-0.00000102,0.00000157,-0.0000011
 9,-0.00000110,-0.00000170,0.00000049,-0.00000100,0.00000136,-0.0000007
 0,-0.00000036,0.00000129,-0.00000114,0.00000210,0.00000007,0.00000081,
 0.00000359,0.00000058,-0.00000043,0.00000259\\\@


 GOOD SENSE ABOUT TRIVIALITIES IS BETTER THAN NONSENSE
 ABOUT THINGS THAT MATTER

                                       -- MAX BEERBOHM
 Job cpu time:       0 days  0 hours 15 minutes 41.1 seconds.
 File lengths (MBytes):  RWF=    128 Int=      0 D2E=      0 Chk=      5 Scr=      1
 Normal termination of Gaussian 09 at Fri Aug 20 15:42:34 2021.
