 Entering Gaussian System, Link 0=g09
 Input=B3LYP6-31G.ZEVQUM.gjf
 Output=B3LYP6-31G.ZEVQUM.log
 Initial command:
 /public/home/users/caep010/software/Gaussian09/g09/l1.exe "/public/home/users/caep010/.cache/gau_scr/Gau-97248.inp" -scrdir="/public/home/users/caep010/.cache/gau_scr/"
 Entering Link 1 = /public/home/users/caep010/software/Gaussian09/g09/l1.exe PID=     97249.
  
 Copyright (c) 1988,1990,1992,1993,1995,1998,2003,2009,2015,
            Gaussian, Inc.  All Rights Reserved.
  
 This is part of the Gaussian(R) 09 program.  It is based on
 the Gaussian(R) 03 system (copyright 2003, Gaussian, Inc.),
 the Gaussian(R) 98 system (copyright 1998, Gaussian, Inc.),
 the Gaussian(R) 94 system (copyright 1995, Gaussian, Inc.),
 the Gaussian 92(TM) system (copyright 1992, Gaussian, Inc.),
 the Gaussian 90(TM) system (copyright 1990, Gaussian, Inc.),
 the Gaussian 88(TM) system (copyright 1988, Gaussian, Inc.),
 the Gaussian 86(TM) system (copyright 1986, Carnegie Mellon
 University), and the Gaussian 82(TM) system (copyright 1983,
 Carnegie Mellon University). Gaussian is a federally registered
 trademark of Gaussian, Inc.
  
 This software contains proprietary and confidential information,
 including trade secrets, belonging to Gaussian, Inc.
  
 This software is provided under written license and may be
 used, copied, transmitted, or stored only in accord with that
 written license.
  
 The following legend is applicable only to US Government
 contracts under FAR:
  
                    RESTRICTED RIGHTS LEGEND
  
 Use, reproduction and disclosure by the US Government is
 subject to restrictions as set forth in subparagraphs (a)
 and (c) of the Commercial Computer Software - Restricted
 Rights clause in FAR 52.227-19.
  
 Gaussian, Inc.
 340 Quinnipiac St., Bldg. 40, Wallingford CT 06492
  
  
 ---------------------------------------------------------------
 Warning -- This program may not be used in any manner that
 competes with the business of Gaussian, Inc. or will provide
 assistance to any competitor of Gaussian, Inc.  The licensee
 of this program is prohibited from giving any competitor of
 Gaussian, Inc. access to this program.  By using this program,
 the user acknowledges that Gaussian, Inc. is engaged in the
 business of creating and licensing software in the field of
 computational chemistry and represents and warrants to the
 licensee that it is not a competitor of Gaussian, Inc. and that
 it will not use this program in any manner prohibited above.
 ---------------------------------------------------------------
  

 Cite this work as:
 Gaussian 09, Revision E.01,
 M. J. Frisch, G. W. Trucks, H. B. Schlegel, G. E. Scuseria, 
 M. A. Robb, J. R. Cheeseman, G. Scalmani, V. Barone, B. Mennucci, 
 G. A. Petersson, H. Nakatsuji, M. Caricato, X. Li, H. P. Hratchian, 
 A. F. Izmaylov, J. Bloino, G. Zheng, J. L. Sonnenberg, M. Hada, 
 M. Ehara, K. Toyota, R. Fukuda, J. Hasegawa, M. Ishida, T. Nakajima, 
 Y. Honda, O. Kitao, H. Nakai, T. Vreven, J. A. Montgomery, Jr., 
 J. E. Peralta, F. Ogliaro, M. Bearpark, J. J. Heyd, E. Brothers, 
 K. N. Kudin, V. N. Staroverov, T. Keith, R. Kobayashi, J. Normand, 
 K. Raghavachari, A. Rendell, J. C. Burant, S. S. Iyengar, J. Tomasi, 
 M. Cossi, N. Rega, J. M. Millam, M. Klene, J. E. Knox, J. B. Cross, 
 V. Bakken, C. Adamo, J. Jaramillo, R. Gomperts, R. E. Stratmann, 
 O. Yazyev, A. J. Austin, R. Cammi, C. Pomelli, J. W. Ochterski, 
 R. L. Martin, K. Morokuma, V. G. Zakrzewski, G. A. Voth, 
 P. Salvador, J. J. Dannenberg, S. Dapprich, A. D. Daniels, 
 O. Farkas, J. B. Foresman, J. V. Ortiz, J. Cioslowski, 
 and D. J. Fox, Gaussian, Inc., Wallingford CT, 2013.
 
 ******************************************
 Gaussian 09:  ES64L-G09RevE.01 30-Nov-2015
                20-Aug-2021 
 ******************************************
 %nproc=32
 Will use up to   32 processors via shared memory.
 %mem=180GB
 -------------------------
 #P OPT Freq B3LYP/6-31G**
 -------------------------
 1/14=-1,18=20,19=15,26=3,38=1/1,3;
 2/9=110,12=2,17=6,18=5,40=1/2;
 3/5=1,6=6,7=101,11=2,16=1,25=1,30=1,71=1,74=-5/1,2,3;
 4//1;
 5/5=2,38=5/2;
 6/7=2,8=2,9=2,10=2,28=1/1;
 7//1,2,3,16;
 1/14=-1,18=20,19=15,26=3/3(2);
 2/9=110/2;
 99//99;
 2/9=110/2;
 3/5=1,6=6,7=101,11=2,16=1,25=1,30=1,71=1,74=-5/1,2,3;
 4/5=5,16=3,69=1/1;
 5/5=2,38=5/2;
 7//1,2,3,16;
 1/14=-1,18=20,19=15,26=3/3(-5);
 2/9=110/2;
 6/7=2,8=2,9=2,10=2,19=2,28=1/1;
 99/9=1/99;
 Leave Link    1 at Fri Aug 20 15:57:13 2021, MaxMem= 24159191040 cpu:         2.5
 (Enter /public/home/users/caep010/software/Gaussian09/g09/l101.exe)
 ------
 ZEVQUM
 ------
 Symbolic Z-matrix:
 Charge =  0 Multiplicity = 1
 N                     5.8493    1.7036    4.8096 
 N                     5.4859    1.7036    3.4831 
 C                     6.2416    1.7036    1.5499 
 C                     5.9609    2.7885    2.5921 
 C                     5.9609    0.6188    2.5921 
 H                     7.0558    1.7036    1.0612 
 H                     5.2944    3.4175    2.3411 
 H                     5.2944   -0.0102    2.3411 
 H                     6.7314    3.2492    2.9021 
 H                     6.7314    0.1581    2.9021 
 N                     5.2312    1.7036    0.4326 
 O                     4.0601    1.7036    0.7303 
 O                     5.6328    1.7036   -0.7017 
 O                     5.9767    0.6092    5.3363 
 O                     5.9767    2.798     5.3363 
 
 NAtoms=     15 NQM=       15 NQMF=       0 NMMI=      0 NMMIF=      0
                NMic=       0 NMicF=      0.
                    Isotopes and Nuclear Properties:
 (Nuclear quadrupole moments (NQMom) in fm**2, nuclear magnetic moments (NMagM)
  in nuclear magnetons)

  Atom         1           2           3           4           5           6           7           8           9          10
 IAtWgt=          14          14          12          12          12           1           1           1           1           1
 AtmWgt=  14.0030740  14.0030740  12.0000000  12.0000000  12.0000000   1.0078250   1.0078250   1.0078250   1.0078250   1.0078250
 NucSpn=           2           2           0           0           0           1           1           1           1           1
 AtZEff=   0.0000000   0.0000000   0.0000000   0.0000000   0.0000000   0.0000000   0.0000000   0.0000000   0.0000000   0.0000000
 NQMom=    2.0440000   2.0440000   0.0000000   0.0000000   0.0000000   0.0000000   0.0000000   0.0000000   0.0000000   0.0000000
 NMagM=    0.4037610   0.4037610   0.0000000   0.0000000   0.0000000   2.7928460   2.7928460   2.7928460   2.7928460   2.7928460
 AtZNuc=   7.0000000   7.0000000   6.0000000   6.0000000   6.0000000   1.0000000   1.0000000   1.0000000   1.0000000   1.0000000

  Atom        11          12          13          14          15
 IAtWgt=          14          16          16          16          16
 AtmWgt=  14.0030740  15.9949146  15.9949146  15.9949146  15.9949146
 NucSpn=           2           0           0           0           0
 AtZEff=   0.0000000   0.0000000   0.0000000   0.0000000   0.0000000
 NQMom=    2.0440000   0.0000000   0.0000000   0.0000000   0.0000000
 NMagM=    0.4037610   0.0000000   0.0000000   0.0000000   0.0000000
 AtZNuc=   7.0000000   8.0000000   8.0000000   8.0000000   8.0000000
 Leave Link  101 at Fri Aug 20 15:57:14 2021, MaxMem= 24159191040 cpu:        10.0
 (Enter /public/home/users/caep010/software/Gaussian09/g09/l103.exe)

 GradGradGradGradGradGradGradGradGradGradGradGradGradGradGradGradGradGrad
 Berny optimization.
 Initialization pass.
                           ----------------------------
                           !    Initial Parameters    !
                           ! (Angstroms and Degrees)  !
 --------------------------                            --------------------------
 ! Name  Definition              Value          Derivative Info.                !
 --------------------------------------------------------------------------------
 ! R1    R(1,2)                  1.3754         estimate D2E/DX2                !
 ! R2    R(1,14)                 1.2212         estimate D2E/DX2                !
 ! R3    R(1,15)                 1.2212         estimate D2E/DX2                !
 ! R4    R(2,4)                  1.4821         estimate D2E/DX2                !
 ! R5    R(2,5)                  1.482          estimate D2E/DX2                !
 ! R6    R(3,4)                  1.5304         estimate D2E/DX2                !
 ! R7    R(3,5)                  1.5303         estimate D2E/DX2                !
 ! R8    R(3,6)                  0.9496         estimate D2E/DX2                !
 ! R9    R(3,11)                 1.5064         estimate D2E/DX2                !
 ! R10   R(4,7)                  0.9502         estimate D2E/DX2                !
 ! R11   R(4,9)                  0.9497         estimate D2E/DX2                !
 ! R12   R(5,8)                  0.9502         estimate D2E/DX2                !
 ! R13   R(5,10)                 0.9497         estimate D2E/DX2                !
 ! R14   R(11,12)                1.2083         estimate D2E/DX2                !
 ! R15   R(11,13)                1.2033         estimate D2E/DX2                !
 ! A1    A(2,1,14)             116.3294         estimate D2E/DX2                !
 ! A2    A(2,1,15)             116.3294         estimate D2E/DX2                !
 ! A3    A(14,1,15)            127.3156         estimate D2E/DX2                !
 ! A4    A(1,2,4)              119.6791         estimate D2E/DX2                !
 ! A5    A(1,2,5)              119.6807         estimate D2E/DX2                !
 ! A6    A(4,2,5)               94.1093         estimate D2E/DX2                !
 ! A7    A(4,3,5)               90.2918         estimate D2E/DX2                !
 ! A8    A(4,3,6)              120.5137         estimate D2E/DX2                !
 ! A9    A(4,3,11)             112.4628         estimate D2E/DX2                !
 ! A10   A(5,3,6)              120.5152         estimate D2E/DX2                !
 ! A11   A(5,3,11)             112.4639         estimate D2E/DX2                !
 ! A12   A(6,3,11)             101.1507         estimate D2E/DX2                !
 ! A13   A(2,4,3)               87.0917         estimate D2E/DX2                !
 ! A14   A(2,4,7)              114.7446         estimate D2E/DX2                !
 ! A15   A(2,4,9)              114.7631         estimate D2E/DX2                !
 ! A16   A(3,4,7)              114.7114         estimate D2E/DX2                !
 ! A17   A(3,4,9)              114.6683         estimate D2E/DX2                !
 ! A18   A(7,4,9)              109.5221         estimate D2E/DX2                !
 ! A19   A(2,5,3)               87.097          estimate D2E/DX2                !
 ! A20   A(2,5,8)              114.7431         estimate D2E/DX2                !
 ! A21   A(2,5,10)             114.7624         estimate D2E/DX2                !
 ! A22   A(3,5,8)              114.7099         estimate D2E/DX2                !
 ! A23   A(3,5,10)             114.6675         estimate D2E/DX2                !
 ! A24   A(8,5,10)             109.5221         estimate D2E/DX2                !
 ! A25   A(3,11,12)            117.861          estimate D2E/DX2                !
 ! A26   A(3,11,13)            118.3797         estimate D2E/DX2                !
 ! A27   A(12,11,13)           123.7594         estimate D2E/DX2                !
 ! D1    D(14,1,2,4)          -148.2635         estimate D2E/DX2                !
 ! D2    D(14,1,2,5)           -33.4446         estimate D2E/DX2                !
 ! D3    D(15,1,2,4)            33.4422         estimate D2E/DX2                !
 ! D4    D(15,1,2,5)           148.2611         estimate D2E/DX2                !
 ! D5    D(1,2,4,3)            136.8922         estimate D2E/DX2                !
 ! D6    D(1,2,4,7)           -107.1638         estimate D2E/DX2                !
 ! D7    D(1,2,4,9)             20.9932         estimate D2E/DX2                !
 ! D8    D(5,2,4,3)              9.1327         estimate D2E/DX2                !
 ! D9    D(5,2,4,7)            125.0767         estimate D2E/DX2                !
 ! D10   D(5,2,4,9)           -106.7664         estimate D2E/DX2                !
 ! D11   D(1,2,5,3)           -136.8914         estimate D2E/DX2                !
 ! D12   D(1,2,5,8)            107.164          estimate D2E/DX2                !
 ! D13   D(1,2,5,10)           -20.9908         estimate D2E/DX2                !
 ! D14   D(4,2,5,3)             -9.1331         estimate D2E/DX2                !
 ! D15   D(4,2,5,8)           -125.0777         estimate D2E/DX2                !
 ! D16   D(4,2,5,10)           106.7675         estimate D2E/DX2                !
 ! D17   D(5,3,4,2)             -8.8193         estimate D2E/DX2                !
 ! D18   D(5,3,4,7)           -124.7947         estimate D2E/DX2                !
 ! D19   D(5,3,4,9)            107.1694         estimate D2E/DX2                !
 ! D20   D(6,3,4,2)           -135.147          estimate D2E/DX2                !
 ! D21   D(6,3,4,7)            108.8776         estimate D2E/DX2                !
 ! D22   D(6,3,4,9)            -19.1583         estimate D2E/DX2                !
 ! D23   D(11,3,4,2)           105.7367         estimate D2E/DX2                !
 ! D24   D(11,3,4,7)           -10.2387         estimate D2E/DX2                !
 ! D25   D(11,3,4,9)          -138.2745         estimate D2E/DX2                !
 ! D26   D(4,3,5,2)              8.8197         estimate D2E/DX2                !
 ! D27   D(4,3,5,8)            124.7957         estimate D2E/DX2                !
 ! D28   D(4,3,5,10)          -107.1706         estimate D2E/DX2                !
 ! D29   D(6,3,5,2)            135.1462         estimate D2E/DX2                !
 ! D30   D(6,3,5,8)           -108.8778         estimate D2E/DX2                !
 ! D31   D(6,3,5,10)            19.1559         estimate D2E/DX2                !
 ! D32   D(11,3,5,2)          -105.7353         estimate D2E/DX2                !
 ! D33   D(11,3,5,8)            10.2407         estimate D2E/DX2                !
 ! D34   D(11,3,5,10)          138.2744         estimate D2E/DX2                !
 ! D35   D(4,3,11,12)          -50.0964         estimate D2E/DX2                !
 ! D36   D(4,3,11,13)          129.9036         estimate D2E/DX2                !
 ! D37   D(5,3,11,12)           50.0938         estimate D2E/DX2                !
 ! D38   D(5,3,11,13)         -129.9062         estimate D2E/DX2                !
 ! D39   D(6,3,11,12)          180.0            estimate D2E/DX2                !
 ! D40   D(6,3,11,13)            0.0            estimate D2E/DX2                !
 --------------------------------------------------------------------------------
 Trust Radius=3.00D-01 FncErr=1.00D-07 GrdErr=1.00D-06
 Number of steps in this run=     92 maximum allowed number of steps=    100.
 GradGradGradGradGradGradGradGradGradGradGradGradGradGradGradGradGradGrad

 Leave Link  103 at Fri Aug 20 15:57:14 2021, MaxMem= 24159191040 cpu:         0.7
 (Enter /public/home/users/caep010/software/Gaussian09/g09/l202.exe)
                          Input orientation:                          
 ---------------------------------------------------------------------
 Center     Atomic      Atomic             Coordinates (Angstroms)
 Number     Number       Type             X           Y           Z
 ---------------------------------------------------------------------
      1          7           0        5.849300    1.703600    4.809600
      2          7           0        5.485900    1.703600    3.483100
      3          6           0        6.241600    1.703600    1.549900
      4          6           0        5.960900    2.788500    2.592100
      5          6           0        5.960900    0.618800    2.592100
      6          1           0        7.055800    1.703600    1.061200
      7          1           0        5.294400    3.417500    2.341100
      8          1           0        5.294400   -0.010200    2.341100
      9          1           0        6.731400    3.249200    2.902100
     10          1           0        6.731400    0.158100    2.902100
     11          7           0        5.231200    1.703600    0.432600
     12          8           0        4.060100    1.703600    0.730300
     13          8           0        5.632800    1.703600   -0.701700
     14          8           0        5.976700    0.609200    5.336300
     15          8           0        5.976700    2.798000    5.336300
 ---------------------------------------------------------------------
                    Distance matrix (angstroms):
                    1          2          3          4          5
     1  N    0.000000
     2  N    1.375377   0.000000
     3  C    3.283221   2.075655   0.000000
     4  C    2.471188   1.482064   1.530353   0.000000
     5  C    2.471144   1.481991   1.530282   2.169700   0.000000
     6  H    3.937784   2.886206   0.949605   2.172434   2.172384
     7  H    3.055955   2.068403   2.112022   0.950192   2.887896
     8  H    3.055899   2.068320   2.111941   2.887896   0.950192
     9  H    2.608742   2.068263   2.111215   0.949745   2.758401
    10  H    2.608683   2.068188   2.111142   2.758401   0.949745
    11  N    4.420427   3.061115   1.506409   2.524462   2.524419
    12  O    4.454428   3.100131   2.330383   2.873386   2.873348
    13  O    5.515551   4.187378   2.332454   3.483357   3.483326
    14  O    1.221210   2.207475   3.950280   3.504316   2.744262
    15  O    1.221210   2.207475   3.950280   2.744262   3.504254
                    6          7          8          9         10
     6  H    0.000000
     7  H    2.770943   0.000000
     8  H    2.770882   3.427700   0.000000
     9  H    2.425495   1.551778   3.606020   0.000000
    10  H    2.425432   3.606020   1.551778   3.091100   0.000000
    11  N    1.929845   2.565895   2.565829   3.276875   3.276828
    12  O    3.013920   2.656243   2.656178   3.773783   3.773742
    13  O    2.265556   3.508646   3.508598   4.072245   4.072207
    14  O    4.542978   4.162127   3.133754   3.669401   2.588125
    15  O    4.542978   3.133774   4.162060   2.588143   3.669329
                   11         12         13         14         15
    11  N    0.000000
    12  O    1.208346   0.000000
    13  O    1.203295   2.126972   0.000000
    14  O    5.079346   5.107475   6.146009   0.000000
    15  O    5.079346   5.107475   6.146009   2.188800   0.000000
 Stoichiometry    C3H5N3O4
 Framework group  C1[X(C3H5N3O4)]
 Deg. of freedom    39
 Full point group                 C1      NOp   1
 Largest Abelian subgroup         C1      NOp   1
 Largest concise Abelian subgroup C1      NOp   1
                         Standard orientation:                         
 ---------------------------------------------------------------------
 Center     Atomic      Atomic             Coordinates (Angstroms)
 Number     Number       Type             X           Y           Z
 ---------------------------------------------------------------------
      1          7           0        2.202277   -0.000012    0.112873
      2          7           0        0.837567   -0.000015    0.283833
      3          6           0       -0.968439   -0.000000   -0.739246
      4          6           0        0.023218    1.084894   -0.313096
      5          6           0        0.023218   -1.084806   -0.313126
      6          1           0       -1.336317    0.000012   -1.614697
      7          1           0       -0.320062    1.713885    0.310918
      8          1           0       -0.320062   -1.713815    0.310870
      9          1           0        0.439695    1.545604   -1.031641
     10          1           0        0.439695   -1.545496   -1.031685
     11          7           0       -2.218137   -0.000012    0.101898
     12          8           0       -2.090097   -0.000029    1.303441
     13          8           0       -3.283754   -0.000004   -0.457011
     14          8           0        2.741745   -1.094412    0.061696
     15          8           0        2.741745    1.094388    0.061726
 ---------------------------------------------------------------------
 Rotational constants (GHZ):      4.1021393      0.7334787      0.7015170
 Leave Link  202 at Fri Aug 20 15:57:14 2021, MaxMem= 24159191040 cpu:         0.5
 (Enter /public/home/users/caep010/software/Gaussian09/g09/l301.exe)
 Standard basis: 6-31G(d,p) (6D, 7F)
 Ernie: Thresh=  0.10000D-02 Tol=  0.10000D-05 Strict=F.
 There are   175 symmetry adapted cartesian basis functions of A   symmetry.
 There are   175 symmetry adapted basis functions of A   symmetry.
   175 basis functions,   315 primitive gaussians,   175 cartesian basis functions
    38 alpha electrons       38 beta electrons
       nuclear repulsion energy       564.5161903767 Hartrees.
 IExCor=  402 DFT=T Ex+Corr=B3LYP ExCW=0 ScaHFX=  0.200000
 ScaDFX=  0.800000  0.720000  1.000000  0.810000 ScalE2=  1.000000  1.000000
 IRadAn=      0 IRanWt=     -1 IRanGd=            0 ICorTp=0 IEmpDi=  4
 NAtoms=   15 NActive=   15 NUniq=   15 SFac= 1.00D+00 NAtFMM=   60 NAOKFM=F Big=F
 Integral buffers will be    131072 words long.
 Raffenetti 2 integral format.
 Two-electron integral symmetry is turned on.
 Leave Link  301 at Fri Aug 20 15:57:14 2021, MaxMem= 24159191040 cpu:         2.0
 (Enter /public/home/users/caep010/software/Gaussian09/g09/l302.exe)
 NPDir=0 NMtPBC=     1 NCelOv=     1 NCel=       1 NClECP=     1 NCelD=      1
         NCelK=      1 NCelE2=     1 NClLst=     1 CellRange=     0.0.
 One-electron integrals computed using PRISM.
 NBasis=   175 RedAO= T EigKep=  1.80D-03  NBF=   175
 NBsUse=   175 1.00D-06 EigRej= -1.00D+00 NBFU=   175
 Precomputing XC quadrature grid using
 IXCGrd= 4 IRadAn=           0 IRanWt=          -1 IRanGd=           0 AccXCQ= 0.00D+00.
 Generated NRdTot=       0 NPtTot=           0 NUsed=           0 NTot=          32
 NSgBfM=   174   174   174   174   175 MxSgAt=    15 MxSgA2=    15.
 Leave Link  302 at Fri Aug 20 15:57:14 2021, MaxMem= 24159191040 cpu:        12.0
 (Enter /public/home/users/caep010/software/Gaussian09/g09/l303.exe)
 DipDrv:  MaxL=1.
 Leave Link  303 at Fri Aug 20 15:57:14 2021, MaxMem= 24159191040 cpu:         0.8
 (Enter /public/home/users/caep010/software/Gaussian09/g09/l401.exe)
 ExpMin= 1.61D-01 ExpMax= 5.48D+03 ExpMxC= 8.25D+02 IAcc=1 IRadAn=         1 AccDes= 0.00D+00
 Harris functional with IExCor=  402 and IRadAn=       1 diagonalized for initial guess.
 HarFok:  IExCor=  402 AccDes= 0.00D+00 IRadAn=         1 IDoV= 1 UseB2=F ITyADJ=14
 ICtDFT=  3500011 ScaDFX=  1.000000  1.000000  1.000000  1.000000
 FoFCou: FMM=F IPFlag=           0 FMFlag=      100000 FMFlg1=           0
         NFxFlg=           0 DoJE=T BraDBF=F KetDBF=T FulRan=T
         wScrn=  0.000000 ICntrl=     500 IOpCl=  0 I1Cent=   200000004 NGrid=           0
         NMat0=    1 NMatS0=      1 NMatT0=    0 NMatD0=    1 NMtDS0=    0 NMtDT0=    0
 Petite list used in FoFCou.
 Harris En= -582.233391125976    
 JPrj=0 DoOrth=F DoCkMO=F.
 Leave Link  401 at Fri Aug 20 15:57:15 2021, MaxMem= 24159191040 cpu:        14.3
 (Enter /public/home/users/caep010/software/Gaussian09/g09/l502.exe)
 Closed shell SCF:
 Using DIIS extrapolation, IDIIS=  1040.
 Integral symmetry usage will be decided dynamically.
 Keep R1 ints in memory in canonical form, NReq=121430835.
 IVT=      117335 IEndB=      117335 NGot= 24159191040 MDV= 24040486006
 LenX= 24040486006 LenY= 24040454940
 Requested convergence on RMS density matrix=1.00D-08 within 128 cycles.
 Requested convergence on MAX density matrix=1.00D-06.
 Requested convergence on             energy=1.00D-06.
 No special actions if energy rises.
 FoFCou: FMM=F IPFlag=           0 FMFlag=           0 FMFlg1=           0
         NFxFlg=           0 DoJE=F BraDBF=F KetDBF=F FulRan=T
         wScrn=  0.000000 ICntrl=     600 IOpCl=  0 I1Cent=           0 NGrid=           0
         NMat0=    1 NMatS0=  15400 NMatT0=    0 NMatD0=    1 NMtDS0=    0 NMtDT0=    0
 Symmetry not used in FoFCou.
 Integral accuracy reduced to 1.0D-05 until final iterations.

 Cycle   1  Pass 0  IDiag  1:
 E= -581.746936354469    
 DIIS: error= 4.87D-02 at cycle   1 NSaved=   1.
 NSaved= 1 IEnMin= 1 EnMin= -581.746936354469     IErMin= 1 ErrMin= 4.87D-02
 ErrMax= 4.87D-02  0.00D+00 EMaxC= 1.00D-01 BMatC= 5.40D-01 BMatP= 5.40D-01
 IDIUse=3 WtCom= 5.13D-01 WtEn= 4.87D-01
 Coeff-Com:  0.100D+01
 Coeff-En:   0.100D+01
 Coeff:      0.100D+01
 Gap=     0.189 Goal=   None    Shift=    0.000
 GapD=    0.189 DampG=1.000 DampE=0.500 DampFc=0.5000 IDamp=-1.
 Damping current iteration by 5.00D-01
 RMSDP=7.70D-03 MaxDP=2.80D-01              OVMax= 3.33D-01

 Cycle   2  Pass 0  IDiag  1:
 E= -581.805623909829     Delta-E=       -0.058687555359 Rises=F Damp=T
 DIIS: error= 2.27D-02 at cycle   2 NSaved=   2.
 NSaved= 2 IEnMin= 2 EnMin= -581.805623909829     IErMin= 2 ErrMin= 2.27D-02
 ErrMax= 2.27D-02  0.00D+00 EMaxC= 1.00D-01 BMatC= 1.17D-01 BMatP= 5.40D-01
 IDIUse=3 WtCom= 7.73D-01 WtEn= 2.27D-01
 Coeff-Com:  0.292D+00 0.708D+00
 Coeff-En:   0.438D+00 0.562D+00
 Coeff:      0.325D+00 0.675D+00
 Gap=     0.213 Goal=   None    Shift=    0.000
 RMSDP=2.06D-03 MaxDP=6.89D-02 DE=-5.87D-02 OVMax= 1.98D-01

 Cycle   3  Pass 0  IDiag  1:
 E= -582.131981798803     Delta-E=       -0.326357888974 Rises=F Damp=F
 DIIS: error= 1.12D-02 at cycle   3 NSaved=   3.
 NSaved= 3 IEnMin= 3 EnMin= -582.131981798803     IErMin= 3 ErrMin= 1.12D-02
 ErrMax= 1.12D-02  0.00D+00 EMaxC= 1.00D-01 BMatC= 1.61D-02 BMatP= 1.17D-01
 IDIUse=3 WtCom= 8.88D-01 WtEn= 1.12D-01
 Coeff-Com:  0.127D+00 0.273D+00 0.600D+00
 Coeff-En:   0.000D+00 0.000D+00 0.100D+01
 Coeff:      0.113D+00 0.242D+00 0.645D+00
 Gap=     0.234 Goal=   None    Shift=    0.000
 RMSDP=1.19D-03 MaxDP=4.11D-02 DE=-3.26D-01 OVMax= 4.59D-02

 Cycle   4  Pass 0  IDiag  1:
 E= -582.139682312278     Delta-E=       -0.007700513475 Rises=F Damp=F
 DIIS: error= 4.83D-03 at cycle   4 NSaved=   4.
 NSaved= 4 IEnMin= 4 EnMin= -582.139682312278     IErMin= 4 ErrMin= 4.83D-03
 ErrMax= 4.83D-03  0.00D+00 EMaxC= 1.00D-01 BMatC= 9.22D-03 BMatP= 1.61D-02
 IDIUse=3 WtCom= 9.52D-01 WtEn= 4.83D-02
 Coeff-Com:  0.439D-01 0.658D-01 0.420D+00 0.470D+00
 Coeff-En:   0.000D+00 0.000D+00 0.352D+00 0.648D+00
 Coeff:      0.418D-01 0.626D-01 0.417D+00 0.479D+00
 Gap=     0.222 Goal=   None    Shift=    0.000
 RMSDP=5.61D-04 MaxDP=1.95D-02 DE=-7.70D-03 OVMax= 3.26D-02

 Cycle   5  Pass 0  IDiag  1:
 E= -582.147147264708     Delta-E=       -0.007464952431 Rises=F Damp=F
 DIIS: error= 1.22D-03 at cycle   5 NSaved=   5.
 NSaved= 5 IEnMin= 5 EnMin= -582.147147264708     IErMin= 5 ErrMin= 1.22D-03
 ErrMax= 1.22D-03  0.00D+00 EMaxC= 1.00D-01 BMatC= 5.13D-04 BMatP= 9.22D-03
 IDIUse=3 WtCom= 9.88D-01 WtEn= 1.22D-02
 Coeff-Com:  0.119D-01 0.610D-02 0.166D+00 0.256D+00 0.560D+00
 Coeff-En:   0.000D+00 0.000D+00 0.000D+00 0.000D+00 0.100D+01
 Coeff:      0.117D-01 0.603D-02 0.164D+00 0.253D+00 0.566D+00
 Gap=     0.220 Goal=   None    Shift=    0.000
 RMSDP=1.46D-04 MaxDP=6.46D-03 DE=-7.46D-03 OVMax= 1.12D-02

 Cycle   6  Pass 0  IDiag  1:
 E= -582.147405943128     Delta-E=       -0.000258678419 Rises=F Damp=F
 DIIS: error= 1.30D-03 at cycle   6 NSaved=   6.
 NSaved= 6 IEnMin= 6 EnMin= -582.147405943128     IErMin= 5 ErrMin= 1.22D-03
 ErrMax= 1.30D-03  0.00D+00 EMaxC= 1.00D-01 BMatC= 1.83D-04 BMatP= 5.13D-04
 IDIUse=3 WtCom= 9.88D-01 WtEn= 1.22D-02
 Coeff-Com:  0.393D-02-0.260D-02 0.741D-01 0.129D+00 0.404D+00 0.392D+00
 Coeff-En:   0.000D+00 0.000D+00 0.000D+00 0.000D+00 0.278D+00 0.722D+00
 Coeff:      0.388D-02-0.257D-02 0.732D-01 0.127D+00 0.402D+00 0.396D+00
 Gap=     0.220 Goal=   None    Shift=    0.000
 RMSDP=7.76D-05 MaxDP=4.01D-03 DE=-2.59D-04 OVMax= 7.72D-03

 Cycle   7  Pass 0  IDiag  1:
 E= -582.147530570546     Delta-E=       -0.000124627418 Rises=F Damp=F
 DIIS: error= 5.02D-04 at cycle   7 NSaved=   7.
 NSaved= 7 IEnMin= 7 EnMin= -582.147530570546     IErMin= 7 ErrMin= 5.02D-04
 ErrMax= 5.02D-04  0.00D+00 EMaxC= 1.00D-01 BMatC= 2.65D-05 BMatP= 1.83D-04
 IDIUse=3 WtCom= 9.95D-01 WtEn= 5.02D-03
 Coeff-Com:  0.116D-02-0.291D-02 0.303D-01 0.556D-01 0.216D+00 0.295D+00
 Coeff-Com:  0.405D+00
 Coeff-En:   0.000D+00 0.000D+00 0.000D+00 0.000D+00 0.000D+00 0.138D+00
 Coeff-En:   0.862D+00
 Coeff:      0.115D-02-0.289D-02 0.301D-01 0.553D-01 0.215D+00 0.294D+00
 Coeff:      0.408D+00
 Gap=     0.220 Goal=   None    Shift=    0.000
 RMSDP=2.49D-05 MaxDP=1.24D-03 DE=-1.25D-04 OVMax= 2.24D-03

 Cycle   8  Pass 0  IDiag  1:
 E= -582.147550483878     Delta-E=       -0.000019913333 Rises=F Damp=F
 DIIS: error= 5.29D-05 at cycle   8 NSaved=   8.
 NSaved= 8 IEnMin= 8 EnMin= -582.147550483878     IErMin= 8 ErrMin= 5.29D-05
 ErrMax= 5.29D-05  0.00D+00 EMaxC= 1.00D-01 BMatC= 9.68D-07 BMatP= 2.65D-05
 IDIUse=1 WtCom= 1.00D+00 WtEn= 0.00D+00
 Coeff-Com:  0.198D-03-0.149D-02 0.871D-02 0.162D-01 0.782D-01 0.125D+00
 Coeff-Com:  0.223D+00 0.551D+00
 Coeff:      0.198D-03-0.149D-02 0.871D-02 0.162D-01 0.782D-01 0.125D+00
 Coeff:      0.223D+00 0.551D+00
 Gap=     0.220 Goal=   None    Shift=    0.000
 RMSDP=5.79D-06 MaxDP=2.12D-04 DE=-1.99D-05 OVMax= 2.53D-04

 Initial convergence to 1.0D-05 achieved.  Increase integral accuracy.
 Cycle   9  Pass 1  IDiag  1:
 E= -582.147597669375     Delta-E=       -0.000047185496 Rises=F Damp=F
 DIIS: error= 2.58D-05 at cycle   1 NSaved=   1.
 NSaved= 1 IEnMin= 1 EnMin= -582.147597669375     IErMin= 1 ErrMin= 2.58D-05
 ErrMax= 2.58D-05  0.00D+00 EMaxC= 1.00D-01 BMatC= 2.06D-07 BMatP= 2.06D-07
 IDIUse=1 WtCom= 1.00D+00 WtEn= 0.00D+00
 Coeff-Com:  0.100D+01
 Coeff:      0.100D+01
 Gap=     0.220 Goal=   None    Shift=    0.000
 RMSDP=5.79D-06 MaxDP=2.12D-04 DE=-4.72D-05 OVMax= 1.62D-04

 Cycle  10  Pass 1  IDiag  1:
 E= -582.147597540474     Delta-E=        0.000000128900 Rises=F Damp=F
 DIIS: error= 4.23D-05 at cycle   2 NSaved=   2.
 NSaved= 2 IEnMin= 1 EnMin= -582.147597669375     IErMin= 1 ErrMin= 2.58D-05
 ErrMax= 4.23D-05  0.00D+00 EMaxC= 1.00D-01 BMatC= 4.25D-07 BMatP= 2.06D-07
 IDIUse=1 WtCom= 1.00D+00 WtEn= 0.00D+00
 Coeff-Com:  0.604D+00 0.396D+00
 Coeff:      0.604D+00 0.396D+00
 Gap=     0.220 Goal=   None    Shift=    0.000
 RMSDP=3.03D-06 MaxDP=1.29D-04 DE= 1.29D-07 OVMax= 1.88D-04

 Cycle  11  Pass 1  IDiag  1:
 E= -582.147597818412     Delta-E=       -0.000000277937 Rises=F Damp=F
 DIIS: error= 1.64D-05 at cycle   3 NSaved=   3.
 NSaved= 3 IEnMin= 3 EnMin= -582.147597818412     IErMin= 3 ErrMin= 1.64D-05
 ErrMax= 1.64D-05  0.00D+00 EMaxC= 1.00D-01 BMatC= 3.33D-08 BMatP= 2.06D-07
 IDIUse=1 WtCom= 1.00D+00 WtEn= 0.00D+00
 Coeff-Com:  0.129D+00 0.220D+00 0.650D+00
 Coeff:      0.129D+00 0.220D+00 0.650D+00
 Gap=     0.220 Goal=   None    Shift=    0.000
 RMSDP=1.43D-06 MaxDP=6.90D-05 DE=-2.78D-07 OVMax= 1.40D-04

 Cycle  12  Pass 1  IDiag  1:
 E= -582.147597821068     Delta-E=       -0.000000002656 Rises=F Damp=F
 DIIS: error= 1.72D-05 at cycle   4 NSaved=   4.
 NSaved= 4 IEnMin= 4 EnMin= -582.147597821068     IErMin= 3 ErrMin= 1.64D-05
 ErrMax= 1.72D-05  0.00D+00 EMaxC= 1.00D-01 BMatC= 2.88D-08 BMatP= 3.33D-08
 IDIUse=1 WtCom= 1.00D+00 WtEn= 0.00D+00
 Coeff-Com: -0.624D-02 0.108D+00 0.534D+00 0.365D+00
 Coeff:     -0.624D-02 0.108D+00 0.534D+00 0.365D+00
 Gap=     0.220 Goal=   None    Shift=    0.000
 RMSDP=7.91D-07 MaxDP=4.17D-05 DE=-2.66D-09 OVMax= 8.07D-05

 Cycle  13  Pass 1  IDiag  1:
 E= -582.147597842940     Delta-E=       -0.000000021872 Rises=F Damp=F
 DIIS: error= 1.70D-06 at cycle   5 NSaved=   5.
 NSaved= 5 IEnMin= 5 EnMin= -582.147597842940     IErMin= 5 ErrMin= 1.70D-06
 ErrMax= 1.70D-06  0.00D+00 EMaxC= 1.00D-01 BMatC= 6.49D-10 BMatP= 2.88D-08
 IDIUse=1 WtCom= 1.00D+00 WtEn= 0.00D+00
 Coeff-Com: -0.103D-01 0.528D-01 0.280D+00 0.222D+00 0.456D+00
 Coeff:     -0.103D-01 0.528D-01 0.280D+00 0.222D+00 0.456D+00
 Gap=     0.220 Goal=   None    Shift=    0.000
 RMSDP=1.31D-07 MaxDP=4.62D-06 DE=-2.19D-08 OVMax= 7.81D-06

 Cycle  14  Pass 1  IDiag  1:
 E= -582.147597843425     Delta-E=       -0.000000000485 Rises=F Damp=F
 DIIS: error= 3.66D-07 at cycle   6 NSaved=   6.
 NSaved= 6 IEnMin= 6 EnMin= -582.147597843425     IErMin= 6 ErrMin= 3.66D-07
 ErrMax= 3.66D-07  0.00D+00 EMaxC= 1.00D-01 BMatC= 3.97D-11 BMatP= 6.49D-10
 IDIUse=1 WtCom= 1.00D+00 WtEn= 0.00D+00
 Coeff-Com: -0.572D-02 0.216D-01 0.116D+00 0.101D+00 0.261D+00 0.506D+00
 Coeff:     -0.572D-02 0.216D-01 0.116D+00 0.101D+00 0.261D+00 0.506D+00
 Gap=     0.220 Goal=   None    Shift=    0.000
 RMSDP=3.95D-08 MaxDP=1.64D-06 DE=-4.85D-10 OVMax= 1.98D-06

 Cycle  15  Pass 1  IDiag  1:
 E= -582.147597843464     Delta-E=       -0.000000000038 Rises=F Damp=F
 DIIS: error= 1.33D-07 at cycle   7 NSaved=   7.
 NSaved= 7 IEnMin= 7 EnMin= -582.147597843464     IErMin= 7 ErrMin= 1.33D-07
 ErrMax= 1.33D-07  0.00D+00 EMaxC= 1.00D-01 BMatC= 3.45D-12 BMatP= 3.97D-11
 IDIUse=1 WtCom= 1.00D+00 WtEn= 0.00D+00
 Coeff-Com: -0.154D-02 0.490D-02 0.264D-01 0.266D-01 0.805D-01 0.264D+00
 Coeff-Com:  0.599D+00
 Coeff:     -0.154D-02 0.490D-02 0.264D-01 0.266D-01 0.805D-01 0.264D+00
 Coeff:      0.599D+00
 Gap=     0.220 Goal=   None    Shift=    0.000
 RMSDP=1.34D-08 MaxDP=4.42D-07 DE=-3.82D-11 OVMax= 8.99D-07

 Cycle  16  Pass 1  IDiag  1:
 E= -582.147597843458     Delta-E=        0.000000000005 Rises=F Damp=F
 DIIS: error= 4.98D-08 at cycle   8 NSaved=   8.
 NSaved= 8 IEnMin= 7 EnMin= -582.147597843464     IErMin= 8 ErrMin= 4.98D-08
 ErrMax= 4.98D-08  0.00D+00 EMaxC= 1.00D-01 BMatC= 6.73D-13 BMatP= 3.45D-12
 IDIUse=1 WtCom= 1.00D+00 WtEn= 0.00D+00
 Coeff-Com: -0.183D-03-0.150D-05-0.124D-03 0.262D-02 0.135D-01 0.799D-01
 Coeff-Com:  0.363D+00 0.542D+00
 Coeff:     -0.183D-03-0.150D-05-0.124D-03 0.262D-02 0.135D-01 0.799D-01
 Coeff:      0.363D+00 0.542D+00
 Gap=     0.220 Goal=   None    Shift=    0.000
 RMSDP=4.53D-09 MaxDP=1.12D-07 DE= 5.46D-12 OVMax= 1.55D-07

 SCF Done:  E(RB3LYP) =  -582.147597843     A.U. after   16 cycles
            NFock= 16  Conv=0.45D-08     -V/T= 2.0060
 KE= 5.786800641106D+02 PE=-2.492129066796D+03 EE= 7.667852144649D+02
 Leave Link  502 at Fri Aug 20 15:57:20 2021, MaxMem= 24159191040 cpu:        73.2
 (Enter /public/home/users/caep010/software/Gaussian09/g09/l601.exe)
 Copying SCF densities to generalized density rwf, IOpCl= 0 IROHF=0.

 **********************************************************************

            Population analysis using the SCF density.

 **********************************************************************

 Orbital symmetries:
       Occupied  (A) (A) (A) (A) (A) (A) (A) (A) (A) (A) (A) (A)
                 (A) (A) (A) (A) (A) (A) (A) (A) (A) (A) (A) (A)
                 (A) (A) (A) (A) (A) (A) (A) (A) (A) (A) (A) (A)
                 (A) (A)
       Virtual   (A) (A) (A) (A) (A) (A) (A) (A) (A) (A) (A) (A)
                 (A) (A) (A) (A) (A) (A) (A) (A) (A) (A) (A) (A)
                 (A) (A) (A) (A) (A) (A) (A) (A) (A) (A) (A) (A)
                 (A) (A) (A) (A) (A) (A) (A) (A) (A) (A) (A) (A)
                 (A) (A) (A) (A) (A) (A) (A) (A) (A) (A) (A) (A)
                 (A) (A) (A) (A) (A) (A) (A) (A) (A) (A) (A) (A)
                 (A) (A) (A) (A) (A) (A) (A) (A) (A) (A) (A) (A)
                 (A) (A) (A) (A) (A) (A) (A) (A) (A) (A) (A) (A)
                 (A) (A) (A) (A) (A) (A) (A) (A) (A) (A) (A) (A)
                 (A) (A) (A) (A) (A) (A) (A) (A) (A) (A) (A) (A)
                 (A) (A) (A) (A) (A) (A) (A) (A) (A) (A) (A) (A)
                 (A) (A) (A) (A) (A)
 The electronic state is 1-A.
 Alpha  occ. eigenvalues --  -19.20534 -19.20128 -19.19173 -19.19172 -14.61101
 Alpha  occ. eigenvalues --  -14.59220 -14.42881 -10.27705 -10.25352 -10.25351
 Alpha  occ. eigenvalues --   -1.26825  -1.26070  -1.08827  -1.07773  -1.02645
 Alpha  occ. eigenvalues --   -0.87839  -0.78600  -0.77134  -0.65195  -0.62933
 Alpha  occ. eigenvalues --   -0.59118  -0.58350  -0.57163  -0.56085  -0.53534
 Alpha  occ. eigenvalues --   -0.53453  -0.49495  -0.49302  -0.47714  -0.47155
 Alpha  occ. eigenvalues --   -0.41396  -0.33780  -0.33452  -0.32604  -0.32322
 Alpha  occ. eigenvalues --   -0.31597  -0.30478  -0.30230
 Alpha virt. eigenvalues --   -0.08249  -0.05988   0.05144   0.06629   0.09234
 Alpha virt. eigenvalues --    0.10050   0.15657   0.16271   0.16690   0.17176
 Alpha virt. eigenvalues --    0.18602   0.20411   0.25480   0.27329   0.28529
 Alpha virt. eigenvalues --    0.33845   0.35688   0.46731   0.47470   0.49121
 Alpha virt. eigenvalues --    0.50134   0.50802   0.54141   0.58380   0.58973
 Alpha virt. eigenvalues --    0.60428   0.65208   0.66036   0.68060   0.69383
 Alpha virt. eigenvalues --    0.74039   0.76862   0.77923   0.79334   0.81568
 Alpha virt. eigenvalues --    0.82736   0.83061   0.86863   0.87911   0.89045
 Alpha virt. eigenvalues --    0.90217   0.91242   0.91352   0.97114   0.97119
 Alpha virt. eigenvalues --    0.98683   1.00722   1.02120   1.02599   1.05005
 Alpha virt. eigenvalues --    1.05147   1.08355   1.08538   1.13187   1.21931
 Alpha virt. eigenvalues --    1.23172   1.25589   1.34091   1.35510   1.39120
 Alpha virt. eigenvalues --    1.42929   1.43201   1.46816   1.49698   1.54412
 Alpha virt. eigenvalues --    1.62476   1.64794   1.66390   1.69416   1.73630
 Alpha virt. eigenvalues --    1.73783   1.75045   1.77129   1.77926   1.78903
 Alpha virt. eigenvalues --    1.79789   1.83899   1.84521   1.85967   1.91553
 Alpha virt. eigenvalues --    1.92978   1.95813   1.98428   1.99469   2.00881
 Alpha virt. eigenvalues --    2.04250   2.07049   2.07627   2.13141   2.17127
 Alpha virt. eigenvalues --    2.19766   2.23018   2.27034   2.31616   2.33287
 Alpha virt. eigenvalues --    2.34157   2.40254   2.42914   2.49736   2.51241
 Alpha virt. eigenvalues --    2.52364   2.53349   2.57973   2.58323   2.62756
 Alpha virt. eigenvalues --    2.63665   2.69358   2.69616   2.76965   2.80506
 Alpha virt. eigenvalues --    2.84719   2.85918   2.86223   2.89874   2.90846
 Alpha virt. eigenvalues --    2.92295   3.00260   3.06964   3.06987   3.08541
 Alpha virt. eigenvalues --    3.14474   3.27469   3.61646   3.65180   3.68516
 Alpha virt. eigenvalues --    3.69069   3.74714   3.76957   3.78736   3.81965
 Alpha virt. eigenvalues --    3.89026   3.91811   3.92251   4.23702   4.40200
 Alpha virt. eigenvalues --    4.52706   4.82017
          Condensed to atoms (all electrons):
               1          2          3          4          5          6
     1  N    5.602955   0.171173   0.006187  -0.028861  -0.028863  -0.000300
     2  N    0.171173   7.124185  -0.083728   0.242090   0.242083   0.007118
     3  C    0.006187  -0.083728   5.177049   0.325993   0.325992   0.375354
     4  C   -0.028861   0.242090   0.325993   4.793656  -0.148285  -0.025158
     5  C   -0.028863   0.242083   0.325992  -0.148285   4.793646  -0.025163
     6  H   -0.000300   0.007118   0.375354  -0.025158  -0.025163   0.568372
     7  H    0.001038  -0.032420  -0.036271   0.404453   0.007223   0.003888
     8  H    0.001038  -0.032428  -0.036279   0.007225   0.404455   0.003889
     9  H   -0.005149  -0.039229  -0.019354   0.384297   0.004570  -0.007061
    10  H   -0.005150  -0.039235  -0.019355   0.004570   0.384298  -0.007062
    11  N    0.000055  -0.000633   0.238273  -0.031712  -0.031713  -0.038256
    12  O    0.000095   0.000383  -0.127725   0.009047   0.009049   0.007091
    13  O    0.000002  -0.000071  -0.093521   0.003162   0.003163   0.013420
    14  O    0.329514  -0.122718   0.000835   0.005154   0.008527   0.000013
    15  O    0.329517  -0.122717   0.000835   0.008526   0.005155   0.000013
               7          8          9         10         11         12
     1  N    0.001038   0.001038  -0.005149  -0.005150   0.000055   0.000095
     2  N   -0.032420  -0.032428  -0.039229  -0.039235  -0.000633   0.000383
     3  C   -0.036271  -0.036279  -0.019354  -0.019355   0.238273  -0.127725
     4  C    0.404453   0.007225   0.384297   0.004570  -0.031712   0.009047
     5  C    0.007223   0.404455   0.004570   0.384298  -0.031713   0.009049
     6  H    0.003888   0.003889  -0.007061  -0.007062  -0.038256   0.007091
     7  H    0.537235   0.000250  -0.044676  -0.000965  -0.006731   0.007229
     8  H    0.000250   0.537249  -0.000965  -0.044675  -0.006732   0.007230
     9  H   -0.044676  -0.000965   0.564890   0.002198   0.002645   0.000472
    10  H   -0.000965  -0.044675   0.002198   0.564901   0.002646   0.000472
    11  N   -0.006731  -0.006732   0.002645   0.002646   5.804376   0.314579
    12  O    0.007229   0.007230   0.000472   0.000472   0.314579   8.249282
    13  O    0.000304   0.000304  -0.000136  -0.000136   0.302151  -0.113946
    14  O   -0.000114  -0.000120   0.000288   0.009981  -0.000005  -0.000000
    15  O   -0.000120  -0.000114   0.009980   0.000288  -0.000005  -0.000000
              13         14         15
     1  N    0.000002   0.329514   0.329517
     2  N   -0.000071  -0.122718  -0.122717
     3  C   -0.093521   0.000835   0.000835
     4  C    0.003162   0.005154   0.008526
     5  C    0.003163   0.008527   0.005155
     6  H    0.013420   0.000013   0.000013
     7  H    0.000304  -0.000114  -0.000120
     8  H    0.000304  -0.000120  -0.000114
     9  H   -0.000136   0.000288   0.009980
    10  H   -0.000136   0.009981   0.000288
    11  N    0.302151  -0.000005  -0.000005
    12  O   -0.113946  -0.000000  -0.000000
    13  O    8.265914  -0.000000  -0.000000
    14  O   -0.000000   8.271006  -0.094781
    15  O   -0.000000  -0.094781   8.271006
 Mulliken charges:
               1
     1  N    0.626749
     2  N   -0.313852
     3  C   -0.034284
     4  C    0.045843
     5  C    0.045864
     6  H    0.123843
     7  H    0.159678
     8  H    0.159674
     9  H    0.147229
    10  H    0.147223
    11  N    0.451061
    12  O   -0.363256
    13  O   -0.380609
    14  O   -0.407582
    15  O   -0.407583
 Sum of Mulliken charges =  -0.00000
 Mulliken charges with hydrogens summed into heavy atoms:
               1
     1  N    0.626749
     2  N   -0.313852
     3  C    0.089559
     4  C    0.352751
     5  C    0.352762
    11  N    0.451061
    12  O   -0.363256
    13  O   -0.380609
    14  O   -0.407582
    15  O   -0.407583
 Electronic spatial extent (au):  <R**2>=           1538.7935
 Charge=             -0.0000 electrons
 Dipole moment (field-independent basis, Debye):
    X=             -1.2146    Y=              0.0002    Z=             -2.7645  Tot=              3.0196
 Quadrupole moment (field-independent basis, Debye-Ang):
   XX=            -78.1723   YY=            -52.6680   ZZ=            -55.2085
   XY=             -0.0000   XZ=              1.4920   YZ=              0.0000
 Traceless Quadrupole moment (field-independent basis, Debye-Ang):
   XX=            -16.1560   YY=              9.3482   ZZ=              6.8077
   XY=             -0.0000   XZ=              1.4920   YZ=              0.0000
 Octapole moment (field-independent basis, Debye-Ang**2):
  XXX=              1.4692  YYY=              0.0010  ZZZ=             -3.6233  XYY=            -12.3585
  XXY=              0.0001  XXZ=              0.2585  XZZ=              7.1269  YZZ=              0.0000
  YYZ=             -0.1439  XYZ=             -0.0004
 Hexadecapole moment (field-independent basis, Debye-Ang**3):
 XXXX=          -1629.3409 YYYY=           -219.9850 ZZZZ=           -148.4072 XXXY=             -0.0001
 XXXZ=             -7.2023 YYYX=              0.0005 YYYZ=             -0.0003 ZZZX=              5.6416
 ZZZY=              0.0001 XXYY=           -285.3456 XXZZ=           -260.3391 YYZZ=            -59.6805
 XXYZ=             -0.0002 YYXZ=             -3.0639 ZZXY=             -0.0002
 N-N= 5.645161903767D+02 E-N=-2.492129066673D+03  KE= 5.786800641106D+02
 No NMR shielding tensors so no spin-rotation constants.
 Leave Link  601 at Fri Aug 20 15:57:21 2021, MaxMem= 24159191040 cpu:        10.7
 (Enter /public/home/users/caep010/software/Gaussian09/g09/l701.exe)
 Compute integral first derivatives.
 ... and contract with generalized density number  0.
 Leave Link  701 at Fri Aug 20 15:57:21 2021, MaxMem= 24159191040 cpu:        11.2
 (Enter /public/home/users/caep010/software/Gaussian09/g09/l702.exe)
 L702 exits ... SP integral derivatives will be done elsewhere.
 Leave Link  702 at Fri Aug 20 15:57:21 2021, MaxMem= 24159191040 cpu:         0.5
 (Enter /public/home/users/caep010/software/Gaussian09/g09/l703.exe)
 Compute integral first derivatives, UseDBF=F ICtDFT=           0.
 Integral derivatives from FoFJK, PRISM(SPDF).
 Calling FoFJK, ICntrl=      2127 FMM=F ISym2X=0 I1Cent= 0 IOpClX= 0 NMat=1 NMatS=1 NMatT=0.
 FoFJK:  IHMeth= 1 ICntrl=    2127 DoSepK=F KAlg= 0 I1Cent=   0 FoldK=F
 IRaf=         0 NMat=   1 IRICut=       1 DoRegI=T DoRafI=F ISym2E= 0.
 FoFCou: FMM=F IPFlag=           0 FMFlag=      100000 FMFlg1=         800
         NFxFlg=           0 DoJE=F BraDBF=F KetDBF=F FulRan=T
         wScrn=  0.000000 ICntrl=    2127 IOpCl=  0 I1Cent=           0 NGrid=           0
         NMat0=    1 NMatS0=      1 NMatT0=    0 NMatD0=    1 NMtDS0=    0 NMtDT0=    0
 Symmetry not used in FoFCou.
 Leave Link  703 at Fri Aug 20 15:57:22 2021, MaxMem= 24159191040 cpu:        16.6
 (Enter /public/home/users/caep010/software/Gaussian09/g09/l716.exe)
 Dipole        =-4.77877553D-01 7.23799721D-05-1.08763801D+00
 ***** Axes restored to original set *****
 -------------------------------------------------------------------
 Center     Atomic                   Forces (Hartrees/Bohr)
 Number     Number              X              Y              Z
 -------------------------------------------------------------------
      1        7           0.001283550    0.000000199   -0.002458198
      2        7          -0.002799107    0.000034380    0.001094466
      3        6          -0.108298246    0.000025341    0.041054450
      4        6          -0.019321996   -0.152278583   -0.009008819
      5        6          -0.019318314    0.152229532   -0.009007506
      6        1           0.127401461   -0.000000535   -0.061663057
      7        1          -0.104252929    0.090881441   -0.034914234
      8        1          -0.104249594   -0.090886719   -0.034914069
      9        1           0.119604583    0.063880191    0.049985571
     10        1           0.119603820   -0.063884640    0.049983908
     11        7          -0.004354045    0.000000096    0.015983695
     12        8          -0.031596755   -0.000000171    0.017077623
     13        8           0.025057809    0.000000293   -0.031430162
     14        8           0.000620221   -0.010691506    0.004107788
     15        8           0.000619542    0.010690680    0.004108544
 -------------------------------------------------------------------
 Cartesian Forces:  Max     0.152278583 RMS     0.060853665
 Leave Link  716 at Fri Aug 20 15:57:22 2021, MaxMem= 24159191040 cpu:         0.7
 (Enter /public/home/users/caep010/software/Gaussian09/g09/l103.exe)

 GradGradGradGradGradGradGradGradGradGradGradGradGradGradGradGradGradGrad
 Berny optimization.
 FormGI is forming the generalized inverse of G from B-inverse, IUseBI=4.
 Internal  Forces:  Max     0.144334976 RMS     0.035968233
 Search for a local minimum.
 Step number   1 out of a maximum of   92
 All quantities printed in internal units (Hartrees-Bohrs-Radians)
 RMS Force = .35968D-01 SwitMx=.10000D-02 MixMth= 1
 Mixed Optimization -- RFO/linear search
 Second derivative matrix not updated -- first step.
 ITU=  0
     Eigenvalues ---    0.00284   0.00284   0.00481   0.01621   0.01628
     Eigenvalues ---    0.02336   0.02904   0.04204   0.04438   0.05038
     Eigenvalues ---    0.05054   0.05074   0.06168   0.06824   0.07374
     Eigenvalues ---    0.07664   0.08469   0.10444   0.12739   0.19580
     Eigenvalues ---    0.25000   0.25000   0.25000   0.25000   0.26388
     Eigenvalues ---    0.27807   0.31714   0.32489   0.32849   0.49957
     Eigenvalues ---    0.57638   0.57638   0.57739   0.57739   0.57771
     Eigenvalues ---    0.94849   0.94849   1.00739   1.03185
 RFO step:  Lambda=-1.46715137D-01 EMin= 2.84195975D-03
 Linear search not attempted -- first point.
 Maximum step size (   0.300) exceeded in Quadratic search.
    -- Step size scaled by   0.665
 Iteration  1 RMS(Cart)=  0.03363429 RMS(Int)=  0.00035513
 Iteration  2 RMS(Cart)=  0.00027374 RMS(Int)=  0.00001778
 Iteration  3 RMS(Cart)=  0.00000010 RMS(Int)=  0.00001778
 ITry= 1 IFail=0 DXMaxC= 1.14D-01 DCOld= 1.00D+10 DXMaxT= 3.00D-01 DXLimC= 3.00D+00 Rises=F
 Variable       Old X    -DE/DX   Delta X   Delta X   Delta X     New X
                                 (Linear)    (Quad)   (Total)
    R1        2.59909   0.00622   0.00000   0.00639   0.00639   2.60548
    R2        2.30775   0.01142   0.00000   0.00693   0.00693   2.31468
    R3        2.30775   0.01142   0.00000   0.00693   0.00693   2.31468
    R4        2.80070   0.00228   0.00000   0.00189   0.00186   2.80255
    R5        2.80056   0.00232   0.00000   0.00194   0.00191   2.80247
    R6        2.89195   0.00880   0.00000   0.01457   0.01460   2.90655
    R7        2.89181   0.00883   0.00000   0.01461   0.01464   2.90646
    R8        1.79449   0.14097   0.00000   0.12938   0.12938   1.92388
    R9        2.84670   0.00609   0.00000   0.00873   0.00873   2.85543
   R10        1.79560   0.14251   0.00000   0.13104   0.13104   1.92664
   R11        1.79476   0.14433   0.00000   0.13253   0.13253   1.92728
   R12        1.79560   0.14251   0.00000   0.13104   0.13104   1.92664
   R13        1.79476   0.14433   0.00000   0.13253   0.13253   1.92729
   R14        2.28344   0.03483   0.00000   0.02006   0.02006   2.30351
   R15        2.27390   0.03799   0.00000   0.02143   0.02143   2.29533
    A1        2.03033  -0.00082   0.00000  -0.00138  -0.00139   2.02894
    A2        2.03033  -0.00081   0.00000  -0.00138  -0.00138   2.02895
    A3        2.22208   0.00161   0.00000   0.00267   0.00267   2.22475
    A4        2.08879  -0.00010   0.00000  -0.00031  -0.00029   2.08850
    A5        2.08882  -0.00011   0.00000  -0.00032  -0.00030   2.08853
    A6        1.64252  -0.00054   0.00000  -0.00176  -0.00180   1.64072
    A7        1.57589  -0.00498   0.00000  -0.01042  -0.01041   1.56547
    A8        2.10336   0.00026   0.00000  -0.00202  -0.00209   2.10127
    A9        1.96285   0.00017   0.00000  -0.00131  -0.00133   1.96151
   A10        2.10339   0.00026   0.00000  -0.00203  -0.00209   2.10129
   A11        1.96286   0.00017   0.00000  -0.00130  -0.00133   1.96153
   A12        1.76541   0.00349   0.00000   0.01440   0.01442   1.77983
   A13        1.52004   0.00289   0.00000   0.00647   0.00649   1.52652
   A14        2.00267  -0.00198   0.00000  -0.00583  -0.00586   1.99681
   A15        2.00299  -0.00354   0.00000  -0.01006  -0.01006   1.99293
   A16        2.00209   0.00060   0.00000   0.00323   0.00325   2.00534
   A17        2.00134  -0.00223   0.00000  -0.00557  -0.00557   1.99577
   A18        1.91152   0.00355   0.00000   0.00965   0.00963   1.92115
   A19        1.52013   0.00287   0.00000   0.00644   0.00646   1.52658
   A20        2.00265  -0.00197   0.00000  -0.00582  -0.00585   1.99680
   A21        2.00298  -0.00354   0.00000  -0.01005  -0.01005   1.99293
   A22        2.00207   0.00060   0.00000   0.00324   0.00326   2.00533
   A23        2.00133  -0.00222   0.00000  -0.00556  -0.00556   1.99576
   A24        1.91152   0.00354   0.00000   0.00963   0.00961   1.92113
   A25        2.05706  -0.00338   0.00000  -0.00567  -0.00567   2.05139
   A26        2.06612  -0.01325   0.00000  -0.02220  -0.02220   2.04392
   A27        2.16001   0.01663   0.00000   0.02787   0.02787   2.18788
    D1       -2.58769   0.00012   0.00000   0.00005   0.00006  -2.58763
    D2       -0.58372  -0.00086   0.00000  -0.00307  -0.00308  -0.58680
    D3        0.58368   0.00086   0.00000   0.00307   0.00308   0.58676
    D4        2.58764  -0.00012   0.00000  -0.00005  -0.00006   2.58759
    D5        2.38922  -0.00122   0.00000  -0.00398  -0.00398   2.38524
    D6       -1.87036   0.00052   0.00000   0.00180   0.00179  -1.86857
    D7        0.36640   0.00044   0.00000   0.00075   0.00076   0.36716
    D8        0.15940  -0.00061   0.00000  -0.00204  -0.00206   0.15734
    D9        2.18300   0.00113   0.00000   0.00373   0.00371   2.18671
   D10       -1.86342   0.00105   0.00000   0.00268   0.00268  -1.86074
   D11       -2.38921   0.00122   0.00000   0.00397   0.00398  -2.38523
   D12        1.87036  -0.00052   0.00000  -0.00180  -0.00179   1.86857
   D13       -0.36636  -0.00044   0.00000  -0.00076  -0.00077  -0.36713
   D14       -0.15940   0.00061   0.00000   0.00205   0.00206  -0.15734
   D15       -2.18302  -0.00113   0.00000  -0.00373  -0.00371  -2.18673
   D16        1.86345  -0.00105   0.00000  -0.00269  -0.00269   1.86076
   D17       -0.15393   0.00093   0.00000   0.00264   0.00263  -0.15129
   D18       -2.17808   0.00163   0.00000   0.00543   0.00543  -2.17265
   D19        1.87046  -0.00198   0.00000  -0.00634  -0.00635   1.86411
   D20       -2.35876   0.00416   0.00000   0.01370   0.01368  -2.34508
   D21        1.90027   0.00485   0.00000   0.01650   0.01648   1.91675
   D22       -0.33437   0.00125   0.00000   0.00472   0.00470  -0.32967
   D23        1.84545  -0.00112   0.00000  -0.00381  -0.00380   1.84166
   D24       -0.17870  -0.00043   0.00000  -0.00101  -0.00100  -0.17970
   D25       -2.41335  -0.00403   0.00000  -0.01279  -0.01278  -2.42612
   D26        0.15393  -0.00094   0.00000  -0.00264  -0.00263   0.15130
   D27        2.17810  -0.00163   0.00000  -0.00544  -0.00543   2.17267
   D28       -1.87048   0.00198   0.00000   0.00634   0.00635  -1.86413
   D29        2.35875  -0.00416   0.00000  -0.01370  -0.01368   2.34506
   D30       -1.90028  -0.00485   0.00000  -0.01650  -0.01648  -1.91675
   D31        0.33433  -0.00125   0.00000  -0.00472  -0.00470   0.32963
   D32       -1.84543   0.00112   0.00000   0.00381   0.00380  -1.84163
   D33        0.17873   0.00043   0.00000   0.00101   0.00100   0.17974
   D34        2.41334   0.00403   0.00000   0.01279   0.01278   2.42612
   D35       -0.87435   0.00288   0.00000   0.00684   0.00684  -0.86751
   D36        2.26725   0.00288   0.00000   0.00684   0.00684   2.27408
   D37        0.87430  -0.00288   0.00000  -0.00684  -0.00684   0.86746
   D38       -2.26729  -0.00288   0.00000  -0.00684  -0.00684  -2.27413
   D39        3.14159  -0.00000   0.00000  -0.00000  -0.00000   3.14159
   D40        0.00000  -0.00000   0.00000  -0.00000  -0.00000  -0.00000
         Item               Value     Threshold  Converged?
 Maximum Force            0.144335     0.000450     NO 
 RMS     Force            0.035968     0.000300     NO 
 Maximum Displacement     0.114407     0.001800     NO 
 RMS     Displacement     0.033639     0.001200     NO 
 Predicted change in Energy=-7.184922D-02
 Lowest energy point so far.  Saving SCF results.
 GradGradGradGradGradGradGradGradGradGradGradGradGradGradGradGradGradGrad

 Leave Link  103 at Fri Aug 20 15:57:22 2021, MaxMem= 24159191040 cpu:         7.7
 (Enter /public/home/users/caep010/software/Gaussian09/g09/l202.exe)
                          Input orientation:                          
 ---------------------------------------------------------------------
 Center     Atomic      Atomic             Coordinates (Angstroms)
 Number     Number       Type             X           Y           Z
 ---------------------------------------------------------------------
      1          7           0        5.850444    1.703611    4.815095
      2          7           0        5.479852    1.703605    3.487073
      3          6           0        6.237317    1.703603    1.540420
      4          6           0        5.952791    2.788310    2.593106
      5          6           0        5.952794    0.618966    2.593107
      6          1           0        7.115363    1.703608    1.025149
      7          1           0        5.233858    3.462221    2.331518
      8          1           0        5.233866   -0.054951    2.331519
      9          1           0        6.783100    3.275318    2.930084
     10          1           0        6.783102    0.131953    2.930082
     11          7           0        5.218764    1.703609    0.424285
     12          8           0        4.040496    1.703603    0.736622
     13          8           0        5.644329    1.703618   -0.713361
     14          8           0        5.978709    0.605201    5.341754
     15          8           0        5.978715    2.802024    5.341747
 ---------------------------------------------------------------------
                    Distance matrix (angstroms):
                    1          2          3          4          5
     1  N    0.000000
     2  N    1.378761   0.000000
     3  C    3.297449   2.088831   0.000000
     4  C    2.474728   1.483048   1.538081   0.000000
     5  C    2.474705   1.483001   1.538032   2.169344   0.000000
     6  H    3.995461   2.955667   1.018071   2.233079   2.233049
     7  H    3.105002   2.118619   2.173822   1.019533   2.944384
     8  H    3.104974   2.118569   2.173768   2.944387   1.019534
     9  H    2.625524   2.116359   2.167795   1.019875   2.803422
    10  H    2.625497   2.116316   2.167747   2.803427   1.019876
    11  N    4.436015   3.073896   1.511028   2.533605   2.533582
    12  O    4.462046   3.104307   2.339255   2.877498   2.877474
    13  O    5.532297   4.203653   2.330485   3.493484   3.493472
    14  O    1.224878   2.212508   3.965288   3.510228   2.748804
    15  O    1.224878   2.212511   3.965286   2.748797   3.510191
                    6          7          8          9         10
     6  H    0.000000
     7  H    2.887799   0.000000
     8  H    2.887761   3.517172   0.000000
     9  H    2.491877   1.671336   3.721438   0.000000
    10  H    2.491840   3.721440   1.671331   3.143365   0.000000
    11  N    1.989504   2.594318   2.594282   3.346109   3.346083
    12  O    3.088374   2.657169   2.657130   3.847524   3.847498
    13  O    2.277358   3.540122   3.540104   4.128163   4.128149
    14  O    4.596908   4.216502   3.170506   3.686832   2.585957
    15  O    4.596902   3.170512   4.216465   2.585955   3.686793
                   11         12         13         14         15
    11  N    0.000000
    12  O    1.218963   0.000000
    13  O    1.214637   2.162113   0.000000
    14  O    5.095637   5.115701   6.163014   0.000000
    15  O    5.095632   5.115701   6.163006   2.196823   0.000000
 Stoichiometry    C3H5N3O4
 Framework group  C1[X(C3H5N3O4)]
 Deg. of freedom    39
 Full point group                 C1      NOp   1
 RotChk:  IX=0 Diff= 5.38D-04
 Largest Abelian subgroup         C1      NOp   1
 Largest concise Abelian subgroup C1      NOp   1
                         Standard orientation:                         
 ---------------------------------------------------------------------
 Center     Atomic      Atomic             Coordinates (Angstroms)
 Number     Number       Type             X           Y           Z
 ---------------------------------------------------------------------
      1          7           0        2.208166   -0.000006    0.110287
      2          7           0        0.840858   -0.000014    0.287630
      3          6           0       -0.977822   -0.000002   -0.739802
      4          6           0        0.023506    1.084699   -0.307993
      5          6           0        0.023507   -1.084646   -0.308025
      6          1           0       -1.362558    0.000015   -1.682377
      7          1           0       -0.337971    1.758601    0.366276
      8          1           0       -0.337970   -1.758571    0.366222
      9          1           0        0.475491    1.571717   -1.081729
     10          1           0        0.475489   -1.571648   -1.081773
     11          7           0       -2.227849   -0.000008    0.109102
     12          8           0       -2.086802   -0.000030    1.319877
     13          8           0       -3.293146    0.000009   -0.474410
     14          8           0        2.747736   -1.098415    0.058454
     15          8           0        2.747730    1.098408    0.058476
 ---------------------------------------------------------------------
 Rotational constants (GHZ):      4.0309814      0.7285396      0.6976479
 Leave Link  202 at Fri Aug 20 15:57:22 2021, MaxMem= 24159191040 cpu:         0.4
 (Enter /public/home/users/caep010/software/Gaussian09/g09/l301.exe)
 Standard basis: 6-31G(d,p) (6D, 7F)
 Ernie: Thresh=  0.10000D-02 Tol=  0.10000D-05 Strict=F.
 There are   175 symmetry adapted cartesian basis functions of A   symmetry.
 There are   175 symmetry adapted basis functions of A   symmetry.
   175 basis functions,   315 primitive gaussians,   175 cartesian basis functions
    38 alpha electrons       38 beta electrons
       nuclear repulsion energy       560.5322188770 Hartrees.
 IExCor=  402 DFT=T Ex+Corr=B3LYP ExCW=0 ScaHFX=  0.200000
 ScaDFX=  0.800000  0.720000  1.000000  0.810000 ScalE2=  1.000000  1.000000
 IRadAn=      0 IRanWt=     -1 IRanGd=            0 ICorTp=0 IEmpDi=  4
 NAtoms=   15 NActive=   15 NUniq=   15 SFac= 1.00D+00 NAtFMM=   60 NAOKFM=F Big=F
 Integral buffers will be    131072 words long.
 Raffenetti 2 integral format.
 Two-electron integral symmetry is turned on.
 Leave Link  301 at Fri Aug 20 15:57:22 2021, MaxMem= 24159191040 cpu:         1.6
 (Enter /public/home/users/caep010/software/Gaussian09/g09/l302.exe)
 NPDir=0 NMtPBC=     1 NCelOv=     1 NCel=       1 NClECP=     1 NCelD=      1
         NCelK=      1 NCelE2=     1 NClLst=     1 CellRange=     0.0.
 One-electron integrals computed using PRISM.
 NBasis=   175 RedAO= T EigKep=  1.85D-03  NBF=   175
 NBsUse=   175 1.00D-06 EigRej= -1.00D+00 NBFU=   175
 Precomputing XC quadrature grid using
 IXCGrd= 4 IRadAn=           0 IRanWt=          -1 IRanGd=           0 AccXCQ= 0.00D+00.
 Generated NRdTot=       0 NPtTot=           0 NUsed=           0 NTot=          32
 NSgBfM=   174   174   174   174   175 MxSgAt=    15 MxSgA2=    15.
 Leave Link  302 at Fri Aug 20 15:57:23 2021, MaxMem= 24159191040 cpu:        11.7
 (Enter /public/home/users/caep010/software/Gaussian09/g09/l303.exe)
 DipDrv:  MaxL=1.
 Leave Link  303 at Fri Aug 20 15:57:23 2021, MaxMem= 24159191040 cpu:         0.7
 (Enter /public/home/users/caep010/software/Gaussian09/g09/l401.exe)
 Initial guess from the checkpoint file:  "/public/home/users/caep010/.cache/gau_scr/Gau-97249.chk"
 B after Tr=     0.000000    0.000000    0.000000
         Rot=    1.000000    0.000001   -0.000216   -0.000000 Ang=   0.02 deg.
 Guess basis will be translated and rotated to current coordinates.
 JPrj=2 DoOrth=T DoCkMO=T.
 Generating alternative initial guess.
 ExpMin= 1.61D-01 ExpMax= 5.48D+03 ExpMxC= 8.25D+02 IAcc=1 IRadAn=         1 AccDes= 0.00D+00
 Harris functional with IExCor=  402 and IRadAn=       1 diagonalized for initial guess.
 HarFok:  IExCor=  402 AccDes= 0.00D+00 IRadAn=         1 IDoV= 1 UseB2=F ITyADJ=14
 ICtDFT=  3500011 ScaDFX=  1.000000  1.000000  1.000000  1.000000
 FoFCou: FMM=F IPFlag=           0 FMFlag=      100000 FMFlg1=           0
         NFxFlg=           0 DoJE=T BraDBF=F KetDBF=T FulRan=T
         wScrn=  0.000000 ICntrl=     500 IOpCl=  0 I1Cent=   200000004 NGrid=           0
         NMat0=    1 NMatS0=      1 NMatT0=    0 NMatD0=    1 NMtDS0=    0 NMtDT0=    0
 Petite list used in FoFCou.
 Harris En= -582.269956261338    
 Leave Link  401 at Fri Aug 20 15:57:23 2021, MaxMem= 24159191040 cpu:        12.8
 (Enter /public/home/users/caep010/software/Gaussian09/g09/l502.exe)
 Closed shell SCF:
 Using DIIS extrapolation, IDIIS=  1040.
 Integral symmetry usage will be decided dynamically.
 Keep R1 ints in memory in canonical form, NReq=121430835.
 IVT=      117335 IEndB=      117335 NGot= 24159191040 MDV= 24040486006
 LenX= 24040486006 LenY= 24040454940
 Requested convergence on RMS density matrix=1.00D-08 within 128 cycles.
 Requested convergence on MAX density matrix=1.00D-06.
 Requested convergence on             energy=1.00D-06.
 No special actions if energy rises.
 FoFCou: FMM=F IPFlag=           0 FMFlag=           0 FMFlg1=           0
         NFxFlg=           0 DoJE=F BraDBF=F KetDBF=F FulRan=T
         wScrn=  0.000000 ICntrl=     600 IOpCl=  0 I1Cent=           0 NGrid=           0
         NMat0=    1 NMatS0=  15400 NMatT0=    0 NMatD0=    1 NMtDS0=    0 NMtDT0=    0
 Symmetry not used in FoFCou.
 Integral accuracy reduced to 1.0D-05 until final iterations.

 Cycle   1  Pass 0  IDiag  1:
 E= -582.209954101868    
 DIIS: error= 5.21D-03 at cycle   1 NSaved=   1.
 NSaved= 1 IEnMin= 1 EnMin= -582.209954101868     IErMin= 1 ErrMin= 5.21D-03
 ErrMax= 5.21D-03  0.00D+00 EMaxC= 1.00D-01 BMatC= 3.88D-03 BMatP= 3.88D-03
 IDIUse=3 WtCom= 9.48D-01 WtEn= 5.21D-02
 Coeff-Com:  0.100D+01
 Coeff-En:   0.100D+01
 Coeff:      0.100D+01
 Gap=     1.759 Goal=   None    Shift=    0.000
 GapD=    1.759 DampG=2.000 DampE=1.000 DampFc=2.0000 IDamp=-1.
 RMSDP=6.35D-04 MaxDP=1.56D-02              OVMax= 1.78D-02

 Cycle   2  Pass 0  IDiag  1:
 E= -582.213593506082     Delta-E=       -0.003639404214 Rises=F Damp=F
 DIIS: error= 2.50D-03 at cycle   2 NSaved=   2.
 NSaved= 2 IEnMin= 2 EnMin= -582.213593506082     IErMin= 2 ErrMin= 2.50D-03
 ErrMax= 2.50D-03  0.00D+00 EMaxC= 1.00D-01 BMatC= 1.09D-03 BMatP= 3.88D-03
 IDIUse=3 WtCom= 9.75D-01 WtEn= 2.50D-02
 Coeff-Com:  0.297D+00 0.703D+00
 Coeff-En:   0.000D+00 0.100D+01
 Coeff:      0.289D+00 0.711D+00
 Gap=     0.215 Goal=   None    Shift=    0.000
 RMSDP=2.95D-04 MaxDP=7.40D-03 DE=-3.64D-03 OVMax= 1.21D-02

 Cycle   3  Pass 0  IDiag  1:
 E= -582.214237614926     Delta-E=       -0.000644108844 Rises=F Damp=F
 DIIS: error= 1.39D-03 at cycle   3 NSaved=   3.
 NSaved= 3 IEnMin= 3 EnMin= -582.214237614926     IErMin= 3 ErrMin= 1.39D-03
 ErrMax= 1.39D-03  0.00D+00 EMaxC= 1.00D-01 BMatC= 5.17D-04 BMatP= 1.09D-03
 IDIUse=3 WtCom= 9.86D-01 WtEn= 1.39D-02
 Coeff-Com:  0.492D-01 0.404D+00 0.546D+00
 Coeff-En:   0.000D+00 0.297D+00 0.703D+00
 Coeff:      0.485D-01 0.403D+00 0.548D+00
 Gap=     0.215 Goal=   None    Shift=    0.000
 RMSDP=1.32D-04 MaxDP=4.44D-03 DE=-6.44D-04 OVMax= 5.34D-03

 Cycle   4  Pass 0  IDiag  1:
 E= -582.214654371384     Delta-E=       -0.000416756458 Rises=F Damp=F
 DIIS: error= 6.85D-04 at cycle   4 NSaved=   4.
 NSaved= 4 IEnMin= 4 EnMin= -582.214654371384     IErMin= 4 ErrMin= 6.85D-04
 ErrMax= 6.85D-04  0.00D+00 EMaxC= 1.00D-01 BMatC= 5.67D-05 BMatP= 5.17D-04
 IDIUse=3 WtCom= 9.93D-01 WtEn= 6.85D-03
 Coeff-Com:  0.117D-01 0.201D+00 0.325D+00 0.463D+00
 Coeff-En:   0.000D+00 0.000D+00 0.000D+00 0.100D+01
 Coeff:      0.116D-01 0.199D+00 0.322D+00 0.467D+00
 Gap=     0.215 Goal=   None    Shift=    0.000
 RMSDP=4.75D-05 MaxDP=2.72D-03 DE=-4.17D-04 OVMax= 4.49D-03

 Cycle   5  Pass 0  IDiag  1:
 E= -582.214680791818     Delta-E=       -0.000026420434 Rises=F Damp=F
 DIIS: error= 5.31D-04 at cycle   5 NSaved=   5.
 NSaved= 5 IEnMin= 5 EnMin= -582.214680791818     IErMin= 5 ErrMin= 5.31D-04
 ErrMax= 5.31D-04  0.00D+00 EMaxC= 1.00D-01 BMatC= 2.00D-05 BMatP= 5.67D-05
 IDIUse=3 WtCom= 9.95D-01 WtEn= 5.31D-03
 Coeff-Com: -0.757D-03 0.743D-01 0.137D+00 0.361D+00 0.428D+00
 Coeff-En:   0.000D+00 0.000D+00 0.000D+00 0.314D+00 0.686D+00
 Coeff:     -0.753D-03 0.739D-01 0.136D+00 0.361D+00 0.430D+00
 Gap=     0.215 Goal=   None    Shift=    0.000
 RMSDP=2.44D-05 MaxDP=1.20D-03 DE=-2.64D-05 OVMax= 2.54D-03

 Cycle   6  Pass 0  IDiag  1:
 E= -582.214694851686     Delta-E=       -0.000014059868 Rises=F Damp=F
 DIIS: error= 1.42D-04 at cycle   6 NSaved=   6.
 NSaved= 6 IEnMin= 6 EnMin= -582.214694851686     IErMin= 6 ErrMin= 1.42D-04
 ErrMax= 1.42D-04  0.00D+00 EMaxC= 1.00D-01 BMatC= 2.39D-06 BMatP= 2.00D-05
 IDIUse=3 WtCom= 9.99D-01 WtEn= 1.42D-03
 Coeff-Com: -0.198D-02 0.293D-01 0.595D-01 0.203D+00 0.310D+00 0.400D+00
 Coeff-En:   0.000D+00 0.000D+00 0.000D+00 0.000D+00 0.102D+00 0.898D+00
 Coeff:     -0.198D-02 0.293D-01 0.594D-01 0.203D+00 0.310D+00 0.400D+00
 Gap=     0.215 Goal=   None    Shift=    0.000
 RMSDP=7.14D-06 MaxDP=3.94D-04 DE=-1.41D-05 OVMax= 5.93D-04

 Initial convergence to 1.0D-05 achieved.  Increase integral accuracy.
 Cycle   7  Pass 1  IDiag  1:
 E= -582.214714893484     Delta-E=       -0.000020041798 Rises=F Damp=F
 DIIS: error= 2.73D-05 at cycle   1 NSaved=   1.
 NSaved= 1 IEnMin= 1 EnMin= -582.214714893484     IErMin= 1 ErrMin= 2.73D-05
 ErrMax= 2.73D-05  0.00D+00 EMaxC= 1.00D-01 BMatC= 1.75D-07 BMatP= 1.75D-07
 IDIUse=1 WtCom= 1.00D+00 WtEn= 0.00D+00
 Coeff-Com:  0.100D+01
 Coeff:      0.100D+01
 Gap=     0.215 Goal=   None    Shift=    0.000
 RMSDP=7.14D-06 MaxDP=3.94D-04 DE=-2.00D-05 OVMax= 1.76D-04

 Cycle   8  Pass 1  IDiag  1:
 E= -582.214714845167     Delta-E=        0.000000048317 Rises=F Damp=F
 DIIS: error= 4.60D-05 at cycle   2 NSaved=   2.
 NSaved= 2 IEnMin= 1 EnMin= -582.214714893484     IErMin= 1 ErrMin= 2.73D-05
 ErrMax= 4.60D-05  0.00D+00 EMaxC= 1.00D-01 BMatC= 2.83D-07 BMatP= 1.75D-07
 IDIUse=1 WtCom= 1.00D+00 WtEn= 0.00D+00
 Coeff-Com:  0.574D+00 0.426D+00
 Coeff:      0.574D+00 0.426D+00
 Gap=     0.215 Goal=   None    Shift=    0.000
 RMSDP=2.92D-06 MaxDP=1.40D-04 DE= 4.83D-08 OVMax= 2.00D-04

 Cycle   9  Pass 1  IDiag  1:
 E= -582.214715015349     Delta-E=       -0.000000170183 Rises=F Damp=F
 DIIS: error= 2.23D-05 at cycle   3 NSaved=   3.
 NSaved= 3 IEnMin= 3 EnMin= -582.214715015349     IErMin= 3 ErrMin= 2.23D-05
 ErrMax= 2.23D-05  0.00D+00 EMaxC= 1.00D-01 BMatC= 5.12D-08 BMatP= 1.75D-07
 IDIUse=1 WtCom= 1.00D+00 WtEn= 0.00D+00
 Coeff-Com:  0.110D+00 0.289D+00 0.601D+00
 Coeff:      0.110D+00 0.289D+00 0.601D+00
 Gap=     0.215 Goal=   None    Shift=    0.000
 RMSDP=1.54D-06 MaxDP=8.30D-05 DE=-1.70D-07 OVMax= 1.58D-04

 Cycle  10  Pass 1  IDiag  1:
 E= -582.214715033531     Delta-E=       -0.000000018182 Rises=F Damp=F
 DIIS: error= 1.87D-05 at cycle   4 NSaved=   4.
 NSaved= 4 IEnMin= 4 EnMin= -582.214715033531     IErMin= 4 ErrMin= 1.87D-05
 ErrMax= 1.87D-05  0.00D+00 EMaxC= 1.00D-01 BMatC= 2.69D-08 BMatP= 5.12D-08
 IDIUse=1 WtCom= 1.00D+00 WtEn= 0.00D+00
 Coeff-Com: -0.123D-02 0.164D+00 0.480D+00 0.357D+00
 Coeff:     -0.123D-02 0.164D+00 0.480D+00 0.357D+00
 Gap=     0.215 Goal=   None    Shift=    0.000
 RMSDP=7.55D-07 MaxDP=4.09D-05 DE=-1.82D-08 OVMax= 7.66D-05

 Cycle  11  Pass 1  IDiag  1:
 E= -582.214715053955     Delta-E=       -0.000000020423 Rises=F Damp=F
 DIIS: error= 1.90D-06 at cycle   5 NSaved=   5.
 NSaved= 5 IEnMin= 5 EnMin= -582.214715053955     IErMin= 5 ErrMin= 1.90D-06
 ErrMax= 1.90D-06  0.00D+00 EMaxC= 1.00D-01 BMatC= 7.85D-10 BMatP= 2.69D-08
 IDIUse=1 WtCom= 1.00D+00 WtEn= 0.00D+00
 Coeff-Com: -0.102D-01 0.761D-01 0.243D+00 0.213D+00 0.479D+00
 Coeff:     -0.102D-01 0.761D-01 0.243D+00 0.213D+00 0.479D+00
 Gap=     0.215 Goal=   None    Shift=    0.000
 RMSDP=1.60D-07 MaxDP=6.47D-06 DE=-2.04D-08 OVMax= 8.13D-06

 Cycle  12  Pass 1  IDiag  1:
 E= -582.214715054533     Delta-E=       -0.000000000578 Rises=F Damp=F
 DIIS: error= 3.08D-07 at cycle   6 NSaved=   6.
 NSaved= 6 IEnMin= 6 EnMin= -582.214715054533     IErMin= 6 ErrMin= 3.08D-07
 ErrMax= 3.08D-07  0.00D+00 EMaxC= 1.00D-01 BMatC= 2.85D-11 BMatP= 7.85D-10
 IDIUse=1 WtCom= 1.00D+00 WtEn= 0.00D+00
 Coeff-Com: -0.483D-02 0.297D-01 0.969D-01 0.859D-01 0.247D+00 0.545D+00
 Coeff:     -0.483D-02 0.297D-01 0.969D-01 0.859D-01 0.247D+00 0.545D+00
 Gap=     0.215 Goal=   None    Shift=    0.000
 RMSDP=3.70D-08 MaxDP=7.46D-07 DE=-5.78D-10 OVMax= 1.88D-06

 Cycle  13  Pass 1  IDiag  1:
 E= -582.214715054549     Delta-E=       -0.000000000016 Rises=F Damp=F
 DIIS: error= 1.40D-07 at cycle   7 NSaved=   7.
 NSaved= 7 IEnMin= 7 EnMin= -582.214715054549     IErMin= 7 ErrMin= 1.40D-07
 ErrMax= 1.40D-07  0.00D+00 EMaxC= 1.00D-01 BMatC= 4.23D-12 BMatP= 2.85D-11
 IDIUse=1 WtCom= 1.00D+00 WtEn= 0.00D+00
 Coeff-Com: -0.180D-02 0.910D-02 0.311D-01 0.267D-01 0.912D-01 0.318D+00
 Coeff-Com:  0.526D+00
 Coeff:     -0.180D-02 0.910D-02 0.311D-01 0.267D-01 0.912D-01 0.318D+00
 Coeff:      0.526D+00
 Gap=     0.215 Goal=   None    Shift=    0.000
 RMSDP=1.25D-08 MaxDP=4.31D-07 DE=-1.61D-11 OVMax= 6.48D-07

 Cycle  14  Pass 1  IDiag  1:
 E= -582.214715054565     Delta-E=       -0.000000000016 Rises=F Damp=F
 DIIS: error= 4.21D-08 at cycle   8 NSaved=   8.
 NSaved= 8 IEnMin= 8 EnMin= -582.214715054565     IErMin= 8 ErrMin= 4.21D-08
 ErrMax= 4.21D-08  0.00D+00 EMaxC= 1.00D-01 BMatC= 6.95D-13 BMatP= 4.23D-12
 IDIUse=1 WtCom= 1.00D+00 WtEn= 0.00D+00
 Coeff-Com: -0.286D-03 0.571D-03 0.294D-02 0.184D-02 0.142D-01 0.109D+00
 Coeff-Com:  0.326D+00 0.545D+00
 Coeff:     -0.286D-03 0.571D-03 0.294D-02 0.184D-02 0.142D-01 0.109D+00
 Coeff:      0.326D+00 0.545D+00
 Gap=     0.215 Goal=   None    Shift=    0.000
 RMSDP=4.41D-09 MaxDP=1.25D-07 DE=-1.59D-11 OVMax= 1.96D-07

 SCF Done:  E(RB3LYP) =  -582.214715055     A.U. after   14 cycles
            NFock= 14  Conv=0.44D-08     -V/T= 2.0075
 KE= 5.779039828549D+02 PE=-2.483818470115D+03 EE= 7.631675533285D+02
 Leave Link  502 at Fri Aug 20 15:57:29 2021, MaxMem= 24159191040 cpu:        82.9
 (Enter /public/home/users/caep010/software/Gaussian09/g09/l701.exe)
 Compute integral first derivatives.
 ... and contract with generalized density number  0.
 Leave Link  701 at Fri Aug 20 15:57:29 2021, MaxMem= 24159191040 cpu:        10.6
 (Enter /public/home/users/caep010/software/Gaussian09/g09/l702.exe)
 L702 exits ... SP integral derivatives will be done elsewhere.
 Leave Link  702 at Fri Aug 20 15:57:29 2021, MaxMem= 24159191040 cpu:         0.5
 (Enter /public/home/users/caep010/software/Gaussian09/g09/l703.exe)
 Compute integral first derivatives, UseDBF=F ICtDFT=           0.
 Integral derivatives from FoFJK, PRISM(SPDF).
 Calling FoFJK, ICntrl=      2127 FMM=F ISym2X=0 I1Cent= 0 IOpClX= 0 NMat=1 NMatS=1 NMatT=0.
 FoFJK:  IHMeth= 1 ICntrl=    2127 DoSepK=F KAlg= 0 I1Cent=   0 FoldK=F
 IRaf=         0 NMat=   1 IRICut=       1 DoRegI=T DoRafI=F ISym2E= 0.
 FoFCou: FMM=F IPFlag=           0 FMFlag=      100000 FMFlg1=         800
         NFxFlg=           0 DoJE=F BraDBF=F KetDBF=F FulRan=T
         wScrn=  0.000000 ICntrl=    2127 IOpCl=  0 I1Cent=           0 NGrid=           0
         NMat0=    1 NMatS0=      1 NMatT0=    0 NMatD0=    1 NMtDS0=    0 NMtDT0=    0
 Symmetry not used in FoFCou.
 Leave Link  703 at Fri Aug 20 15:57:30 2021, MaxMem= 24159191040 cpu:        16.6
 (Enter /public/home/users/caep010/software/Gaussian09/g09/l716.exe)
 Dipole        =-4.86328344D-01 4.55574987D-05-1.06967772D+00
 ***** Axes restored to original set *****
 -------------------------------------------------------------------
 Center     Atomic                   Forces (Hartrees/Bohr)
 Number     Number              X              Y              Z
 -------------------------------------------------------------------
      1        7           0.000975966   -0.000000977   -0.000189643
      2        7          -0.000193447    0.000022197   -0.000966199
      3        6          -0.044652717    0.000017179    0.007767213
      4        6          -0.008712592   -0.062718048   -0.004431856
      5        6          -0.008710510    0.062685587   -0.004430761
      6        1           0.054271855   -0.000000488   -0.020641649
      7        1          -0.043303316    0.037257585   -0.012629885
      8        1          -0.043301786   -0.037260352   -0.012629759
      9        1           0.049362602    0.025204321    0.021551793
     10        1           0.049362542   -0.025206296    0.021551132
     11        7          -0.002404825   -0.000000628    0.010282065
     12        8          -0.013287146   -0.000000137    0.006046490
     13        8           0.009975010    0.000000416   -0.015138018
     14        8           0.000309511   -0.004948934    0.001929540
     15        8           0.000308853    0.004948573    0.001929537
 -------------------------------------------------------------------
 Cartesian Forces:  Max     0.062718048 RMS     0.024993435
 Leave Link  716 at Fri Aug 20 15:57:30 2021, MaxMem= 24159191040 cpu:         0.7
 (Enter /public/home/users/caep010/software/Gaussian09/g09/l103.exe)

 GradGradGradGradGradGradGradGradGradGradGradGradGradGradGradGradGradGrad
 Berny optimization.
 Using GEDIIS/GDIIS optimizer.
 FormGI is forming the generalized inverse of G from B-inverse, IUseBI=4.
 Internal  Forces:  Max     0.059344560 RMS     0.014808153
 Search for a local minimum.
 Step number   2 out of a maximum of   92
 All quantities printed in internal units (Hartrees-Bohrs-Radians)
 RMS Force = .14808D-01 SwitMx=.10000D-02 MixMth= 1
 Mixed Optimization -- RFO/linear search
 Update second derivatives using D2CorX and points    1    2
 DE= -6.71D-02 DEPred=-7.18D-02 R= 9.34D-01
 TightC=F SS=  1.41D+00  RLast= 3.03D-01 DXNew= 5.0454D-01 9.0873D-01
 Trust test= 9.34D-01 RLast= 3.03D-01 DXMaxT set to 5.05D-01
 ITU=  1  0
 Use linear search instead of GDIIS.
     Eigenvalues ---    0.00284   0.00284   0.00481   0.01621   0.01629
     Eigenvalues ---    0.02357   0.02883   0.04268   0.04366   0.05041
     Eigenvalues ---    0.05044   0.05086   0.06215   0.06862   0.07415
     Eigenvalues ---    0.07701   0.08552   0.10333   0.12709   0.19590
     Eigenvalues ---    0.24999   0.25000   0.25000   0.25133   0.26413
     Eigenvalues ---    0.27812   0.31716   0.32504   0.32864   0.49939
     Eigenvalues ---    0.57638   0.57681   0.57739   0.57755   0.64096
     Eigenvalues ---    0.94811   0.94849   1.00665   1.02973
 RFO step:  Lambda=-6.29655310D-03 EMin= 2.84195975D-03
 Quartic linear search produced a step of  1.07614.
 Iteration  1 RMS(Cart)=  0.05336841 RMS(Int)=  0.00415933
 Iteration  2 RMS(Cart)=  0.00326762 RMS(Int)=  0.00115652
 Iteration  3 RMS(Cart)=  0.00001758 RMS(Int)=  0.00115632
 Iteration  4 RMS(Cart)=  0.00000004 RMS(Int)=  0.00115632
 ITry= 1 IFail=0 DXMaxC= 2.19D-01 DCOld= 1.00D+10 DXMaxT= 5.05D-01 DXLimC= 3.00D+00 Rises=F
 Variable       Old X    -DE/DX   Delta X   Delta X   Delta X     New X
                                 (Linear)    (Quad)   (Total)
    R1        2.60548   0.00396   0.00688   0.00596   0.01284   2.61832
    R2        2.31468   0.00530   0.00746   0.00033   0.00779   2.32248
    R3        2.31468   0.00530   0.00746   0.00033   0.00779   2.32248
    R4        2.80255  -0.00011   0.00200  -0.01397  -0.01297   2.78959
    R5        2.80247  -0.00009   0.00205  -0.01391  -0.01286   2.78961
    R6        2.90655   0.00486   0.01572   0.02183   0.03849   2.94505
    R7        2.90646   0.00488   0.01576   0.02189   0.03859   2.94505
    R8        1.92388   0.05726   0.13923  -0.00473   0.13451   2.05838
    R9        2.85543   0.00297   0.00939   0.00507   0.01447   2.86989
   R10        1.92664   0.05840   0.14101  -0.00284   0.13818   2.06482
   R11        1.92728   0.05934   0.14262  -0.00226   0.14036   2.06765
   R12        1.92664   0.05840   0.14101  -0.00284   0.13818   2.06482
   R13        1.92729   0.05934   0.14262  -0.00225   0.14036   2.06765
   R14        2.30351   0.01439   0.02159  -0.00293   0.01866   2.32217
   R15        2.29533   0.01768   0.02307   0.00074   0.02380   2.31914
    A1        2.02894  -0.00035  -0.00149  -0.00095  -0.00259   2.02636
    A2        2.02895  -0.00035  -0.00149  -0.00095  -0.00259   2.02636
    A3        2.22475   0.00069   0.00287   0.00103   0.00375   2.22850
    A4        2.08850  -0.00028  -0.00031  -0.00235  -0.00200   2.08650
    A5        2.08853  -0.00029  -0.00032  -0.00238  -0.00203   2.08650
    A6        1.64072  -0.00003  -0.00193  -0.00533  -0.00819   1.63253
    A7        1.56547  -0.00343  -0.01121  -0.02980  -0.04212   1.52335
    A8        2.10127  -0.00023  -0.00225  -0.04871  -0.05629   2.04498
    A9        1.96151   0.00033  -0.00143   0.00157   0.00030   1.96181
   A10        2.10129  -0.00023  -0.00225  -0.04874  -0.05632   2.04497
   A11        1.96153   0.00033  -0.00143   0.00156   0.00029   1.96182
[...]
 ! A18   A(7,4,9)              110.4563         -DE/DX =    0.0                 !
 ! A19   A(2,5,3)               88.4416         -DE/DX =    0.0                 !
 ! A20   A(2,5,8)              113.5603         -DE/DX =    0.0                 !
 ! A21   A(2,5,10)             112.8789         -DE/DX =    0.0                 !
 ! A22   A(3,5,8)              116.0259         -DE/DX =    0.0                 !
 ! A23   A(3,5,10)             113.9706         -DE/DX =    0.0                 !
 ! A24   A(8,5,10)             110.4564         -DE/DX =    0.0                 !
 ! A25   A(3,11,12)            117.0381         -DE/DX =    0.0                 !
 ! A26   A(3,11,13)            116.846          -DE/DX =    0.0                 !
 ! A27   A(12,11,13)           126.1158         -DE/DX =    0.0                 !
 ! D1    D(14,1,2,4)          -148.288          -DE/DX =    0.0                 !
 ! D2    D(14,1,2,5)           -33.7396         -DE/DX =    0.0                 !
 ! D3    D(15,1,2,4)            33.7395         -DE/DX =    0.0                 !
 ! D4    D(15,1,2,5)           148.2879         -DE/DX =    0.0                 !
 ! D5    D(1,2,4,3)            134.1564         -DE/DX =    0.0                 !
 ! D6    D(1,2,4,7)           -108.0042         -DE/DX =    0.0                 !
 ! D7    D(1,2,4,9)             18.7116         -DE/DX =    0.0                 !
 ! D8    D(5,2,4,3)              6.649          -DE/DX =    0.0                 !
 ! D9    D(5,2,4,7)            124.4884         -DE/DX =    0.0                 !
 ! D10   D(5,2,4,9)           -108.7958         -DE/DX =    0.0                 !
 ! D11   D(1,2,5,3)           -134.1564         -DE/DX =    0.0                 !
 ! D12   D(1,2,5,8)            108.0042         -DE/DX =    0.0                 !
 ! D13   D(1,2,5,10)           -18.7116         -DE/DX =    0.0                 !
 ! D14   D(4,2,5,3)             -6.649          -DE/DX =    0.0                 !
 ! D15   D(4,2,5,8)           -124.4884         -DE/DX =    0.0                 !
 ! D16   D(4,2,5,10)           108.7958         -DE/DX =    0.0                 !
 ! D17   D(5,3,4,2)             -6.3141         -DE/DX =    0.0                 !
 ! D18   D(5,3,4,7)           -121.8897         -DE/DX =    0.0                 !
 ! D19   D(5,3,4,9)            108.1134         -DE/DX =    0.0                 !
 ! D20   D(6,3,4,2)           -126.5655         -DE/DX =    0.0                 !
 ! D21   D(6,3,4,7)            117.859          -DE/DX =    0.0                 !
 ! D22   D(6,3,4,9)            -12.1379         -DE/DX =    0.0                 !
 ! D23   D(11,3,4,2)           108.5348         -DE/DX =    0.0                 !
 ! D24   D(11,3,4,7)            -7.0408         -DE/DX =    0.0                 !
 ! D25   D(11,3,4,9)          -137.0377         -DE/DX =    0.0                 !
 ! D26   D(4,3,5,2)              6.3141         -DE/DX =    0.0                 !
 ! D27   D(4,3,5,8)            121.8897         -DE/DX =    0.0                 !
 ! D28   D(4,3,5,10)          -108.1134         -DE/DX =    0.0                 !
 ! D29   D(6,3,5,2)            126.5653         -DE/DX =    0.0                 !
 ! D30   D(6,3,5,8)           -117.8591         -DE/DX =    0.0                 !
 ! D31   D(6,3,5,10)            12.1378         -DE/DX =    0.0                 !
 ! D32   D(11,3,5,2)          -108.5345         -DE/DX =    0.0                 !
 ! D33   D(11,3,5,8)             7.041          -DE/DX =    0.0                 !
 ! D34   D(11,3,5,10)          137.0379         -DE/DX =    0.0                 !
 ! D35   D(4,3,11,12)          -49.3799         -DE/DX =    0.0                 !
 ! D36   D(4,3,11,13)          130.6195         -DE/DX =    0.0                 !
 ! D37   D(5,3,11,12)           49.3766         -DE/DX =    0.0                 !
 ! D38   D(5,3,11,13)         -130.624          -DE/DX =    0.0                 !
 ! D39   D(6,3,11,12)         -180.0014         -DE/DX =    0.0                 !
 ! D40   D(6,3,11,13)           -0.0021         -DE/DX =    0.0                 !
 --------------------------------------------------------------------------------
 GradGradGradGradGradGradGradGradGradGradGradGradGradGradGradGradGradGrad

 Leave Link  103 at Fri Aug 20 15:58:59 2021, MaxMem= 24159191040 cpu:         1.7
 (Enter /public/home/users/caep010/software/Gaussian09/g09/l9999.exe)
 1\1\GINC-B1545\Freq\RB3LYP\6-31G(d,p)\C3H5N3O4\ROOT\20-Aug-2021\0\\#P 
 Geom=AllCheck Guess=TCheck SCRF=Check GenChk RB3LYP/6-31G(d,p) Freq\\Z
 EVQUM\\0,1\N,5.9073110778,1.7036267994,4.820016587\N,5.4715719939,1.70
 36210594,3.5050174974\C,6.208868306,1.7036143766,1.5252592164\C,5.9016
 935804,2.784305805,2.5951703941\C,5.9016977251,0.6229313009,2.59517850
 98\H,7.2020089143,1.7036160744,1.0847584919\H,5.106494542,3.4892615028
 ,2.3488721462\H,5.1065004668,-0.0820280268,2.3488858356\H,6.7858430863
 ,3.316407361,2.9554533815\H,6.7858489052,0.0908357688,2.9554662344\N,5
 .2357267843,1.7036127277,0.3803746266\O,4.0411303297,1.7035832632,0.66
 33400946\O,5.710581706,1.7036528053,-0.7498270933\O,6.059112632,0.6017
 512552,5.3401225495\O,6.0591099503,2.8055079271,5.3401115283\\Version=
 ES64L-G09RevE.01\State=1-A\HF=-582.234992\RMSD=2.421e-09\RMSF=3.553e-0
 5\ZeroPoint=0.1054567\Thermal=0.1140637\Dipole=0.8718318,-0.0000072,-0
 .5870981\DipoleDeriv=0.4307252,0.0000012,0.5807268,0.0000003,1.4849085
 ,0.0000019,0.3507667,0.0000006,2.0892884,-0.3379426,-0.0000012,-0.4022
 235,0.,-0.3810738,-0.000003,-0.1261515,-0.0000028,-1.1038676,0.1724166
 ,-0.0000017,-0.0263831,-0.0000054,0.1326983,-0.0000104,-0.0958537,-0.0
 000018,-0.0218133,0.2036609,0.0281148,-0.0064414,0.0251912,0.3190477,-
 0.2161956,0.0248404,-0.151325,0.3996956,0.2036622,-0.0281174,-0.00644,
 -0.0251928,0.3190463,0.2162024,0.0248383,0.1513275,0.3996853,0.0118041
 ,0.0000003,-0.0270627,0.0000005,0.0643991,0.0000016,0.024466,-0.000000
 3,-0.0453969,0.0209804,0.0653282,-0.0025464,0.0172438,0.0080483,0.0588
 537,-0.0210666,0.025856,0.0220094,0.0209826,-0.0653276,-0.0025448,-0.0
 172428,0.0080495,-0.0588549,-0.0210657,-0.0258565,0.0220128,0.0007195,
 -0.0503334,0.0278451,-0.0203971,0.0332856,0.0229716,-0.0584214,-0.0219
 461,-0.016877,0.0007187,0.0503345,0.0278439,0.0203971,0.0332861,-0.022
 9723,-0.0584212,0.0219458,-0.0168765,1.2164205,0.0000327,-0.0810904,0.
 0000303,0.1425908,-0.0000288,-0.1619329,-0.0000242,1.4824298,-0.880514
 5,-0.0000228,0.175391,-0.0000114,-0.2245756,0.0000118,-0.0357943,0.000
 0061,-0.6215211,-0.5345663,-0.0000081,0.0227451,-0.0000151,-0.2104993,
 0.0000208,0.2736166,0.0000182,-1.0236352,-0.264534,0.0722455,-0.139910
 6,0.0601493,-0.8646034,0.3629351,-0.0599111,0.2589069,-0.7825697,-0.26
 45331,-0.072245,-0.1399089,-0.060148,-0.8646082,-0.3629339,-0.0599097,
 -0.2589045,-0.7825639\Polar=50.9251866,0.000277,59.9989906,2.3092905,-
 0.0003011,84.6538085\PG=C01 [X(C3H5N3O4)]\NImag=0\\0.26833232,-0.00000
 060,1.03511829,0.08068726,-0.00000208,0.63081616,-0.06035130,0.0000001
 3,0.00253403,0.15423509,0.,-0.13519878,-0.00000003,-0.00000070,0.54449
 251,-0.04763664,-0.00000020,-0.15263783,-0.00979459,0.00000038,0.55679
 257,-0.00532052,-0.00000001,0.00035269,0.00247955,0.00000018,0.0338005
 3,0.60682289,0.00000011,-0.00144595,0.00000003,0.00000012,-0.01051077,
 -0.00000039,0.00000128,0.34972697,0.01027311,-0.00000007,-0.00663496,0
 .02530283,-0.00000018,-0.08469879,-0.12866086,-0.00000206,0.51354951,-
 0.00661342,0.01974288,-0.00568472,-0.06852482,-0.06653072,0.02487655,-
 0.09137090,0.02578888,0.00710221,0.59111589,0.00895035,0.00409920,0.01
 217647,-0.02659396,-0.14924869,0.04928640,0.01988484,-0.09972793,-0.04
 608370,-0.01720082,0.58821330,0.01148407,0.02398245,-0.03212829,0.0005
 0531,0.06847611,-0.10128505,0.00936583,-0.06205754,-0.09353691,0.09755
 942,0.00059293,0.39894324,-0.00661329,-0.01974294,-0.00568450,-0.06852
 496,0.06653124,0.02487631,-0.09137157,-0.02578927,0.00710260,0.0086154
 2,-0.00698758,0.00706216,0.59111604,-0.00895036,0.00409880,-0.01217675
 ,0.02659446,-0.14924946,-0.04928589,-0.01988493,-0.09972802,0.04608410
 ,0.00698801,-0.07670803,-0.00312455,0.01720195,0.58821435,0.01148426,-
 0.02398266,-0.03212796,0.00050539,-0.06847592,-0.10128417,0.00936560,0
 .06205814,-0.09353869,0.00706214,0.00312520,0.00386189,0.09755910,-0.0
 0059496,0.39894412,0.00005082,0.,-0.00012545,0.00007798,0.,-0.00024702
 ,-0.28937742,-0.00000022,0.10283920,0.00107370,-0.00091288,0.00007389,
 0.00107388,0.00091290,0.00007386,0.30997323,0.00000001,0.00090115,-0.0
 0000001,0.,-0.00113137,-0.00000003,-0.00000041,-0.05138574,0.00000039,
 0.02235120,0.00146220,-0.00402688,-0.02235100,0.00146217,0.00402672,0.
 00000046,0.04746304,0.00218592,0.00000001,0.00087888,-0.00117660,-0.00
 000001,-0.00360742,0.11947968,0.00000035,-0.09603244,0.01256215,-0.000
 15305,-0.00407451,0.01256225,0.00015307,-0.00407447,-0.10976489,-0.000
 00019,0.10593454,0.00068688,-0.00204747,-0.00026522,0.01365437,-0.0085
 4907,0.00342056,-0.00409483,0.00050455,-0.00085969,-0.20655749,0.13453
 997,-0.04607814,-0.00047442,-0.00121964,0.00043479,0.00024670,0.000868
 57,0.00039423,0.21268315,0.00062681,-0.00307830,-0.00330508,0.00897947
 ,-0.01557409,0.00988972,0.01115760,-0.00893394,0.00092296,0.12892162,-
 0.15554135,0.03623310,-0.00096196,-0.00219299,0.00164410,-0.00023864,-
 0.00165210,-0.00047507,-0.13895083,0.17305935,-0.00202938,0.00515531,0
 .00220361,-0.01306214,0.01466037,-0.00669220,0.01862972,-0.01336465,0.
 00493260,-0.04327775,0.03390236,-0.06263999,-0.00109319,-0.00006289,-0
 .00249342,0.00003915,-0.00260496,-0.00158184,0.04752075,-0.04462160,0.
 06574899,0.00068687,0.00204748,-0.00026527,0.01365434,0.00854926,0.003
 42056,-0.00409475,-0.00050466,-0.00085959,-0.00047446,0.00121962,0.000
 43481,-0.20655683,-0.13454084,-0.04607697,0.00024669,-0.00086857,0.000
 39422,0.00007382,0.00025497,-0.00009966,0.21268259,-0.00062681,-0.0030
 7830,0.00330511,-0.00897951,-0.01557434,-0.00988970,-0.01115752,-0.008
 93375,-0.00092299,0.00096198,-0.00219299,-0.00164412,-0.12892247,-0.15
 554307,-0.03623227,0.00023865,-0.00165208,0.00047507,-0.00025497,-0.00
 055349,-0.00006537,0.13895163,0.17306106,-0.00202938,-0.00515527,0.002
 20360,-0.01306206,-0.01466040,-0.00669200,0.01862987,0.01336465,0.0049
 3272,-0.00109322,0.00006285,-0.00249339,-0.04327643,-0.03390153,-0.062
 63942,0.00003912,0.00260497,-0.00158188,-0.00009966,0.00006538,0.00060
 723,0.04751946,0.04462095,0.06574826,0.00082886,-0.00275964,-0.0053049
 1,-0.00518051,-0.00742090,0.00407440,0.01001209,0.00524010,0.00383347,
 -0.23160274,-0.10219581,-0.07574074,-0.00185685,0.00083435,0.00034502,
 0.00092505,-0.00077406,-0.00009818,-0.01623108,-0.01172351,-0.00846331
 ,0.00013224,-0.00032433,-0.00029239,0.24321486,-0.00159269,-0.00125354
 ,-0.00552396,-0.01894260,-0.01731222,-0.00013607,-0.01167062,-0.007299
 17,-0.00659557,-0.10116229,-0.10922620,-0.03933928,-0.00001633,-0.0003
 4613,0.00146853,-0.00002791,0.00168192,-0.00006293,0.01618948,0.012563
 20,0.00646735,0.00016551,-0.00065708,-0.00032638,0.11441156,0.12129350
 ,0.00386595,0.00246826,0.00716217,0.01960272,0.01555011,0.00227371,-0.
 02010246,-0.00813915,-0.00632519,-0.07875771,-0.04308035,-0.07985291,0
 .00161163,-0.00113872,-0.00248277,-0.00002844,0.00117067,0.00088080,-0
 .00441640,-0.00391197,-0.00004462,-0.00025156,0.00015975,0.00058154,0.
 08021579,0.04228093,0.08076524,0.00082885,0.00275962,-0.00530495,-0.00
 518067,0.00742097,0.00407434,0.01001214,-0.00523999,0.00383347,-0.0018
 5683,-0.00083435,0.00034503,-0.23160326,0.10219468,-0.07574178,0.00092
 502,0.00077405,-0.00009821,0.00013223,0.00032433,-0.00029239,-0.016231
 00,0.01172338,-0.00846336,0.00011884,-0.00011553,-0.00008034,0.2432155
 0,0.00159275,-0.00125349,0.00552400,0.01894276,-0.01731229,0.00013625,
 0.01167060,-0.00729903,0.00659565,0.00001637,-0.00034615,-0.00146853,0
 .10116114,-0.10922469,0.03933939,0.00002788,0.00168190,0.00006290,-0.0
 0016552,-0.00065709,0.00032639,-0.01618953,0.01256320,-0.00646745,0.00
 011553,-0.00055549,-0.00000953,-0.11441046,0.12129191,0.00386596,-0.00
 246818,0.00716212,0.01960266,-0.01554991,0.00227384,-0.02010267,0.0081
 3898,-0.00632517,0.00161163,0.00113870,-0.00248278,-0.07875876,0.04308
 052,-0.07985372,-0.00002842,-0.00117066,0.00088081,-0.00025155,-0.0001
 5974,0.00058155,-0.00441625,0.00391187,-0.00004461,-0.00008035,0.00000
 955,0.00027757,0.08021696,-0.04228109,0.08076605,-0.00271331,0.0000000
 4,0.00138725,-0.00258526,-0.00000006,0.00306187,-0.10570753,0.00000016
 ,-0.00933238,0.00846624,-0.00865540,-0.00563065,0.00846634,0.00865546,
 -0.00563015,-0.02566945,-0.00000024,-0.02785906,-0.00045970,0.00440323
 ,0.00334894,-0.00045986,-0.00440331,0.00334899,-0.00208784,0.00236547,
 0.00062249,-0.00208787,-0.00236556,0.00062245,0.86197486,0.00000003,-0
 .00159324,0.00000010,-0.00000003,-0.00163856,-0.00000006,0.00000058,-0
 .09859135,0.00000007,-0.02549405,0.00178579,-0.01866566,0.02549384,0.0
 0178598,0.01866524,-0.00000024,-0.00118341,0.00000002,-0.00004560,0.00
 140812,0.00069350,0.00004553,0.00140795,-0.00069345,0.00277309,-0.0022
 9403,-0.00409631,-0.00277313,-0.00229405,0.00409621,0.00001696,0.24683
 656,-0.00060190,-0.00000001,-0.00706211,0.00147437,0.00000006,-0.00059
 463,-0.02771807,-0.00000068,-0.09190995,-0.00919895,-0.00390459,-0.024
 47876,-0.00919865,0.00390430,-0.02447839,0.01308531,-0.00000007,0.0080
 2502,-0.00098142,0.00013396,0.00185975,-0.00098138,-0.00013379,0.00185
 951,0.00049624,0.00066848,0.00023070,0.00049626,-0.00066851,0.00023071
 ,-0.16836201,-0.00001705,0.80817790,0.00047702,-0.00000003,-0.00058958
 ,0.00083367,0.00000002,0.00016217,-0.05440165,-0.00000131,-0.00306937,
 -0.00317099,0.00208228,0.00377598,-0.00317093,-0.00208223,0.00377588,-
 0.00366023,-0.00000007,-0.00670236,0.00053142,-0.00200281,-0.00164882,
 0.00053140,0.00200291,-0.00164895,0.00122063,-0.00060472,-0.00005096,0
 .00122056,0.00060470,-0.00005093,-0.55912588,-0.00001128,0.06776460,0.
 66299902,-0.00000002,0.00004891,-0.00000004,-0.00000002,0.00030952,0.0
 0000003,-0.00000120,0.01769116,0.00000009,0.00130513,-0.00150073,0.001
 35781,-0.00130487,-0.00150090,-0.00135753,-0.00000002,0.00198930,-0.00
 000011,-0.00047855,0.00090231,0.00041598,0.00047867,0.00090249,-0.0004
 1610,-0.00091622,0.00081401,0.00009864,0.00091628,0.00081405,-0.000098
 59,-0.00001081,-0.07649711,0.00000284,0.00001550,0.03006746,0.00012660
 ,0.00000001,0.00328876,-0.00151310,0.,-0.00138414,-0.02137408,-0.00000
 020,0.01462962,-0.00150882,-0.00097880,-0.00027843,-0.00150901,0.00097
 895,-0.00027847,-0.00565316,-0.00000004,-0.00421553,-0.00065297,0.0010
 8552,0.00008493,-0.00065310,-0.00108560,0.00008490,-0.00050898,0.00059
 301,-0.00066188,-0.00050905,-0.00059308,-0.00066191,0.06756416,0.00000
 299,-0.14263496,-0.12698519,-0.00000564,0.15208124,0.00089399,0.,-0.00
 031058,0.00055463,0.00000002,-0.00143541,0.01301422,0.00000029,-0.0139
 9846,-0.00116817,0.00146570,-0.00150659,-0.00116813,-0.00146577,-0.001
 50669,0.00439259,0.00000007,-0.00090390,0.00003289,-0.00087717,-0.0004
 0801,0.00003290,0.00087724,-0.00040808,0.00039748,-0.00031094,0.000025
 43,0.00039750,0.00031096,0.00002544,-0.17929401,-0.00000569,0.13299851
 ,-0.04413497,-0.00000388,0.09329248,0.20644462,-0.00000006,0.00026626,
 -0.00000008,0.00000002,0.00033052,0.00000011,-0.00000040,0.02588345,0.
 00000125,0.00301604,-0.00143013,0.00058429,-0.00301591,-0.00142988,-0.
 00058410,0.00000002,-0.00009662,-0.00000005,-0.00022711,-0.00041882,-0
 .00018576,0.00022709,-0.00041875,0.00018578,-0.00041053,0.00024509,0.0
 0058290,0.00041053,0.00024510,-0.00058282,-0.00000587,-0.07181553,0.00
 001503,-0.00000302,0.02567642,0.00000291,0.00000917,0.02361660,0.00184
 515,0.00000003,0.00318497,-0.00048366,-0.00000002,-0.00289944,0.010273
 09,0.00000262,-0.05773997,-0.00384752,0.00295526,-0.00033046,-0.003848
 06,-0.00295530,-0.00033079,-0.00004951,0.00000011,-0.00072226,0.000320
 18,0.00037548,-0.00009369,0.00032015,-0.00037564,-0.00009355,0.0004177
 6,-0.00019483,-0.00125523,0.00041780,0.00019485,-0.00125533,0.13482896
 ,0.00001447,-0.53373478,0.06597141,0.00000258,-0.01805910,-0.20528021,
 -0.00001952,0.61611266,-0.09558711,0.04506113,-0.03071343,0.01242884,0
 .02380127,-0.02132692,0.00169915,0.00018658,-0.00175329,0.00275226,-0.
 00377688,-0.00086944,-0.00068367,0.00098506,-0.00078096,-0.00013928,-0
 .00010519,-0.00048764,-0.00032325,-0.00006177,0.00033742,0.00009931,-0
 .00014865,0.00049865,-0.00012441,0.00030713,-0.00105418,0.00023340,-0.
 00100449,-0.00120198,0.00064164,-0.00047800,0.00036353,-0.00007454,-0.
 00000486,-0.00005788,-0.00019778,0.00010452,-0.00044276,0.04995431,0.0
 4085841,-0.44881409,0.15525927,0.02247226,-0.01619040,0.04643307,-0.00
 165190,0.00027705,0.00063468,0.00045276,0.00332618,-0.00385346,-0.0008
 4300,-0.00296441,-0.00295328,0.00021108,0.00022982,0.00059165,-0.00030
 947,-0.00013194,0.00035081,-0.00014566,0.00080113,0.00106681,0.0003289
 5,0.00005158,0.00080557,-0.00282142,0.00229455,0.00274075,-0.00028358,
 0.00134145,-0.00144857,0.00001777,0.00014155,0.00060551,0.00010954,-0.
 00032687,0.00076041,-0.06163098,0.55928706,-0.03676089,0.16267997,-0.2
 1315617,-0.01521771,0.06128730,-0.04978255,-0.00096943,0.00140149,-0.0
 0065120,-0.00740115,-0.00268988,-0.00157855,-0.00000428,0.00634983,0.0
 0235491,-0.00012682,-0.00040582,-0.00035485,0.00114778,0.00135422,-0.0
 0237932,0.00036677,-0.00076902,-0.00009359,0.00064759,0.00035300,-0.00
 050605,0.00045860,-0.00033822,-0.00104309,0.00101459,0.00021599,0.0022
 5499,-0.00035195,-0.00020931,-0.00099751,-0.00029197,0.00001073,-0.001
 39150,0.05391384,-0.21511747,0.22667560,-0.09558665,-0.04506056,-0.030
 71262,0.01242904,-0.02380151,-0.02132671,0.00169914,-0.00018663,-0.001
 75327,-0.00068367,-0.00098507,-0.00078095,0.00275224,0.00377689,-0.000
 86949,-0.00013928,0.00010518,-0.00048764,0.00009931,0.00014865,0.00049
 866,-0.00032325,0.00006177,0.00033742,0.00023339,0.00100448,-0.0012019
 7,-0.00012441,-0.00030714,-0.00105417,0.00064162,0.00047799,0.00036354
 ,-0.00007453,0.00000486,-0.00005789,-0.00019777,-0.00010450,-0.0004427
 8,0.02932113,0.00323524,0.00357504,0.04995369,-0.04085792,-0.44881691,
 -0.15525695,-0.02247240,-0.01619159,-0.04643361,0.00165190,0.00027701,
 -0.00063459,0.00084303,-0.00296447,0.00295333,-0.00045285,0.00332628,0
 .00385338,-0.00021109,0.00022982,-0.00059166,0.00014566,0.00080113,-0.
 00106682,0.00030949,-0.00013196,-0.00035083,0.00282142,0.00229455,-0.0
 0274078,-0.00032894,0.00005156,-0.00080558,0.00028350,0.00134143,0.001
 44861,-0.00001773,0.00014156,-0.00060554,-0.00010952,-0.00032684,-0.00
 076051,-0.00323488,-0.09932264,-0.01412281,0.06163034,0.55929108,-0.03
 676009,-0.16267757,-0.21315295,-0.01521746,-0.06128785,-0.04978190,-0.
 00096945,-0.00140157,-0.00065118,-0.00000425,-0.00634980,0.00235490,-0
 .00740117,0.00268981,-0.00157863,-0.00012683,0.00040582,-0.00035485,0.
 00036676,0.00076902,-0.00009358,0.00114780,-0.00135424,-0.00237930,0.0
 0045857,0.00033817,-0.00104309,0.00064761,-0.00035301,-0.00050604,0.00
 101454,-0.00021604,0.00225499,-0.00035194,0.00020933,-0.00099753,-0.00
 029196,-0.00001067,-0.00139152,0.00357503,0.01412425,0.04064890,0.0539
 1283,0.21511436,0.22667177\\0.00002111,-0.00000041,0.00012746,0.000047
 89,0.00000015,-0.00010528,-0.00000797,0.00000025,-0.00003019,-0.000045
 80,-0.00006172,0.00000976,-0.00004574,0.00006176,0.00000983,-0.0000183
 2,0.00000003,0.00003228,0.00002611,0.00000558,0.00001790,0.00002613,-0
 .00000548,0.00001801,0.00000278,0.00002000,-0.00000213,0.00000273,-0.0
 0001994,-0.00000209,0.00000681,-0.00000095,0.00000308,-0.00001924,0.00
 000032,0.00002839,0.00003826,0.00000037,-0.00001019,-0.00001734,0.0000
 2634,-0.00004825,-0.00001740,-0.00002629,-0.00004858\\\@


 "PERFECTION IS NOT AN ACCIDENT"
         --  EAGLE ELECTRIC MANUFACTURING CO.,INC. NY
 Job cpu time:       0 days  0 hours  8 minutes 26.0 seconds.
 File lengths (MBytes):  RWF=     61 Int=      0 D2E=      0 Chk=      4 Scr=      1
 Normal termination of Gaussian 09 at Fri Aug 20 15:58:59 2021.
