 Entering Gaussian System, Link 0=g09
 Input=B3LYP6-31G.SONDEE01.gjf
 Output=B3LYP6-31G.SONDEE01.log
 Initial command:
 /public/home/users/caep010/software/Gaussian09/g09/l1.exe "/public/home/users/caep010/.cache/gau_scr/Gau-192116.inp" -scrdir="/public/home/users/caep010/.cache/gau_scr/"
 Entering Link 1 = /public/home/users/caep010/software/Gaussian09/g09/l1.exe PID=    192117.
  
 Copyright (c) 1988,1990,1992,1993,1995,1998,2003,2009,2015,
            Gaussian, Inc.  All Rights Reserved.
  
 This is part of the Gaussian(R) 09 program.  It is based on
 the Gaussian(R) 03 system (copyright 2003, Gaussian, Inc.),
 the Gaussian(R) 98 system (copyright 1998, Gaussian, Inc.),
 the Gaussian(R) 94 system (copyright 1995, Gaussian, Inc.),
 the Gaussian 92(TM) system (copyright 1992, Gaussian, Inc.),
 the Gaussian 90(TM) system (copyright 1990, Gaussian, Inc.),
 the Gaussian 88(TM) system (copyright 1988, Gaussian, Inc.),
 the Gaussian 86(TM) system (copyright 1986, Carnegie Mellon
 University), and the Gaussian 82(TM) system (copyright 1983,
 Carnegie Mellon University). Gaussian is a federally registered
 trademark of Gaussian, Inc.
  
 This software contains proprietary and confidential information,
 including trade secrets, belonging to Gaussian, Inc.
  
 This software is provided under written license and may be
 used, copied, transmitted, or stored only in accord with that
 written license.
  
 The following legend is applicable only to US Government
 contracts under FAR:
  
                    RESTRICTED RIGHTS LEGEND
  
 Use, reproduction and disclosure by the US Government is
 subject to restrictions as set forth in subparagraphs (a)
 and (c) of the Commercial Computer Software - Restricted
 Rights clause in FAR 52.227-19.
  
 Gaussian, Inc.
 340 Quinnipiac St., Bldg. 40, Wallingford CT 06492
  
  
 ---------------------------------------------------------------
 Warning -- This program may not be used in any manner that
 competes with the business of Gaussian, Inc. or will provide
 assistance to any competitor of Gaussian, Inc.  The licensee
 of this program is prohibited from giving any competitor of
 Gaussian, Inc. access to this program.  By using this program,
 the user acknowledges that Gaussian, Inc. is engaged in the
 business of creating and licensing software in the field of
 computational chemistry and represents and warrants to the
 licensee that it is not a competitor of Gaussian, Inc. and that
 it will not use this program in any manner prohibited above.
 ---------------------------------------------------------------
  

 Cite this work as:
 Gaussian 09, Revision E.01,
 M. J. Frisch, G. W. Trucks, H. B. Schlegel, G. E. Scuseria, 
 M. A. Robb, J. R. Cheeseman, G. Scalmani, V. Barone, B. Mennucci, 
 G. A. Petersson, H. Nakatsuji, M. Caricato, X. Li, H. P. Hratchian, 
 A. F. Izmaylov, J. Bloino, G. Zheng, J. L. Sonnenberg, M. Hada, 
 M. Ehara, K. Toyota, R. Fukuda, J. Hasegawa, M. Ishida, T. Nakajima, 
 Y. Honda, O. Kitao, H. Nakai, T. Vreven, J. A. Montgomery, Jr., 
 J. E. Peralta, F. Ogliaro, M. Bearpark, J. J. Heyd, E. Brothers, 
 K. N. Kudin, V. N. Staroverov, T. Keith, R. Kobayashi, J. Normand, 
 K. Raghavachari, A. Rendell, J. C. Burant, S. S. Iyengar, J. Tomasi, 
 M. Cossi, N. Rega, J. M. Millam, M. Klene, J. E. Knox, J. B. Cross, 
 V. Bakken, C. Adamo, J. Jaramillo, R. Gomperts, R. E. Stratmann, 
 O. Yazyev, A. J. Austin, R. Cammi, C. Pomelli, J. W. Ochterski, 
 R. L. Martin, K. Morokuma, V. G. Zakrzewski, G. A. Voth, 
 P. Salvador, J. J. Dannenberg, S. Dapprich, A. D. Daniels, 
 O. Farkas, J. B. Foresman, J. V. Ortiz, J. Cioslowski, 
 and D. J. Fox, Gaussian, Inc., Wallingford CT, 2013.
 
 ******************************************
 Gaussian 09:  ES64L-G09RevE.01 30-Nov-2015
                20-Aug-2021 
 ******************************************
 %nproc=32
 Will use up to   32 processors via shared memory.
 %mem=180GB
 -------------------------
 #P OPT Freq B3LYP/6-31G**
 -------------------------
 1/14=-1,18=20,19=15,26=3,38=1/1,3;
 2/9=110,12=2,17=6,18=5,40=1/2;
 3/5=1,6=6,7=101,11=2,16=1,25=1,30=1,71=1,74=-5/1,2,3;
 4//1;
 5/5=2,38=5/2;
 6/7=2,8=2,9=2,10=2,28=1/1;
 7//1,2,3,16;
 1/14=-1,18=20,19=15,26=3/3(2);
 2/9=110/2;
 99//99;
 2/9=110/2;
 3/5=1,6=6,7=101,11=2,16=1,25=1,30=1,71=1,74=-5/1,2,3;
 4/5=5,16=3,69=1/1;
 5/5=2,38=5/2;
 7//1,2,3,16;
 1/14=-1,18=20,19=15,26=3/3(-5);
 2/9=110/2;
 6/7=2,8=2,9=2,10=2,19=2,28=1/1;
 99/9=1/99;
 Leave Link    1 at Fri Aug 20 16:01:46 2021, MaxMem= 24159191040 cpu:         2.3
 (Enter /public/home/users/caep010/software/Gaussian09/g09/l101.exe)
 --------
 SONDEE01
 --------
 Symbolic Z-matrix:
 Charge =  0 Multiplicity = 1
 N                     8.2996    0.9704    2.2436 
 C                     7.4745    0.7737    3.2968 
 C                     7.0614   -0.5908    3.7424 
 N                     7.0711    1.9091    3.8557 
 H                     6.6041   -1.0598    3.0273 
 C                     7.6367    2.8965    3.1147 
 H                     7.5286    3.8081    3.262 
 C                     8.7624   -0.092     1.3391 
 H                     8.0732   -0.2925    0.702 
 C                     8.3854    2.3446    2.1234 
 H                     7.8344   -1.1106    4.0132 
 O                     6.1801   -0.3807    4.853 
 H                     8.9663   -0.8799    1.8487 
 C                     5.7379   -1.5239    5.4472 
 N                     4.9594   -1.239     6.4848 
 O                     6.0526   -2.6299    5.0434 
 H                     4.5578   -1.8462    6.9256 
 H                     4.7986   -0.4304    6.7111 
 N                     9.2249    3.0271    1.1974 
 O                     9.0975    4.2518    1.1332 
 O                     10.041    2.3854    0.5366 
 H                     9.5505    0.2021    0.8763 
 
 NAtoms=     22 NQM=       22 NQMF=       0 NMMI=      0 NMMIF=      0
                NMic=       0 NMicF=      0.
                    Isotopes and Nuclear Properties:
 (Nuclear quadrupole moments (NQMom) in fm**2, nuclear magnetic moments (NMagM)
  in nuclear magnetons)

  Atom         1           2           3           4           5           6           7           8           9          10
 IAtWgt=          14          12          12          14           1          12           1          12           1          12
 AtmWgt=  14.0030740  12.0000000  12.0000000  14.0030740   1.0078250  12.0000000   1.0078250  12.0000000   1.0078250  12.0000000
 NucSpn=           2           0           0           2           1           0           1           0           1           0
 AtZEff=   0.0000000   0.0000000   0.0000000   0.0000000   0.0000000   0.0000000   0.0000000   0.0000000   0.0000000   0.0000000
 NQMom=    2.0440000   0.0000000   0.0000000   2.0440000   0.0000000   0.0000000   0.0000000   0.0000000   0.0000000   0.0000000
 NMagM=    0.4037610   0.0000000   0.0000000   0.4037610   2.7928460   0.0000000   2.7928460   0.0000000   2.7928460   0.0000000
 AtZNuc=   7.0000000   6.0000000   6.0000000   7.0000000   1.0000000   6.0000000   1.0000000   6.0000000   1.0000000   6.0000000

  Atom        11          12          13          14          15          16          17          18          19          20
 IAtWgt=           1          16           1          12          14          16           1           1          14          16
 AtmWgt=   1.0078250  15.9949146   1.0078250  12.0000000  14.0030740  15.9949146   1.0078250   1.0078250  14.0030740  15.9949146
 NucSpn=           1           0           1           0           2           0           1           1           2           0
 AtZEff=   0.0000000   0.0000000   0.0000000   0.0000000   0.0000000   0.0000000   0.0000000   0.0000000   0.0000000   0.0000000
 NQMom=    0.0000000   0.0000000   0.0000000   0.0000000   2.0440000   0.0000000   0.0000000   0.0000000   2.0440000   0.0000000
 NMagM=    2.7928460   0.0000000   2.7928460   0.0000000   0.4037610   0.0000000   2.7928460   2.7928460   0.4037610   0.0000000
 AtZNuc=   1.0000000   8.0000000   1.0000000   6.0000000   7.0000000   8.0000000   1.0000000   1.0000000   7.0000000   8.0000000

  Atom        21          22
 IAtWgt=          16           1
 AtmWgt=  15.9949146   1.0078250
 NucSpn=           0           1
 AtZEff=   0.0000000   0.0000000
 NQMom=    0.0000000   0.0000000
 NMagM=    0.0000000   2.7928460
 AtZNuc=   8.0000000   1.0000000
 Leave Link  101 at Fri Aug 20 16:01:46 2021, MaxMem= 24159191040 cpu:        10.6
 (Enter /public/home/users/caep010/software/Gaussian09/g09/l103.exe)

 GradGradGradGradGradGradGradGradGradGradGradGradGradGradGradGradGradGrad
 Berny optimization.
 Initialization pass.
                           ----------------------------
                           !    Initial Parameters    !
                           ! (Angstroms and Degrees)  !
 --------------------------                            --------------------------
 ! Name  Definition              Value          Derivative Info.                !
 --------------------------------------------------------------------------------
 ! R1    R(1,2)                  1.3523         estimate D2E/DX2                !
 ! R2    R(1,8)                  1.47           estimate D2E/DX2                !
 ! R3    R(1,10)                 1.3821         estimate D2E/DX2                !
 ! R4    R(2,3)                  1.4937         estimate D2E/DX2                !
 ! R5    R(2,4)                  1.3282         estimate D2E/DX2                !
 ! R6    R(3,5)                  0.9698         estimate D2E/DX2                !
 ! R7    R(3,11)                 0.9701         estimate D2E/DX2                !
 ! R8    R(3,12)                 1.4333         estimate D2E/DX2                !
 ! R9    R(4,6)                  1.3579         estimate D2E/DX2                !
 ! R10   R(6,7)                  0.9297         estimate D2E/DX2                !
 ! R11   R(6,10)                 1.3593         estimate D2E/DX2                !
 ! R12   R(8,9)                  0.9597         estimate D2E/DX2                !
 ! R13   R(8,13)                 0.9602         estimate D2E/DX2                !
 ! R14   R(8,22)                 0.9601         estimate D2E/DX2                !
 ! R15   R(10,19)                1.4241         estimate D2E/DX2                !
 ! R16   R(12,14)                1.3622         estimate D2E/DX2                !
 ! R17   R(14,15)                1.3281         estimate D2E/DX2                !
 ! R18   R(14,16)                1.2187         estimate D2E/DX2                !
 ! R19   R(15,17)                0.851          estimate D2E/DX2                !
 ! R20   R(15,18)                0.8549         estimate D2E/DX2                !
 ! R21   R(19,20)                1.233          estimate D2E/DX2                !
 ! R22   R(19,21)                1.2306         estimate D2E/DX2                !
 ! A1    A(2,1,8)              124.4835         estimate D2E/DX2                !
 ! A2    A(2,1,10)             104.4913         estimate D2E/DX2                !
 ! A3    A(8,1,10)             130.2041         estimate D2E/DX2                !
 ! A4    A(1,2,3)              122.2737         estimate D2E/DX2                !
 ! A5    A(1,2,4)              112.8726         estimate D2E/DX2                !
 ! A6    A(3,2,4)              124.8452         estimate D2E/DX2                !
 ! A7    A(2,3,5)              110.6238         estimate D2E/DX2                !
 ! A8    A(2,3,11)             110.6336         estimate D2E/DX2                !
 ! A9    A(2,3,12)             105.5042         estimate D2E/DX2                !
 ! A10   A(5,3,11)             108.8118         estimate D2E/DX2                !
 ! A11   A(5,3,12)             110.6295         estimate D2E/DX2                !
 ! A12   A(11,3,12)            110.6224         estimate D2E/DX2                !
 ! A13   A(2,4,6)              105.3939         estimate D2E/DX2                !
 ! A14   A(4,6,7)              125.3155         estimate D2E/DX2                !
 ! A15   A(4,6,10)             109.3981         estimate D2E/DX2                !
 ! A16   A(7,6,10)             125.2864         estimate D2E/DX2                !
 ! A17   A(1,8,9)              109.4723         estimate D2E/DX2                !
 ! A18   A(1,8,13)             109.4699         estimate D2E/DX2                !
 ! A19   A(1,8,22)             109.4896         estimate D2E/DX2                !
 ! A20   A(9,8,13)             109.4731         estimate D2E/DX2                !
 ! A21   A(9,8,22)             109.4798         estimate D2E/DX2                !
 ! A22   A(13,8,22)            109.4425         estimate D2E/DX2                !
 ! A23   A(1,10,6)             107.8223         estimate D2E/DX2                !
 ! A24   A(1,10,19)            124.7261         estimate D2E/DX2                !
 ! A25   A(6,10,19)            127.1778         estimate D2E/DX2                !
 ! A26   A(3,12,14)            114.4939         estimate D2E/DX2                !
 ! A27   A(12,14,15)           110.5519         estimate D2E/DX2                !
 ! A28   A(12,14,16)           122.2258         estimate D2E/DX2                !
 ! A29   A(15,14,16)           127.2208         estimate D2E/DX2                !
 ! A30   A(14,15,17)           121.885          estimate D2E/DX2                !
 ! A31   A(14,15,18)           121.3287         estimate D2E/DX2                !
 ! A32   A(17,15,18)           116.6766         estimate D2E/DX2                !
 ! A33   A(10,19,20)           116.6782         estimate D2E/DX2                !
 ! A34   A(10,19,21)           119.3524         estimate D2E/DX2                !
 ! A35   A(20,19,21)           123.9521         estimate D2E/DX2                !
 ! D1    D(8,1,2,3)              6.9021         estimate D2E/DX2                !
 ! D2    D(8,1,2,4)           -172.0813         estimate D2E/DX2                !
 ! D3    D(10,1,2,3)           177.4315         estimate D2E/DX2                !
 ! D4    D(10,1,2,4)            -1.5519         estimate D2E/DX2                !
 ! D5    D(2,1,8,9)             79.6013         estimate D2E/DX2                !
 ! D6    D(2,1,8,13)           -40.4009         estimate D2E/DX2                !
 ! D7    D(2,1,8,22)          -160.3762         estimate D2E/DX2                !
 ! D8    D(10,1,8,9)           -88.3591         estimate D2E/DX2                !
 ! D9    D(10,1,8,13)          151.6387         estimate D2E/DX2                !
 ! D10   D(10,1,8,22)           31.6633         estimate D2E/DX2                !
 ! D11   D(2,1,10,6)             1.131          estimate D2E/DX2                !
 ! D12   D(2,1,10,19)          175.4814         estimate D2E/DX2                !
 ! D13   D(8,1,10,6)           170.9019         estimate D2E/DX2                !
 ! D14   D(8,1,10,19)          -14.7478         estimate D2E/DX2                !
 ! D15   D(1,2,3,5)            -59.2741         estimate D2E/DX2                !
 ! D16   D(1,2,3,11)            61.3811         estimate D2E/DX2                !
 ! D17   D(1,2,3,12)          -178.9481         estimate D2E/DX2                !
 ! D18   D(4,2,3,5)            119.5846         estimate D2E/DX2                !
 ! D19   D(4,2,3,11)          -119.7602         estimate D2E/DX2                !
 ! D20   D(4,2,3,12)            -0.0894         estimate D2E/DX2                !
 ! D21   D(1,2,4,6)              1.3298         estimate D2E/DX2                !
 ! D22   D(3,2,4,6)           -177.6228         estimate D2E/DX2                !
 ! D23   D(2,3,12,14)         -177.0827         estimate D2E/DX2                !
 ! D24   D(5,3,12,14)           63.2471         estimate D2E/DX2                !
 ! D25   D(11,3,12,14)         -57.4044         estimate D2E/DX2                !
 ! D26   D(2,4,6,7)            179.4348         estimate D2E/DX2                !
 ! D27   D(2,4,6,10)            -0.5428         estimate D2E/DX2                !
 ! D28   D(4,6,10,1)            -0.3854         estimate D2E/DX2                !
 ! D29   D(4,6,10,19)         -174.557          estimate D2E/DX2                !
 ! D30   D(7,6,10,1)           179.637          estimate D2E/DX2                !
 ! D31   D(7,6,10,19)            5.4653         estimate D2E/DX2                !
 ! D32   D(1,10,19,20)         173.6961         estimate D2E/DX2                !
 ! D33   D(1,10,19,21)          -7.7551         estimate D2E/DX2                !
 ! D34   D(6,10,19,20)         -13.059          estimate D2E/DX2                !
 ! D35   D(6,10,19,21)         165.4898         estimate D2E/DX2                !
 ! D36   D(3,12,14,15)         178.3022         estimate D2E/DX2                !
 ! D37   D(3,12,14,16)          -1.2987         estimate D2E/DX2                !
 ! D38   D(12,14,15,17)        175.3704         estimate D2E/DX2                !
 ! D39   D(12,14,15,18)         -0.6944         estimate D2E/DX2                !
 ! D40   D(16,14,15,17)         -5.0536         estimate D2E/DX2                !
 ! D41   D(16,14,15,18)        178.8817         estimate D2E/DX2                !
 --------------------------------------------------------------------------------
 Trust Radius=3.00D-01 FncErr=1.00D-07 GrdErr=1.00D-06
 Number of steps in this run=    108 maximum allowed number of steps=    132.
 GradGradGradGradGradGradGradGradGradGradGradGradGradGradGradGradGradGrad

 Leave Link  103 at Fri Aug 20 16:01:46 2021, MaxMem= 24159191040 cpu:         0.5
 (Enter /public/home/users/caep010/software/Gaussian09/g09/l202.exe)
                          Input orientation:                          
 ---------------------------------------------------------------------
 Center     Atomic      Atomic             Coordinates (Angstroms)
 Number     Number       Type             X           Y           Z
 ---------------------------------------------------------------------
      1          7           0        8.299600    0.970400    2.243600
      2          6           0        7.474500    0.773700    3.296800
      3          6           0        7.061400   -0.590800    3.742400
      4          7           0        7.071100    1.909100    3.855700
      5          1           0        6.604100   -1.059800    3.027300
      6          6           0        7.636700    2.896500    3.114700
      7          1           0        7.528600    3.808100    3.262000
      8          6           0        8.762400   -0.092000    1.339100
      9          1           0        8.073200   -0.292500    0.702000
     10          6           0        8.385400    2.344600    2.123400
     11          1           0        7.834400   -1.110600    4.013200
     12          8           0        6.180100   -0.380700    4.853000
     13          1           0        8.966300   -0.879900    1.848700
     14          6           0        5.737900   -1.523900    5.447200
     15          7           0        4.959400   -1.239000    6.484800
     16          8           0        6.052600   -2.629900    5.043400
     17          1           0        4.557800   -1.846200    6.925600
     18          1           0        4.798600   -0.430400    6.711100
     19          7           0        9.224900    3.027100    1.197400
     20          8           0        9.097500    4.251800    1.133200
     21          8           0       10.041000    2.385400    0.536600
     22          1           0        9.550500    0.202100    0.876300
 ---------------------------------------------------------------------
                    Distance matrix (angstroms):
                    1          2          3          4          5
     1  N    0.000000
     2  C    1.352298   0.000000
     3  C    2.493368   1.493677   0.000000
     4  N    2.233660   1.328245   2.502485   0.000000
     5  H    2.758735   2.047425   0.969769   3.117483   0.000000
     6  C    2.215426   2.136761   3.589741   1.357919   4.089769
     7  H    3.111932   3.035082   4.449650   2.041565   4.960467
     8  C    1.470033   2.498142   2.986311   3.632929   2.906014
     9  H    2.005668   2.868486   3.218191   3.974553   2.855525
    10  C    1.382113   2.162021   3.604263   2.217636   3.947151
    11  H    2.771003   2.047765   0.970079   3.118657   1.577408
    12  O    3.623082   2.330208   1.433270   2.651730   1.993523
    13  H    2.006002   2.656474   2.701541   3.924074   2.646025
    14  C    4.800718   3.594296   2.351313   4.011955   2.611821
    15  N    5.833195   4.532111   3.515583   4.613239   3.832944
    16  O    5.084294   4.081287   2.620726   4.801093   2.614197
    17  H    6.622343   5.342210   4.239906   5.462897   4.472417
    18  H    5.846178   4.501971   3.736197   4.334839   4.150465
    19  N    2.486107   3.542484   4.924120   3.599352   5.188437
    20  O    3.554887   4.405959   5.865527   4.123899   6.165854
    21  O    2.819317   4.099171   5.292725   4.479240   5.466742
    22  H    2.006127   3.239649   3.877994   4.235339   3.860112
                    6          7          8          9         10
     6  C    0.000000
     7  H    0.929730   0.000000
     8  C    3.653914   4.520021   0.000000
     9  H    4.022608   4.864680   0.959736   0.000000
    10  C    1.359346   2.042633   2.587330   3.012000   0.000000
    11  H    4.111355   4.985120   3.008245   3.419117   3.976601
    12  O    3.985400   4.679293   4.370253   4.563158   4.443121
    13  H    4.199022   5.103111   0.960236   1.567669   3.287903
    14  C    5.346582   6.034230   5.298530   5.430184   5.746494
    15  N    5.968909   6.516168   6.500511   6.635691   6.603141
    16  O    6.063856   6.841038   5.244596   5.328604   6.222058
    17  H    6.818782   7.363337   7.208666   7.314726   7.434679
    18  H    5.661905   6.108525   6.684655   6.844801   6.450795
    19  N    2.493085   2.783876   3.156386   3.548461   1.424094
    20  O    2.810181   2.681437   4.361569   4.678225   2.263845
    21  O    3.562089   3.970395   2.901092   3.327273   2.293602
    22  H    3.991598   4.773142   0.960094   1.567618   2.739165
                   11         12         13         14         15
    11  H    0.000000
    12  O    1.993672   0.000000
    13  H    2.453463   4.127703   0.000000
    14  C    2.573419   1.362175   4.877141   0.000000
    15  N    3.793536   2.211235   6.138210   1.328098   0.000000
    16  O    2.558202   2.260843   4.664575   1.218740   2.281956
    17  H    4.445142   3.012510   6.792902   1.918901   0.851046
    18  H    4.117939   2.315933   6.419868   1.917152   0.854928
    19  N    5.194495   5.852121   3.969347   7.136636   8.021889
    20  O    6.216523   6.618776   5.183001   7.953378   8.712771
    21  O    5.401652   6.417879   3.679507   7.610078   8.622066
    22  H    3.808979   5.245321   1.567666   6.197429   7.389874
                   16         17         18         19         20
    16  O    0.000000
    17  H    2.528100   0.000000
    18  H    3.031755   1.452062   0.000000
    19  N    7.540348   8.851167   7.870662   0.000000
    20  O    8.480500   9.557530   8.456743   1.232981   0.000000
    21  O    7.834017   9.422910   8.575310   1.230632   2.174758
    22  H    6.133535   8.106579   7.551523   2.861773   4.083047
                   21         22
    21  O    0.000000
    22  H    2.263357   0.000000
 Stoichiometry    C6H8N4O4
 Framework group  C1[X(C6H8N4O4)]
 Deg. of freedom    60
 Full point group                 C1      NOp   1
 Largest Abelian subgroup         C1      NOp   1
 Largest concise Abelian subgroup C1      NOp   1
                         Standard orientation:                         
 ---------------------------------------------------------------------
 Center     Atomic      Atomic             Coordinates (Angstroms)
 Number     Number       Type             X           Y           Z
 ---------------------------------------------------------------------
      1          7           0        1.043707    0.605566    0.001056
      2          6           0       -0.127294   -0.070757   -0.006328
      3          6           0       -1.449556    0.623677    0.015026
      4          7           0        0.037736   -1.388695   -0.012347
      5          1           0       -1.531999    1.177059    0.807127
      6          6           0        1.381118   -1.583919    0.021657
      7          1           0        1.803753   -2.411946    0.033800
      8          6           0        1.163579    2.060261    0.175674
      9          1           0        1.085551    2.278189    1.107078
     10          6           0        2.012088   -0.379967    0.035686
     11          1           0       -1.554272    1.183721   -0.770110
     12          8           0       -2.430829   -0.420965    0.024468
     13          1           0        0.465584    2.500180   -0.315578
     14          6           0       -3.720539    0.015267   -0.018788
     15          7           0       -4.560115   -1.013494   -0.043428
     16          8           0       -4.005558    1.200047   -0.038451
     17          1           0       -5.403796   -0.906031   -0.012890
     18          1           0       -4.275532   -1.819663   -0.040834
     19          7           0        3.414332   -0.142371   -0.037145
     20          8           0        4.150359   -1.117803    0.127294
     21          8           0        3.821915    0.992629   -0.282308
     22          1           0        2.017621    2.352814   -0.151136
 ---------------------------------------------------------------------
 Rotational constants (GHZ):      2.1945145      0.3016923      0.2665214
 Leave Link  202 at Fri Aug 20 16:01:46 2021, MaxMem= 24159191040 cpu:         0.5
 (Enter /public/home/users/caep010/software/Gaussian09/g09/l301.exe)
 Standard basis: 6-31G(d,p) (6D, 7F)
 Ernie: Thresh=  0.10000D-02 Tol=  0.10000D-05 Strict=F.
 There are   250 symmetry adapted cartesian basis functions of A   symmetry.
 There are   250 symmetry adapted basis functions of A   symmetry.
   250 basis functions,   448 primitive gaussians,   250 cartesian basis functions
    52 alpha electrons       52 beta electrons
       nuclear repulsion energy       902.3238587211 Hartrees.
 IExCor=  402 DFT=T Ex+Corr=B3LYP ExCW=0 ScaHFX=  0.200000
 ScaDFX=  0.800000  0.720000  1.000000  0.810000 ScalE2=  1.000000  1.000000
 IRadAn=      0 IRanWt=     -1 IRanGd=            0 ICorTp=0 IEmpDi=  4
 NAtoms=   22 NActive=   22 NUniq=   22 SFac= 1.00D+00 NAtFMM=   60 NAOKFM=F Big=F
 Integral buffers will be    131072 words long.
 Raffenetti 2 integral format.
 Two-electron integral symmetry is turned on.
 Leave Link  301 at Fri Aug 20 16:01:46 2021, MaxMem= 24159191040 cpu:         2.1
 (Enter /public/home/users/caep010/software/Gaussian09/g09/l302.exe)
 NPDir=0 NMtPBC=     1 NCelOv=     1 NCel=       1 NClECP=     1 NCelD=      1
         NCelK=      1 NCelE2=     1 NClLst=     1 CellRange=     0.0.
 One-electron integrals computed using PRISM.
 NBasis=   250 RedAO= T EigKep=  9.56D-04  NBF=   250
 NBsUse=   250 1.00D-06 EigRej= -1.00D+00 NBFU=   250
 Precomputing XC quadrature grid using
 IXCGrd= 4 IRadAn=           0 IRanWt=          -1 IRanGd=           0 AccXCQ= 0.00D+00.
 Generated NRdTot=       0 NPtTot=           0 NUsed=           0 NTot=          32
 NSgBfM=   247   247   247   247   247 MxSgAt=    22 MxSgA2=    22.
 Leave Link  302 at Fri Aug 20 16:01:47 2021, MaxMem= 24159191040 cpu:        13.0
 (Enter /public/home/users/caep010/software/Gaussian09/g09/l303.exe)
 DipDrv:  MaxL=1.
 Leave Link  303 at Fri Aug 20 16:01:47 2021, MaxMem= 24159191040 cpu:         1.0
 (Enter /public/home/users/caep010/software/Gaussian09/g09/l401.exe)
 ExpMin= 1.61D-01 ExpMax= 5.48D+03 ExpMxC= 8.25D+02 IAcc=1 IRadAn=         1 AccDes= 0.00D+00
 Harris functional with IExCor=  402 and IRadAn=       1 diagonalized for initial guess.
 HarFok:  IExCor=  402 AccDes= 0.00D+00 IRadAn=         1 IDoV= 1 UseB2=F ITyADJ=14
 ICtDFT=  3500011 ScaDFX=  1.000000  1.000000  1.000000  1.000000
 FoFCou: FMM=F IPFlag=           0 FMFlag=      100000 FMFlg1=           0
         NFxFlg=           0 DoJE=T BraDBF=F KetDBF=T FulRan=T
         wScrn=  0.000000 ICntrl=     500 IOpCl=  0 I1Cent=   200000004 NGrid=           0
         NMat0=    1 NMatS0=      1 NMatT0=    0 NMatD0=    1 NMtDS0=    0 NMtDT0=    0
 Petite list used in FoFCou.
 Harris En= -753.216012027127    
 JPrj=0 DoOrth=F DoCkMO=F.
 Leave Link  401 at Fri Aug 20 16:01:47 2021, MaxMem= 24159191040 cpu:        12.7
 (Enter /public/home/users/caep010/software/Gaussian09/g09/l502.exe)
 Closed shell SCF:
 Using DIIS extrapolation, IDIIS=  1040.
 Integral symmetry usage will be decided dynamically.
 Keep R1 ints in memory in canonical form, NReq=500333424.
 IVT=      215924 IEndB=      215924 NGot= 24159191040 MDV= 23666764117
 LenX= 23666764117 LenY= 23666701176
 Requested convergence on RMS density matrix=1.00D-08 within 128 cycles.
 Requested convergence on MAX density matrix=1.00D-06.
 Requested convergence on             energy=1.00D-06.
 No special actions if energy rises.
 FoFCou: FMM=F IPFlag=           0 FMFlag=           0 FMFlg1=           0
         NFxFlg=           0 DoJE=F BraDBF=F KetDBF=F FulRan=T
         wScrn=  0.000000 ICntrl=     600 IOpCl=  0 I1Cent=           0 NGrid=           0
         NMat0=    1 NMatS0=  31375 NMatT0=    0 NMatD0=    1 NMtDS0=    0 NMtDT0=    0
 Symmetry not used in FoFCou.
 Integral accuracy reduced to 1.0D-05 until final iterations.

 Cycle   1  Pass 0  IDiag  1:
 E= -752.657723004037    
 DIIS: error= 4.32D-02 at cycle   1 NSaved=   1.
 NSaved= 1 IEnMin= 1 EnMin= -752.657723004037     IErMin= 1 ErrMin= 4.32D-02
 ErrMax= 4.32D-02  0.00D+00 EMaxC= 1.00D-01 BMatC= 5.98D-01 BMatP= 5.98D-01
 IDIUse=3 WtCom= 5.68D-01 WtEn= 4.32D-01
 Coeff-Com:  0.100D+01
 Coeff-En:   0.100D+01
 Coeff:      0.100D+01
 Gap=     0.109 Goal=   None    Shift=    0.000
 GapD=    0.109 DampG=1.000 DampE=0.500 DampFc=0.5000 IDamp=-1.
 Damping current iteration by 5.00D-01
 RMSDP=6.50D-03 MaxDP=2.53D-01              OVMax= 3.36D-01

 Cycle   2  Pass 0  IDiag  1:
 E= -752.759447014858     Delta-E=       -0.101724010821 Rises=F Damp=T
 DIIS: error= 1.79D-02 at cycle   2 NSaved=   2.
 NSaved= 2 IEnMin= 2 EnMin= -752.759447014858     IErMin= 2 ErrMin= 1.79D-02
 ErrMax= 1.79D-02  0.00D+00 EMaxC= 1.00D-01 BMatC= 1.12D-01 BMatP= 5.98D-01
 IDIUse=3 WtCom= 8.21D-01 WtEn= 1.79D-01
 Coeff-Com:  0.252D+00 0.748D+00
 Coeff-En:   0.393D+00 0.607D+00
 Coeff:      0.278D+00 0.722D+00
 Gap=     0.182 Goal=   None    Shift=    0.000
 RMSDP=2.01D-03 MaxDP=7.88D-02 DE=-1.02D-01 OVMax= 2.18D-01

 Cycle   3  Pass 0  IDiag  1:
 E= -753.081407983845     Delta-E=       -0.321960968987 Rises=F Damp=F
 DIIS: error= 1.25D-02 at cycle   3 NSaved=   3.
 NSaved= 3 IEnMin= 3 EnMin= -753.081407983845     IErMin= 3 ErrMin= 1.25D-02
 ErrMax= 1.25D-02  0.00D+00 EMaxC= 1.00D-01 BMatC= 5.66D-02 BMatP= 1.12D-01
 IDIUse=3 WtCom= 8.75D-01 WtEn= 1.25D-01
 Coeff-Com:  0.103D+00 0.410D+00 0.486D+00
 Coeff-En:   0.000D+00 0.000D+00 0.100D+01
 Coeff:      0.904D-01 0.359D+00 0.551D+00
 Gap=     0.176 Goal=   None    Shift=    0.000
 RMSDP=1.27D-03 MaxDP=6.60D-02 DE=-3.22D-01 OVMax= 1.24D-01

 Cycle   4  Pass 0  IDiag  1:
 E= -753.107736769129     Delta-E=       -0.026328785284 Rises=F Damp=F
 DIIS: error= 1.59D-02 at cycle   4 NSaved=   4.
 NSaved= 4 IEnMin= 4 EnMin= -753.107736769129     IErMin= 3 ErrMin= 1.25D-02
 ErrMax= 1.59D-02  0.00D+00 EMaxC= 1.00D-01 BMatC= 2.76D-02 BMatP= 5.66D-02
 IDIUse=3 WtCom= 8.41D-01 WtEn= 1.59D-01
 Coeff-Com:  0.452D-01 0.166D+00 0.393D+00 0.396D+00
 Coeff-En:   0.000D+00 0.000D+00 0.343D+00 0.657D+00
 Coeff:      0.380D-01 0.139D+00 0.385D+00 0.438D+00
 Gap=     0.178 Goal=   None    Shift=    0.000
 RMSDP=7.19D-04 MaxDP=4.73D-02 DE=-2.63D-02 OVMax= 9.39D-02

 Cycle   5  Pass 0  IDiag  1:
 E= -753.124740118178     Delta-E=       -0.017003349049 Rises=F Damp=F
 DIIS: error= 8.47D-03 at cycle   5 NSaved=   5.
 NSaved= 5 IEnMin= 5 EnMin= -753.124740118178     IErMin= 5 ErrMin= 8.47D-03
 ErrMax= 8.47D-03  0.00D+00 EMaxC= 1.00D-01 BMatC= 6.54D-03 BMatP= 2.76D-02
 IDIUse=3 WtCom= 9.15D-01 WtEn= 8.47D-02
 Coeff-Com:  0.131D-01 0.258D-01 0.195D+00 0.354D+00 0.412D+00
 Coeff-En:   0.000D+00 0.000D+00 0.000D+00 0.231D+00 0.769D+00
 Coeff:      0.119D-01 0.236D-01 0.179D+00 0.344D+00 0.442D+00
 Gap=     0.175 Goal=   None    Shift=    0.000
 RMSDP=3.02D-04 MaxDP=2.09D-02 DE=-1.70D-02 OVMax= 3.90D-02

 Cycle   6  Pass 0  IDiag  1:
 E= -753.129665754292     Delta-E=       -0.004925636114 Rises=F Damp=F
 DIIS: error= 1.37D-03 at cycle   6 NSaved=   6.
 NSaved= 6 IEnMin= 6 EnMin= -753.129665754292     IErMin= 6 ErrMin= 1.37D-03
 ErrMax= 1.37D-03  0.00D+00 EMaxC= 1.00D-01 BMatC= 3.86D-04 BMatP= 6.54D-03
 IDIUse=3 WtCom= 9.86D-01 WtEn= 1.37D-02
 Coeff-Com:  0.244D-02-0.146D-03 0.627D-01 0.152D+00 0.273D+00 0.510D+00
 Coeff-En:   0.000D+00 0.000D+00 0.000D+00 0.000D+00 0.472D-01 0.953D+00
 Coeff:      0.240D-02-0.144D-03 0.618D-01 0.150D+00 0.270D+00 0.516D+00
 Gap=     0.176 Goal=   None    Shift=    0.000
 RMSDP=7.17D-05 MaxDP=3.08D-03 DE=-4.93D-03 OVMax= 5.85D-03

 Cycle   7  Pass 0  IDiag  1:
 E= -753.129967876875     Delta-E=       -0.000302122583 Rises=F Damp=F
 DIIS: error= 1.56D-04 at cycle   7 NSaved=   7.
 NSaved= 7 IEnMin= 7 EnMin= -753.129967876875     IErMin= 7 ErrMin= 1.56D-04
 ErrMax= 1.56D-04  0.00D+00 EMaxC= 1.00D-01 BMatC= 1.62D-05 BMatP= 3.86D-04
 IDIUse=3 WtCom= 9.98D-01 WtEn= 1.56D-03
 Coeff-Com:  0.243D-03-0.163D-02 0.177D-01 0.502D-01 0.110D+00 0.275D+00
 Coeff-Com:  0.549D+00
 Coeff-En:   0.000D+00 0.000D+00 0.000D+00 0.000D+00 0.000D+00 0.000D+00
 Coeff-En:   0.100D+01
 Coeff:      0.242D-03-0.163D-02 0.177D-01 0.501D-01 0.109D+00 0.275D+00
 Coeff:      0.550D+00
 Gap=     0.176 Goal=   None    Shift=    0.000
 RMSDP=1.68D-05 MaxDP=7.29D-04 DE=-3.02D-04 OVMax= 1.34D-03

 Cycle   8  Pass 0  IDiag  1:
 E= -753.129979115530     Delta-E=       -0.000011238656 Rises=F Damp=F
 DIIS: error= 6.87D-05 at cycle   8 NSaved=   8.
 NSaved= 8 IEnMin= 8 EnMin= -753.129979115530     IErMin= 8 ErrMin= 6.87D-05
 ErrMax= 6.87D-05  0.00D+00 EMaxC= 1.00D-01 BMatC= 2.23D-06 BMatP= 1.62D-05
 IDIUse=1 WtCom= 1.00D+00 WtEn= 0.00D+00
 Coeff-Com: -0.167D-03-0.933D-03 0.317D-02 0.118D-01 0.339D-01 0.104D+00
 Coeff-Com:  0.323D+00 0.525D+00
 Coeff:     -0.167D-03-0.933D-03 0.317D-02 0.118D-01 0.339D-01 0.104D+00
 Coeff:      0.323D+00 0.525D+00
 Gap=     0.176 Goal=   None    Shift=    0.000
 RMSDP=5.64D-06 MaxDP=2.45D-04 DE=-1.12D-05 OVMax= 5.57D-04

 Initial convergence to 1.0D-05 achieved.  Increase integral accuracy.
 Cycle   9  Pass 1  IDiag  1:
 E= -753.129936018396     Delta-E=        0.000043097135 Rises=F Damp=F
 DIIS: error= 1.48D-05 at cycle   1 NSaved=   1.
 NSaved= 1 IEnMin= 1 EnMin= -753.129936018396     IErMin= 1 ErrMin= 1.48D-05
 ErrMax= 1.48D-05  0.00D+00 EMaxC= 1.00D-01 BMatC= 1.76D-07 BMatP= 1.76D-07
 IDIUse=1 WtCom= 1.00D+00 WtEn= 0.00D+00
 Coeff-Com:  0.100D+01
 Coeff:      0.100D+01
 Gap=     0.176 Goal=   None    Shift=    0.000
 RMSDP=5.64D-06 MaxDP=2.45D-04 DE= 4.31D-05 OVMax= 2.61D-04

 Cycle  10  Pass 1  IDiag  1:
 E= -753.129935899707     Delta-E=        0.000000118689 Rises=F Damp=F
 DIIS: error= 2.49D-05 at cycle   2 NSaved=   2.
 NSaved= 2 IEnMin= 1 EnMin= -753.129936018396     IErMin= 1 ErrMin= 1.48D-05
 ErrMax= 2.49D-05  0.00D+00 EMaxC= 1.00D-01 BMatC= 3.33D-07 BMatP= 1.76D-07
 IDIUse=1 WtCom= 1.00D+00 WtEn= 0.00D+00
 Coeff-Com:  0.591D+00 0.409D+00
 Coeff:      0.591D+00 0.409D+00
 Gap=     0.176 Goal=   None    Shift=    0.000
 RMSDP=2.61D-06 MaxDP=1.01D-04 DE= 1.19D-07 OVMax= 2.32D-04

 Cycle  11  Pass 1  IDiag  1:
 E= -753.129936180123     Delta-E=       -0.000000280417 Rises=F Damp=F
 DIIS: error= 1.19D-05 at cycle   3 NSaved=   3.
 NSaved= 3 IEnMin= 3 EnMin= -753.129936180123     IErMin= 3 ErrMin= 1.19D-05
 ErrMax= 1.19D-05  0.00D+00 EMaxC= 1.00D-01 BMatC= 2.81D-08 BMatP= 1.76D-07
 IDIUse=1 WtCom= 1.00D+00 WtEn= 0.00D+00
 Coeff-Com:  0.143D+00 0.231D+00 0.627D+00
 Coeff:      0.143D+00 0.231D+00 0.627D+00
 Gap=     0.176 Goal=   None    Shift=    0.000
 RMSDP=8.62D-07 MaxDP=5.55D-05 DE=-2.80D-07 OVMax= 1.03D-04

 Cycle  12  Pass 1  IDiag  1:
 E= -753.129936188881     Delta-E=       -0.000000008757 Rises=F Damp=F
 DIIS: error= 1.31D-05 at cycle   4 NSaved=   4.
 NSaved= 4 IEnMin= 4 EnMin= -753.129936188881     IErMin= 3 ErrMin= 1.19D-05
 ErrMax= 1.31D-05  0.00D+00 EMaxC= 1.00D-01 BMatC= 1.82D-08 BMatP= 2.81D-08
 IDIUse=1 WtCom= 1.00D+00 WtEn= 0.00D+00
 Coeff-Com:  0.825D-02 0.114D+00 0.493D+00 0.385D+00
 Coeff:      0.825D-02 0.114D+00 0.493D+00 0.385D+00
 Gap=     0.176 Goal=   None    Shift=    0.000
 RMSDP=5.06D-07 MaxDP=3.66D-05 DE=-8.76D-09 OVMax= 6.83D-05

 Cycle  13  Pass 1  IDiag  1:
 E= -753.129936202205     Delta-E=       -0.000000013325 Rises=F Damp=F
 DIIS: error= 3.43D-06 at cycle   5 NSaved=   5.
 NSaved= 5 IEnMin= 5 EnMin= -753.129936202205     IErMin= 5 ErrMin= 3.43D-06
 ErrMax= 3.43D-06  0.00D+00 EMaxC= 1.00D-01 BMatC= 1.63D-09 BMatP= 1.82D-08
 IDIUse=1 WtCom= 1.00D+00 WtEn= 0.00D+00
 Coeff-Com: -0.110D-01 0.544D-01 0.274D+00 0.273D+00 0.410D+00
 Coeff:     -0.110D-01 0.544D-01 0.274D+00 0.273D+00 0.410D+00
 Gap=     0.176 Goal=   None    Shift=    0.000
 RMSDP=1.36D-07 MaxDP=9.08D-06 DE=-1.33D-08 OVMax= 1.55D-05

 Cycle  14  Pass 1  IDiag  1:
 E= -753.129936203472     Delta-E=       -0.000000001266 Rises=F Damp=F
 DIIS: error= 2.63D-07 at cycle   6 NSaved=   6.
 NSaved= 6 IEnMin= 6 EnMin= -753.129936203472     IErMin= 6 ErrMin= 2.63D-07
 ErrMax= 2.63D-07  0.00D+00 EMaxC= 1.00D-01 BMatC= 3.43D-11 BMatP= 1.63D-09
 IDIUse=1 WtCom= 1.00D+00 WtEn= 0.00D+00
 Coeff-Com: -0.640D-02 0.235D-01 0.121D+00 0.126D+00 0.221D+00 0.514D+00
 Coeff:     -0.640D-02 0.235D-01 0.121D+00 0.126D+00 0.221D+00 0.514D+00
 Gap=     0.176 Goal=   None    Shift=    0.000
 RMSDP=2.76D-08 MaxDP=1.09D-06 DE=-1.27D-09 OVMax= 2.07D-06

 Cycle  15  Pass 1  IDiag  1:
 E= -753.129936203483     Delta-E=       -0.000000000011 Rises=F Damp=F
 DIIS: error= 1.04D-07 at cycle   7 NSaved=   7.
 NSaved= 7 IEnMin= 7 EnMin= -753.129936203483     IErMin= 7 ErrMin= 1.04D-07
 ErrMax= 1.04D-07  0.00D+00 EMaxC= 1.00D-01 BMatC= 4.49D-12 BMatP= 3.43D-11
 IDIUse=1 WtCom= 1.00D+00 WtEn= 0.00D+00
 Coeff-Com: -0.196D-02 0.573D-02 0.297D-01 0.325D-01 0.681D-01 0.294D+00
 Coeff-Com:  0.572D+00
 Coeff:     -0.196D-02 0.573D-02 0.297D-01 0.325D-01 0.681D-01 0.294D+00
 Coeff:      0.572D+00
 Gap=     0.176 Goal=   None    Shift=    0.000
 RMSDP=9.34D-09 MaxDP=3.61D-07 DE=-1.14D-11 OVMax= 6.99D-07

 SCF Done:  E(RB3LYP) =  -753.129936203     A.U. after   15 cycles
            NFock= 15  Conv=0.93D-08     -V/T= 2.0058
 KE= 7.488121792193D+02 PE=-3.565940305183D+03 EE= 1.161674331039D+03
 Leave Link  502 at Fri Aug 20 16:02:02 2021, MaxMem= 24159191040 cpu:       132.4
 (Enter /public/home/users/caep010/software/Gaussian09/g09/l601.exe)
 Copying SCF densities to generalized density rwf, IOpCl= 0 IROHF=0.

 **********************************************************************

            Population analysis using the SCF density.

 **********************************************************************

 Orbital symmetries:
       Occupied  (A) (A) (A) (A) (A) (A) (A) (A) (A) (A) (A) (A)
                 (A) (A) (A) (A) (A) (A) (A) (A) (A) (A) (A) (A)
                 (A) (A) (A) (A) (A) (A) (A) (A) (A) (A) (A) (A)
                 (A) (A) (A) (A) (A) (A) (A) (A) (A) (A) (A) (A)
                 (A) (A) (A) (A)
       Virtual   (A) (A) (A) (A) (A) (A) (A) (A) (A) (A) (A) (A)
                 (A) (A) (A) (A) (A) (A) (A) (A) (A) (A) (A) (A)
                 (A) (A) (A) (A) (A) (A) (A) (A) (A) (A) (A) (A)
                 (A) (A) (A) (A) (A) (A) (A) (A) (A) (A) (A) (A)
                 (A) (A) (A) (A) (A) (A) (A) (A) (A) (A) (A) (A)
                 (A) (A) (A) (A) (A) (A) (A) (A) (A) (A) (A) (A)
                 (A) (A) (A) (A) (A) (A) (A) (A) (A) (A) (A) (A)
                 (A) (A) (A) (A) (A) (A) (A) (A) (A) (A) (A) (A)
                 (A) (A) (A) (A) (A) (A) (A) (A) (A) (A) (A) (A)
                 (A) (A) (A) (A) (A) (A) (A) (A) (A) (A) (A) (A)
                 (A) (A) (A) (A) (A) (A) (A) (A) (A) (A) (A) (A)
                 (A) (A) (A) (A) (A) (A) (A) (A) (A) (A) (A) (A)
                 (A) (A) (A) (A) (A) (A) (A) (A) (A) (A) (A) (A)
                 (A) (A) (A) (A) (A) (A) (A) (A) (A) (A) (A) (A)
                 (A) (A) (A) (A) (A) (A) (A) (A) (A) (A) (A) (A)
                 (A) (A) (A) (A) (A) (A) (A) (A) (A) (A) (A) (A)
                 (A) (A) (A) (A) (A) (A)
 The electronic state is 1-A.
 Alpha  occ. eigenvalues --  -19.19666 -19.18233 -19.17881 -19.12454 -14.57948
 Alpha  occ. eigenvalues --  -14.43011 -14.34788 -14.33746 -10.34352 -10.27680
 Alpha  occ. eigenvalues --  -10.27417 -10.25384 -10.22081 -10.22029  -1.23013
 Alpha  occ. eigenvalues --   -1.11829  -1.06032  -1.05214  -1.01751  -0.96873
 Alpha  occ. eigenvalues --   -0.92050  -0.84351  -0.79057  -0.77257  -0.70156
 Alpha  occ. eigenvalues --   -0.66390  -0.62010  -0.60639  -0.59479  -0.57447
 Alpha  occ. eigenvalues --   -0.55284  -0.54701  -0.53202  -0.51139  -0.50717
 Alpha  occ. eigenvalues --   -0.50049  -0.48125  -0.46269  -0.45627  -0.44711
 Alpha  occ. eigenvalues --   -0.43910  -0.42561  -0.38199  -0.31747  -0.31532
 Alpha  occ. eigenvalues --   -0.31142  -0.30275  -0.29778  -0.29101  -0.28785
 Alpha  occ. eigenvalues --   -0.27751  -0.26104
 Alpha virt. eigenvalues --   -0.08532   0.01663   0.04920   0.05913   0.07486
 Alpha virt. eigenvalues --    0.09551   0.11595   0.12331   0.14328   0.16067
 Alpha virt. eigenvalues --    0.16746   0.17333   0.18205   0.19102   0.21286
 Alpha virt. eigenvalues --    0.22558   0.24017   0.25500   0.26587   0.29452
 Alpha virt. eigenvalues --    0.30553   0.33872   0.37928   0.38396   0.39560
 Alpha virt. eigenvalues --    0.43876   0.45520   0.47128   0.48638   0.49868
 Alpha virt. eigenvalues --    0.52312   0.52531   0.53867   0.55727   0.56323
 Alpha virt. eigenvalues --    0.57851   0.60934   0.62525   0.64321   0.65030
 Alpha virt. eigenvalues --    0.65924   0.66469   0.68457   0.69006   0.71532
 Alpha virt. eigenvalues --    0.72548   0.73931   0.76649   0.79446   0.80917
 Alpha virt. eigenvalues --    0.81734   0.81942   0.83548   0.85334   0.86608
 Alpha virt. eigenvalues --    0.87810   0.88621   0.89195   0.91048   0.92704
 Alpha virt. eigenvalues --    0.93558   0.95002   0.97075   0.97388   0.97677
 Alpha virt. eigenvalues --    0.99657   1.00751   1.01995   1.03080   1.04863
 Alpha virt. eigenvalues --    1.08367   1.09497   1.10560   1.12055   1.14318
 Alpha virt. eigenvalues --    1.15189   1.20090   1.21429   1.23454   1.25299
 Alpha virt. eigenvalues --    1.26686   1.29246   1.31381   1.31580   1.32672
 Alpha virt. eigenvalues --    1.33780   1.39065   1.40348   1.40404   1.41780
 Alpha virt. eigenvalues --    1.43148   1.48950   1.49855   1.53592   1.55324
 Alpha virt. eigenvalues --    1.61235   1.61667   1.64699   1.65993   1.68451
 Alpha virt. eigenvalues --    1.68731   1.73399   1.75754   1.78481   1.79229
 Alpha virt. eigenvalues --    1.80264   1.80980   1.81399   1.84409   1.85175
 Alpha virt. eigenvalues --    1.87447   1.90240   1.92290   1.92885   1.93606
 Alpha virt. eigenvalues --    1.95722   1.95909   1.97813   2.03087   2.04965
 Alpha virt. eigenvalues --    2.07002   2.07756   2.10146   2.11413   2.12345
 Alpha virt. eigenvalues --    2.13610   2.15052   2.15478   2.20604   2.21030
 Alpha virt. eigenvalues --    2.21750   2.24003   2.25729   2.26335   2.28267
 Alpha virt. eigenvalues --    2.29106   2.34269   2.37692   2.38632   2.40815
 Alpha virt. eigenvalues --    2.42921   2.47448   2.49085   2.49830   2.53686
 Alpha virt. eigenvalues --    2.56948   2.58846   2.60168   2.63285   2.65324
 Alpha virt. eigenvalues --    2.69015   2.69704   2.71009   2.73216   2.73929
 Alpha virt. eigenvalues --    2.74305   2.78466   2.79895   2.82353   2.83570
 Alpha virt. eigenvalues --    2.87752   2.88234   2.91618   2.93409   2.93860
 Alpha virt. eigenvalues --    2.95205   2.96920   3.04584   3.11703   3.12228
 Alpha virt. eigenvalues --    3.14611   3.23581   3.26485   3.28445   3.38656
 Alpha virt. eigenvalues --    3.41373   3.62824   3.64750   3.69621   3.71281
 Alpha virt. eigenvalues --    3.74471   3.75840   3.76994   3.89130   3.92294
 Alpha virt. eigenvalues --    4.00518   4.01872   4.06299   4.07394   4.14335
 Alpha virt. eigenvalues --    4.23396   4.26911   4.31918   4.33889   4.48074
 Alpha virt. eigenvalues --    4.55426   4.64617   4.69629
          Condensed to atoms (all electrons):
               1          2          3          4          5          6
     1  N    6.968290   0.357188  -0.066906  -0.088579  -0.001157  -0.080842
     2  C    0.357188   4.697202   0.337449   0.497433  -0.038212  -0.093795
     3  C   -0.066906   0.337449   4.697904  -0.054774   0.392005   0.005949
     4  N   -0.088579   0.497433  -0.054774   6.793236   0.000139   0.404488
     5  H   -0.001157  -0.038212   0.392005   0.000139   0.589466   0.000236
     6  C   -0.080842  -0.093795   0.005949   0.404488   0.000236   4.752157
     7  H    0.008005   0.005740  -0.000290  -0.045444   0.000009   0.399344
     8  C    0.281533  -0.037910   0.000231   0.004544   0.002666   0.007364
     9  H   -0.038085  -0.002076   0.000256  -0.000007   0.001047   0.000055
    10  C    0.282644  -0.082945   0.002623  -0.029750  -0.000150   0.503278
    11  H    0.000721  -0.034924   0.388387   0.000499  -0.057355  -0.000087
    12  O    0.001643  -0.025125   0.226496  -0.005720  -0.030457   0.000373
    13  H   -0.031855  -0.005871   0.003856   0.000117  -0.001411  -0.000302
    14  C    0.000018   0.006472  -0.020392   0.000255  -0.004080   0.000016
    15  N    0.000001   0.000224   0.004331  -0.000061   0.000120  -0.000000
    16  O    0.000003   0.001816   0.004046  -0.000010   0.006827   0.000001
    17  H   -0.000000  -0.000005  -0.000193   0.000000   0.000009  -0.000000
    18  H    0.000000  -0.000120  -0.000329   0.000085   0.000032  -0.000000
    19  N   -0.042401   0.001065  -0.000110   0.005824  -0.000001  -0.049696
    20  O    0.002918  -0.000059   0.000001   0.000301  -0.000000   0.002615
    21  O   -0.006223   0.000045  -0.000001  -0.000084   0.000000   0.004778
    22  H   -0.025384   0.003360   0.000053  -0.000284   0.000027  -0.000022
               7          8          9         10         11         12
     1  N    0.008005   0.281533  -0.038085   0.282644   0.000721   0.001643
     2  C    0.005740  -0.037910  -0.002076  -0.082945  -0.034924  -0.025125
     3  C   -0.000290   0.000231   0.000256   0.002623   0.388387   0.226496
     4  N   -0.045444   0.004544  -0.000007  -0.029750   0.000499  -0.005720
     5  H    0.000009   0.002666   0.001047  -0.000150  -0.057355  -0.030457
     6  C    0.399344   0.007364   0.000055   0.503278  -0.000087   0.000373
     7  H    0.595471  -0.000064   0.000001  -0.057513   0.000006   0.000010
     8  C   -0.000064   4.745846   0.408796  -0.029434  -0.001338   0.000027
     9  H    0.000001   0.408796   0.549143   0.000290  -0.000211  -0.000001
    10  C   -0.057513  -0.029434   0.000290   4.987418   0.000222  -0.000047
    11  H    0.000006  -0.001338  -0.000211   0.000222   0.582278  -0.030101
    12  O    0.000010   0.000027  -0.000001  -0.000047  -0.030101   8.259856
    13  H    0.000005   0.396627  -0.041452   0.003431   0.002485  -0.000011
    14  C    0.000000   0.000004  -0.000000   0.000002  -0.004428   0.275681
    15  N   -0.000000  -0.000000   0.000000   0.000000   0.000183  -0.105832
    16  O    0.000000   0.000002  -0.000000   0.000000   0.008977  -0.086907
    17  H   -0.000000   0.000000   0.000000   0.000000  -0.000005   0.004923
    18  H    0.000000  -0.000000   0.000000  -0.000000   0.000033   0.005326
    19  N   -0.007090  -0.001321   0.000036   0.127828   0.000004   0.000000
    20  O    0.010015  -0.000104   0.000006  -0.092336  -0.000000  -0.000000
    21  O    0.000003  -0.011940   0.000064  -0.076264  -0.000001   0.000000
    22  H   -0.000014   0.394948  -0.029667  -0.001971  -0.000012  -0.000001
              13         14         15         16         17         18
     1  N   -0.031855   0.000018   0.000001   0.000003  -0.000000   0.000000
     2  C   -0.005871   0.006472   0.000224   0.001816  -0.000005  -0.000120
     3  C    0.003856  -0.020392   0.004331   0.004046  -0.000193  -0.000329
     4  N    0.000117   0.000255  -0.000061  -0.000010   0.000000   0.000085
     5  H   -0.001411  -0.004080   0.000120   0.006827   0.000009   0.000032
     6  C   -0.000302   0.000016  -0.000000   0.000001  -0.000000  -0.000000
     7  H    0.000005   0.000000  -0.000000   0.000000  -0.000000   0.000000
     8  C    0.396627   0.000004  -0.000000   0.000002   0.000000  -0.000000
     9  H   -0.041452  -0.000000   0.000000  -0.000000   0.000000   0.000000
    10  C    0.003431   0.000002   0.000000   0.000000   0.000000  -0.000000
    11  H    0.002485  -0.004428   0.000183   0.008977  -0.000005   0.000033
    12  O   -0.000011   0.275681  -0.105832  -0.086907   0.004923   0.005326
    13  H    0.559270  -0.000001  -0.000000  -0.000006   0.000000   0.000000
    14  C   -0.000001   4.095356   0.367471   0.566706  -0.014128  -0.012654
    15  N   -0.000000   0.367471   6.586042  -0.081551   0.381870   0.371785
    16  O   -0.000006   0.566706  -0.081551   8.093757   0.002100   0.004044
    17  H    0.000000  -0.014128   0.381870   0.002100   0.405078  -0.030377
    18  H    0.000000  -0.012654   0.371785   0.004044  -0.030377   0.406168
    19  N    0.000205  -0.000000   0.000000   0.000000  -0.000000  -0.000000
    20  O    0.000003   0.000000  -0.000000  -0.000000   0.000000  -0.000000
    21  O    0.000680   0.000000  -0.000000  -0.000000  -0.000000   0.000000
    22  H   -0.020983  -0.000000  -0.000000  -0.000000   0.000000   0.000000
              19         20         21         22
     1  N   -0.042401   0.002918  -0.006223  -0.025384
     2  C    0.001065  -0.000059   0.000045   0.003360
     3  C   -0.000110   0.000001  -0.000001   0.000053
     4  N    0.005824   0.000301  -0.000084  -0.000284
     5  H   -0.000001  -0.000000   0.000000   0.000027
     6  C   -0.049696   0.002615   0.004778  -0.000022
     7  H   -0.007090   0.010015   0.000003  -0.000014
     8  C   -0.001321  -0.000104  -0.011940   0.394948
     9  H    0.000036   0.000006   0.000064  -0.029667
    10  C    0.127828  -0.092336  -0.076264  -0.001971
    11  H    0.000004  -0.000000  -0.000001  -0.000012
    12  O    0.000000  -0.000000   0.000000  -0.000001
    13  H    0.000205   0.000003   0.000680  -0.020983
    14  C   -0.000000   0.000000   0.000000  -0.000000
    15  N    0.000000  -0.000000  -0.000000  -0.000000
    16  O    0.000000  -0.000000  -0.000000  -0.000000
    17  H   -0.000000   0.000000  -0.000000   0.000000
    18  H   -0.000000  -0.000000   0.000000   0.000000
    19  N    6.041982   0.309163   0.277003  -0.001544
    20  O    0.309163   8.259685  -0.091657   0.000189
    21  O    0.277003  -0.091657   8.304585   0.024057
    22  H   -0.001544   0.000189   0.024057   0.485162
 Mulliken charges:
               1
     1  N   -0.521532
     2  C    0.413050
     3  C    0.079409
     4  N   -0.482208
     5  H    0.140239
     6  C    0.144090
     7  H    0.091805
     8  C   -0.160476
     9  H    0.151804
    10  C    0.462674
    11  H    0.144665
    12  O   -0.490132
    13  H    0.135212
    14  C    0.743701
    15  N   -0.524584
    16  O   -0.519804
    17  H    0.250727
    18  H    0.256007
    19  N    0.339053
    20  O   -0.400739
    21  O   -0.425045
    22  H    0.172085
 Sum of Mulliken charges =  -0.00000
 Mulliken charges with hydrogens summed into heavy atoms:
               1
     1  N   -0.521532
     2  C    0.413050
     3  C    0.364313
     4  N   -0.482208
     6  C    0.235895
     8  C    0.298625
    10  C    0.462674
    12  O   -0.490132
    14  C    0.743701
    15  N   -0.017851
    16  O   -0.519804
    19  N    0.339053
    20  O   -0.400739
    21  O   -0.425045
 Electronic spatial extent (au):  <R**2>=           3741.1843
 Charge=             -0.0000 electrons
 Dipole moment (field-independent basis, Debye):
    X=             -3.5785    Y=              0.5782    Z=              0.4896  Tot=              3.6579
 Quadrupole moment (field-independent basis, Debye-Ang):
   XX=            -91.5627   YY=            -75.2714   ZZ=            -76.6125
   XY=             13.9104   XZ=              0.5129   YZ=              1.3221
 Traceless Quadrupole moment (field-independent basis, Debye-Ang):
   XX=            -10.4138   YY=              5.8774   ZZ=              4.5364
   XY=             13.9104   XZ=              0.5129   YZ=              1.3221
 Octapole moment (field-independent basis, Debye-Ang**2):
  XXX=           -173.7175  YYY=              2.8094  ZZZ=              0.1872  XYY=             -0.5049
  XXY=            -67.1965  XXZ=              4.2789  XZZ=              2.1435  YZZ=              3.7893
  YYZ=              0.9130  XYZ=              3.3311
 Hexadecapole moment (field-independent basis, Debye-Ang**3):
 XXXX=          -3768.7223 YYYY=           -575.8779 ZZZZ=            -78.5576 XXXY=            365.6141
 XXXZ=             -2.7054 YYYX=             52.4561 YYYZ=              0.8804 ZZZX=             -1.4554
 ZZZY=              0.6294 XXYY=           -746.9683 XXZZ=           -636.3010 YYZZ=           -116.9906
 XXYZ=             13.5606 YYXZ=              0.9641 ZZXY=             -2.5258
 N-N= 9.023238587211D+02 E-N=-3.565940311425D+03  KE= 7.488121792193D+02
 No NMR shielding tensors so no spin-rotation constants.
 Leave Link  601 at Fri Aug 20 16:02:03 2021, MaxMem= 24159191040 cpu:        11.3
 (Enter /public/home/users/caep010/software/Gaussian09/g09/l701.exe)
 Compute integral first derivatives.
 ... and contract with generalized density number  0.
 Leave Link  701 at Fri Aug 20 16:02:03 2021, MaxMem= 24159191040 cpu:        11.1
 (Enter /public/home/users/caep010/software/Gaussian09/g09/l702.exe)
 L702 exits ... SP integral derivatives will be done elsewhere.
 Leave Link  702 at Fri Aug 20 16:02:03 2021, MaxMem= 24159191040 cpu:         0.6
 (Enter /public/home/users/caep010/software/Gaussian09/g09/l703.exe)
 Compute integral first derivatives, UseDBF=F ICtDFT=           0.
 Integral derivatives from FoFJK, PRISM(SPDF).
 Calling FoFJK, ICntrl=      2127 FMM=F ISym2X=0 I1Cent= 0 IOpClX= 0 NMat=1 NMatS=1 NMatT=0.
 FoFJK:  IHMeth= 1 ICntrl=    2127 DoSepK=F KAlg= 0 I1Cent=   0 FoldK=F
 IRaf=         0 NMat=   1 IRICut=       1 DoRegI=T DoRafI=F ISym2E= 0.
 FoFCou: FMM=F IPFlag=           0 FMFlag=      100000 FMFlg1=         800
         NFxFlg=           0 DoJE=F BraDBF=F KetDBF=F FulRan=T
         wScrn=  0.000000 ICntrl=    2127 IOpCl=  0 I1Cent=           0 NGrid=           0
         NMat0=    1 NMatS0=      1 NMatT0=    0 NMatD0=    1 NMtDS0=    0 NMtDT0=    0
 Symmetry not used in FoFCou.
 Leave Link  703 at Fri Aug 20 16:02:04 2021, MaxMem= 24159191040 cpu:        28.8
 (Enter /public/home/users/caep010/software/Gaussian09/g09/l716.exe)
 Dipole        =-1.40790795D+00 2.27475836D-01 1.92633939D-01
 ***** Axes restored to original set *****
 -------------------------------------------------------------------
 Center     Atomic                   Forces (Hartrees/Bohr)
 Number     Number              X              Y              Z
 -------------------------------------------------------------------
      1        7           0.002347489   -0.004400393   -0.002810653
      2        6          -0.005009638    0.008485504    0.007123577
      3        6          -0.039025253    0.115421157    0.056495154
      4        7          -0.003448462   -0.000258676    0.002597999
      5        1          -0.057347514   -0.057875372   -0.085253900
      6        6           0.014269006   -0.155155338   -0.021377946
      7        1          -0.021716221    0.163886477    0.031908415
      8        6          -0.033579497    0.088629211    0.071518541
      9        1          -0.094092513   -0.026009477   -0.086493415
     10        6           0.015179211   -0.002476516   -0.017853551
     11        1           0.092161468   -0.063972046    0.034759972
     12        8          -0.001436140    0.001780148    0.002163691
     13        1           0.026574180   -0.103144347    0.071047793
     14        6           0.021878434   -0.011346419   -0.027365710
     15        7           0.130622970   -0.034487042   -0.153499045
     16        8          -0.003363079   -0.002841128    0.002935036
     17        1          -0.107392255   -0.179744240    0.118636263
     18        1          -0.039155631    0.222476923    0.055329773
     19        7          -0.003105515    0.006778401    0.003069157
     20        8          -0.002586623    0.002080657    0.001879355
     21        8           0.005280730   -0.008773028   -0.005925092
     22        1           0.102944851    0.040945545   -0.058885414
 -------------------------------------------------------------------
 Cartesian Forces:  Max     0.222476923 RMS     0.069440534
 Leave Link  716 at Fri Aug 20 16:02:04 2021, MaxMem= 24159191040 cpu:         0.8
 (Enter /public/home/users/caep010/software/Gaussian09/g09/l103.exe)

 GradGradGradGradGradGradGradGradGradGradGradGradGradGradGradGradGradGrad
 Berny optimization.
 FormGI is forming the generalized inverse of G from B-inverse, IUseBI=4.
 GSVD:  received Info=                   1 from GESDD.
 Internal  Forces:  Max     0.240367000 RMS     0.047300661
 Search for a local minimum.
 Step number   1 out of a maximum of  108
 All quantities printed in internal units (Hartrees-Bohrs-Radians)
 RMS Force = .47301D-01 SwitMx=.10000D-02 MixMth= 1
 Mixed Optimization -- RFO/linear search
 Second derivative matrix not updated -- first step.
 ITU=  0
     Eigenvalues ---    0.00765   0.00850   0.01252   0.01373   0.01378
     Eigenvalues ---    0.01538   0.01610   0.01975   0.02192   0.02210
     Eigenvalues ---    0.02469   0.02505   0.02515   0.02643   0.02657
     Eigenvalues ---    0.06928   0.07520   0.07534   0.07536   0.10958
     Eigenvalues ---    0.13623   0.16000   0.16000   0.16000   0.16000
     Eigenvalues ---    0.16000   0.16000   0.22003   0.23639   0.24299
     Eigenvalues ---    0.24814   0.24913   0.24996   0.25000   0.25000
     Eigenvalues ---    0.25000   0.25000   0.25000   0.33050   0.35736
     Eigenvalues ---    0.40523   0.41850   0.45538   0.46628   0.52026
     Eigenvalues ---    0.52510   0.53361   0.53424   0.54000   0.55423
     Eigenvalues ---    0.55453   0.55530   0.58010   0.59957   0.62529
     Eigenvalues ---    0.85949   0.87464   0.89855   0.90824   0.95944
 RFO step:  Lambda=-2.36018240D-01 EMin= 7.65374245D-03
 Linear search not attempted -- first point.
 Maximum step size (   0.300) exceeded in Quadratic search.
    -- Step size scaled by   0.587
 Iteration  1 RMS(Cart)=  0.03562888 RMS(Int)=  0.00024163
 Iteration  2 RMS(Cart)=  0.00038772 RMS(Int)=  0.00000741
 Iteration  3 RMS(Cart)=  0.00000028 RMS(Int)=  0.00000741
 ITry= 1 IFail=0 DXMaxC= 1.74D-01 DCOld= 1.00D+10 DXMaxT= 3.00D-01 DXLimC= 3.00D+00 Rises=F
 Variable       Old X    -DE/DX   Delta X   Delta X   Delta X     New X
                                 (Linear)    (Quad)   (Total)
    R1        2.55547   0.01272   0.00000   0.00938   0.00938   2.56485
    R2        2.77796   0.00201   0.00000   0.00199   0.00199   2.77995
    R3        2.61181   0.00444   0.00000   0.00380   0.00381   2.61562
    R4        2.82264   0.01176   0.00000   0.01218   0.01218   2.83482
    R5        2.51002   0.00138   0.00000   0.00070   0.00070   2.51072
    R6        1.83260   0.11790   0.00000   0.08978   0.08978   1.92238
    R7        1.83318   0.11742   0.00000   0.08949   0.08949   1.92267
    R8        2.70849  -0.00271   0.00000  -0.00248  -0.00248   2.70601
    R9        2.56609   0.00537   0.00000   0.00408   0.00408   2.57017
   R10        1.75693   0.16827   0.00000   0.11459   0.11459   1.87153
   R11        2.56879   0.01904   0.00000   0.01484   0.01484   2.58363
   R12        1.81364   0.13042   0.00000   0.09667   0.09667   1.91031
   R13        1.81458   0.12798   0.00000   0.09499   0.09499   1.90958
   R14        1.81431   0.12543   0.00000   0.09306   0.09306   1.90738
   R15        2.69115   0.00044   0.00000   0.00039   0.00039   2.69154
   R16        2.57414   0.00241   0.00000   0.00186   0.00186   2.57600
   R17        2.50974   0.02710   0.00000   0.01902   0.01902   2.52876
   R18        2.30308   0.00074   0.00000   0.00036   0.00036   2.30345
   R19        1.60824   0.24037   0.00000   0.12694   0.12694   1.73518
   R20        1.61558   0.23243   0.00000   0.12445   0.12445   1.74003
   R21        2.33000   0.00223   0.00000   0.00116   0.00116   2.33115
   R22        2.32556   0.01126   0.00000   0.00577   0.00577   2.33133
    A1        2.17265   0.00233   0.00000   0.00287   0.00287   2.17552
    A2        1.82372   0.00232   0.00000   0.00289   0.00290   1.82662
    A3        2.27249  -0.00459   0.00000  -0.00560  -0.00560   2.26689
    A4        2.13408  -0.00496   0.00000  -0.00568  -0.00568   2.12840
    A5        1.97000   0.00047   0.00000  -0.00003  -0.00003   1.96997
    A6        2.17896   0.00449   0.00000   0.00572   0.00572   2.18468
    A7        1.93075  -0.00080   0.00000  -0.00024  -0.00023   1.93052
    A8        1.93092  -0.00053   0.00000   0.00022   0.00023   1.93115
    A9        1.84140   0.01000   0.00000   0.01301   0.01301   1.85441
   A10        1.89912   0.00056   0.00000   0.00006   0.00004   1.89916
   A11        1.93085  -0.00457   0.00000  -0.00647  -0.00649   1.92436
   A12        1.93073  -0.00459   0.00000  -0.00646  -0.00649   1.92424
   A13        1.83947   0.00113   0.00000   0.00073   0.00072   1.84020
   A14        2.18717  -0.00540   0.00000  -0.00810  -0.00810   2.17907
   A15        1.90936   0.00098   0.00000   0.00165   0.00165   1.91101
   A16        2.18666   0.00442   0.00000   0.00645   0.00645   2.19311
   A17        1.91065   0.00007   0.00000   0.00024   0.00023   1.91089
   A18        1.91061  -0.00403   0.00000  -0.00601  -0.00602   1.90460
   A19        1.91095  -0.00311   0.00000  -0.00469  -0.00470   1.90625
   A20        1.91067   0.00252   0.00000   0.00390   0.00390   1.91457
   A21        1.91078   0.00178   0.00000   0.00273   0.00273   1.91351
   A22        1.91013   0.00276   0.00000   0.00383   0.00381   1.91395
   A23        1.88185  -0.00490   0.00000  -0.00525  -0.00525   1.87661
   A24        2.17688   0.00186   0.00000   0.00191   0.00191   2.17879
   A25        2.21967   0.00306   0.00000   0.00338   0.00337   2.22304
   A26        1.99830  -0.00599   0.00000  -0.00723  -0.00723   1.99107
   A27        1.92950  -0.00438   0.00000  -0.00529  -0.00529   1.92421
   A28        2.13324   0.00812   0.00000   0.00980   0.00980   2.14305
   A29        2.22042  -0.00374   0.00000  -0.00451  -0.00451   2.21591
   A30        2.12730  -0.00811   0.00000  -0.01200  -0.01200   2.11530
   A31        2.11758  -0.00252   0.00000  -0.00373  -0.00373   2.11385
   A32        2.03639   0.01064   0.00000   0.01576   0.01576   2.05216
   A33        2.03642  -0.00232   0.00000  -0.00278  -0.00278   2.03364
   A34        2.08309  -0.00250   0.00000  -0.00300  -0.00300   2.08009
   A35        2.16337   0.00486   0.00000   0.00588   0.00588   2.16925
    D1        0.12047   0.00028   0.00000   0.00010   0.00009   0.12056
    D2       -3.00338   0.00006   0.00000  -0.00042  -0.00042  -3.00381
    D3        3.09676   0.00011   0.00000   0.00042   0.00042   3.09718
    D4       -0.02709  -0.00010   0.00000  -0.00010  -0.00010  -0.02719
    D5        1.38931   0.00062   0.00000   0.00132   0.00132   1.39062
    D6       -0.70513  -0.00004   0.00000   0.00007   0.00008  -0.70505
    D7       -2.79909   0.00094   0.00000   0.00193   0.00192  -2.79717
    D8       -1.54216  -0.00013   0.00000  -0.00025  -0.00025  -1.54241
    D9        2.64659  -0.00079   0.00000  -0.00150  -0.00149   2.64510
   D10        0.55263   0.00020   0.00000   0.00036   0.00035   0.55298
   D11        0.01974   0.00034   0.00000   0.00084   0.00083   0.02057
   D12        3.06273   0.00060   0.00000   0.00131   0.00131   3.06404
   D13        2.98280   0.00115   0.00000   0.00239   0.00238   2.98518
   D14       -0.25740   0.00142   0.00000   0.00286   0.00286  -0.25454
   D15       -1.03453  -0.00005   0.00000  -0.00038  -0.00037  -1.03490
   D16        1.07130  -0.00022   0.00000  -0.00032  -0.00033   1.07097
   D17       -3.12323  -0.00008   0.00000  -0.00023  -0.00023  -3.12346
   D18        2.08715   0.00014   0.00000   0.00012   0.00013   2.08727
   D19       -2.09021  -0.00004   0.00000   0.00018   0.00018  -2.09003
   D20       -0.00156   0.00011   0.00000   0.00028   0.00028  -0.00128
   D21        0.02321  -0.00032   0.00000  -0.00080  -0.00080   0.02241
   D22       -3.10010  -0.00042   0.00000  -0.00119  -0.00120  -3.10130
   D23       -3.09068  -0.00013   0.00000  -0.00023  -0.00023  -3.09091
   D24        1.10387  -0.00264   0.00000  -0.00419  -0.00416   1.09971
   D25       -1.00190   0.00270   0.00000   0.00427   0.00424  -0.99766
   D26        3.13173   0.00060   0.00000   0.00140   0.00140   3.13313
   D27       -0.00947   0.00053   0.00000   0.00131   0.00131  -0.00817
   D28       -0.00673  -0.00059   0.00000  -0.00138  -0.00138  -0.00810
   D29       -3.04659  -0.00075   0.00000  -0.00174  -0.00174  -3.04834
   D30        3.13526  -0.00066   0.00000  -0.00147  -0.00147   3.13379
   D31        0.09539  -0.00083   0.00000  -0.00183  -0.00183   0.09356
   D32        3.03157  -0.00011   0.00000  -0.00047  -0.00048   3.03109
   D33       -0.13535   0.00183   0.00000   0.00410   0.00410  -0.13126
   D34       -0.22792  -0.00026   0.00000  -0.00041  -0.00041  -0.22833
   D35        2.88834   0.00168   0.00000   0.00416   0.00417   2.89251
   D36        3.11196   0.00018   0.00000   0.00042   0.00042   3.11238
   D37       -0.02267  -0.00008   0.00000  -0.00020  -0.00020  -0.02287
   D38        3.06079   0.00077   0.00000   0.00172   0.00172   3.06251
   D39       -0.01212   0.00021   0.00000   0.00047   0.00047  -0.01165
   D40       -0.08820   0.00110   0.00000   0.00245   0.00244  -0.08576
   D41        3.12207   0.00054   0.00000   0.00120   0.00120   3.12327
         Item               Value     Threshold  Converged?
 Maximum Force            0.240367     0.000450     NO 
 RMS     Force            0.047301     0.000300     NO 
 Maximum Displacement     0.173548     0.001800     NO 
 RMS     Displacement     0.035659     0.001200     NO 
 Predicted change in Energy=-1.084718D-01
 Lowest energy point so far.  Saving SCF results.
 GradGradGradGradGradGradGradGradGradGradGradGradGradGradGradGradGradGrad

 Leave Link  103 at Fri Aug 20 16:02:05 2021, MaxMem= 24159191040 cpu:         3.2
 (Enter /public/home/users/caep010/software/Gaussian09/g09/l202.exe)
                          Input orientation:                          
 ---------------------------------------------------------------------
 Center     Atomic      Atomic             Coordinates (Angstroms)
 Number     Number       Type             X           Y           Z
 ---------------------------------------------------------------------
      1          7           0        8.299883    0.979351    2.244414
      2          6           0        7.470835    0.792889    3.302747
      3          6           0        7.054061   -0.576001    3.753086
      4          7           0        7.073290    1.934201    3.854637
      5          1           0        6.573599   -1.068627    3.003866
      6          6           0        7.645281    2.916169    3.107392
      7          1           0        7.531138    3.887095    3.265838
      8          6           0        8.760042   -0.089140    1.344040
      9          1           0        8.034343   -0.300209    0.672686
     10          6           0        8.395290    2.353837    2.112153
     11          1           0        7.863912   -1.121916    4.038204
     12          8           0        6.171716   -0.381030    4.863925
     13          1           0        8.970118   -0.913739    1.889039
     14          6           0        5.741722   -1.538035    5.442410
     15          7           0        4.954337   -1.267301    6.489984
     16          8           0        6.062129   -2.640099    5.031816
     17          1           0        4.531554   -1.938038    6.953120
     18          1           0        4.775631   -0.399052    6.739083
     19          7           0        9.237513    3.024978    1.180026
     20          8           0        9.114171    4.250346    1.109244
     21          8           0       10.046847    2.368610    0.519616
     22          1           0        9.590587    0.218810    0.860171
 ---------------------------------------------------------------------
                    Distance matrix (angstroms):
                    1          2          3          4          5
     1  N    0.000000
     2  C    1.357261   0.000000
     3  C    2.499457   1.500122   0.000000
     4  N    2.238099   1.328616   2.512329   0.000000
     5  H    2.784069   2.087967   1.017278   3.160772   0.000000
     6  C    2.219121   2.139372   3.600238   1.360077   4.127689
     7  H    3.176358   3.095014   4.514891   2.090479   5.054176
     8  C    1.471085   2.505307   2.991806   3.638975   2.914610
     9  H    2.044043   2.903382   3.244361   4.005125   2.856334
    10  C    1.384127   2.169952   3.616007   2.227113   3.978313
    11  H    2.796976   2.088512   1.017435   3.162061   1.654570
    12  O    3.638897   2.345863   1.431961   2.681752   2.023393
    13  H    2.039435   2.675630   2.694440   3.946175   2.647666
    14  C    4.807140   3.605717   2.345540   4.043578   2.618942
    15  N    5.853630   4.553638   3.518145   4.656675   3.848960
    16  O    5.087000   4.093841   2.622895   4.830364   2.616047
    17  H    6.699505   5.424256   4.296324   5.572723   4.530168
    18  H    5.875576   4.526947   3.760151   4.363867   4.199150
    19  N    2.489310   3.550960   4.935094   3.609322   5.213486
    20  O    3.556837   4.412032   5.876018   4.131212   6.191573
    21  O    2.820790   4.106648   5.299324   4.489223   5.481748
    22  H    2.039723   3.284676   3.928695   4.271555   3.918564
                    6          7          8          9         10
     6  C    0.000000
     7  H    0.990370   0.000000
     8  C    3.658413   4.584098   0.000000
     9  H    4.052684   4.950876   1.010892   0.000000
    10  C    1.367198   2.104431   2.586731   3.040774   0.000000
    11  H    4.149739   5.079121   3.021290   3.468567   4.009101
    12  O    4.016008   4.755923   4.378838   4.587199   4.471692
    13  H    4.231757   5.197523   1.010505   1.652757   3.325246
    14  C    5.377339   6.113224   5.292087   5.434941   5.768770
    15  N    6.015357   6.603242   6.507856   6.653018   6.642153
    16  O    6.089489   6.919604   5.233146   5.326042   6.237585
    17  H    6.931683   7.518359   7.263629   7.375355   7.535490
    18  H    5.693396   6.166628   6.714020   6.886955   6.487589
    19  N    2.502356   2.829412   3.154776   3.572377   1.424300
    20  O    2.816073   2.699786   4.360238   4.697250   2.262601
    21  O    3.572664   4.021980   2.894146   3.346072   2.294348
    22  H    4.013722   4.846120   1.009341   1.651190   2.748552
                   11         12         13         14         15
    11  H    0.000000
    12  O    2.023426   0.000000
    13  H    2.426095   4.118832   0.000000
    14  C    2.578496   1.363158   4.841356   0.000000
    15  N    3.807622   2.216202   6.117204   1.338164   0.000000
    16  O    2.557062   2.267948   4.616683   1.218931   2.288674
    17  H    4.501933   3.078821   6.811383   1.976551   0.918220
    18  H    4.165905   2.337861   6.432849   1.977872   0.920784
    19  N    5.220411   5.879721   4.010947   7.156086   8.060081
    20  O    6.245250   6.648708   5.224616   7.978415   8.757911
    21  O    5.415666   6.438182   3.715977   7.617735   8.648630
    22  H    3.857311   5.298918   1.651127   6.236761   7.442992
                   16         17         18         19         20
    16  O    0.000000
    17  H    2.554791   0.000000
    18  H    3.097117   1.572852   0.000000
    19  N    7.550658   8.950206   7.907938   0.000000
    20  O    8.495867   9.666817   8.493228   1.233592   0.000000
    21  O    7.831034   9.505559   8.609730   1.233686   2.181393
    22  H    6.166522   8.207913   7.624117   2.846322   4.067222
                   21         22
    21  O    0.000000
    22  H    2.223914   0.000000
 Stoichiometry    C6H8N4O4
 Framework group  C1[X(C6H8N4O4)]
 Deg. of freedom    60
 Full point group                 C1      NOp   1
 RotChk:  IX=0 Diff= 6.02D-04
 Largest Abelian subgroup         C1      NOp   1
 Largest concise Abelian subgroup C1      NOp   1
                         Standard orientation:                         
 ---------------------------------------------------------------------
 Center     Atomic      Atomic             Coordinates (Angstroms)
 Number     Number       Type             X           Y           Z
 ---------------------------------------------------------------------
      1          7           0        1.044863    0.596255    0.000191
      2          6           0       -0.124750   -0.092304   -0.006935
      3          6           0       -1.454545    0.601624    0.014845
      4          7           0        0.051325   -1.409184   -0.013517
      5          1           0       -1.542229    1.181640    0.845957
      6          6           0        1.398337   -1.594455    0.018800
      7          1           0        1.848167   -2.476706    0.029617
      8          6           0        1.156946    2.052659    0.174589
      9          1           0        1.075360    2.282056    1.155723
     10          6           0        2.025682   -0.379781    0.034198
     11          1           0       -1.566259    1.188925   -0.808423
     12          8           0       -2.445697   -0.431833    0.024636
     13          1           0        0.417485    2.506058   -0.343821
     14          6           0       -3.728462    0.027375   -0.018284
     15          7           0       -4.587130   -0.998679   -0.042454
     16          8           0       -4.004282    1.214530   -0.037738
     17          1           0       -5.494325   -0.860552   -0.010087
     18          1           0       -4.288115   -1.869553   -0.039026
     19          7           0        3.425889   -0.128972   -0.037523
     20          8           0        4.168548   -1.100069    0.127336
     21          8           0        3.820530    1.014951   -0.277695
     22          1           0        2.053259    2.360855   -0.172408
 ---------------------------------------------------------------------
 Rotational constants (GHZ):      2.1805633      0.2996522      0.2647824
 Leave Link  202 at Fri Aug 20 16:02:05 2021, MaxMem= 24159191040 cpu:         0.3
 (Enter /public/home/users/caep010/software/Gaussian09/g09/l301.exe)
 Standard basis: 6-31G(d,p) (6D, 7F)
 Ernie: Thresh=  0.10000D-02 Tol=  0.10000D-05 Strict=F.
 There are   250 symmetry adapted cartesian basis functions of A   symmetry.
 There are   250 symmetry adapted basis functions of A   symmetry.
   250 basis functions,   448 primitive gaussians,   250 cartesian basis functions
    52 alpha electrons       52 beta electrons
       nuclear repulsion energy       897.7427891498 Hartrees.
 IExCor=  402 DFT=T Ex+Corr=B3LYP ExCW=0 ScaHFX=  0.200000
 ScaDFX=  0.800000  0.720000  1.000000  0.810000 ScalE2=  1.000000  1.000000
 IRadAn=      0 IRanWt=     -1 IRanGd=            0 ICorTp=0 IEmpDi=  4
 NAtoms=   22 NActive=   22 NUniq=   22 SFac= 1.00D+00 NAtFMM=   60 NAOKFM=F Big=F
 Integral buffers will be    131072 words long.
 Raffenetti 2 integral format.
 Two-electron integral symmetry is turned on.
 Leave Link  301 at Fri Aug 20 16:02:05 2021, MaxMem= 24159191040 cpu:         1.7
 (Enter /public/home/users/caep010/software/Gaussian09/g09/l302.exe)
 NPDir=0 NMtPBC=     1 NCelOv=     1 NCel=       1 NClECP=     1 NCelD=      1
         NCelK=      1 NCelE2=     1 NClLst=     1 CellRange=     0.0.
 One-electron integrals computed using PRISM.
 NBasis=   250 RedAO= T EigKep=  9.85D-04  NBF=   250
 NBsUse=   250 1.00D-06 EigRej= -1.00D+00 NBFU=   250
 Precomputing XC quadrature grid using
 IXCGrd= 4 IRadAn=           0 IRanWt=          -1 IRanGd=           0 AccXCQ= 0.00D+00.
 Generated NRdTot=       0 NPtTot=           0 NUsed=           0 NTot=          32
 NSgBfM=   247   247   247   247   247 MxSgAt=    22 MxSgA2=    22.
 Leave Link  302 at Fri Aug 20 16:02:05 2021, MaxMem= 24159191040 cpu:        13.0
 (Enter /public/home/users/caep010/software/Gaussian09/g09/l303.exe)
 DipDrv:  MaxL=1.
 Leave Link  303 at Fri Aug 20 16:02:05 2021, MaxMem= 24159191040 cpu:         0.8
 (Enter /public/home/users/caep010/software/Gaussian09/g09/l401.exe)
 Initial guess from the checkpoint file:  "/public/home/users/caep010/.cache/gau_scr/Gau-192117.chk"
 B after Tr=     0.000000    0.000000   -0.000000
         Rot=    1.000000   -0.000425   -0.000026   -0.000449 Ang=  -0.07 deg.
 Guess basis will be translated and rotated to current coordinates.
 JPrj=2 DoOrth=T DoCkMO=T.
 Generating alternative initial guess.
 ExpMin= 1.61D-01 ExpMax= 5.48D+03 ExpMxC= 8.25D+02 IAcc=1 IRadAn=         1 AccDes= 0.00D+00
 Harris functional with IExCor=  402 and IRadAn=       1 diagonalized for initial guess.
 HarFok:  IExCor=  402 AccDes= 0.00D+00 IRadAn=         1 IDoV= 1 UseB2=F ITyADJ=14
 ICtDFT=  3500011 ScaDFX=  1.000000  1.000000  1.000000  1.000000
 FoFCou: FMM=F IPFlag=           0 FMFlag=      100000 FMFlg1=           0
         NFxFlg=           0 DoJE=T BraDBF=F KetDBF=T FulRan=T
         wScrn=  0.000000 ICntrl=     500 IOpCl=  0 I1Cent=   200000004 NGrid=           0
         NMat0=    1 NMatS0=      1 NMatT0=    0 NMatD0=    1 NMtDS0=    0 NMtDT0=    0
 Petite list used in FoFCou.
 Harris En= -753.271361814942    
 Leave Link  401 at Fri Aug 20 16:02:06 2021, MaxMem= 24159191040 cpu:        15.4
 (Enter /public/home/users/caep010/software/Gaussian09/g09/l502.exe)
 Closed shell SCF:
 Using DIIS extrapolation, IDIIS=  1040.
 Integral symmetry usage will be decided dynamically.
 Keep R1 ints in memory in canonical form, NReq=500333424.
 IVT=      215924 IEndB=      215924 NGot= 24159191040 MDV= 23666764117
 LenX= 23666764117 LenY= 23666701176
 Requested convergence on RMS density matrix=1.00D-08 within 128 cycles.
 Requested convergence on MAX density matrix=1.00D-06.
 Requested convergence on             energy=1.00D-06.
 No special actions if energy rises.
 FoFCou: FMM=F IPFlag=           0 FMFlag=           0 FMFlg1=           0
         NFxFlg=           0 DoJE=F BraDBF=F KetDBF=F FulRan=T
         wScrn=  0.000000 ICntrl=     600 IOpCl=  0 I1Cent=           0 NGrid=           0
         NMat0=    1 NMatS0=  31375 NMatT0=    0 NMatD0=    1 NMtDS0=    0 NMtDT0=    0
 Symmetry not used in FoFCou.
 Integral accuracy reduced to 1.0D-05 until final iterations.

 Cycle   1  Pass 0  IDiag  1:
 E= -753.225437012250    
 DIIS: error= 3.63D-03 at cycle   1 NSaved=   1.
 NSaved= 1 IEnMin= 1 EnMin= -753.225437012250     IErMin= 1 ErrMin= 3.63D-03
 ErrMax= 3.63D-03  0.00D+00 EMaxC= 1.00D-01 BMatC= 5.30D-03 BMatP= 5.30D-03
 IDIUse=3 WtCom= 9.64D-01 WtEn= 3.63D-02
 Coeff-Com:  0.100D+01
 Coeff-En:   0.100D+01
 Coeff:      0.100D+01
 Gap=     1.566 Goal=   None    Shift=    0.000
 GapD=    1.566 DampG=2.000 DampE=1.000 DampFc=2.0000 IDamp=-1.
 RMSDP=4.47D-04 MaxDP=1.84D-02              OVMax= 1.72D-02

 Cycle   2  Pass 0  IDiag  1:
 E= -753.229276602030     Delta-E=       -0.003839589781 Rises=F Damp=F
[...]
 .00177069,0.01212187,0.00537647,-0.01947474,-0.01982933,0.08836643,0.0
 0023312,0.00549305,0.00074983,0.01738745,0.00201624,-0.01918391,0.0784
 0687,0.00353652,-0.15511107,-0.00020809,-0.00036033,0.00274341,0.02980
 476,0.00131939,-0.03669336,-0.00016192,0.00051723,0.00030744,0.0001137
 9,0.00026878,-0.00019078,-0.00140199,-0.00050752,0.00084979,0.00013915
 ,0.00012431,-0.00005782,0.00288968,0.00081181,-0.00229932,0.01364775,-
 0.00328559,-0.00963356,-0.03641492,-0.04136888,0.50949058,0.00599326,0
 .02323123,-0.00206405,0.00102887,0.00017153,-0.00020943,-0.00109118,0.
 00001306,0.00131853,0.00008056,0.00018280,-0.00036801,-0.00048286,-0.0
 0017041,0.00017970,0.00008321,0.00093520,0.00052365,-0.00016050,-0.000
 00626,0.00020890,-0.09323827,-0.10146017,0.01623408,0.00135680,0.00502
 203,-0.00084868,-0.00157013,0.00034623,0.00190500,-0.00038861,-0.00012
 100,0.00094839,-0.00022994,0.00017607,-0.00027210,0.09647615,-0.006402
 70,-0.02550657,0.00030034,-0.00155853,-0.00027279,0.00100013,-0.000055
 32,-0.00035952,0.00049052,0.00020117,0.00000381,-0.00008474,0.00040901
 ,0.00010154,0.00006823,-0.00027612,-0.00126474,-0.00009698,0.00019281,
 0.00008084,-0.00022676,-0.09228183,-0.27717469,0.03728384,-0.00323225,
 -0.00535539,0.00105886,0.00286513,0.00237788,-0.00144727,-0.00077573,0
 .00072937,0.00028541,-0.00030901,0.00054716,0.00068146,0.10200739,0.30
 432866,-0.00842123,-0.02627317,0.00030963,-0.00053065,-0.00034141,0.00
 117376,0.00192102,-0.00071841,-0.00044383,-0.00027246,0.00003718,-0.00
 004381,-0.00023297,0.00016272,-0.00001609,0.00004746,-0.00125247,-0.00
 010318,0.00026025,0.00000906,-0.00017459,0.01833129,0.04608582,-0.0585
 6632,0.01265584,0.02751352,-0.00060104,0.00245610,0.00016366,-0.001906
 07,0.00095599,0.00078175,-0.00138824,-0.00048601,0.00018093,0.00008785
 ,-0.02484957,-0.03951477,0.06039352,-0.00214258,-0.00315576,0.00097190
 ,-0.00064789,0.00208452,0.00711949,0.02838553,-0.00614426,0.01221642,-
 0.00167751,-0.00054487,-0.00212769,-0.00627468,0.00162030,0.00567682,-
 0.00042039,-0.00058726,0.00042931,0.00006416,-0.00011150,0.00000360,0.
 00035913,-0.00004505,-0.00008824,-0.00010531,0.00008511,-0.00004034,-0
 .00024265,0.00015026,0.00056462,-0.00321709,0.00274178,0.00884752,-0.1
 4390843,0.01371808,-0.04495916,0.00035419,-0.00020571,0.00036343,1.050
 32068,0.00098018,-0.00027541,-0.00095437,-0.00103819,0.00021627,0.0043
 5074,-0.00362955,-0.00327207,0.00263988,-0.00027693,0.00113669,-0.0003
 9014,0.00208212,-0.00000516,-0.00268400,-0.00068946,-0.00103544,-0.000
 02626,-0.00004882,0.00006537,-0.00003556,-0.00005866,0.00041242,0.0002
 4014,0.00007017,-0.00007625,-0.00005637,0.00099345,0.00056097,-0.00063
 964,0.00100582,0.00064672,-0.00283855,0.00954771,-0.06309525,0.0153581
 4,-0.00007086,-0.00000303,-0.00013148,-0.14451590,0.23944017,-0.000660
 54,-0.00334247,0.00020172,-0.00091186,0.00786835,0.00417163,0.00862524
 ,0.00116303,-0.07063411,-0.00136063,-0.00508507,-0.00206062,0.00078618
 ,0.00128140,0.00073503,0.00053443,0.00087651,0.00001208,-0.00020245,-0
 .00037694,0.00026061,0.00114438,-0.00020250,-0.00071439,-0.00020608,-0
 .00009543,0.00013076,-0.00406540,-0.00250691,0.00294307,-0.00581118,0.
 00102787,0.00446677,-0.02446679,0.01391548,-0.18979067,0.00032148,-0.0
 0050215,-0.00037490,-0.05192178,-0.01160601,0.63597610,0.00038032,0.00
 011274,-0.00020096,-0.00012809,0.00089722,-0.00014068,-0.00045798,0.00
 070989,-0.00559705,0.00022684,-0.00078256,0.00020425,0.00076919,-0.000
 17381,-0.00051768,0.00017353,0.00029436,-0.00016809,-0.00005367,-0.000
 02585,0.00002733,0.00010990,-0.00000746,-0.00015787,0.00000150,-0.0000
 4843,0.00004367,-0.00066593,-0.00039928,0.00038998,-0.00044168,-0.0006
 0798,-0.00152090,0.02161824,-0.00012793,-0.00164077,-0.00004134,-0.000
 05079,-0.00016250,-0.22655505,0.01666678,0.10887208,0.76019790,-0.0004
 9926,0.00021227,0.00033376,0.00055404,-0.00027985,-0.00066783,0.001063
 29,0.00252996,0.00012390,-0.00004259,-0.00040938,0.00064730,-0.0005226
 2,0.00007451,0.00046829,0.00030225,0.00038124,-0.00018236,0.00002698,0
 .00001416,-0.00004002,0.00005223,-0.00015191,-0.00011713,-0.00002835,0
 .00001153,0.00003283,-0.00038621,-0.00018654,0.00025858,-0.00005608,-0
 .00003842,0.00061079,0.00060310,0.01104431,0.00698630,0.00002291,-0.00
 000738,-0.00001048,0.04025426,-0.06020149,-0.02376632,-0.22318310,0.12
 681859,-0.00008186,0.00089473,0.00013127,0.00021482,-0.00335520,-0.001
 72818,-0.00804698,0.00029629,0.00301523,0.00014533,0.00164147,0.000586
 95,0.00148143,0.00026213,-0.00218557,-0.00018941,-0.00015714,0.0000840
 3,0.00009034,0.00010890,-0.00009177,-0.00036028,0.00000217,0.00028590,
 0.00003978,0.00005591,-0.00004950,0.00133401,0.00079955,-0.00090081,0.
 00085822,0.00020265,-0.00046900,0.02592712,0.00174281,-0.08062883,-0.0
 0011076,0.00020593,0.00016957,0.11078730,0.00287195,-0.25414040,0.0658
 5937,0.02482026,0.81572400,0.00130728,0.00150412,-0.00055574,-0.000198
 98,-0.00135772,-0.00217391,-0.01207037,0.00071412,0.01413744,0.0010411
 0,0.00046397,0.00118451,0.00259106,-0.00091661,-0.00102211,0.00014876,
 0.00023754,-0.00019719,-0.00003054,0.00007560,-0.00001098,-0.00025863,
 0.00005350,-0.00000267,0.00008917,-0.00006384,0.00002610,0.00027812,0.
 00020640,-0.00044182,0.00213575,-0.00174860,-0.00387457,-0.04506111,0.
 01400446,-0.05788683,-0.00020636,0.00009437,-0.00018111,-0.68755841,0.
 10874251,-0.05172044,-0.07224892,0.01008984,0.01979885,0.80977541,0.00
 004495,0.00030253,0.00014942,-0.00084009,-0.00058469,-0.00043304,0.001
 32150,-0.00196544,-0.00350276,0.00032014,-0.00022593,0.00104626,-0.000
 26545,0.00020143,0.00007583,0.00053314,0.00061974,-0.00005938,0.000017
 07,0.00000640,0.00000236,0.00012409,-0.00044186,-0.00022374,-0.0000525
 8,0.00005757,0.00004522,-0.00076794,-0.00052730,0.00032892,-0.00086352
 ,-0.00060793,0.00167040,0.01322457,0.02236230,0.00872782,0.00003589,0.
 00004723,0.00008404,0.10946071,-0.10520414,0.01103939,0.01274690,0.019
 98724,-0.00467761,-0.13531958,0.06339889,-0.00048095,0.00007475,0.0002
 9936,-0.00012583,-0.00290268,-0.00019179,-0.00640958,-0.00213090,0.003
 97143,0.00038801,0.00152348,0.00024601,-0.00170993,0.00139721,0.000217
 53,-0.00013181,-0.00020941,0.00009890,0.00005468,0.00010846,-0.0000882
 5,-0.00033065,-0.00003363,0.00020047,0.00005530,0.00006523,-0.00003737
 ,0.00121317,0.00098662,-0.00083075,-0.00164801,0.00173512,-0.00188425,
 -0.05724574,0.01208190,-0.01741107,-0.00011211,0.00018416,0.00022221,-
 0.05687931,0.01119194,-0.12365751,0.04326746,-0.00878292,0.01745134,0.
 07921254,-0.01628888,0.12182237,-0.00000214,-0.00006695,-0.00001553,0.
 00007484,0.00025540,0.00005033,0.00108280,0.00021841,0.00087237,-0.000
 03371,-0.00007982,-0.00009723,-0.00030216,-0.00003880,0.00039846,-0.00
 001827,-0.00003876,0.00001837,0.00000152,-0.00001245,0.00001059,0.0000
 1938,0.00001727,-0.00000024,-0.00000261,-0.00000071,-0.00000245,-0.000
 03493,-0.00002821,0.00002557,0.00001498,0.00002874,0.00006581,-0.00353
 948,0.00037847,0.00478025,0.00001339,-0.00001488,0.00000081,0.01715694
 ,0.00101166,0.02576376,-0.12334245,0.00781088,-0.14582969,-0.00141394,
 -0.00088941,-0.00308236,0.11363606,0.00015445,0.00004504,-0.00009630,0
 .00016824,-0.00003229,-0.00042059,0.00001192,0.00228586,0.00060040,-0.
 00004298,0.00002043,-0.00023290,-0.00015044,0.00001589,0.00010843,-0.0
 0011437,-0.00010056,0.00008404,-0.00000814,-0.00001536,0.00002579,-0.0
 0005339,0.00010100,0.00007488,0.00001146,-0.00000651,-0.00001583,0.000
 18377,0.00008505,-0.00011043,-0.00009669,0.00000942,0.00020527,0.00009
 119,0.00239910,-0.00032592,-0.00000818,-0.00001285,0.00001145,-0.00769
 106,-0.00273281,0.00530651,0.00325001,-0.01258911,-0.05738792,0.002474
 25,-0.00364119,0.00030180,-0.00001222,0.01613686,-0.00004095,0.0000576
 2,0.00003277,0.00003185,-0.00002278,-0.00014465,-0.00081262,-0.0001202
 8,-0.00055268,-0.00001760,-0.00017959,0.00017687,0.00025899,-0.0000258
 1,-0.00019144,0.00009684,0.00014169,-0.00006096,0.00000403,-0.00000045
 ,-0.00000060,0.00002620,-0.00002986,-0.00003647,-0.00000272,-0.0000003
 9,0.00001017,-0.00017315,-0.00008701,0.00010982,-0.00000072,-0.0000703
 0,-0.00019056,0.00469664,-0.00005897,-0.00166116,-0.00000279,0.0000002
 7,-0.00002020,-0.01382282,-0.00333391,-0.02416936,-0.13480877,-0.03235
 246,-0.40737104,-0.00246795,0.00176324,0.00405465,0.14329368,0.0360606
 5,0.42803498,0.00011227,0.00001535,-0.00010632,-0.00013411,-0.00015084
 ,0.00011117,-0.00069268,-0.00080418,0.00104051,0.00004714,0.00034380,-
 0.00021875,0.00018908,-0.00002164,-0.00028384,-0.00010898,-0.00018466,
 0.00004159,0.00000550,0.00000777,0.00000569,-0.00004358,0.00004241,0.0
 0006205,0.00001423,0.00000312,-0.00001572,0.00026922,0.00014416,-0.000
 17398,0.00029062,-0.00006568,-0.00030154,0.00148954,-0.00063456,-0.003
 94427,-0.00001115,0.00001991,0.00002010,-0.02318858,0.00931638,-0.0056
 0558,-0.35990408,0.16385596,-0.07148990,0.00132486,0.00094596,0.004440
 31,-0.00330695,0.00187830,0.00367677,0.38371196,0.00014896,-0.00022730
 ,-0.00018277,-0.00023455,0.00037576,0.00037865,-0.00027595,-0.00057369
 ,-0.00011593,0.00020230,0.00005147,-0.00032347,0.00002754,0.00002177,-
 0.00006812,-0.00015788,-0.00023112,0.00007737,-0.00002899,-0.00001253,
 0.00002579,-0.00001580,0.00010048,0.00005239,0.00001287,-0.00000968,-0
 .00001826,0.00017552,0.00010356,-0.00010635,0.00007353,0.00000574,-0.0
 0001665,-0.00123729,-0.00035042,-0.00074723,0.00000096,-0.00001469,0.0
 0000019,-0.00649381,-0.00619549,0.00494797,0.19056440,-0.08736523,0.03
 170580,0.00044858,0.00591631,0.00078522,-0.00851819,-0.00190768,-0.001
 79840,-0.17465258,0.09042193,-0.00009601,-0.00004919,0.00007739,0.0001
 2046,0.00011538,0.00005789,-0.00040008,0.00042166,-0.00043907,-0.00021
 779,-0.00021339,-0.00007602,-0.00001182,-0.00002791,0.00001812,0.00004
 526,0.00011307,0.00000053,0.00000112,-0.00001101,0.00000783,0.00003385
 ,-0.00002029,-0.00001323,-0.00000751,0.00000155,0.00000392,-0.00013930
 ,-0.00008667,0.00012141,-0.00014351,0.00000951,0.00060612,-0.00111668,
 0.00045556,-0.00237287,0.00001866,-0.00001732,-0.00000394,0.02246007,-
 0.01395826,0.01759430,-0.07344863,0.03165351,-0.09033258,0.00643659,0.
 00043279,-0.00484734,-0.02624624,0.01576995,0.00202632,0.07269318,-0.0
 3460604,0.07758534,-0.01085134,-0.00759506,-0.00392840,0.01191228,-0.0
 0311206,-0.00934862,-0.00003239,-0.00128578,0.00421358,0.00466953,0.01
 832558,0.00888029,0.00086050,0.00135915,-0.00055269,-0.03292448,-0.016
 12957,0.01829622,-0.00007185,0.00074988,-0.00158119,0.00281101,-0.0031
 5960,-0.00393480,0.00137843,0.00212072,0.00178203,-0.12476935,-0.04918
 179,0.04360125,0.00039107,0.00073289,-0.00041431,-0.00030969,0.0009010
 5,-0.00289019,-0.00180363,0.00002205,0.00142437,-0.00014535,-0.0010294
 6,0.00415606,0.00082433,0.00053033,-0.00147165,-0.00016009,0.00082463,
 -0.00152015,0.00002825,-0.00023238,0.00021775,-0.00028923,-0.00024211,
 0.00016128,0.50819079,-0.02735634,-0.02287369,0.02167960,0.00705143,-0
 .01212453,-0.00987171,-0.00210062,0.00016315,0.00179284,0.00774650,0.0
 1508733,-0.00525059,0.00025429,0.00045639,-0.00032627,-0.01306740,0.00
 971176,0.01611667,0.00277564,-0.00135542,-0.00238273,-0.00025416,-0.00
 075325,0.00019973,-0.00039433,-0.00109692,-0.00084259,-0.03093894,-0.1
 2150481,0.01334338,0.00041801,0.00029519,-0.00001058,0.00009988,0.0005
 1544,-0.00232750,0.00064755,0.00035695,-0.00038711,-0.00060446,-0.0007
 1609,0.00370249,0.00088205,0.00033449,-0.00142572,0.00026348,0.0004950
 6,-0.00132749,0.00002267,-0.00013035,0.00020070,-0.00026496,-0.0001503
 8,0.00014221,0.00291401,0.84508548,-0.00858307,0.00447166,-0.00411750,
 -0.00712173,-0.00136484,0.00818053,0.00235404,0.00114984,0.00015788,0.
 00596102,-0.01493571,0.00004855,-0.00066555,-0.00046363,0.00037100,0.0
 1885676,0.01872261,-0.02028801,-0.00094280,-0.00052833,-0.00112407,-0.
 00327572,0.00289514,0.00270491,-0.00096327,-0.00258581,-0.00199673,0.0
 4868511,0.02974822,-0.09831946,-0.00028696,-0.00090465,0.00019673,-0.0
 0028887,-0.00129849,0.00195074,0.00183069,0.00010882,-0.00141456,0.000
 17507,0.00072565,-0.00284695,-0.00061534,-0.00039786,0.00104388,-0.000
 02591,-0.00069563,0.00086926,-0.00000050,0.00022199,-0.00014641,0.0002
 2859,0.00019464,-0.00008708,-0.25789424,0.16082567,0.50183891,-0.00042
 547,-0.00218280,0.00519327,-0.00092321,-0.00180765,0.00016408,-0.00020
 040,0.00069042,-0.00100881,0.00025564,-0.00168088,-0.00049210,-0.00020
 440,-0.00036803,0.00011242,-0.00021814,-0.00117258,0.00036984,-0.00032
 332,-0.00112275,-0.00026386,-0.00072842,0.00092432,0.00158449,-0.00028
 774,-0.00035475,-0.00062843,0.00411919,-0.03558608,0.00157558,-0.00002
 588,-0.00014639,0.00003280,-0.00000922,-0.00038233,0.00096975,0.000285
 31,-0.00011067,-0.00054016,-0.00012308,0.00029001,-0.00124844,-0.00020
 760,-0.00014288,0.00042281,0.00012540,-0.00018627,0.00042259,-0.000013
 21,0.00005997,-0.00005962,0.00007799,0.00006248,-0.00005003,-0.1094848
 7,-0.05027346,0.01581171,0.08443216,-0.00464444,0.00293823,0.00339982,
 -0.00203480,0.00101569,0.00214806,0.00092766,0.00062805,-0.00107513,-0
 .00166590,-0.00702110,-0.00040781,-0.00022187,-0.00038569,0.00028349,0
 .01031107,0.00053455,-0.00930009,-0.00162284,0.00016432,0.00161725,-0.
 00052555,-0.00002057,0.00029594,0.00065940,0.00043262,0.00045444,-0.03
 604566,-0.06422441,0.01142444,-0.00030683,-0.00015505,0.00001395,-0.00
 036249,-0.00077402,0.00243672,-0.00034541,-0.00021028,0.00030895,0.000
 11158,0.00042011,-0.00308513,-0.00063844,-0.00021123,0.00115935,-0.000
 01607,-0.00032056,0.00104284,-0.00002855,0.00009937,-0.00013700,0.0001
 8920,0.00007927,-0.00010369,-0.03210969,-0.51565740,-0.08600761,0.0421
 8670,0.63492049,0.00451680,0.00113016,0.00231477,0.00017805,0.00204964
 ,0.00004787,-0.00063842,-0.00032081,-0.00057816,-0.00046898,-0.0003151
 2,0.00055564,0.00009931,-0.00000639,0.00004342,0.00334976,0.00107087,-
 0.00215248,-0.00037757,0.00111131,0.00034305,0.00127092,-0.00101725,-0
 .00055047,0.00030686,0.00047640,0.00034375,0.00141644,0.01126531,0.017
 65010,0.00005404,0.00020988,-0.00002360,0.00007951,0.00027771,-0.00018
 673,-0.00069696,0.00006276,0.00027702,0.00001520,-0.00011152,0.0002721
 2,0.00006955,0.00008645,-0.00009697,-0.00000340,0.00010157,-0.00003856
 ,-0.00000936,-0.00005045,0.00001718,-0.00003805,-0.00004217,0.00000656
 ,0.02050939,-0.06972348,-0.11454340,-0.03822144,0.12121554,0.09702796,
 0.00352753,0.00239407,-0.00219277,-0.00448828,0.00318476,0.00495292,0.
 00051905,0.00055282,-0.00100792,-0.00430664,-0.00739187,-0.00038640,-0
 .00029371,-0.00039170,0.00018216,0.00840913,-0.00471818,-0.00410267,-0
 .00013178,0.00012706,-0.00008092,-0.00316458,0.00025054,0.00082619,-0.
 00065712,-0.00160862,-0.00004693,-0.03494509,0.01341279,0.05207893,-0.
 00015232,-0.00035244,0.00011988,0.00014325,-0.00061871,0.00115623,0.00
 100613,-0.00033178,0.00019444,-0.00015329,0.00053931,-0.00177553,-0.00
 029518,-0.00026813,0.00057749,0.00019138,-0.00036518,0.00058560,-0.000
 01176,0.00011513,-0.00009222,0.00013294,0.00012874,-0.00007755,-0.2490
 6610,0.10155792,0.18562158,0.02372173,0.02637635,0.00914612,0.25920913
 ,-0.00056125,-0.00003726,0.00038078,0.00341051,-0.00080111,-0.00316779
 ,0.00020079,0.00012235,0.00031011,-0.00102105,0.00436588,0.00264888,0.
 00020970,0.00010156,-0.00013243,-0.00501228,-0.00197696,0.00273992,-0.
 00073345,0.00015161,0.00072284,-0.00105875,-0.00755093,0.00009408,0.00
 056431,-0.00040276,0.00179768,0.00511316,0.01694093,-0.00500995,-0.000
 01715,0.00028294,-0.00019802,-0.00028632,0.00009983,0.00044612,-0.0022
 7064,-0.00064794,0.00134819,0.00006337,-0.00007615,-0.00042988,-0.0001
 1743,0.00002653,0.00020128,-0.00007723,0.00010938,0.00015547,-0.000006
 01,-0.00001955,-0.00001557,0.00001824,-0.00002569,-0.00001439,0.082398
 10,-0.19458211,-0.10688501,0.05178978,-0.05294917,-0.06816746,-0.13027
 992,0.23683070,-0.00305085,-0.00232250,0.00257908,0.00510101,-0.003178
 97,-0.00510481,-0.00060979,-0.00042842,0.00070321,0.00146588,0.0084460
 8,-0.00149326,0.00033117,0.00036356,-0.00017001,-0.00446667,0.00257942
 ,0.00944910,-0.00031808,0.00000700,-0.00003451,0.00051822,-0.00131601,
 -0.00305691,0.00069794,0.00157301,0.00190467,0.04980183,-0.01284910,-0
 .03027744,0.00014413,0.00039966,-0.00015772,-0.00005974,0.00062868,-0.
 00077921,-0.00029091,-0.00012506,0.00141116,-0.00008669,-0.00049270,0.
 00141378,0.00030262,0.00025946,-0.00048153,-0.00001495,0.00037719,-0.0
 0044193,-0.00000351,-0.00012071,0.00008424,-0.00013026,-0.00013160,0.0
 0005378,0.18083483,-0.12419785,-0.27353910,0.01576131,-0.04512747,-0.0
 0031740,-0.24600223,0.17390902,0.29874138,-0.01615212,0.00421550,0.005
 39107,0.00121897,0.00205422,-0.00297846,0.00002040,0.00007439,-0.00005
 486,-0.00000162,0.00126430,0.00118661,0.00002758,-0.00002807,-0.000012
 94,-0.00108876,-0.00030484,0.00071823,0.00002700,0.00000802,0.00004597
 ,-0.31020871,-0.00619790,-0.06697644,-0.00235944,-0.00143762,-0.001210
 52,0.00058833,-0.00176465,-0.00020616,-0.00022589,-0.00001704,0.000010
 94,0.00004203,-0.00011157,0.00025145,-0.00745392,-0.00020651,-0.002954
 45,-0.00028034,0.00011173,-0.00024691,0.00004022,-0.00003687,0.0000436
 7,0.00019907,-0.00004952,0.00003677,-0.00000655,0.00001116,-0.00000084
 ,0.00001397,0.00001125,-0.00001531,-0.00115780,0.00062125,0.00113938,0
 .00015755,-0.00019342,-0.00055776,0.00080556,-0.00232649,0.00007473,0.
 33579446,0.02781656,-0.00153122,-0.00136920,-0.00162755,-0.00181245,0.
 00348036,0.00013050,-0.00058641,0.00013254,-0.00022416,-0.00297677,-0.
 00191895,0.00029982,0.00008844,-0.00007813,0.00205654,0.00076228,-0.00
 196064,-0.00009624,0.00002854,-0.00012011,-0.01281167,-0.04819099,-0.0
 0254631,0.00891713,0.00055980,0.00342922,-0.00035327,0.00100409,0.0018
 6581,-0.00040515,0.00020630,-0.00004783,-0.00003049,0.00024299,0.00019
 909,-0.02833994,0.00225644,-0.00805815,-0.00019032,-0.00000992,-0.0001
 3020,0.00003873,0.00000572,0.00003240,0.00012691,0.00001497,0.00004170
 ,-0.00000855,-0.00000979,0.00000860,-0.00000144,-0.00001241,-0.0000070
 5,0.00319910,-0.00155630,-0.00299668,-0.00048620,0.00069678,0.00069706
 ,-0.00231299,0.00003792,0.00174733,0.00430268,0.05078199,0.02828396,-0
 .00163426,0.00108111,0.00056163,-0.00285774,0.00162954,-0.00009743,-0.
 00021438,0.00005361,0.00001984,-0.00061807,-0.00189383,0.00002733,0.00
 009647,-0.00000742,0.00053294,0.00046955,-0.00055861,-0.00008673,-0.00
 000964,-0.00003477,-0.07153185,-0.00166895,-0.06590164,-0.03028288,-0.
 00136022,-0.00615529,-0.00005218,0.00096545,0.00091951,0.00012119,0.00
 009327,-0.00003813,-0.00004012,0.00014367,-0.00017927,0.00633630,0.000
 28430,0.00101204,0.00029526,-0.00011966,0.00021094,-0.00005705,0.00003
 597,-0.00001600,-0.00021644,0.00003659,-0.00002471,0.00000709,-0.00001
 011,-0.00000148,-0.00001174,-0.00001101,0.00001263,-0.00054082,0.00007
 034,0.00106088,0.00009226,-0.00055687,-0.00041167,0.00032361,-0.000733
 87,-0.00048657,0.06631581,0.00759915,0.06972915\\0.00000136,0.00000638
 ,0.00000312,-0.00000083,-0.00000332,-0.00000452,0.00001000,-0.00000188
 ,-0.00000922,-0.00000148,0.00000219,0.00000019,0.00000364,-0.00000206,
 0.00000212,-0.00000375,-0.00000730,0.00000337,-0.00000568,0.00000281,-
 0.00000039,0.00000343,-0.00000147,-0.00000468,0.00000267,0.00000151,0.
 00000361,-0.00000547,0.00000149,-0.00000132,0.00000075,0.00000178,-0.0
 0000113,0.00000245,-0.00000379,0.00002177,0.00000191,0.00000149,0.0000
 0047,-0.00002121,-0.00000114,-0.00001592,0.00000499,-0.00000105,-0.000
 01466,0.00001197,-0.00000162,0.00000645,-0.00000178,-0.00000171,0.0000
 0007,0.00000219,-0.00000634,0.00000633,-0.00000504,0.00000227,0.000004
 03,-0.00000433,0.00000300,-0.00000007,-0.00000024,0.00000349,-0.000000
 32,0.00000447,0.00000527,0.00000070\\\@


 THERE ONCE WAS A GIRL NAMED IRENE,
 WHO LIVED ON DISTILLED KEROSENE,
      BUT SHE STARTED ABSORBIN'
      A NEW HYDROCARBON,
 AND SINCE THEN HAS NEVER BENZENE.
 Job cpu time:       0 days  0 hours 19 minutes 44.6 seconds.
 File lengths (MBytes):  RWF=    166 Int=      0 D2E=      0 Chk=      6 Scr=      1
 Normal termination of Gaussian 09 at Fri Aug 20 16:18:53 2021.
