 Entering Gaussian System, Link 0=g09
 Input=B3LYP6-31G.ECIBIB01.gjf
 Output=B3LYP6-31G.ECIBIB01.log
 Initial command:
 /public/home/users/caep010/software/Gaussian09/g09/l1.exe "/public/home/users/caep010/.cache/gau_scr/Gau-122507.inp" -scrdir="/public/home/users/caep010/.cache/gau_scr/"
 Entering Link 1 = /public/home/users/caep010/software/Gaussian09/g09/l1.exe PID=    122509.
  
 Copyright (c) 1988,1990,1992,1993,1995,1998,2003,2009,2015,
            Gaussian, Inc.  All Rights Reserved.
  
 This is part of the Gaussian(R) 09 program.  It is based on
 the Gaussian(R) 03 system (copyright 2003, Gaussian, Inc.),
 the Gaussian(R) 98 system (copyright 1998, Gaussian, Inc.),
 the Gaussian(R) 94 system (copyright 1995, Gaussian, Inc.),
 the Gaussian 92(TM) system (copyright 1992, Gaussian, Inc.),
 the Gaussian 90(TM) system (copyright 1990, Gaussian, Inc.),
 the Gaussian 88(TM) system (copyright 1988, Gaussian, Inc.),
 the Gaussian 86(TM) system (copyright 1986, Carnegie Mellon
 University), and the Gaussian 82(TM) system (copyright 1983,
 Carnegie Mellon University). Gaussian is a federally registered
 trademark of Gaussian, Inc.
  
 This software contains proprietary and confidential information,
 including trade secrets, belonging to Gaussian, Inc.
  
 This software is provided under written license and may be
 used, copied, transmitted, or stored only in accord with that
 written license.
  
 The following legend is applicable only to US Government
 contracts under FAR:
  
                    RESTRICTED RIGHTS LEGEND
  
 Use, reproduction and disclosure by the US Government is
 subject to restrictions as set forth in subparagraphs (a)
 and (c) of the Commercial Computer Software - Restricted
 Rights clause in FAR 52.227-19.
  
 Gaussian, Inc.
 340 Quinnipiac St., Bldg. 40, Wallingford CT 06492
  
  
 ---------------------------------------------------------------
 Warning -- This program may not be used in any manner that
 competes with the business of Gaussian, Inc. or will provide
 assistance to any competitor of Gaussian, Inc.  The licensee
 of this program is prohibited from giving any competitor of
 Gaussian, Inc. access to this program.  By using this program,
 the user acknowledges that Gaussian, Inc. is engaged in the
 business of creating and licensing software in the field of
 computational chemistry and represents and warrants to the
 licensee that it is not a competitor of Gaussian, Inc. and that
 it will not use this program in any manner prohibited above.
 ---------------------------------------------------------------
  

 Cite this work as:
 Gaussian 09, Revision E.01,
 M. J. Frisch, G. W. Trucks, H. B. Schlegel, G. E. Scuseria, 
 M. A. Robb, J. R. Cheeseman, G. Scalmani, V. Barone, B. Mennucci, 
 G. A. Petersson, H. Nakatsuji, M. Caricato, X. Li, H. P. Hratchian, 
 A. F. Izmaylov, J. Bloino, G. Zheng, J. L. Sonnenberg, M. Hada, 
 M. Ehara, K. Toyota, R. Fukuda, J. Hasegawa, M. Ishida, T. Nakajima, 
 Y. Honda, O. Kitao, H. Nakai, T. Vreven, J. A. Montgomery, Jr., 
 J. E. Peralta, F. Ogliaro, M. Bearpark, J. J. Heyd, E. Brothers, 
 K. N. Kudin, V. N. Staroverov, T. Keith, R. Kobayashi, J. Normand, 
 K. Raghavachari, A. Rendell, J. C. Burant, S. S. Iyengar, J. Tomasi, 
 M. Cossi, N. Rega, J. M. Millam, M. Klene, J. E. Knox, J. B. Cross, 
 V. Bakken, C. Adamo, J. Jaramillo, R. Gomperts, R. E. Stratmann, 
 O. Yazyev, A. J. Austin, R. Cammi, C. Pomelli, J. W. Ochterski, 
 R. L. Martin, K. Morokuma, V. G. Zakrzewski, G. A. Voth, 
 P. Salvador, J. J. Dannenberg, S. Dapprich, A. D. Daniels, 
 O. Farkas, J. B. Foresman, J. V. Ortiz, J. Cioslowski, 
 and D. J. Fox, Gaussian, Inc., Wallingford CT, 2013.
 
 ******************************************
 Gaussian 09:  ES64L-G09RevE.01 30-Nov-2015
                20-Aug-2021 
 ******************************************
 %nproc=32
 Will use up to   32 processors via shared memory.
 %mem=180GB
 -------------------------
 #P OPT Freq B3LYP/6-31G**
 -------------------------
 1/14=-1,18=20,19=15,26=3,38=1/1,3;
 2/9=110,12=2,17=6,18=5,40=1/2;
 3/5=1,6=6,7=101,11=2,16=1,25=1,30=1,71=1,74=-5/1,2,3;
 4//1;
 5/5=2,38=5/2;
 6/7=2,8=2,9=2,10=2,28=1/1;
 7//1,2,3,16;
 1/14=-1,18=20,19=15,26=3/3(2);
 2/9=110/2;
 99//99;
 2/9=110/2;
 3/5=1,6=6,7=101,11=2,16=1,25=1,30=1,71=1,74=-5/1,2,3;
 4/5=5,16=3,69=1/1;
 5/5=2,38=5/2;
 7//1,2,3,16;
 1/14=-1,18=20,19=15,26=3/3(-5);
 2/9=110/2;
 6/7=2,8=2,9=2,10=2,19=2,28=1/1;
 99/9=1/99;
 Leave Link    1 at Fri Aug 20 15:50:34 2021, MaxMem= 24159191040 cpu:         2.4
 (Enter /public/home/users/caep010/software/Gaussian09/g09/l101.exe)
 --------
 ECIBIB01
 --------
 Symbolic Z-matrix:
 Charge =  0 Multiplicity = 1
 C                    -0.1568    8.347     6.4082 
 C                    -1.0541    7.7079    5.5851 
 H                    -1.2857    6.8069    5.725 
 C                    -1.5868    8.4013    4.5205 
 H                    -2.1751    7.9454    3.9526 
 C                    -1.2408    9.7036    4.2991 
 H                    -1.6731    10.1262   3.5592 
 C                    -0.3505    10.3219   5.1181 
 N                     0.3841    7.681     7.5502 
 H                    -0.1321    11.1991   4.9702 
 C                     0.2078    9.6524    6.184 
 H                     0.8718    10.0465   6.8255 
 C                    -0.1541    7.87      8.8788 
 H                    -0.819     7.2658    9.1027 
 H                     0.4931    7.8339    9.5725 
 H                    -0.3699    8.6971    8.9467 
 N                     1.2052    6.6356    7.3472 
 O                     1.5198    5.9583    8.313 
 O                     1.6166    6.4463    6.2041 
 
 NAtoms=     19 NQM=       19 NQMF=       0 NMMI=      0 NMMIF=      0
                NMic=       0 NMicF=      0.
                    Isotopes and Nuclear Properties:
 (Nuclear quadrupole moments (NQMom) in fm**2, nuclear magnetic moments (NMagM)
  in nuclear magnetons)

  Atom         1           2           3           4           5           6           7           8           9          10
 IAtWgt=          12          12           1          12           1          12           1          12          14           1
 AtmWgt=  12.0000000  12.0000000   1.0078250  12.0000000   1.0078250  12.0000000   1.0078250  12.0000000  14.0030740   1.0078250
 NucSpn=           0           0           1           0           1           0           1           0           2           1
 AtZEff=   0.0000000   0.0000000   0.0000000   0.0000000   0.0000000   0.0000000   0.0000000   0.0000000   0.0000000   0.0000000
 NQMom=    0.0000000   0.0000000   0.0000000   0.0000000   0.0000000   0.0000000   0.0000000   0.0000000   2.0440000   0.0000000
 NMagM=    0.0000000   0.0000000   2.7928460   0.0000000   2.7928460   0.0000000   2.7928460   0.0000000   0.4037610   2.7928460
 AtZNuc=   6.0000000   6.0000000   1.0000000   6.0000000   1.0000000   6.0000000   1.0000000   6.0000000   7.0000000   1.0000000

  Atom        11          12          13          14          15          16          17          18          19
 IAtWgt=          12           1          12           1           1           1          14          16          16
 AtmWgt=  12.0000000   1.0078250  12.0000000   1.0078250   1.0078250   1.0078250  14.0030740  15.9949146  15.9949146
 NucSpn=           0           1           0           1           1           1           2           0           0
 AtZEff=   0.0000000   0.0000000   0.0000000   0.0000000   0.0000000   0.0000000   0.0000000   0.0000000   0.0000000
 NQMom=    0.0000000   0.0000000   0.0000000   0.0000000   0.0000000   0.0000000   2.0440000   0.0000000   0.0000000
 NMagM=    0.0000000   2.7928460   0.0000000   2.7928460   2.7928460   2.7928460   0.4037610   0.0000000   0.0000000
 AtZNuc=   6.0000000   1.0000000   6.0000000   1.0000000   1.0000000   1.0000000   7.0000000   8.0000000   8.0000000
 Leave Link  101 at Fri Aug 20 15:50:35 2021, MaxMem= 24159191040 cpu:        10.4
 (Enter /public/home/users/caep010/software/Gaussian09/g09/l103.exe)

 GradGradGradGradGradGradGradGradGradGradGradGradGradGradGradGradGradGrad
 Berny optimization.
 Initialization pass.
                           ----------------------------
                           !    Initial Parameters    !
                           ! (Angstroms and Degrees)  !
 --------------------------                            --------------------------
 ! Name  Definition              Value          Derivative Info.                !
 --------------------------------------------------------------------------------
 ! R1    R(1,2)                  1.3752         estimate D2E/DX2                !
 ! R2    R(1,9)                  1.4284         estimate D2E/DX2                !
 ! R3    R(1,11)                 1.3738         estimate D2E/DX2                !
 ! R4    R(2,3)                  0.9408         estimate D2E/DX2                !
 ! R5    R(2,4)                  1.3777         estimate D2E/DX2                !
 ! R6    R(4,5)                  0.9362         estimate D2E/DX2                !
 ! R7    R(4,6)                  1.3655         estimate D2E/DX2                !
 ! R8    R(6,7)                  0.9555         estimate D2E/DX2                !
 ! R9    R(6,8)                  1.3586         estimate D2E/DX2                !
 ! R10   R(8,10)                 0.916          estimate D2E/DX2                !
 ! R11   R(8,11)                 1.377          estimate D2E/DX2                !
 ! R12   R(9,13)                 1.4459         estimate D2E/DX2                !
 ! R13   R(9,17)                 1.3447         estimate D2E/DX2                !
 ! R14   R(11,12)                1.0039         estimate D2E/DX2                !
 ! R15   R(13,14)                0.9259         estimate D2E/DX2                !
 ! R16   R(13,15)                0.9494         estimate D2E/DX2                !
 ! R17   R(13,16)                0.8575         estimate D2E/DX2                !
 ! R18   R(17,18)                1.2209         estimate D2E/DX2                !
 ! R19   R(17,19)                1.2295         estimate D2E/DX2                !
 ! A1    A(2,1,9)              120.5929         estimate D2E/DX2                !
 ! A2    A(2,1,11)             121.1381         estimate D2E/DX2                !
 ! A3    A(9,1,11)             118.2311         estimate D2E/DX2                !
 ! A4    A(1,2,3)              121.1133         estimate D2E/DX2                !
 ! A5    A(1,2,4)              118.7456         estimate D2E/DX2                !
 ! A6    A(3,2,4)              120.1175         estimate D2E/DX2                !
 ! A7    A(2,4,5)              117.8166         estimate D2E/DX2                !
 ! A8    A(2,4,6)              120.4856         estimate D2E/DX2                !
 ! A9    A(5,4,6)              121.6878         estimate D2E/DX2                !
 ! A10   A(4,6,7)              115.6404         estimate D2E/DX2                !
 ! A11   A(4,6,8)              120.1549         estimate D2E/DX2                !
 ! A12   A(7,6,8)              124.1968         estimate D2E/DX2                !
 ! A13   A(6,8,10)             119.6531         estimate D2E/DX2                !
 ! A14   A(6,8,11)             120.7355         estimate D2E/DX2                !
 ! A15   A(10,8,11)            119.5992         estimate D2E/DX2                !
 ! A16   A(1,9,13)             122.1915         estimate D2E/DX2                !
 ! A17   A(1,9,17)             118.2296         estimate D2E/DX2                !
 ! A18   A(13,9,17)            117.8802         estimate D2E/DX2                !
 ! A19   A(1,11,8)             118.7332         estimate D2E/DX2                !
 ! A20   A(1,11,12)            116.3787         estimate D2E/DX2                !
 ! A21   A(8,11,12)            124.888          estimate D2E/DX2                !
 ! A22   A(9,13,14)            113.8417         estimate D2E/DX2                !
 ! A23   A(9,13,15)            114.3734         estimate D2E/DX2                !
 ! A24   A(9,13,16)            107.0093         estimate D2E/DX2                !
 ! A25   A(14,13,15)           106.7398         estimate D2E/DX2                !
 ! A26   A(14,13,16)           115.4398         estimate D2E/DX2                !
 ! A27   A(15,13,16)            98.6487         estimate D2E/DX2                !
 ! A28   A(9,17,18)            117.9833         estimate D2E/DX2                !
 ! A29   A(9,17,19)            117.668          estimate D2E/DX2                !
 ! A30   A(18,17,19)           124.3216         estimate D2E/DX2                !
 ! D1    D(9,1,2,3)             -3.9651         estimate D2E/DX2                !
 ! D2    D(9,1,2,4)            177.7998         estimate D2E/DX2                !
 ! D3    D(11,1,2,3)           178.3128         estimate D2E/DX2                !
 ! D4    D(11,1,2,4)             0.0777         estimate D2E/DX2                !
 ! D5    D(2,1,9,13)           -97.6304         estimate D2E/DX2                !
 ! D6    D(2,1,9,17)            67.1952         estimate D2E/DX2                !
 ! D7    D(11,1,9,13)           80.1567         estimate D2E/DX2                !
 ! D8    D(11,1,9,17)         -115.0177         estimate D2E/DX2                !
 ! D9    D(2,1,11,8)             0.4498         estimate D2E/DX2                !
 ! D10   D(2,1,11,12)         -179.6411         estimate D2E/DX2                !
 ! D11   D(9,1,11,8)          -177.3247         estimate D2E/DX2                !
 ! D12   D(9,1,11,12)            2.5844         estimate D2E/DX2                !
 ! D13   D(1,2,4,5)            178.0727         estimate D2E/DX2                !
 ! D14   D(1,2,4,6)             -0.7918         estimate D2E/DX2                !
 ! D15   D(3,2,4,5)             -0.1804         estimate D2E/DX2                !
 ! D16   D(3,2,4,6)           -179.045          estimate D2E/DX2                !
 ! D17   D(2,4,6,7)           -178.0432         estimate D2E/DX2                !
 ! D18   D(2,4,6,8)              0.9726         estimate D2E/DX2                !
 ! D19   D(5,4,6,7)              3.137          estimate D2E/DX2                !
 ! D20   D(5,4,6,8)           -177.8473         estimate D2E/DX2                !
 ! D21   D(4,6,8,10)          -179.1563         estimate D2E/DX2                !
 ! D22   D(4,6,8,11)            -0.4294         estimate D2E/DX2                !
 ! D23   D(7,6,8,10)            -0.2291         estimate D2E/DX2                !
 ! D24   D(7,6,8,11)           178.4977         estimate D2E/DX2                !
 ! D25   D(6,8,11,1)            -0.2763         estimate D2E/DX2                !
 ! D26   D(6,8,11,12)          179.823          estimate D2E/DX2                !
 ! D27   D(10,8,11,1)          178.4513         estimate D2E/DX2                !
 ! D28   D(10,8,11,12)          -1.4494         estimate D2E/DX2                !
 ! D29   D(1,9,13,14)           90.7638         estimate D2E/DX2                !
 ! D30   D(1,9,13,15)         -146.1482         estimate D2E/DX2                !
 ! D31   D(1,9,13,16)          -38.0145         estimate D2E/DX2                !
 ! D32   D(17,9,13,14)         -74.1122         estimate D2E/DX2                !
 ! D33   D(17,9,13,15)          48.9758         estimate D2E/DX2                !
 ! D34   D(17,9,13,16)         157.1095         estimate D2E/DX2                !
 ! D35   D(1,9,17,18)         -170.2392         estimate D2E/DX2                !
 ! D36   D(1,9,17,19)           11.5742         estimate D2E/DX2                !
 ! D37   D(13,9,17,18)          -4.7526         estimate D2E/DX2                !
 ! D38   D(13,9,17,19)         177.0608         estimate D2E/DX2                !
 --------------------------------------------------------------------------------
 Trust Radius=3.00D-01 FncErr=1.00D-07 GrdErr=1.00D-06
 Number of steps in this run=     97 maximum allowed number of steps=    114.
 GradGradGradGradGradGradGradGradGradGradGradGradGradGradGradGradGradGrad

 Leave Link  103 at Fri Aug 20 15:50:35 2021, MaxMem= 24159191040 cpu:         0.4
 (Enter /public/home/users/caep010/software/Gaussian09/g09/l202.exe)
                          Input orientation:                          
 ---------------------------------------------------------------------
 Center     Atomic      Atomic             Coordinates (Angstroms)
 Number     Number       Type             X           Y           Z
 ---------------------------------------------------------------------
      1          6           0       -0.156800    8.347000    6.408200
      2          6           0       -1.054100    7.707900    5.585100
      3          1           0       -1.285700    6.806900    5.725000
      4          6           0       -1.586800    8.401300    4.520500
      5          1           0       -2.175100    7.945400    3.952600
      6          6           0       -1.240800    9.703600    4.299100
      7          1           0       -1.673100   10.126200    3.559200
      8          6           0       -0.350500   10.321900    5.118100
      9          7           0        0.384100    7.681000    7.550200
     10          1           0       -0.132100   11.199100    4.970200
     11          6           0        0.207800    9.652400    6.184000
     12          1           0        0.871800   10.046500    6.825500
     13          6           0       -0.154100    7.870000    8.878800
     14          1           0       -0.819000    7.265800    9.102700
     15          1           0        0.493100    7.833900    9.572500
     16          1           0       -0.369900    8.697100    8.946700
     17          7           0        1.205200    6.635600    7.347200
     18          8           0        1.519800    5.958300    8.313000
     19          8           0        1.616600    6.446300    6.204100
 ---------------------------------------------------------------------
                    Distance matrix (angstroms):
                    1          2          3          4          5
     1  C    0.000000
     2  C    1.375169   0.000000
     3  H    2.028074   0.940751   0.000000
     4  C    2.368810   1.377660   2.020790   0.000000
     5  H    3.203871   1.994518   2.286617   0.936190   0.000000
     6  C    2.731981   2.381485   3.228944   1.365547   2.020952
     7  H    3.685311   3.214904   3.982276   1.976569   2.272148
     8  C    2.366877   2.747023   3.687567   2.360989   3.214857
     9  N    1.428388   2.435315   2.623669   3.685425   4.422911
    10  H    3.194202   3.662876   4.603470   3.185289   3.974408
    11  C    1.373779   2.394192   3.246243   2.748285   3.683912
    12  H    2.029891   3.273642   4.044863   3.750256   4.685272
    13  C    2.516227   3.418294   3.515274   4.618408   5.325183
    14  H    2.977891   3.553060   3.440531   4.782827   5.368835
    15  H    3.270846   4.278909   4.361435   5.492780   6.222138
    16  H    2.571374   3.570294   3.845893   4.599955   5.363286
    17  N    2.380264   3.059291   2.977492   4.347780   4.966419
    18  O    3.484988   4.138538   3.910076   5.477433   6.050945
    19  O    2.607540   3.017853   2.963598   4.113187   4.657633
                    6          7          8          9         10
     6  C    0.000000
     7  H    0.955472   0.000000
     8  C    1.358562   2.053713   0.000000
     9  N    4.159430   5.112647   3.664574   0.000000
    10  H    1.978917   2.348769   0.915998   4.393164   0.000000
    11  C    2.377795   3.263717   1.376979   2.404995   1.995275
    12  H    3.311096   4.141447   2.117800   2.521633   2.403839
    13  C    5.051402   5.974608   4.493690   1.445876   5.134252
    14  H    5.403273   6.296171   5.043439   2.007510   5.746324
    15  H    5.857554   6.790202   5.171410   2.030999   5.735557
    16  H    4.834428   5.724143   4.159150   1.884459   4.704158
    17  N    4.968546   5.900665   4.580163   1.344721   5.316393
    18  O    6.144882   7.082698   5.722448   2.199858   6.431879
    19  O    4.733261   5.599936   4.479861   2.203526   5.212444
                   11         12         13         14         15
    11  C    0.000000
    12  H    1.003859   0.000000
    13  C    3.251133   3.163173   0.000000
    14  H    3.907555   3.971994   0.925895   0.000000
    15  H    3.856199   3.547537   0.949416   1.505010   0.000000
    16  H    2.979739   2.803959   0.857481   1.508193   1.371681
    17  N    3.383626   3.466636   2.391075   2.752511   2.625827
    18  O    4.460982   4.398402   2.603203   2.793415   2.481598
    19  O    3.502028   3.728579   3.509462   3.873707   3.812323
                   16         17         18         19
    16  H    0.000000
    17  N    3.047806   0.000000
    18  O    3.387265   1.220851   0.000000
    19  O    4.066219   1.229537   2.166789   0.000000
 Stoichiometry    C7H8N2O2
 Framework group  C1[X(C7H8N2O2)]
 Deg. of freedom    51
 Full point group                 C1      NOp   1
 Largest Abelian subgroup         C1      NOp   1
 Largest concise Abelian subgroup C1      NOp   1
                         Standard orientation:                         
 ---------------------------------------------------------------------
 Center     Atomic      Atomic             Coordinates (Angstroms)
 Number     Number       Type             X           Y           Z
 ---------------------------------------------------------------------
      1          6           0       -0.346263    0.202051    0.054237
      2          6           0       -0.911761   -0.729404    0.893101
      3          1           0       -0.381444   -1.247613    1.472095
      4          6           0       -2.275284   -0.920887    0.847425
      5          1           0       -2.643132   -1.577437    1.404276
      6          6           0       -3.049853   -0.186415   -0.004227
      7          1           0       -3.989202   -0.355050    0.041734
      8          6           0       -2.477779    0.728153   -0.830052
      9          7           0        1.056738    0.465978    0.101374
     10          1           0       -3.005065    1.225289   -1.390300
     11          6           0       -1.116468    0.934804   -0.815893
     12          1           0       -0.629166    1.590618   -1.399141
     13          6           0        1.606312    1.581676    0.838765
     14          1           0        1.827781    1.378751    1.714581
     15          1           0        2.377818    1.969953    0.444543
     16          1           0        1.065395    2.239429    0.738544
     17          7           0        1.900165   -0.505091   -0.290966
     18          8           0        3.092435   -0.347759   -0.080686
     19          8           0        1.420725   -1.478493   -0.869229
 ---------------------------------------------------------------------
 Rotational constants (GHZ):      2.5955580      0.7574231      0.6961546
 Leave Link  202 at Fri Aug 20 15:50:35 2021, MaxMem= 24159191040 cpu:         0.4
 (Enter /public/home/users/caep010/software/Gaussian09/g09/l301.exe)
 Standard basis: 6-31G(d,p) (6D, 7F)
 Ernie: Thresh=  0.10000D-02 Tol=  0.10000D-05 Strict=F.
 There are   205 symmetry adapted cartesian basis functions of A   symmetry.
 There are   205 symmetry adapted basis functions of A   symmetry.
   205 basis functions,   364 primitive gaussians,   205 cartesian basis functions
    40 alpha electrons       40 beta electrons
       nuclear repulsion energy       614.6607865386 Hartrees.
 IExCor=  402 DFT=T Ex+Corr=B3LYP ExCW=0 ScaHFX=  0.200000
 ScaDFX=  0.800000  0.720000  1.000000  0.810000 ScalE2=  1.000000  1.000000
 IRadAn=      0 IRanWt=     -1 IRanGd=            0 ICorTp=0 IEmpDi=  4
 NAtoms=   19 NActive=   19 NUniq=   19 SFac= 1.00D+00 NAtFMM=   60 NAOKFM=F Big=F
 Integral buffers will be    131072 words long.
 Raffenetti 2 integral format.
 Two-electron integral symmetry is turned on.
 Leave Link  301 at Fri Aug 20 15:50:35 2021, MaxMem= 24159191040 cpu:         2.3
 (Enter /public/home/users/caep010/software/Gaussian09/g09/l302.exe)
 NPDir=0 NMtPBC=     1 NCelOv=     1 NCel=       1 NClECP=     1 NCelD=      1
         NCelK=      1 NCelE2=     1 NClLst=     1 CellRange=     0.0.
 One-electron integrals computed using PRISM.
 NBasis=   205 RedAO= T EigKep=  3.67D-04  NBF=   205
 NBsUse=   205 1.00D-06 EigRej= -1.00D+00 NBFU=   205
 Precomputing XC quadrature grid using
 IXCGrd= 4 IRadAn=           0 IRanWt=          -1 IRanGd=           0 AccXCQ= 0.00D+00.
 Generated NRdTot=       0 NPtTot=           0 NUsed=           0 NTot=          32
 NSgBfM=   205   205   205   205   205 MxSgAt=    19 MxSgA2=    19.
 Leave Link  302 at Fri Aug 20 15:50:35 2021, MaxMem= 24159191040 cpu:        12.0
 (Enter /public/home/users/caep010/software/Gaussian09/g09/l303.exe)
 DipDrv:  MaxL=1.
 Leave Link  303 at Fri Aug 20 15:50:36 2021, MaxMem= 24159191040 cpu:         0.8
 (Enter /public/home/users/caep010/software/Gaussian09/g09/l401.exe)
 ExpMin= 1.61D-01 ExpMax= 5.48D+03 ExpMxC= 8.25D+02 IAcc=1 IRadAn=         1 AccDes= 0.00D+00
 Harris functional with IExCor=  402 and IRadAn=       1 diagonalized for initial guess.
 HarFok:  IExCor=  402 AccDes= 0.00D+00 IRadAn=         1 IDoV= 1 UseB2=F ITyADJ=14
 ICtDFT=  3500011 ScaDFX=  1.000000  1.000000  1.000000  1.000000
 FoFCou: FMM=F IPFlag=           0 FMFlag=      100000 FMFlg1=           0
         NFxFlg=           0 DoJE=T BraDBF=F KetDBF=T FulRan=T
         wScrn=  0.000000 ICntrl=     500 IOpCl=  0 I1Cent=   200000004 NGrid=           0
         NMat0=    1 NMatS0=      1 NMatT0=    0 NMatD0=    1 NMtDS0=    0 NMtDT0=    0
 Petite list used in FoFCou.
 Harris En= -531.383557205354    
 JPrj=0 DoOrth=F DoCkMO=F.
 Leave Link  401 at Fri Aug 20 15:50:36 2021, MaxMem= 24159191040 cpu:        11.2
 (Enter /public/home/users/caep010/software/Gaussian09/g09/l502.exe)
 Closed shell SCF:
 Using DIIS extrapolation, IDIIS=  1040.
 Integral symmetry usage will be decided dynamically.
 Keep R1 ints in memory in canonical form, NReq=227455701.
 IVT=      152726 IEndB=      152726 NGot= 24159191040 MDV= 23936106145
 LenX= 23936106145 LenY= 23936063679
 Requested convergence on RMS density matrix=1.00D-08 within 128 cycles.
 Requested convergence on MAX density matrix=1.00D-06.
 Requested convergence on             energy=1.00D-06.
 No special actions if energy rises.
 FoFCou: FMM=F IPFlag=           0 FMFlag=           0 FMFlg1=           0
         NFxFlg=           0 DoJE=F BraDBF=F KetDBF=F FulRan=T
         wScrn=  0.000000 ICntrl=     600 IOpCl=  0 I1Cent=           0 NGrid=           0
         NMat0=    1 NMatS0=  21115 NMatT0=    0 NMatD0=    1 NMtDS0=    0 NMtDT0=    0
 Symmetry not used in FoFCou.
 Integral accuracy reduced to 1.0D-05 until final iterations.

 Cycle   1  Pass 0  IDiag  1:
 E= -530.752033982595    
 DIIS: error= 3.80D-02 at cycle   1 NSaved=   1.
 NSaved= 1 IEnMin= 1 EnMin= -530.752033982595     IErMin= 1 ErrMin= 3.80D-02
 ErrMax= 3.80D-02  0.00D+00 EMaxC= 1.00D-01 BMatC= 5.28D-01 BMatP= 5.28D-01
 IDIUse=3 WtCom= 6.20D-01 WtEn= 3.80D-01
 Coeff-Com:  0.100D+01
 Coeff-En:   0.100D+01
 Coeff:      0.100D+01
 Gap=     0.427 Goal=   None    Shift=    0.000
 GapD=    0.427 DampG=2.000 DampE=0.500 DampFc=1.0000 IDamp=-1.
 RMSDP=7.89D-03 MaxDP=2.80D-01              OVMax= 2.47D-01

 Cycle   2  Pass 0  IDiag  1:
 E= -530.096187756687     Delta-E=        0.655846225908 Rises=F Damp=F
 DIIS: error= 6.57D-02 at cycle   2 NSaved=   2.
 NSaved= 2 IEnMin= 1 EnMin= -530.752033982595     IErMin= 1 ErrMin= 3.80D-02
 ErrMax= 6.57D-02  0.00D+00 EMaxC= 1.00D-01 BMatC= 1.49D+00 BMatP= 5.28D-01
 IDIUse=2 WtCom= 0.00D+00 WtEn= 1.00D+00
 Coeff-En:   0.689D+00 0.311D+00
 Coeff:      0.689D+00 0.311D+00
 Gap=     0.177 Goal=   None    Shift=    0.000
 RMSDP=5.07D-03 MaxDP=2.39D-01 DE= 6.56D-01 OVMax= 1.99D-01

 Cycle   3  Pass 0  IDiag  1:
 E= -531.172672478022     Delta-E=       -1.076484721335 Rises=F Damp=F
 DIIS: error= 1.44D-02 at cycle   3 NSaved=   3.
 NSaved= 3 IEnMin= 3 EnMin= -531.172672478022     IErMin= 3 ErrMin= 1.44D-02
 ErrMax= 1.44D-02  0.00D+00 EMaxC= 1.00D-01 BMatC= 3.72D-02 BMatP= 5.28D-01
 IDIUse=3 WtCom= 8.56D-01 WtEn= 1.44D-01
 Coeff-Com:  0.278D+00 0.115D+00 0.608D+00
 Coeff-En:   0.000D+00 0.000D+00 0.100D+01
 Coeff:      0.238D+00 0.981D-01 0.664D+00
 Gap=     0.243 Goal=   None    Shift=    0.000
 RMSDP=1.47D-03 MaxDP=4.58D-02 DE=-1.08D+00 OVMax= 6.17D-02

 Cycle   4  Pass 0  IDiag  1:
 E= -531.198131680151     Delta-E=       -0.025459202129 Rises=F Damp=F
 DIIS: error= 4.80D-03 at cycle   4 NSaved=   4.
 NSaved= 4 IEnMin= 4 EnMin= -531.198131680151     IErMin= 4 ErrMin= 4.80D-03
 ErrMax= 4.80D-03  0.00D+00 EMaxC= 1.00D-01 BMatC= 1.26D-02 BMatP= 3.72D-02
 IDIUse=3 WtCom= 9.52D-01 WtEn= 4.80D-02
 Coeff-Com:  0.885D-01 0.166D-01 0.398D+00 0.496D+00
 Coeff-En:   0.000D+00 0.000D+00 0.212D+00 0.788D+00
 Coeff:      0.843D-01 0.158D-01 0.390D+00 0.510D+00
 Gap=     0.235 Goal=   None    Shift=    0.000
 RMSDP=6.67D-04 MaxDP=2.69D-02 DE=-2.55D-02 OVMax= 3.40D-02

 Cycle   5  Pass 0  IDiag  1:
 E= -531.208735683393     Delta-E=       -0.010604003242 Rises=F Damp=F
 DIIS: error= 1.47D-03 at cycle   5 NSaved=   5.
 NSaved= 5 IEnMin= 5 EnMin= -531.208735683393     IErMin= 5 ErrMin= 1.47D-03
 ErrMax= 1.47D-03  0.00D+00 EMaxC= 1.00D-01 BMatC= 1.06D-03 BMatP= 1.26D-02
 IDIUse=3 WtCom= 9.85D-01 WtEn= 1.47D-02
 Coeff-Com:  0.181D-01-0.518D-02 0.158D+00 0.294D+00 0.535D+00
 Coeff-En:   0.000D+00 0.000D+00 0.000D+00 0.000D+00 0.100D+01
 Coeff:      0.178D-01-0.510D-02 0.155D+00 0.290D+00 0.542D+00
 Gap=     0.224 Goal=   None    Shift=    0.000
 RMSDP=1.61D-04 MaxDP=5.11D-03 DE=-1.06D-02 OVMax= 1.00D-02

 Cycle   6  Pass 0  IDiag  1:
 E= -531.209494738881     Delta-E=       -0.000759055488 Rises=F Damp=F
 DIIS: error= 5.84D-04 at cycle   6 NSaved=   6.
 NSaved= 6 IEnMin= 6 EnMin= -531.209494738881     IErMin= 6 ErrMin= 5.84D-04
 ErrMax= 5.84D-04  0.00D+00 EMaxC= 1.00D-01 BMatC= 1.22D-04 BMatP= 1.06D-03
 IDIUse=3 WtCom= 9.94D-01 WtEn= 5.84D-03
 Coeff-Com:  0.500D-02-0.435D-02 0.670D-01 0.135D+00 0.332D+00 0.465D+00
 Coeff-En:   0.000D+00 0.000D+00 0.000D+00 0.000D+00 0.574D-01 0.943D+00
 Coeff:      0.497D-02-0.432D-02 0.666D-01 0.134D+00 0.331D+00 0.468D+00
 Gap=     0.225 Goal=   None    Shift=    0.000
 RMSDP=6.14D-05 MaxDP=3.04D-03 DE=-7.59D-04 OVMax= 5.85D-03

 Cycle   7  Pass 0  IDiag  1:
 E= -531.209572865452     Delta-E=       -0.000078126571 Rises=F Damp=F
 DIIS: error= 2.78D-04 at cycle   7 NSaved=   7.
 NSaved= 7 IEnMin= 7 EnMin= -531.209572865452     IErMin= 7 ErrMin= 2.78D-04
 ErrMax= 2.78D-04  0.00D+00 EMaxC= 1.00D-01 BMatC= 2.72D-05 BMatP= 1.22D-04
 IDIUse=3 WtCom= 9.97D-01 WtEn= 2.78D-03
 Coeff-Com:  0.109D-02-0.245D-02 0.257D-01 0.536D-01 0.166D+00 0.343D+00
 Coeff-Com:  0.412D+00
 Coeff-En:   0.000D+00 0.000D+00 0.000D+00 0.000D+00 0.000D+00 0.181D+00
 Coeff-En:   0.819D+00
 Coeff:      0.108D-02-0.244D-02 0.256D-01 0.534D-01 0.166D+00 0.343D+00
 Coeff:      0.413D+00
 Gap=     0.224 Goal=   None    Shift=    0.000
 RMSDP=2.34D-05 MaxDP=9.64D-04 DE=-7.81D-05 OVMax= 1.93D-03

 Cycle   8  Pass 0  IDiag  1:
 E= -531.209593134847     Delta-E=       -0.000020269395 Rises=F Damp=F
 DIIS: error= 5.25D-05 at cycle   8 NSaved=   8.
 NSaved= 8 IEnMin= 8 EnMin= -531.209593134847     IErMin= 8 ErrMin= 5.25D-05
 ErrMax= 5.25D-05  0.00D+00 EMaxC= 1.00D-01 BMatC= 1.10D-06 BMatP= 2.72D-05
 IDIUse=1 WtCom= 1.00D+00 WtEn= 0.00D+00
 Coeff-Com:  0.757D-04-0.862D-03 0.651D-02 0.135D-01 0.563D-01 0.137D+00
 Coeff-Com:  0.224D+00 0.563D+00
 Coeff:      0.757D-04-0.862D-03 0.651D-02 0.135D-01 0.563D-01 0.137D+00
 Coeff:      0.224D+00 0.563D+00
 Gap=     0.224 Goal=   None    Shift=    0.000
 RMSDP=6.71D-06 MaxDP=2.10D-04 DE=-2.03D-05 OVMax= 4.45D-04

 Initial convergence to 1.0D-05 achieved.  Increase integral accuracy.
 Cycle   9  Pass 1  IDiag  1:
 E= -531.209579795806     Delta-E=        0.000013339041 Rises=F Damp=F
 DIIS: error= 3.18D-05 at cycle   1 NSaved=   1.
 NSaved= 1 IEnMin= 1 EnMin= -531.209579795806     IErMin= 1 ErrMin= 3.18D-05
 ErrMax= 3.18D-05  0.00D+00 EMaxC= 1.00D-01 BMatC= 1.69D-07 BMatP= 1.69D-07
 IDIUse=1 WtCom= 1.00D+00 WtEn= 0.00D+00
 Coeff-Com:  0.100D+01
 Coeff:      0.100D+01
 Gap=     0.224 Goal=   None    Shift=    0.000
 RMSDP=6.71D-06 MaxDP=2.10D-04 DE= 1.33D-05 OVMax= 3.84D-04

 Cycle  10  Pass 1  IDiag  1:
 E= -531.209579477298     Delta-E=        0.000000318508 Rises=F Damp=F
 DIIS: error= 6.23D-05 at cycle   2 NSaved=   2.
 NSaved= 2 IEnMin= 1 EnMin= -531.209579795806     IErMin= 1 ErrMin= 3.18D-05
 ErrMax= 6.23D-05  0.00D+00 EMaxC= 1.00D-01 BMatC= 4.68D-07 BMatP= 1.69D-07
 IDIUse=1 WtCom= 1.00D+00 WtEn= 0.00D+00
 Coeff-Com:  0.635D+00 0.365D+00
 Coeff:      0.635D+00 0.365D+00
 Gap=     0.224 Goal=   None    Shift=    0.000
 RMSDP=3.96D-06 MaxDP=1.08D-04 DE= 3.19D-07 OVMax= 2.77D-04

 Cycle  11  Pass 1  IDiag  1:
 E= -531.209579972222     Delta-E=       -0.000000494924 Rises=F Damp=F
 DIIS: error= 6.80D-06 at cycle   3 NSaved=   3.
 NSaved= 3 IEnMin= 3 EnMin= -531.209579972222     IErMin= 3 ErrMin= 6.80D-06
 ErrMax= 6.80D-06  0.00D+00 EMaxC= 1.00D-01 BMatC= 1.69D-08 BMatP= 1.69D-07
 IDIUse=1 WtCom= 1.00D+00 WtEn= 0.00D+00
 Coeff-Com:  0.194D+00 0.183D+00 0.623D+00
 Coeff:      0.194D+00 0.183D+00 0.623D+00
 Gap=     0.224 Goal=   None    Shift=    0.000
 RMSDP=9.22D-07 MaxDP=4.49D-05 DE=-4.95D-07 OVMax= 6.42D-05

 Cycle  12  Pass 1  IDiag  1:
 E= -531.209579977876     Delta-E=       -0.000000005655 Rises=F Damp=F
 DIIS: error= 5.92D-06 at cycle   4 NSaved=   4.
 NSaved= 4 IEnMin= 4 EnMin= -531.209579977876     IErMin= 4 ErrMin= 5.92D-06
 ErrMax= 5.92D-06  0.00D+00 EMaxC= 1.00D-01 BMatC= 1.08D-08 BMatP= 1.69D-08
 IDIUse=1 WtCom= 1.00D+00 WtEn= 0.00D+00
 Coeff-Com:  0.729D-02 0.629D-01 0.480D+00 0.450D+00
 Coeff:      0.729D-02 0.629D-01 0.480D+00 0.450D+00
 Gap=     0.224 Goal=   None    Shift=    0.000
 RMSDP=4.64D-07 MaxDP=2.45D-05 DE=-5.65D-09 OVMax= 3.52D-05

 Cycle  13  Pass 1  IDiag  1:
 E= -531.209579986225     Delta-E=       -0.000000008349 Rises=F Damp=F
 DIIS: error= 1.16D-06 at cycle   5 NSaved=   5.
 NSaved= 5 IEnMin= 5 EnMin= -531.209579986225     IErMin= 5 ErrMin= 1.16D-06
 ErrMax= 1.16D-06  0.00D+00 EMaxC= 1.00D-01 BMatC= 4.74D-10 BMatP= 1.08D-08
 IDIUse=1 WtCom= 1.00D+00 WtEn= 0.00D+00
 Coeff-Com: -0.814D-02 0.269D-01 0.245D+00 0.270D+00 0.467D+00
 Coeff:     -0.814D-02 0.269D-01 0.245D+00 0.270D+00 0.467D+00
 Gap=     0.224 Goal=   None    Shift=    0.000
 RMSDP=1.25D-07 MaxDP=5.61D-06 DE=-8.35D-09 OVMax= 9.63D-06

 Cycle  14  Pass 1  IDiag  1:
 E= -531.209579986555     Delta-E=       -0.000000000330 Rises=F Damp=F
 DIIS: error= 4.02D-07 at cycle   6 NSaved=   6.
 NSaved= 6 IEnMin= 6 EnMin= -531.209579986555     IErMin= 6 ErrMin= 4.02D-07
 ErrMax= 4.02D-07  0.00D+00 EMaxC= 1.00D-01 BMatC= 7.92D-11 BMatP= 4.74D-10
 IDIUse=1 WtCom= 1.00D+00 WtEn= 0.00D+00
 Coeff-Com: -0.617D-02 0.107D-01 0.104D+00 0.128D+00 0.323D+00 0.441D+00
 Coeff:     -0.617D-02 0.107D-01 0.104D+00 0.128D+00 0.323D+00 0.441D+00
 Gap=     0.224 Goal=   None    Shift=    0.000
 RMSDP=4.47D-08 MaxDP=1.95D-06 DE=-3.30D-10 OVMax= 2.73D-06

 Cycle  15  Pass 1  IDiag  1:
 E= -531.209579986607     Delta-E=       -0.000000000051 Rises=F Damp=F
 DIIS: error= 8.52D-08 at cycle   7 NSaved=   7.
 NSaved= 7 IEnMin= 7 EnMin= -531.209579986607     IErMin= 7 ErrMin= 8.52D-08
 ErrMax= 8.52D-08  0.00D+00 EMaxC= 1.00D-01 BMatC= 3.83D-12 BMatP= 7.92D-11
 IDIUse=1 WtCom= 1.00D+00 WtEn= 0.00D+00
 Coeff-Com: -0.274D-02 0.384D-02 0.365D-01 0.491D-01 0.142D+00 0.234D+00
 Coeff-Com:  0.538D+00
 Coeff:     -0.274D-02 0.384D-02 0.365D-01 0.491D-01 0.142D+00 0.234D+00
 Coeff:      0.538D+00
 Gap=     0.224 Goal=   None    Shift=    0.000
 RMSDP=1.00D-08 MaxDP=3.58D-07 DE=-5.14D-11 OVMax= 5.01D-07

 Cycle  16  Pass 1  IDiag  1:
 E= -531.209579986611     Delta-E=       -0.000000000004 Rises=F Damp=F
 DIIS: error= 3.15D-08 at cycle   8 NSaved=   8.
 NSaved= 8 IEnMin= 8 EnMin= -531.209579986611     IErMin= 8 ErrMin= 3.15D-08
 ErrMax= 3.15D-08  0.00D+00 EMaxC= 1.00D-01 BMatC= 4.74D-13 BMatP= 3.83D-12
 IDIUse=1 WtCom= 1.00D+00 WtEn= 0.00D+00
 Coeff-Com: -0.229D-03 0.637D-04-0.103D-02 0.214D-02 0.125D-01 0.210D-01
 Coeff-Com:  0.260D+00 0.705D+00
 Coeff:     -0.229D-03 0.637D-04-0.103D-02 0.214D-02 0.125D-01 0.210D-01
 Coeff:      0.260D+00 0.705D+00
 Gap=     0.224 Goal=   None    Shift=    0.000
 RMSDP=3.53D-09 MaxDP=1.29D-07 DE=-4.09D-12 OVMax= 1.43D-07

 SCF Done:  E(RB3LYP) =  -531.209579987     A.U. after   16 cycles
            NFock= 16  Conv=0.35D-08     -V/T= 2.0039
 KE= 5.291604091701D+02 PE=-2.468868105976D+03 EE= 7.938373302810D+02
 Leave Link  502 at Fri Aug 20 15:50:45 2021, MaxMem= 24159191040 cpu:       101.0
 (Enter /public/home/users/caep010/software/Gaussian09/g09/l601.exe)
 Copying SCF densities to generalized density rwf, IOpCl= 0 IROHF=0.

 **********************************************************************

            Population analysis using the SCF density.

 **********************************************************************

 Orbital symmetries:
       Occupied  (A) (A) (A) (A) (A) (A) (A) (A) (A) (A) (A) (A)
                 (A) (A) (A) (A) (A) (A) (A) (A) (A) (A) (A) (A)
                 (A) (A) (A) (A) (A) (A) (A) (A) (A) (A) (A) (A)
                 (A) (A) (A) (A)
       Virtual   (A) (A) (A) (A) (A) (A) (A) (A) (A) (A) (A) (A)
                 (A) (A) (A) (A) (A) (A) (A) (A) (A) (A) (A) (A)
                 (A) (A) (A) (A) (A) (A) (A) (A) (A) (A) (A) (A)
                 (A) (A) (A) (A) (A) (A) (A) (A) (A) (A) (A) (A)
                 (A) (A) (A) (A) (A) (A) (A) (A) (A) (A) (A) (A)
                 (A) (A) (A) (A) (A) (A) (A) (A) (A) (A) (A) (A)
                 (A) (A) (A) (A) (A) (A) (A) (A) (A) (A) (A) (A)
                 (A) (A) (A) (A) (A) (A) (A) (A) (A) (A) (A) (A)
                 (A) (A) (A) (A) (A) (A) (A) (A) (A) (A) (A) (A)
                 (A) (A) (A) (A) (A) (A) (A) (A) (A) (A) (A) (A)
                 (A) (A) (A) (A) (A) (A) (A) (A) (A) (A) (A) (A)
                 (A) (A) (A) (A) (A) (A) (A) (A) (A) (A) (A) (A)
                 (A) (A) (A) (A) (A) (A) (A) (A) (A) (A) (A) (A)
                 (A) (A) (A) (A) (A) (A) (A) (A) (A)
 The electronic state is 1-A.
 Alpha  occ. eigenvalues --  -19.15902 -19.15378 -14.58482 -14.41163 -10.23681
 Alpha  occ. eigenvalues --  -10.19333 -10.18701 -10.18561 -10.18278 -10.18207
 Alpha  occ. eigenvalues --  -10.18107  -1.23508  -1.04258  -0.99108  -0.88048
 Alpha  occ. eigenvalues --   -0.79825  -0.78280  -0.77912  -0.67508  -0.64996
 Alpha  occ. eigenvalues --   -0.60555  -0.56275  -0.55129  -0.54672  -0.52971
 Alpha  occ. eigenvalues --   -0.49579  -0.48684  -0.47150  -0.46277  -0.45511
 Alpha  occ. eigenvalues --   -0.44062  -0.38848  -0.38520  -0.37748  -0.31167
 Alpha  occ. eigenvalues --   -0.29365  -0.29195  -0.27027  -0.26743  -0.25474
 Alpha virt. eigenvalues --   -0.03038  -0.01404  -0.01127   0.11080   0.13227
 Alpha virt. eigenvalues --    0.13673   0.15148   0.16103   0.17384   0.18575
 Alpha virt. eigenvalues --    0.19367   0.20358   0.21841   0.23318   0.25448
 Alpha virt. eigenvalues --    0.28405   0.30570   0.32328   0.33273   0.34386
 Alpha virt. eigenvalues --    0.38302   0.44270   0.45998   0.50263   0.51277
 Alpha virt. eigenvalues --    0.51938   0.54501   0.54873   0.57447   0.58360
 Alpha virt. eigenvalues --    0.59204   0.60741   0.61016   0.61760   0.63126
 Alpha virt. eigenvalues --    0.64293   0.64866   0.66860   0.71767   0.72644
 Alpha virt. eigenvalues --    0.74196   0.77841   0.80864   0.83693   0.85167
 Alpha virt. eigenvalues --    0.86184   0.87874   0.88477   0.90511   0.90908
 Alpha virt. eigenvalues --    0.91980   0.92886   0.95331   0.96372   0.97545
 Alpha virt. eigenvalues --    0.99147   0.99749   1.01381   1.02429   1.05128
 Alpha virt. eigenvalues --    1.06353   1.08097   1.09854   1.13895   1.15537
 Alpha virt. eigenvalues --    1.19571   1.19975   1.22986   1.26777   1.31267
 Alpha virt. eigenvalues --    1.32849   1.33827   1.38429   1.39994   1.40555
 Alpha virt. eigenvalues --    1.43174   1.44143   1.48567   1.52335   1.60742
 Alpha virt. eigenvalues --    1.62184   1.64436   1.73063   1.74519   1.76099
 Alpha virt. eigenvalues --    1.80775   1.82601   1.83155   1.84643   1.88108
 Alpha virt. eigenvalues --    1.89673   1.93681   1.95263   1.96706   1.97509
 Alpha virt. eigenvalues --    1.98428   2.00342   2.02934   2.04130   2.05814
 Alpha virt. eigenvalues --    2.06565   2.09164   2.11330   2.13890   2.14955
 Alpha virt. eigenvalues --    2.16546   2.20180   2.20622   2.29247   2.31309
 Alpha virt. eigenvalues --    2.32603   2.35800   2.41984   2.42904   2.46088
 Alpha virt. eigenvalues --    2.47543   2.48615   2.49824   2.51760   2.52381
 Alpha virt. eigenvalues --    2.53462   2.55508   2.58507   2.60434   2.63089
 Alpha virt. eigenvalues --    2.63632   2.67170   2.70078   2.72498   2.74649
 Alpha virt. eigenvalues --    2.77095   2.81376   2.86758   2.88837   2.91901
 Alpha virt. eigenvalues --    2.94710   2.96556   3.02663   3.11234   3.13986
 Alpha virt. eigenvalues --    3.20221   3.24157   3.28392   3.34264   3.36444
 Alpha virt. eigenvalues --    3.56367   3.64653   3.69787   3.70533   3.77652
 Alpha virt. eigenvalues --    3.78577   3.79502   3.89323   3.94657   4.02324
 Alpha virt. eigenvalues --    4.12999   4.14098   4.15019   4.20105   4.25503
 Alpha virt. eigenvalues --    4.27598   4.45403   4.49812   4.54417   4.96376
          Condensed to atoms (all electrons):
               1          2          3          4          5          6
     1  C    4.697008   0.543541  -0.051918   0.004479   0.005874  -0.046307
     2  C    0.543541   4.809540   0.377864   0.521174  -0.045391  -0.034404
     3  H   -0.051918   0.377864   0.666681  -0.054154  -0.010706   0.008402
     4  C    0.004479   0.521174  -0.054154   4.775731   0.375426   0.551973
     5  H    0.005874  -0.045391  -0.010706   0.375426   0.666767  -0.053820
     6  C   -0.046307  -0.034404   0.008402   0.551973  -0.053820   4.747125
     7  H    0.001138   0.007927  -0.000407  -0.053826  -0.010858   0.386272
     8  C   -0.009370  -0.054602   0.000251  -0.013806   0.007308   0.560933
     9  N    0.172876  -0.076147  -0.012297   0.007122  -0.000247   0.000433
    10  H    0.005811   0.002004   0.000050   0.007264  -0.000501  -0.055706
    11  C    0.545497  -0.062871   0.009342  -0.053451   0.001860  -0.034962
    12  H   -0.047208   0.009029  -0.000296   0.000217   0.000041   0.005917
    13  C   -0.037740   0.002288   0.000292  -0.000031   0.000001   0.000032
    14  H    0.003647   0.001287   0.000128  -0.000080   0.000001   0.000000
    15  H    0.002549  -0.000191  -0.000019   0.000009  -0.000000  -0.000001
    16  H    0.005051  -0.000757   0.000038  -0.000036   0.000000  -0.000010
    17  N   -0.038049  -0.006531   0.001208  -0.000020  -0.000005   0.000014
    18  O    0.005064   0.000123  -0.000144  -0.000002  -0.000000   0.000000
    19  O    0.014604   0.002907   0.001674  -0.000541  -0.000006   0.000085
               7          8          9         10         11         12
     1  C    0.001138  -0.009370   0.172876   0.005811   0.545497  -0.047208
     2  C    0.007927  -0.054602  -0.076147   0.002004  -0.062871   0.009029
     3  H   -0.000407   0.000251  -0.012297   0.000050   0.009342  -0.000296
     4  C   -0.053826  -0.013806   0.007122   0.007264  -0.053451   0.000217
     5  H   -0.010858   0.007308  -0.000247  -0.000501   0.001860   0.000041
     6  C    0.386272   0.560933   0.000433  -0.055706  -0.034962   0.005917
     7  H    0.661219  -0.054924   0.000007  -0.010014   0.006790  -0.000238
     8  C   -0.054924   4.754909   0.006332   0.377854   0.522012  -0.045443
     9  N    0.000007   0.006332   7.245510  -0.000278  -0.060254  -0.006167
    10  H   -0.010014   0.377854  -0.000278   0.674107  -0.048418  -0.008407
    11  C    0.006790   0.522012  -0.060254  -0.048418   4.863847   0.368688
    12  H   -0.000238  -0.045443  -0.006167  -0.008407   0.368688   0.641857
    13  C   -0.000000  -0.000204   0.307789  -0.000000  -0.005330   0.000793
    14  H   -0.000000   0.000015  -0.039022  -0.000000  -0.000155   0.000143
    15  H    0.000000  -0.000001  -0.025175  -0.000000   0.000482  -0.000301
    16  H   -0.000000  -0.000126  -0.034163   0.000007   0.002839   0.000400
    17  N    0.000000  -0.000038   0.187507   0.000000   0.000587  -0.000029
    18  O    0.000000   0.000001  -0.130345  -0.000000  -0.000135  -0.000026
    19  O    0.000000  -0.000156  -0.134360  -0.000001  -0.000767   0.000020
              13         14         15         16         17         18
     1  C   -0.037740   0.003647   0.002549   0.005051  -0.038049   0.005064
     2  C    0.002288   0.001287  -0.000191  -0.000757  -0.006531   0.000123
     3  H    0.000292   0.000128  -0.000019   0.000038   0.001208  -0.000144
     4  C   -0.000031  -0.000080   0.000009  -0.000036  -0.000020  -0.000002
     5  H    0.000001   0.000001  -0.000000   0.000000  -0.000005  -0.000000
     6  C    0.000032   0.000000  -0.000001  -0.000010   0.000014   0.000000
     7  H   -0.000000  -0.000000   0.000000  -0.000000   0.000000   0.000000
     8  C   -0.000204   0.000015  -0.000001  -0.000126  -0.000038   0.000001
     9  N    0.307789  -0.039022  -0.025175  -0.034163   0.187507  -0.130345
    10  H   -0.000000  -0.000000  -0.000000   0.000007   0.000000  -0.000000
    11  C   -0.005330  -0.000155   0.000482   0.002839   0.000587  -0.000135
    12  H    0.000793   0.000143  -0.000301   0.000400  -0.000029  -0.000026
    13  C    4.625029   0.419563   0.404264   0.383738  -0.040954   0.009054
    14  H    0.419563   0.564555  -0.042545  -0.037596  -0.003284   0.001891
    15  H    0.404264  -0.042545   0.553598  -0.040099  -0.003460   0.008572
    16  H    0.383738  -0.037596  -0.040099   0.612876   0.006141   0.002386
    17  N   -0.040954  -0.003284  -0.003460   0.006141   5.545312   0.342669
    18  O    0.009054   0.001891   0.008572   0.002386   0.342669   8.313529
    19  O    0.005850  -0.000021   0.000177  -0.000125   0.357373  -0.108584
              19
     1  C    0.014604
     2  C    0.002907
     3  H    0.001674
     4  C   -0.000541
     5  H   -0.000006
     6  C    0.000085
     7  H    0.000000
     8  C   -0.000156
     9  N   -0.134360
    10  H   -0.000001
    11  C   -0.000767
    12  H    0.000020
    13  C    0.005850
    14  H   -0.000021
    15  H    0.000177
    16  H   -0.000125
    17  N    0.357373
    18  O   -0.108584
    19  O    8.307977
 Mulliken charges:
               1
     1  C    0.223453
     2  C    0.003210
     3  H    0.064012
     4  C   -0.067448
     5  H    0.064255
     6  C   -0.035976
     7  H    0.066912
     8  C   -0.050943
     9  N   -0.409122
    10  H    0.056228
    11  C   -0.055602
    12  H    0.081010
    13  C   -0.074435
    14  H    0.131472
    15  H    0.142140
    16  H    0.099435
    17  N    0.651560
    18  O   -0.444054
    19  O   -0.446107
 Sum of Mulliken charges =  -0.00000
 Mulliken charges with hydrogens summed into heavy atoms:
               1
     1  C    0.223453
     2  C    0.067222
     4  C   -0.003193
     6  C    0.030936
     8  C    0.005285
     9  N   -0.409122
    11  C    0.025408
    13  C    0.298612
    17  N    0.651560
    18  O   -0.444054
    19  O   -0.446107
 Electronic spatial extent (au):  <R**2>=           1686.3033
 Charge=             -0.0000 electrons
 Dipole moment (field-independent basis, Debye):
    X=             -3.4278    Y=              3.2002    Z=              1.8277  Tot=              5.0330
 Quadrupole moment (field-independent basis, Debye-Ang):
   XX=            -65.3424   YY=            -60.0827   ZZ=            -60.1094
   XY=              6.8194   XZ=              3.0659   YZ=             -4.3185
 Traceless Quadrupole moment (field-independent basis, Debye-Ang):
   XX=             -3.4975   YY=              1.7621   ZZ=              1.7355
   XY=              6.8194   XZ=              3.0659   YZ=             -4.3185
 Octapole moment (field-independent basis, Debye-Ang**2):
  XXX=            -35.2316  YYY=              7.7112  ZZZ=             -0.0689  XYY=              7.1674
  XXY=              8.3756  XXZ=              2.4904  XZZ=              8.0100  YZZ=              1.1454
  YYZ=              5.3629  XYZ=              4.9440
 Hexadecapole moment (field-independent basis, Debye-Ang**3):
 XXXX=          -1529.8450 YYYY=           -367.5526 ZZZZ=           -233.3191 XXXY=             32.7482
 XXXZ=              9.3406 YYYX=             16.1416 YYYZ=             -2.6596 ZZZX=              1.3392
 ZZZY=             -1.6143 XXYY=           -304.8654 XXZZ=           -282.6287 YYZZ=            -95.9530
 XXYZ=            -14.0661 YYXZ=              7.2516 ZZXY=              2.6334
 N-N= 6.146607865386D+02 E-N=-2.468868107114D+03  KE= 5.291604091701D+02
 No NMR shielding tensors so no spin-rotation constants.
 Leave Link  601 at Fri Aug 20 15:50:45 2021, MaxMem= 24159191040 cpu:        10.7
 (Enter /public/home/users/caep010/software/Gaussian09/g09/l701.exe)
 Compute integral first derivatives.
 ... and contract with generalized density number  0.
 Leave Link  701 at Fri Aug 20 15:50:45 2021, MaxMem= 24159191040 cpu:        11.2
 (Enter /public/home/users/caep010/software/Gaussian09/g09/l702.exe)
 L702 exits ... SP integral derivatives will be done elsewhere.
 Leave Link  702 at Fri Aug 20 15:50:45 2021, MaxMem= 24159191040 cpu:         0.5
 (Enter /public/home/users/caep010/software/Gaussian09/g09/l703.exe)
 Compute integral first derivatives, UseDBF=F ICtDFT=           0.
 Integral derivatives from FoFJK, PRISM(SPDF).
 Calling FoFJK, ICntrl=      2127 FMM=F ISym2X=0 I1Cent= 0 IOpClX= 0 NMat=1 NMatS=1 NMatT=0.
 FoFJK:  IHMeth= 1 ICntrl=    2127 DoSepK=F KAlg= 0 I1Cent=   0 FoldK=F
 IRaf=         0 NMat=   1 IRICut=       1 DoRegI=T DoRafI=F ISym2E= 0.
 FoFCou: FMM=F IPFlag=           0 FMFlag=      100000 FMFlg1=         800
         NFxFlg=           0 DoJE=F BraDBF=F KetDBF=F FulRan=T
         wScrn=  0.000000 ICntrl=    2127 IOpCl=  0 I1Cent=           0 NGrid=           0
         NMat0=    1 NMatS0=      1 NMatT0=    0 NMatD0=    1 NMtDS0=    0 NMtDT0=    0
 Symmetry not used in FoFCou.
 Leave Link  703 at Fri Aug 20 15:50:46 2021, MaxMem= 24159191040 cpu:        22.3
 (Enter /public/home/users/caep010/software/Gaussian09/g09/l716.exe)
 Dipole        =-1.34858677D+00 1.25904887D+00 7.19061697D-01
 ***** Axes restored to original set *****
 -------------------------------------------------------------------
 Center     Atomic                   Forces (Hartrees/Bohr)
 Number     Number              X              Y              Z
 -------------------------------------------------------------------
      1        6           0.004478522   -0.007316073    0.011611586
      2        6           0.031308036    0.126772232   -0.022987716
      3        1          -0.036907960   -0.146247983    0.024700418
      4        6           0.087793839    0.048493048    0.091904562
      5        1          -0.102697038   -0.074539329   -0.098597114
      6        6           0.035781504   -0.055297628    0.072546577
      7        1          -0.053034536    0.067367420   -0.101035885
      8        6          -0.029535920   -0.146284546    0.037324285
      9        7          -0.003270790    0.007562431    0.003312577
     10        1           0.048005842    0.186108870   -0.031320116
     11        6          -0.036418984   -0.027445018   -0.030691921
     12        1           0.047141059    0.035214979    0.040733886
     13        6           0.115687666   -0.160749072   -0.137822017
     14        1          -0.134930829   -0.114488186    0.036750986
     15        1           0.112090358   -0.022247033    0.094865294
     16        1          -0.101197717    0.302850356    0.012629039
     17        7           0.015404270   -0.012720369   -0.013803386
     18        8           0.000579081   -0.007868031    0.020037826
     19        8          -0.000276401    0.000833932   -0.010158880
 -------------------------------------------------------------------
 Cartesian Forces:  Max     0.302850356 RMS     0.083631000
 Leave Link  716 at Fri Aug 20 15:50:46 2021, MaxMem= 24159191040 cpu:         0.7
 (Enter /public/home/users/caep010/software/Gaussian09/g09/l103.exe)

 GradGradGradGradGradGradGradGradGradGradGradGradGradGradGradGradGradGrad
 Berny optimization.
 FormGI is forming the generalized inverse of G from B-inverse, IUseBI=4.
 Internal  Forces:  Max     0.318588667 RMS     0.056019666
 Search for a local minimum.
 Step number   1 out of a maximum of   97
 All quantities printed in internal units (Hartrees-Bohrs-Radians)
 RMS Force = .56020D-01 SwitMx=.10000D-02 MixMth= 1
 Mixed Optimization -- RFO/linear search
 Second derivative matrix not updated -- first step.
 ITU=  0
     Eigenvalues ---    0.01085   0.01316   0.01523   0.02026   0.02033
     Eigenvalues ---    0.02096   0.02401   0.02409   0.02421   0.02437
     Eigenvalues ---    0.02470   0.02514   0.02552   0.02598   0.06666
     Eigenvalues ---    0.07728   0.15992   0.15996   0.15997   0.15998
     Eigenvalues ---    0.16000   0.16000   0.16000   0.16000   0.22000
     Eigenvalues ---    0.22000   0.23489   0.24345   0.24475   0.24981
     Eigenvalues ---    0.25000   0.25000   0.38790   0.41222   0.44923
     Eigenvalues ---    0.45890   0.47016   0.49594   0.50026   0.51268
     Eigenvalues ---    0.52516   0.56160   0.56459   0.57814   0.59829
     Eigenvalues ---    0.60927   0.63507   0.66126   0.84972   0.91279
     Eigenvalues ---    0.95007
 RFO step:  Lambda=-2.84216189D-01 EMin= 1.08492515D-02
 Linear search not attempted -- first point.
 Maximum step size (   0.300) exceeded in Quadratic search.
    -- Step size scaled by   0.546
 Iteration  1 RMS(Cart)=  0.03697203 RMS(Int)=  0.00034368
 Iteration  2 RMS(Cart)=  0.00034827 RMS(Int)=  0.00002428
 Iteration  3 RMS(Cart)=  0.00000021 RMS(Int)=  0.00002428
 ITry= 1 IFail=0 DXMaxC= 1.35D-01 DCOld= 1.00D+10 DXMaxT= 3.00D-01 DXLimC= 3.00D+00 Rises=F
 Variable       Old X    -DE/DX   Delta X   Delta X   Delta X     New X
                                 (Linear)    (Quad)   (Total)
    R1        2.59869   0.02332   0.00000   0.01589   0.01588   2.61457
    R2        2.69926   0.00938   0.00000   0.00736   0.00736   2.70662
    R3        2.59607   0.02575   0.00000   0.01755   0.01755   2.61361
    R4        1.77776   0.15283   0.00000   0.09461   0.09461   1.87237
    R5        2.60340   0.02049   0.00000   0.01433   0.01433   2.61773
    R6        1.76914   0.16064   0.00000   0.09823   0.09823   1.86737
    R7        2.58051   0.03618   0.00000   0.02495   0.02495   2.60546
    R8        1.80558   0.13203   0.00000   0.08498   0.08498   1.89056
    R9        2.56731   0.03683   0.00000   0.02498   0.02499   2.59230
   R10        1.73099   0.19473   0.00000   0.11252   0.11252   1.84351
   R11        2.60211   0.02017   0.00000   0.01415   0.01415   2.61626
   R12        2.73231   0.00971   0.00000   0.00789   0.00789   2.74020
   R13        2.54115   0.02554   0.00000   0.01650   0.01650   2.55765
   R14        1.89702   0.07104   0.00000   0.05144   0.05144   1.94846
   R15        1.74969   0.18049   0.00000   0.10727   0.10727   1.85695
   R16        1.79414   0.14657   0.00000   0.09286   0.09286   1.88699
   R17        1.62041   0.31859   0.00000   0.15349   0.15349   1.77390
   R18        2.30707   0.02037   0.00000   0.00901   0.00901   2.31609
   R19        2.32349   0.00922   0.00000   0.00421   0.00421   2.32770
    A1        2.10474  -0.00170   0.00000  -0.00124  -0.00124   2.10351
    A2        2.11426   0.00112   0.00000   0.00014   0.00014   2.11439
    A3        2.06352   0.00056   0.00000   0.00107   0.00108   2.06460
    A4        2.11383  -0.00242   0.00000  -0.00258  -0.00257   2.11125
    A5        2.07250   0.00131   0.00000   0.00081   0.00080   2.07330
    A6        2.09645   0.00113   0.00000   0.00179   0.00180   2.09824
    A7        2.05629   0.00398   0.00000   0.00458   0.00458   2.06086
    A8        2.10287  -0.00115   0.00000  -0.00078  -0.00078   2.10209
    A9        2.12385  -0.00282   0.00000  -0.00378  -0.00378   2.12007
   A10        2.01831   0.01046   0.00000   0.01228   0.01227   2.03058
   A11        2.09710  -0.00079   0.00000   0.00020   0.00021   2.09731
   A12        2.16764  -0.00966   0.00000  -0.01247  -0.01247   2.15517
   A13        2.08834   0.00352   0.00000   0.00365   0.00365   2.09199
   A14        2.10723  -0.00520   0.00000  -0.00502  -0.00501   2.10222
   A15        2.08740   0.00169   0.00000   0.00140   0.00139   2.08879
   A16        2.13264  -0.00312   0.00000  -0.00325  -0.00325   2.12939
   A17        2.06350   0.00466   0.00000   0.00481   0.00481   2.06831
   A18        2.05740  -0.00163   0.00000  -0.00171  -0.00171   2.05569
   A19        2.07229   0.00471   0.00000   0.00465   0.00465   2.07694
   A20        2.03119   0.00586   0.00000   0.00779   0.00779   2.03898
   A21        2.17971  -0.01058   0.00000  -0.01244  -0.01244   2.16727
   A22        1.98691  -0.00375   0.00000  -0.00595  -0.00604   1.98087
   A23        1.99619  -0.02076   0.00000  -0.02482  -0.02487   1.97133
   A24        1.86766  -0.00026   0.00000   0.00018   0.00019   1.86785
   A25        1.86296   0.01070   0.00000   0.01240   0.01227   1.87523
   A26        2.01480  -0.00480   0.00000  -0.00743  -0.00747   2.00734
   A27        1.72174   0.02076   0.00000   0.02851   0.02858   1.75033
   A28        2.05920  -0.00750   0.00000  -0.00765  -0.00766   2.05154
   A29        2.05369  -0.00090   0.00000  -0.00090  -0.00090   2.05279
   A30        2.16982   0.00847   0.00000   0.00868   0.00868   2.17850
    D1       -0.06920   0.00022   0.00000   0.00035   0.00035  -0.06885
    D2        3.10319  -0.00027   0.00000  -0.00050  -0.00050   3.10269
    D3        3.11214   0.00058   0.00000   0.00100   0.00100   3.11314
    D4        0.00136   0.00008   0.00000   0.00014   0.00015   0.00150
    D5       -1.70397   0.00024   0.00000   0.00033   0.00033  -1.70364
    D6        1.17278  -0.00036   0.00000  -0.00051  -0.00051   1.17227
    D7        1.39900  -0.00009   0.00000  -0.00032  -0.00032   1.39868
    D8       -2.00744  -0.00069   0.00000  -0.00115  -0.00115  -2.00859
    D9        0.00785  -0.00002   0.00000  -0.00006  -0.00007   0.00778
   D10       -3.13533   0.00028   0.00000   0.00048   0.00048  -3.13485
   D11       -3.09490   0.00037   0.00000   0.00062   0.00062  -3.09428
   D12        0.04511   0.00068   0.00000   0.00116   0.00116   0.04627
   D13        3.10796   0.00056   0.00000   0.00100   0.00100   3.10896
   D14       -0.01382   0.00008   0.00000   0.00013   0.00013  -0.01369
   D15       -0.00315   0.00014   0.00000   0.00024   0.00024  -0.00291
   D16       -3.12492  -0.00034   0.00000  -0.00064  -0.00064  -3.12556
   D17       -3.10744  -0.00059   0.00000  -0.00109  -0.00110  -3.10854
   D18        0.01697  -0.00025   0.00000  -0.00042  -0.00042   0.01655
   D19        0.05475  -0.00116   0.00000  -0.00210  -0.00210   0.05265
   D20       -3.10402  -0.00082   0.00000  -0.00143  -0.00142  -3.10544
   D21       -3.12687  -0.00059   0.00000  -0.00106  -0.00106  -3.12793
   D22       -0.00749   0.00026   0.00000   0.00047   0.00047  -0.00703
   D23       -0.00400  -0.00000   0.00000  -0.00006  -0.00006  -0.00406
   D24        3.11537   0.00085   0.00000   0.00147   0.00146   3.11684
   D25       -0.00482  -0.00010   0.00000  -0.00021  -0.00021  -0.00503
   D26        3.13850  -0.00045   0.00000  -0.00083  -0.00082   3.13768
   D27        3.11456   0.00077   0.00000   0.00134   0.00134   3.11590
   D28       -0.02530   0.00042   0.00000   0.00073   0.00073  -0.02457
   D29        1.58413  -0.00074   0.00000  -0.00115  -0.00119   1.58294
   D30       -2.55077  -0.00624   0.00000  -0.00949  -0.00942  -2.56018
   D31       -0.66348   0.00863   0.00000   0.01299   0.01295  -0.65053
   D32       -1.29350  -0.00105   0.00000  -0.00126  -0.00130  -1.29480
   D33        0.85479  -0.00656   0.00000  -0.00960  -0.00953   0.84526
   D34        2.74208   0.00832   0.00000   0.01288   0.01284   2.75492
   D35       -2.97123   0.00137   0.00000   0.00223   0.00223  -2.96900
   D36        0.20201  -0.00112   0.00000  -0.00224  -0.00224   0.19977
   D37       -0.08295   0.00051   0.00000   0.00114   0.00114  -0.08181
   D38        3.09029  -0.00198   0.00000  -0.00333  -0.00334   3.08696
         Item               Value     Threshold  Converged?
 Maximum Force            0.318589     0.000450     NO 
 RMS     Force            0.056020     0.000300     NO 
 Maximum Displacement     0.135041     0.001800     NO 
 RMS     Displacement     0.036993     0.001200     NO 
 Predicted change in Energy=-1.257275D-01
 Lowest energy point so far.  Saving SCF results.
 GradGradGradGradGradGradGradGradGradGradGradGradGradGradGradGradGradGrad

 Leave Link  103 at Fri Aug 20 15:50:47 2021, MaxMem= 24159191040 cpu:         8.5
 (Enter /public/home/users/caep010/software/Gaussian09/g09/l202.exe)
                          Input orientation:                          
 ---------------------------------------------------------------------
 Center     Atomic      Atomic             Coordinates (Angstroms)
 Number     Number       Type             X           Y           Z
 ---------------------------------------------------------------------
      1          6           0       -0.151904    8.342657    6.409918
      2          6           0       -1.055290    7.699086    5.582887
      3          1           0       -1.296645    6.749810    5.732355
      4          6           0       -1.594355    8.395528    4.513647
      5          1           0       -2.216814    7.917289    3.913388
      6          6           0       -1.247087    9.711023    4.290424
      7          1           0       -1.694858   10.163569    3.518681
      8          6           0       -0.347777   10.336266    5.116322
      9          7           0        0.392000    7.673437    7.553484
     10          1           0       -0.113909   11.270561    4.961149
     11          6           0        0.212967    9.657601    6.184840
     12          1           0        0.895651   10.069473    6.838625
     13          6           0       -0.149793    7.863597    8.885008
     14          1           0       -0.855902    7.220492    9.116178
     15          1           0        0.546160    7.813590    9.599332
     16          1           0       -0.396967    8.766491    8.954715
     17          7           0        1.218766    6.620738    7.353209
     18          8           0        1.525892    5.947384    8.330151
     19          8           0        1.630264    6.427608    6.208387
 ---------------------------------------------------------------------
                    Distance matrix (angstroms):
                    1          2          3          4          5
     1  C    0.000000
     2  C    1.383572   0.000000
     3  H    2.075256   0.990816   0.000000
     4  C    2.383130   1.385243   2.069364   0.000000
     5  H    3.267638   2.045477   2.349118   0.988169   0.000000
     6  C    2.750293   2.398987   3.293995   1.378750   2.073647
     7  H    3.749091   3.277754   4.088114   2.031262   2.339660
     8  C    2.384582   2.770014   3.760653   2.384038   3.285088
     9  N    1.432281   2.445110   2.649740   3.702382   4.485050
    10  H    3.266956   3.745423   4.736118   3.264627   4.094441
    11  C    1.383065   2.409691   3.307404   2.766249   3.753934
    12  H    2.064717   3.316895   4.129184   3.795754   4.782923
    13  C    2.521026   3.427973   3.534829   4.634491   5.384465
    14  H    3.013090   3.571128   3.444715   4.807215   5.422788
    15  H    3.307501   4.325458   4.413737   5.548392   6.322558
    16  H    2.591463   3.597495   3.906408   4.614590   5.426598
    17  N    2.394481   3.077045   2.995183   4.373402   5.031563
    18  O    3.498517   4.156732   3.919075   5.504095   6.115241
    19  O    2.623766   3.036463   2.982820   4.140414   4.720824
                    6          7          8          9         10
     6  C    0.000000
     7  H    1.000442   0.000000
     8  C    1.371786   2.096881   0.000000
     9  N    4.181618   5.180287   3.684790   0.000000
    10  H    2.041108   2.409470   0.975541   4.462672   0.000000
    11  C    2.392369   3.317259   1.384467   2.417053   2.050831
    12  H    3.348603   4.212081   2.140939   2.550623   2.446781
    13  C    5.072203   6.039417   4.511793   1.450054   5.196668
    14  H    5.444601   6.379461   5.095594   2.050471   5.849605
    15  H    5.916122   6.893394   5.221148   2.056429   5.822291
    16  H    4.834300   5.760800   4.147272   1.944398   4.722188
    17  N    5.001095   5.978668   4.611167   1.353451   5.396186
    18  O    6.178495   7.162381   5.753400   2.206396   6.509634
    19  O    4.768496   5.678764   4.514737   2.212391   5.296408
                   11         12         13         14         15
    11  C    0.000000
    12  H    1.031082   0.000000
    13  C    3.262047   3.185361   0.000000
    14  H    3.959132   4.046218   0.982657   0.000000
    15  H    3.894887   3.582269   0.998554   1.597179   0.000000
    16  H    2.972928   2.801154   0.938707   1.620742   1.487628
    17  N    3.405768   3.501853   2.400846   2.787834   2.630659
    18  O    4.482392   4.428710   2.605314   2.812755   2.460371
    19  O    3.527342   3.768294   3.520648   3.907037   3.820306
                   16         17         18         19
    16  H    0.000000
    17  N    3.127247   0.000000
    18  O    3.469126   1.225622   0.000000
    19  O    4.137916   1.231765   2.177932   0.000000
 Stoichiometry    C7H8N2O2
 Framework group  C1[X(C7H8N2O2)]
 Deg. of freedom    51
 Full point group                 C1      NOp   1
 RotChk:  IX=0 Diff= 2.25D-02
 Largest Abelian subgroup         C1      NOp   1
 Largest concise Abelian subgroup C1      NOp   1
                         Standard orientation:                         
 ---------------------------------------------------------------------
 Center     Atomic      Atomic             Coordinates (Angstroms)
 Number     Number       Type             X           Y           Z
 ---------------------------------------------------------------------
      1          6           0       -0.345988    0.200210    0.056199
      2          6           0       -0.912467   -0.750716    0.886328
      3          1           0       -0.350203   -1.304158    1.485725
      4          6           0       -2.283390   -0.944178    0.841157
      5          1           0       -2.673423   -1.645355    1.417962
      6          6           0       -3.067835   -0.189542   -0.005083
      7          1           0       -4.052965   -0.359674    0.033081
      8          6           0       -2.492953    0.747861   -0.825195
      9          7           0        1.060864    0.464198    0.106258
     10          1           0       -3.053379    1.287317   -1.413913
     11          6           0       -1.123686    0.951561   -0.806082
     12          1           0       -0.631740    1.636855   -1.398948
     13          6           0        1.608386    1.572175    0.864717
     14          1           0        1.840471    1.336745    1.790095
     15          1           0        2.422631    1.967821    0.443316
     16          1           0        1.008668    2.288862    0.776003
     17          7           0        1.914516   -0.502985   -0.303211
     18          8           0        3.108443   -0.335795   -0.082456
     19          8           0        1.437792   -1.471846   -0.895907
 ---------------------------------------------------------------------
 Rotational constants (GHZ):      2.5578678      0.7478004      0.6877325
 Leave Link  202 at Fri Aug 20 15:50:47 2021, MaxMem= 24159191040 cpu:         0.6
 (Enter /public/home/users/caep010/software/Gaussian09/g09/l301.exe)
 Standard basis: 6-31G(d,p) (6D, 7F)
 Ernie: Thresh=  0.10000D-02 Tol=  0.10000D-05 Strict=F.
 There are   205 symmetry adapted cartesian basis functions of A   symmetry.
 There are   205 symmetry adapted basis functions of A   symmetry.
   205 basis functions,   364 primitive gaussians,   205 cartesian basis functions
    40 alpha electrons       40 beta electrons
       nuclear repulsion energy       609.2536569397 Hartrees.
 IExCor=  402 DFT=T Ex+Corr=B3LYP ExCW=0 ScaHFX=  0.200000
 ScaDFX=  0.800000  0.720000  1.000000  0.810000 ScalE2=  1.000000  1.000000
 IRadAn=      0 IRanWt=     -1 IRanGd=            0 ICorTp=0 IEmpDi=  4
 NAtoms=   19 NActive=   19 NUniq=   19 SFac= 1.00D+00 NAtFMM=   60 NAOKFM=F Big=F
 Integral buffers will be    131072 words long.
 Raffenetti 2 integral format.
 Two-electron integral symmetry is turned on.
 Leave Link  301 at Fri Aug 20 15:50:47 2021, MaxMem= 24159191040 cpu:         1.6
 (Enter /public/home/users/caep010/software/Gaussian09/g09/l302.exe)
 NPDir=0 NMtPBC=     1 NCelOv=     1 NCel=       1 NClECP=     1 NCelD=      1
         NCelK=      1 NCelE2=     1 NClLst=     1 CellRange=     0.0.
 One-electron integrals computed using PRISM.
 NBasis=   205 RedAO= T EigKep=  4.01D-04  NBF=   205
 NBsUse=   205 1.00D-06 EigRej= -1.00D+00 NBFU=   205
 Precomputing XC quadrature grid using
 IXCGrd= 4 IRadAn=           0 IRanWt=          -1 IRanGd=           0 AccXCQ= 0.00D+00.
 Generated NRdTot=       0 NPtTot=           0 NUsed=           0 NTot=          32
 NSgBfM=   205   205   205   205   205 MxSgAt=    19 MxSgA2=    19.
 Leave Link  302 at Fri Aug 20 15:50:47 2021, MaxMem= 24159191040 cpu:        12.2
 (Enter /public/home/users/caep010/software/Gaussian09/g09/l303.exe)
 DipDrv:  MaxL=1.
 Leave Link  303 at Fri Aug 20 15:50:47 2021, MaxMem= 24159191040 cpu:         0.8
 (Enter /public/home/users/caep010/software/Gaussian09/g09/l401.exe)
 Initial guess from the checkpoint file:  "/public/home/users/caep010/.cache/gau_scr/Gau-122509.chk"
 B after Tr=    -0.000000    0.000000   -0.000000
         Rot=    0.999969   -0.007807    0.000026   -0.000903 Ang=  -0.90 deg.
 Guess basis will be translated and rotated to current coordinates.
 JPrj=2 DoOrth=T DoCkMO=T.
 Generating alternative initial guess.
 ExpMin= 1.61D-01 ExpMax= 5.48D+03 ExpMxC= 8.25D+02 IAcc=1 IRadAn=         1 AccDes= 0.00D+00
 Harris functional with IExCor=  402 and IRadAn=       1 diagonalized for initial guess.
 HarFok:  IExCor=  402 AccDes= 0.00D+00 IRadAn=         1 IDoV= 1 UseB2=F ITyADJ=14
 ICtDFT=  3500011 ScaDFX=  1.000000  1.000000  1.000000  1.000000
 FoFCou: FMM=F IPFlag=           0 FMFlag=      100000 FMFlg1=           0
         NFxFlg=           0 DoJE=T BraDBF=F KetDBF=T FulRan=T
         wScrn=  0.000000 ICntrl=     500 IOpCl=  0 I1Cent=   200000004 NGrid=           0
         NMat0=    1 NMatS0=      1 NMatT0=    0 NMatD0=    1 NMtDS0=    0 NMtDT0=    0
 Petite list used in FoFCou.
 Harris En= -531.446392776725    
 Leave Link  401 at Fri Aug 20 15:50:48 2021, MaxMem= 24159191040 cpu:        14.9
 (Enter /public/home/users/caep010/software/Gaussian09/g09/l502.exe)
 Closed shell SCF:
 Using DIIS extrapolation, IDIIS=  1040.
 Integral symmetry usage will be decided dynamically.
 Keep R1 ints in memory in canonical form, NReq=227455701.
 IVT=      152726 IEndB=      152726 NGot= 24159191040 MDV= 23936106145
 LenX= 23936106145 LenY= 23936063679
 Requested convergence on RMS density matrix=1.00D-08 within 128 cycles.
 Requested convergence on MAX density matrix=1.00D-06.
 Requested convergence on             energy=1.00D-06.
 No special actions if energy rises.
 FoFCou: FMM=F IPFlag=           0 FMFlag=           0 FMFlg1=           0
         NFxFlg=           0 DoJE=F BraDBF=F KetDBF=F FulRan=T
         wScrn=  0.000000 ICntrl=     600 IOpCl=  0 I1Cent=           0 NGrid=           0
         NMat0=    1 NMatS0=  21115 NMatT0=    0 NMatD0=    1 NMtDS0=    0 NMtDT0=    0
 Symmetry not used in FoFCou.
 Integral accuracy reduced to 1.0D-05 until final iterations.

 Cycle   1  Pass 0  IDiag  1:
 E= -531.322879958707    
 DIIS: error= 3.19D-03 at cycle   1 NSaved=   1.
 NSaved= 1 IEnMin= 1 EnMin= -531.322879958707     IErMin= 1 ErrMin= 3.19D-03
 ErrMax= 3.19D-03  0.00D+00 EMaxC= 1.00D-01 BMatC= 4.17D-03 BMatP= 4.17D-03
 IDIUse=3 WtCom= 9.68D-01 WtEn= 3.19D-02
 Coeff-Com:  0.100D+01
 Coeff-En:   0.100D+01
 Coeff:      0.100D+01
 Gap=     1.910 Goal=   None    Shift=    0.000
 GapD=    1.910 DampG=2.000 DampE=1.000 DampFc=2.0000 IDamp=-1.
 RMSDP=5.93D-04 MaxDP=1.71D-02              OVMax= 1.77D-02

 Cycle   2  Pass 0  IDiag  1:
 E= -531.326559576746     Delta-E=       -0.003679618039 Rises=F Damp=F
 DIIS: error= 2.35D-03 at cycle   2 NSaved=   2.
 NSaved= 2 IEnMin= 2 EnMin= -531.326559576746     IErMin= 2 ErrMin= 2.35D-03
 ErrMax= 2.35D-03  0.00D+00 EMaxC= 1.00D-01 BMatC= 1.04D-03 BMatP= 4.17D-03
 IDIUse=3 WtCom= 9.76D-01 WtEn= 2.35D-02
 Coeff-Com:  0.285D+00 0.715D+00
 Coeff-En:   0.000D+00 0.100D+01
 Coeff:      0.278D+00 0.722D+00
 Gap=     0.223 Goal=   None    Shift=    0.000
 RMSDP=2.15D-04 MaxDP=1.00D-02 DE=-3.68D-03 OVMax= 1.03D-02

 Cycle   3  Pass 0  IDiag  1:
 E= -531.327295474227     Delta-E=       -0.000735897480 Rises=F Damp=F
 DIIS: error= 1.09D-03 at cycle   3 NSaved=   3.
 NSaved= 3 IEnMin= 3 EnMin= -531.327295474227     IErMin= 3 ErrMin= 1.09D-03
 ErrMax= 1.09D-03  0.00D+00 EMaxC= 1.00D-01 BMatC= 3.13D-04 BMatP= 1.04D-03
 IDIUse=3 WtCom= 9.89D-01 WtEn= 1.09D-02
 Coeff-Com:  0.405D-01 0.356D+00 0.604D+00
 Coeff-En:   0.000D+00 0.193D+00 0.807D+00
 Coeff:      0.401D-01 0.354D+00 0.606D+00
 Gap=     0.222 Goal=   None    Shift=    0.000
 RMSDP=1.02D-04 MaxDP=3.27D-03 DE=-7.36D-04 OVMax= 5.59D-03

 Cycle   4  Pass 0  IDiag  1:
 E= -531.327548425163     Delta-E=       -0.000252950937 Rises=F Damp=F
 DIIS: error= 5.26D-04 at cycle   4 NSaved=   4.
 NSaved= 4 IEnMin= 4 EnMin= -531.327548425163     IErMin= 4 ErrMin= 5.26D-04
 ErrMax= 5.26D-04  0.00D+00 EMaxC= 1.00D-01 BMatC= 4.83D-05 BMatP= 3.13D-04
 IDIUse=3 WtCom= 9.95D-01 WtEn= 5.26D-03
 Coeff-Com:  0.993D-02 0.177D+00 0.367D+00 0.446D+00
 Coeff-En:   0.000D+00 0.000D+00 0.436D-01 0.956D+00
 Coeff:      0.988D-02 0.176D+00 0.365D+00 0.448D+00
 Gap=     0.221 Goal=   None    Shift=    0.000
 RMSDP=4.13D-05 MaxDP=1.56D-03 DE=-2.53D-04 OVMax= 2.85D-03

 Cycle   5  Pass 0  IDiag  1:
 E= -531.327585986426     Delta-E=       -0.000037561263 Rises=F Damp=F
 DIIS: error= 1.66D-04 at cycle   5 NSaved=   5.
 NSaved= 5 IEnMin= 5 EnMin= -531.327585986426     IErMin= 5 ErrMin= 1.66D-04
 ErrMax= 1.66D-04  0.00D+00 EMaxC= 1.00D-01 BMatC= 8.98D-06 BMatP= 4.83D-05
 IDIUse=3 WtCom= 9.98D-01 WtEn= 1.66D-03
 Coeff-Com:  0.137D-03 0.660D-01 0.155D+00 0.311D+00 0.467D+00
 Coeff-En:   0.000D+00 0.000D+00 0.000D+00 0.153D+00 0.847D+00
 Coeff:      0.137D-03 0.659D-01 0.155D+00 0.311D+00 0.468D+00
 Gap=     0.222 Goal=   None    Shift=    0.000
 RMSDP=1.49D-05 MaxDP=7.57D-04 DE=-3.76D-05 OVMax= 1.52D-03

 Cycle   6  Pass 0  IDiag  1:
 E= -531.327592289000     Delta-E=       -0.000006302574 Rises=F Damp=F
 DIIS: error= 5.65D-05 at cycle   6 NSaved=   6.
 NSaved= 6 IEnMin= 6 EnMin= -531.327592289000     IErMin= 6 ErrMin= 5.65D-05
 ErrMax= 5.65D-05  0.00D+00 EMaxC= 1.00D-01 BMatC= 1.22D-06 BMatP= 8.98D-06
 IDIUse=1 WtCom= 1.00D+00 WtEn= 0.00D+00
 Coeff-Com: -0.126D-02 0.227D-01 0.595D-01 0.155D+00 0.319D+00 0.444D+00
 Coeff:     -0.126D-02 0.227D-01 0.595D-01 0.155D+00 0.319D+00 0.444D+00
 Gap=     0.222 Goal=   None    Shift=    0.000
 RMSDP=5.36D-06 MaxDP=2.32D-04 DE=-6.30D-06 OVMax= 4.32D-04

 Initial convergence to 1.0D-05 achieved.  Increase integral accuracy.
 Cycle   7  Pass 1  IDiag  1:
 E= -531.327560471040     Delta-E=        0.000031817960 Rises=F Damp=F
 DIIS: error= 1.79D-05 at cycle   1 NSaved=   1.
 NSaved= 1 IEnMin= 1 EnMin= -531.327560471040     IErMin= 1 ErrMin= 1.79D-05
 ErrMax= 1.79D-05  0.00D+00 EMaxC= 1.00D-01 BMatC= 9.11D-08 BMatP= 9.11D-08
 IDIUse=1 WtCom= 1.00D+00 WtEn= 0.00D+00
 Coeff-Com:  0.100D+01
 Coeff:      0.100D+01
 Gap=     0.222 Goal=   None    Shift=    0.000
 RMSDP=5.36D-06 MaxDP=2.32D-04 DE= 3.18D-05 OVMax= 2.03D-04

 Cycle   8  Pass 1  IDiag  1:
 E= -531.327560392283     Delta-E=        0.000000078758 Rises=F Damp=F
 DIIS: error= 3.30D-05 at cycle   2 NSaved=   2.
 NSaved= 2 IEnMin= 1 EnMin= -531.327560471040     IErMin= 1 ErrMin= 1.79D-05
 ErrMax= 3.30D-05  0.00D+00 EMaxC= 1.00D-01 BMatC= 1.88D-07 BMatP= 9.11D-08
 IDIUse=1 WtCom= 1.00D+00 WtEn= 0.00D+00
 Coeff-Com:  0.605D+00 0.395D+00
 Coeff:      0.605D+00 0.395D+00
 Gap=     0.222 Goal=   None    Shift=    0.000
 RMSDP=2.39D-06 MaxDP=7.40D-05 DE= 7.88D-08 OVMax= 1.58D-04

 Cycle   9  Pass 1  IDiag  1:
 E= -531.327560554952     Delta-E=       -0.000000162669 Rises=F Damp=F
 DIIS: error= 7.26D-06 at cycle   3 NSaved=   3.
 NSaved= 3 IEnMin= 3 EnMin= -531.327560554952     IErMin= 3 ErrMin= 7.26D-06
 ErrMax= 7.26D-06  0.00D+00 EMaxC= 1.00D-01 BMatC= 1.74D-08 BMatP= 9.11D-08
 IDIUse=1 WtCom= 1.00D+00 WtEn= 0.00D+00
 Coeff-Com:  0.151D+00 0.234D+00 0.615D+00
 Coeff:      0.151D+00 0.234D+00 0.615D+00
 Gap=     0.222 Goal=   None    Shift=    0.000
 RMSDP=8.05D-07 MaxDP=3.74D-05 DE=-1.63D-07 OVMax= 7.67D-05

 Cycle  10  Pass 1  IDiag  1:
 E= -531.327560562264     Delta-E=       -0.000000007312 Rises=F Damp=F
 DIIS: error= 4.69D-06 at cycle   4 NSaved=   4.
 NSaved= 4 IEnMin= 4 EnMin= -531.327560562264     IErMin= 4 ErrMin= 4.69D-06
 ErrMax= 4.69D-06  0.00D+00 EMaxC= 1.00D-01 BMatC= 8.12D-09 BMatP= 1.74D-08
 IDIUse=1 WtCom= 1.00D+00 WtEn= 0.00D+00
 Coeff-Com:  0.370D-02 0.105D+00 0.464D+00 0.428D+00
 Coeff:      0.370D-02 0.105D+00 0.464D+00 0.428D+00
 Gap=     0.222 Goal=   None    Shift=    0.000
 RMSDP=4.28D-07 MaxDP=1.65D-05 DE=-7.31D-09 OVMax= 3.24D-05

 Cycle  11  Pass 1  IDiag  1:
 E= -531.327560568799     Delta-E=       -0.000000006535 Rises=F Damp=F
 DIIS: error= 1.22D-06 at cycle   5 NSaved=   5.
 NSaved= 5 IEnMin= 5 EnMin= -531.327560568799     IErMin= 5 ErrMin= 1.22D-06
 ErrMax= 1.22D-06  0.00D+00 EMaxC= 1.00D-01 BMatC= 3.29D-10 BMatP= 8.12D-09
 IDIUse=1 WtCom= 1.00D+00 WtEn= 0.00D+00
 Coeff-Com: -0.960D-02 0.430D-01 0.219D+00 0.251D+00 0.497D+00
 Coeff:     -0.960D-02 0.430D-01 0.219D+00 0.251D+00 0.497D+00
 Gap=     0.222 Goal=   None    Shift=    0.000
 RMSDP=1.02D-07 MaxDP=2.78D-06 DE=-6.53D-09 OVMax= 5.67D-06

 Cycle  12  Pass 1  IDiag  1:
 E= -531.327560569084     Delta-E=       -0.000000000286 Rises=F Damp=F
 DIIS: error= 1.95D-07 at cycle   6 NSaved=   6.
 NSaved= 6 IEnMin= 6 EnMin= -531.327560569084     IErMin= 6 ErrMin= 1.95D-07
 ErrMax= 1.95D-07  0.00D+00 EMaxC= 1.00D-01 BMatC= 1.58D-11 BMatP= 3.29D-10
 IDIUse=1 WtCom= 1.00D+00 WtEn= 0.00D+00
 Coeff-Com: -0.522D-02 0.195D-01 0.101D+00 0.121D+00 0.280D+00 0.483D+00
 Coeff:     -0.522D-02 0.195D-01 0.101D+00 0.121D+00 0.280D+00 0.483D+00
 Gap=     0.222 Goal=   None    Shift=    0.000
 RMSDP=2.45D-08 MaxDP=9.68D-07 DE=-2.86D-10 OVMax= 1.39D-06

 Cycle  13  Pass 1  IDiag  1:
 E= -531.327560569114     Delta-E=       -0.000000000030 Rises=F Damp=F
 DIIS: error= 8.22D-08 at cycle   7 NSaved=   7.
 NSaved= 7 IEnMin= 7 EnMin= -531.327560569114     IErMin= 7 ErrMin= 8.22D-08
 ErrMax= 8.22D-08  0.00D+00 EMaxC= 1.00D-01 BMatC= 3.05D-12 BMatP= 1.58D-11
 IDIUse=1 WtCom= 1.00D+00 WtEn= 0.00D+00
 Coeff-Com: -0.219D-02 0.672D-02 0.356D-01 0.448D-01 0.119D+00 0.319D+00
 Coeff-Com:  0.477D+00
 Coeff:     -0.219D-02 0.672D-02 0.356D-01 0.448D-01 0.119D+00 0.319D+00
 Coeff:      0.477D+00
 Gap=     0.222 Goal=   None    Shift=    0.000
 RMSDP=9.45D-09 MaxDP=3.78D-07 DE=-2.98D-11 OVMax= 5.69D-07

 SCF Done:  E(RB3LYP) =  -531.327560569     A.U. after   13 cycles
            NFock= 13  Conv=0.94D-08     -V/T= 2.0061
 KE= 5.281059024543D+02 PE=-2.457501906914D+03 EE= 7.888147869510D+02
 Leave Link  502 at Fri Aug 20 15:50:55 2021, MaxMem= 24159191040 cpu:        83.8
 (Enter /public/home/users/caep010/software/Gaussian09/g09/l701.exe)
 Compute integral first derivatives.
[...]
 071353,0.02352079,0.00735099,-0.19373040,0.07243344,0.01009289,-0.0107
 8972,0.02509542,0.11128844,0.66301927,-0.03287616,-0.01920401,-0.04097
 228,-0.07612522,0.12983791,-0.24453536,-0.00050348,-0.00146943,0.00359
 704,0.25317746,-0.03425117,0.58378487,0.00577816,0.00025893,-0.0032812
 5,-0.00210537,-0.00503840,-0.00618351,-0.00269511,0.00082911,0.0021317
 7,-0.12234753,-0.06931683,-0.11784594,0.12034378,-0.00031265,-0.001136
 07,0.00335535,0.01050915,0.01112074,0.01382570,0.00074792,0.00067519,-
 0.00090568,-0.06923273,-0.11213299,-0.08673483,0.07553074,0.11474789,-
 0.00293082,0.00400591,0.00013628,-0.01309883,-0.01254465,-0.01374760,0
 .00210691,-0.00037480,-0.00019266,-0.11805079,-0.08631653,-0.20260575,
 0.13027983,0.09210712,0.21044346,-0.01905931,-0.02403440,-0.00866016,0
 .02241173,0.00540967,0.02639443,0.00482042,0.00030284,-0.00485302,-0.0
 8917950,-0.03837164,-0.03388172,-0.00021386,-0.01666323,0.00167788,0.2
 9238573,-0.02629907,-0.04567710,-0.02170198,0.02772989,-0.03032128,0.0
 6653201,-0.00024997,0.00077140,0.00271942,-0.07084873,-0.32616898,-0.0
 1200242,-0.00084229,-0.00802820,0.00213906,0.08129957,0.66843880,-0.01
 074257,-0.02412197,-0.01126749,0.01632582,0.02589431,0.02265178,-0.004
 39297,0.00316127,-0.00213616,-0.01928225,0.04472807,-0.11341668,-0.004
 83210,-0.02418081,0.00481553,0.24422288,-0.08641590,0.58927376,-0.0003
 8772,-0.00060438,0.00027301,0.00510635,-0.00289277,-0.00217144,0.00015
 200,-0.00025682,0.00027789,0.00510596,-0.00393654,0.00600982,-0.002492
 91,0.00102051,0.00185058,-0.07111103,0.04407824,-0.07923787,0.06528312
 ,-0.00078405,-0.00081291,-0.00092606,-0.00311532,-0.00487197,-0.000413
 90,0.00047277,-0.00056830,0.00130989,0.01128087,-0.01135485,0.02523395
 ,0.00070450,0.00088322,-0.00075012,0.04433299,-0.14196488,0.12096743,-
 0.04641752,0.14651289,0.00003760,-0.00090348,0.00016500,-0.00237830,0.
 00055267,0.00272449,-0.00006514,-0.00011264,0.00005407,-0.00037720,-0.
 00157990,0.00248264,0.00194491,-0.00020055,-0.00037983,-0.07912745,0.1
 2100415,-0.22348490,0.08828033,-0.13095075,0.23296250,0.02262572,0.030
 15525,0.01468590,-0.02006649,0.00229714,-0.02746021,-0.00071109,0.0002
 9460,-0.00024861,0.00053686,-0.04532357,0.00878700,0.00496293,-0.00173
 642,-0.00198085,-0.13965749,-0.04441241,-0.11847156,-0.00176623,-0.004
 89842,-0.00572987,0.28971420,0.00440332,-0.03132471,0.02339913,0.00311
 373,-0.00149289,0.00308469,0.00043895,0.00065188,-0.00005853,-0.020858
 52,-0.01853426,-0.02475390,-0.00232970,-0.00527829,0.00133600,-0.07757
 923,-0.16604118,-0.08893924,0.01065802,0.01128314,0.01450757,0.1121697
 8,0.71799437,0.03015703,0.06820727,0.01888831,-0.02623348,0.00156290,-
 0.05268741,-0.00013310,0.00003531,-0.00102733,-0.00261434,-0.06544923,
 0.03273512,-0.00194897,0.00220215,0.00282984,-0.10438685,-0.03275630,-
 0.22803095,-0.01191861,-0.01222197,-0.01349641,0.22569866,-0.05671464,
 0.54196192,-0.05410908,0.04039204,-0.03229371,-0.00367590,0.01169726,-
 0.02250290,-0.00359540,0.00129751,0.00363237,0.00505538,-0.00650964,-0
 .00339228,-0.00033241,0.00053189,-0.00073542,0.00018275,0.00162112,0.0
 0056146,-0.00101994,0.00041561,0.00054939,0.00418521,-0.00048794,-0.00
 250073,0.19593476,0.02150525,-0.12552235,0.03519022,0.00276728,0.01252
 373,0.00126560,0.00159437,0.00064233,-0.00010256,-0.00527161,0.0010857
 3,-0.00129211,-0.00015168,0.00043685,-0.00027310,0.00086757,-0.0011168
 5,0.00122791,0.00019435,0.00017186,0.00017613,-0.00278456,-0.00504132,
 -0.00489372,-0.17356423,0.41694754,-0.03472395,0.04882243,-0.19656566,
 -0.01271314,0.02016623,-0.03378643,0.00221490,0.00019575,0.00094650,-0
 .00351693,-0.00477365,-0.00056109,-0.00061638,0.00098929,-0.00095085,-
 0.00032005,-0.00056695,-0.00152759,0.00039534,0.00001329,-0.00024885,-
 0.00236416,-0.00036231,0.00629163,0.07085933,0.00547824,0.66684078,0.0
 0470221,-0.00021103,-0.00420374,-0.00070436,0.00036745,-0.00019742,-0.
 00067998,0.00013524,0.00051114,0.00325217,-0.00206664,-0.00544038,0.00
 004045,-0.00090134,0.00002707,0.00022237,-0.01644831,0.00259950,-0.002
 52369,0.00106194,0.00201331,-0.05606361,-0.06412340,-0.00770354,-0.000
 17285,0.00069907,-0.00037070,0.04925550,0.00036374,0.00147441,0.002858
 19,0.00032554,0.00061054,-0.00007849,0.00016207,-0.00009703,-0.0001000
 9,-0.00253554,0.00123858,-0.00175974,-0.00008240,-0.00054849,0.0001896
 8,-0.00132012,-0.00896460,0.00279041,0.00079704,0.00060414,-0.00065670
 ,-0.06394393,-0.32533998,0.01410779,0.00022961,-0.00111257,0.00011564,
 0.07010703,0.34396321,-0.00473360,0.00200573,-0.00151420,-0.00030565,0
 .00005924,-0.00113807,0.00048197,-0.00009584,-0.00010644,-0.00523390,-
 0.00070432,-0.00179143,-0.00033991,-0.00123752,0.00019506,-0.00438493,
 -0.02390003,0.00534227,0.00213244,-0.00008330,-0.00018617,-0.00734520,
 0.01390001,-0.05430847,-0.00014330,0.00163818,0.00019596,0.01099300,-0
 .01591578,0.05145356,-0.09122419,-0.07536824,-0.01771444,0.00124057,-0
 .02067207,-0.00397702,0.00232130,-0.00186264,-0.00485072,-0.00438852,0
 .00445378,0.00051476,-0.00015113,0.00038363,0.00042164,-0.00662173,0.0
 0269578,-0.02372080,0.00355607,-0.00278239,-0.00476784,-0.10109185,0.0
 4068598,-0.08971134,0.00502197,0.01548230,-0.00113512,0.00496770,-0.00
 472113,0.00662941,0.31102884,-0.03621615,-0.30774575,0.02760293,-0.044
 11169,-0.01783078,-0.06187618,-0.00137725,0.00099251,-0.00066939,0.003
 00205,-0.05274536,0.02699155,0.00041932,-0.00083778,0.00069861,0.02649
 864,0.06089266,0.02226405,-0.00306367,-0.00029499,-0.00256066,0.008572
 91,-0.18822562,0.06986547,0.00203903,-0.02824886,0.01811869,0.01083687
 ,-0.01262014,0.02505556,0.10929337,0.65233527,-0.03408949,-0.02738492,
 -0.10488231,0.00723576,-0.02144165,0.03177342,-0.00493143,-0.00181806,
 -0.00216949,0.00021438,0.02671416,-0.01783304,0.00053301,0.00080452,-0
 .00019165,-0.03309458,-0.01947359,-0.04142982,-0.00499162,-0.00158430,
 0.00000683,-0.07448928,0.12693829,-0.23964352,-0.00247447,0.04151552,-
 0.00847643,-0.00033490,-0.00136002,0.00234267,0.26093380,-0.03922449,0
 .58435828,0.00006704,-0.00173976,-0.00454752,0.00425246,-0.00191612,-0
 .00148159,0.00030719,-0.00010880,-0.00045298,-0.00019715,0.00032482,0.
 00053289,-0.00073517,0.00013995,0.00040711,0.00512525,0.00058313,-0.00
 364376,-0.00005274,-0.00033292,-0.00036182,-0.00234441,-0.00542489,-0.
 00589499,-0.00277571,0.00048945,0.00145143,-0.00254006,0.00089039,0.00
 208042,-0.12490927,-0.07027278,-0.12033274,0.12381400,-0.01724525,-0.0
 0768702,-0.02401755,-0.00128429,-0.00544732,0.00230698,-0.00094919,-0.
 00041736,-0.00123672,0.00028393,-0.00078457,0.00074528,0.00015561,0.00
 008662,-0.00020282,0.00003505,-0.00126140,0.00366796,0.00043570,0.0004
 6471,0.00078656,0.01042698,0.01178501,0.01330644,0.00068558,0.00235407
 ,-0.00166670,0.00068643,0.00068409,-0.00086133,-0.07063103,-0.11132935
 ,-0.08418387,0.07713562,0.11258424,0.00031758,0.00278229,0.00271081,-0
 .00158409,0.00113680,0.00241765,-0.00017453,0.00022602,0.00028916,0.00
 048316,0.00070203,-0.00008517,0.00038968,-0.00020032,-0.00025538,-0.00
 349930,0.00450043,-0.00062606,-0.00069549,-0.00063894,-0.00072022,-0.0
 1254848,-0.01279510,-0.01311482,0.00255914,-0.00035104,-0.00065773,0.0
 0215233,-0.00038268,-0.00019218,-0.12046316,-0.08592419,-0.19850878,0.
 13268548,0.08978295,0.20914707,-0.00353528,-0.00785710,-0.00600520,-0.
 00002705,0.00224999,-0.00209083,0.00020740,-0.00002639,0.00016546,-0.0
 0064771,-0.00052345,-0.00072815,-0.00012563,0.00016548,-0.00022019,0.0
 0024808,-0.00008415,0.00036532,0.00004395,0.00002001,-0.00005669,-0.00
 034877,0.00039399,-0.00035065,-0.05874231,0.00752981,-0.02016387,0.000
 00144,0.00004064,-0.00005642,0.00029261,-0.00032960,0.00165592,0.00067
 359,-0.00023845,0.00026031,0.59108260,-0.00593011,0.01189736,0.0109750
 6,0.00052038,-0.00230321,0.00251431,-0.00012389,0.00006557,-0.00000051
 ,0.00071828,0.00015818,-0.00032814,0.00012023,-0.00011379,0.00021341,0
 .00022024,-0.00031973,0.00070613,-0.00002438,-0.00004406,0.00002211,0.
 00022092,0.00015684,-0.00039618,0.02069486,-0.10290147,-0.03547067,-0.
 00002825,-0.00013810,0.00008695,0.00122260,-0.00125531,0.00269257,-0.0
 0039844,-0.00041074,0.00080240,-0.02230106,0.59189086,-0.00251117,-0.0
 0356205,-0.02512316,0.00215816,0.00073850,0.00134257,-0.00000781,-0.00
 023048,-0.00033896,-0.00090785,0.00051502,-0.00017376,-0.00004577,0.00
 006286,0.00014665,-0.00018547,-0.00060423,-0.00015488,-0.00005256,-0.0
 0005566,0.00004498,0.00045285,-0.00129167,0.00025078,-0.00812474,-0.03
 391600,-0.19867102,0.00010562,-0.00018539,0.00018653,0.00157683,-0.000
 42557,0.00005454,-0.00068206,0.00014559,-0.00020895,0.01411343,-0.0556
 3000,0.49116384,-0.00044933,-0.00007281,-0.00099329,0.00016528,0.00017
 262,0.00016973,0.00004183,-0.00001867,-0.00000868,-0.00004111,0.000262
 42,-0.00016324,-0.00001709,0.00001260,-0.00002039,-0.00018188,-0.00021
 008,-0.00014622,0.00000501,0.00000259,-0.00000086,0.00022862,-0.000041
 18,0.00033934,-0.00020419,0.00344911,0.00098014,0.00001555,0.00000950,
 -0.00001713,0.00003076,-0.00004148,-0.00081585,-0.00012178,0.00017330,
 -0.00004377,-0.06067292,-0.04566223,0.03617239,0.05981688,0.00084979,-
 0.00178337,-0.00089080,-0.00030219,0.00024300,-0.00054668,0.00006075,0
 .00000828,-0.00003853,-0.00011607,-0.00019891,0.00023069,-0.00000728,0
 .00001445,-0.00000923,0.00008803,0.00016419,-0.00000169,0.00004197,0.0
 0000308,0.00000908,-0.00013391,0.00017524,-0.00000927,0.00467079,0.014
 42537,-0.01287247,-0.00001537,0.00000446,0.00000318,-0.00048005,-0.000
 09205,0.00009077,0.00035859,0.00015606,0.00010485,-0.04713421,-0.20401
 216,0.13498586,0.04810380,0.21510882,0.00350632,-0.00247293,-0.0019812
 2,0.00026915,0.00059562,-0.00038854,0.00006760,-0.00005187,-0.00006217
 ,-0.00027129,0.00010295,0.00009596,-0.00005279,0.00003445,-0.00004183,
 -0.00003824,0.00000949,-0.00020600,0.00001297,0.00001306,0.00000116,-0
 .00002347,0.00006193,0.00015456,0.00338289,0.01712462,-0.03244909,-0.0
 0000729,0.00004536,-0.00002887,-0.00064533,-0.00031437,-0.00016181,0.0
 0015178,0.00020042,0.00013126,0.03707306,0.12718199,-0.15540957,-0.037
 84425,-0.13843847,0.18044041,0.00026418,-0.00079907,0.00075328,0.00004
 157,0.00013597,-0.00015006,0.00000836,0.00003428,0.00004460,0.00004737
 ,-0.00000719,0.00002438,-0.00001696,0.00001426,-0.00000212,0.00000719,
 -0.00003643,-0.00000401,0.00002639,0.00001571,0.00001884,0.00008473,0.
 00029890,0.00014483,0.00903515,0.00257887,-0.00375053,-0.00002444,0.00
 001895,-0.00002324,-0.00071819,-0.00054432,-0.00051815,0.00030250,0.00
 027193,0.00007897,-0.25189874,-0.09547400,-0.05306021,-0.00613561,-0.0
 0155618,-0.00134586,0.26567508,-0.00024037,-0.00136227,0.00113840,-0.0
 0014394,0.00015466,-0.00039864,0.00002665,0.00002026,0.00005244,0.0000
 2629,-0.00007019,-0.00005068,-0.00000702,0.00001086,-0.00003161,-0.000
 06532,0.00001809,-0.00005482,0.00000199,0.00000375,-0.00001322,-0.0000
 3909,0.00001332,0.00004478,-0.00419179,-0.00782113,-0.01148332,0.00002
 762,0.00000576,-0.00001370,0.00003374,0.00049728,-0.00021013,0.0000986
 8,-0.00013538,0.00025336,-0.09407138,-0.09472911,-0.02309115,-0.022221
 01,-0.00939551,-0.00500367,0.10524037,0.09757967,-0.00081895,-0.003647
 38,0.00108396,-0.00006860,0.00070165,-0.00108340,0.00012500,0.00005853
 ,0.00014201,-0.00006550,-0.00025076,-0.00004501,-0.00005997,0.00005779
 ,-0.00007771,0.00006174,0.00011212,0.00009302,0.00001495,0.00003751,0.
 00001460,0.00010357,0.00029397,-0.00007081,-0.02397459,-0.02111002,-0.
 02161926,-0.00001029,0.00003920,-0.00004806,-0.00013266,-0.00014923,0.
 00001398,-0.00012573,0.00070462,-0.00039028,-0.05066747,-0.02318146,-0
 .06147534,0.01796674,0.00792153,0.00671430,0.06109200,0.03307615,0.076
 16812,0.00041770,0.00065482,-0.00126998,0.00023692,-0.00012549,0.00042
 299,-0.00002667,-0.00005232,-0.00006733,-0.00010542,0.00025190,-0.0001
 5081,-0.00000385,-0.00001482,0.00000344,-0.00018660,-0.00018565,-0.000
 13375,-0.00004295,-0.00001070,-0.00002354,0.00022449,-0.00035948,0.000
 10652,-0.00039578,0.00012322,0.00101476,0.00002385,0.00000071,0.000010
 26,0.00059768,0.00038288,-0.00036943,-0.00064375,-0.00033711,0.0000736
 0,-0.20110063,0.13850538,0.00162883,0.00712558,-0.00622138,-0.00147554
 ,-0.01758912,0.01947265,0.00008649,0.21045263,0.00016475,0.00006703,0.
 00185544,-0.00064691,0.00002881,-0.00045408,0.00005144,-0.00001077,0.0
 0000460,0.00004668,-0.00029508,0.00013798,0.00004151,-0.00001202,-0.00
 003872,0.00010110,0.00019414,0.00010072,0.00001341,0.00000293,-0.00001
 615,-0.00016218,0.00007434,-0.00008275,0.00878235,-0.01120644,-0.00050
 274,0.00000237,0.00000007,-0.00000723,-0.00006627,0.00016447,0.0008564
 1,-0.00017590,-0.00008871,0.00035638,0.13586275,-0.17586839,-0.0033816
 4,0.01658127,-0.01292080,-0.00163521,-0.01072451,0.01153533,0.00128404
 ,-0.15150389,0.18951000,0.00109390,-0.00088424,0.00040763,-0.00010320,
 -0.00026635,-0.00026522,0.00007257,0.00002666,0.00003151,0.00010707,-0
 .00021735,0.00017771,-0.00000025,-0.00000049,0.00003216,0.00015952,0.0
 0025460,0.00009836,0.00001291,-0.00000115,0.00002519,-0.00025166,0.000
 26669,-0.00033778,0.02551559,-0.02786946,-0.00471180,-0.00000535,-0.00
 001777,0.00000458,0.00005807,0.00048545,-0.00053382,0.00032133,0.00022
 905,-0.00040729,-0.00630604,0.00574376,-0.04849820,-0.01641504,0.01145
 486,0.00233009,-0.00386779,0.00628149,0.00049225,0.00053819,0.00426960
 ,0.05788378,-0.02113652,0.00702216,-0.02060186,-0.00103150,-0.00025925
 ,0.00149024,0.00008591,0.00022329,-0.00140934,0.00073698,0.00031702,0.
 00096815,0.00033611,-0.00023609,0.00048921,0.00041110,0.00065721,0.000
 58690,0.00003319,-0.00010135,0.00025915,-0.00066615,-0.00228920,-0.002
 75763,-0.07290847,0.05452395,0.00358556,0.00041982,-0.00072565,0.00060
 028,0.00221878,-0.00507838,0.00962329,-0.00016026,0.00044067,-0.000321
 74,-0.01282662,0.00156616,0.01658513,0.00258238,0.00014836,-0.00312140
 ,0.00122740,-0.00638068,-0.00669026,-0.00006853,0.00010207,-0.00197797
 ,0.38310959,0.02008527,-0.03456151,0.02863046,-0.00078488,0.00416526,-
 0.00696658,-0.00190496,0.00003374,0.00050314,0.00131059,-0.00103968,-0
 .00110357,-0.00050472,0.00022367,-0.00064210,-0.00097836,0.00093956,-0
 .00207859,-0.00017025,0.00004607,-0.00016237,-0.00123258,-0.00109651,0
 .00197499,0.02488078,-0.11338147,-0.01513266,-0.00020007,0.00055564,-0
 .00013211,0.00133159,0.00567202,-0.00435983,0.00015635,-0.00082910,-0.
 00006586,0.01672314,-0.01853459,-0.02334475,-0.00268938,0.00175893,0.0
 0505847,0.00164745,0.00373474,0.00531059,-0.00123262,-0.00030562,0.002
 24753,-0.17932125,0.49030729,-0.01681291,0.02227618,0.01921902,0.00305
 973,0.00210098,-0.00012683,-0.00476984,-0.00090967,-0.00017096,0.00109
 047,0.00059096,-0.00409778,-0.00014353,0.00018245,-0.00027061,-0.00144
 360,-0.00179879,-0.00087870,-0.00037077,-0.00019401,0.00013306,0.00237
 965,0.00036877,0.00219593,-0.01196685,-0.00304545,-0.15106510,-0.00022
 311,0.00029401,-0.00044049,-0.00225225,0.00465638,-0.00777754,-0.00063
 253,-0.00039370,0.00052409,0.02715268,-0.02953468,0.00135125,0.0026949
 2,-0.00022805,-0.00324122,-0.00073439,-0.00285620,-0.00067623,-0.00196
 131,0.00021117,-0.00829693,0.08684432,0.02305591,1.01820446,0.00281181
 ,0.00511253,0.00722071,0.00008202,0.00089733,-0.00027590,-0.00008803,-
 0.00025226,0.00010500,0.00009952,-0.00039184,0.00008662,-0.00011267,0.
 00003974,-0.00016120,0.00000497,0.00031963,-0.00008779,-0.00003688,0.0
 0004279,-0.00008068,0.00030260,0.00076611,0.00017249,-0.02241096,0.043
 17841,-0.03921043,-0.00015613,0.00027425,-0.00027105,-0.00169622,0.000
 25601,-0.00348697,-0.00003150,-0.00003311,0.00018290,-0.00378481,0.000
 10597,-0.00294499,-0.00198376,0.00231942,0.00026319,0.00036244,0.00123
 253,0.00152501,0.00075701,0.00099244,-0.00050705,-0.16967497,0.0807165
 2,-0.13493135,0.16580475,0.00549836,0.00139473,-0.00633826,0.00013541,
 -0.00159874,0.00112637,0.00040382,-0.00017073,-0.00035794,-0.00077245,
 -0.00007033,0.00067975,0.00012502,-0.00006046,0.00025696,0.00032590,-0
 .00018968,0.00046929,0.00014378,-0.00007772,0.00001648,-0.00026050,0.0
 0021677,0.00012451,0.04238670,-0.03002229,0.04177596,0.00000663,-0.000
 19501,0.00014151,0.00067348,-0.00038817,0.00143042,0.00013986,0.000006
 01,-0.00022203,0.00268144,-0.00188453,0.00561104,0.00158655,-0.0027947
 1,-0.00172331,-0.00048156,0.00056890,-0.00104295,0.00056966,-0.0003769
 2,0.00100097,0.08527504,-0.17246003,0.12125674,-0.13186955,0.17234754,
 0.00155463,0.00009998,0.00218190,-0.00141437,0.00086821,-0.00044203,0.
 00100316,0.00034772,0.00024745,0.00052433,-0.00024899,0.00074333,-0.00
 007984,-0.00001709,-0.00012618,0.00034513,0.00089782,-0.00002776,-0.00
 000590,0.00013080,-0.00006796,-0.00070611,0.00045437,-0.00076023,-0.03
 209263,0.02708052,-0.00131777,-0.00005316,0.00020537,-0.00012515,-0.00
 069457,-0.00160969,-0.00079240,0.00023249,0.00021835,0.00013008,0.0076
 2636,-0.00419275,-0.00586725,-0.00149943,-0.00110882,0.00327907,0.0002
 2950,0.00320133,0.00198444,0.00080250,-0.00183413,0.00251807,-0.130316
 17,0.11570247,-0.39329717,0.18407359,-0.15545298,0.49170778,-0.0002824
 1,0.00113960,0.00324147,-0.00407817,0.00154329,-0.00213393,-0.00031590
 ,0.00180676,-0.00039471,-0.00049253,-0.00015642,0.00100628,-0.00011173
 ,0.00000143,-0.00006305,0.00039182,0.00063253,0.00003377,0.00012203,0.
 00009289,-0.00013414,-0.00014928,0.00056479,-0.00046463,0.00092777,0.0
 2678909,0.03838381,-0.00003595,0.00010929,-0.00007344,-0.00047517,-0.0
 0026576,-0.00026724,-0.00003022,-0.00001236,0.00014742,0.00116079,0.00
 604734,-0.00427061,-0.00020423,-0.00067486,0.00009850,-0.00069929,0.00
 120008,0.00163850,0.00032743,0.00053755,0.00155518,-0.11268825,0.04216
 736,0.05302066,0.02975083,-0.00656757,-0.02952950,0.08688246,-0.001682
 80,0.00085298,-0.00583582,0.00234996,-0.00479657,0.00199240,0.00122075
 ,-0.00007438,0.00044670,0.00043766,0.00170003,-0.00090712,0.00009534,-
 0.00005139,0.00023693,-0.00046930,-0.00136495,-0.00018454,-0.00001868,
 0.00001387,0.00008167,0.00078999,0.00002385,0.00109244,0.02442847,-0.0
 2221273,-0.05284408,0.00006378,-0.00012501,0.00006080,0.00032759,0.001
 05994,-0.00000180,0.00005278,0.00027014,-0.00006737,0.00689856,-0.0016
 5363,0.00365970,0.00060308,-0.00086436,-0.00078853,-0.00063341,-0.0006
 2904,-0.00021589,0.00008225,-0.00049239,-0.00300383,0.04411593,-0.1652
 2843,-0.13603299,-0.00370691,0.03575538,0.01525750,-0.07495504,0.15781
 670,-0.00474569,0.00425928,-0.00737485,-0.00345104,-0.00057172,0.00032
 663,0.00182830,0.00116693,-0.00022686,-0.00041478,-0.00061094,0.002500
 70,0.00015100,-0.00014441,0.00024105,0.00101379,0.00105107,0.00091227,
 0.00018404,0.00011422,-0.00003019,-0.00048817,0.00030399,-0.00183036,0
 .03314146,-0.03784350,-0.02166620,0.00014790,-0.00018900,0.00015891,-0
 .00006923,-0.00298492,0.00385089,0.00029278,0.00046848,-0.00018326,-0.
 00176703,-0.00220431,0.00137996,-0.00035512,-0.00065683,0.00082351,0.0
 0106996,-0.00084082,-0.00122058,0.00076410,-0.00112370,-0.00095030,0.0
 4616415,-0.12849513,-0.47128827,-0.01167208,-0.00875255,-0.09996825,-0
 .06179433,0.17705384,0.59454519\\-0.00000219,0.00001573,0.00000520,0.0
 0000277,0.00001655,-0.00000077,-0.00000471,-0.00001412,0.00000167,0.00
 000591,0.00001083,0.00000768,-0.00001246,-0.00000524,-0.00000466,-0.00
 000759,-0.00001441,0.00000492,-0.00000302,0.00001119,-0.00000433,0.000
 00058,-0.00000666,0.00000463,0.00005568,-0.00010016,-0.00002041,0.0000
 0105,0.00000955,-0.00000101,0.00000010,-0.00001077,0.00000023,0.000001
 42,0.00000361,0.00000229,0.00000642,0.00006803,-0.00001458,0.00000132,
 -0.00002697,0.00001130,-0.00000417,-0.00001001,-0.00000222,0.00001551,
 -0.00001997,0.00000030,-0.00008216,0.00010071,0.00000863,0.00002246,-0
 .00001784,0.00003208,0.00000309,-0.00001006,-0.00003095\\\@


 IF AT FIRST YOU DON'T SUCCEED, TRY, TRY AGAIN.
 THEN GIVE UP;
 THERE'S NO USE BEING A DAMN FOOL ABOUT IT.

                                 -- W. C. FIELDS
 Job cpu time:       0 days  0 hours 13 minutes  5.0 seconds.
 File lengths (MBytes):  RWF=     95 Int=      0 D2E=      0 Chk=      4 Scr=      1
 Normal termination of Gaussian 09 at Fri Aug 20 15:55:52 2021.
