 Entering Gaussian System, Link 0=g09
 Input=B3LYP6-31G.JOLNED.gjf
 Output=B3LYP6-31G.JOLNED.log
 Initial command:
 /public/home/users/caep010/software/Gaussian09/g09/l1.exe "/public/home/users/caep010/.cache/gau_scr/Gau-15711.inp" -scrdir="/public/home/users/caep010/.cache/gau_scr/"
 Entering Link 1 = /public/home/users/caep010/software/Gaussian09/g09/l1.exe PID=     15712.
  
 Copyright (c) 1988,1990,1992,1993,1995,1998,2003,2009,2015,
            Gaussian, Inc.  All Rights Reserved.
  
 This is part of the Gaussian(R) 09 program.  It is based on
 the Gaussian(R) 03 system (copyright 2003, Gaussian, Inc.),
 the Gaussian(R) 98 system (copyright 1998, Gaussian, Inc.),
 the Gaussian(R) 94 system (copyright 1995, Gaussian, Inc.),
 the Gaussian 92(TM) system (copyright 1992, Gaussian, Inc.),
 the Gaussian 90(TM) system (copyright 1990, Gaussian, Inc.),
 the Gaussian 88(TM) system (copyright 1988, Gaussian, Inc.),
 the Gaussian 86(TM) system (copyright 1986, Carnegie Mellon
 University), and the Gaussian 82(TM) system (copyright 1983,
 Carnegie Mellon University). Gaussian is a federally registered
 trademark of Gaussian, Inc.
  
 This software contains proprietary and confidential information,
 including trade secrets, belonging to Gaussian, Inc.
  
 This software is provided under written license and may be
 used, copied, transmitted, or stored only in accord with that
 written license.
  
 The following legend is applicable only to US Government
 contracts under FAR:
  
                    RESTRICTED RIGHTS LEGEND
  
 Use, reproduction and disclosure by the US Government is
 subject to restrictions as set forth in subparagraphs (a)
 and (c) of the Commercial Computer Software - Restricted
 Rights clause in FAR 52.227-19.
  
 Gaussian, Inc.
 340 Quinnipiac St., Bldg. 40, Wallingford CT 06492
  
  
 ---------------------------------------------------------------
 Warning -- This program may not be used in any manner that
 competes with the business of Gaussian, Inc. or will provide
 assistance to any competitor of Gaussian, Inc.  The licensee
 of this program is prohibited from giving any competitor of
 Gaussian, Inc. access to this program.  By using this program,
 the user acknowledges that Gaussian, Inc. is engaged in the
 business of creating and licensing software in the field of
 computational chemistry and represents and warrants to the
 licensee that it is not a competitor of Gaussian, Inc. and that
 it will not use this program in any manner prohibited above.
 ---------------------------------------------------------------
  

 Cite this work as:
 Gaussian 09, Revision E.01,
 M. J. Frisch, G. W. Trucks, H. B. Schlegel, G. E. Scuseria, 
 M. A. Robb, J. R. Cheeseman, G. Scalmani, V. Barone, B. Mennucci, 
 G. A. Petersson, H. Nakatsuji, M. Caricato, X. Li, H. P. Hratchian, 
 A. F. Izmaylov, J. Bloino, G. Zheng, J. L. Sonnenberg, M. Hada, 
 M. Ehara, K. Toyota, R. Fukuda, J. Hasegawa, M. Ishida, T. Nakajima, 
 Y. Honda, O. Kitao, H. Nakai, T. Vreven, J. A. Montgomery, Jr., 
 J. E. Peralta, F. Ogliaro, M. Bearpark, J. J. Heyd, E. Brothers, 
 K. N. Kudin, V. N. Staroverov, T. Keith, R. Kobayashi, J. Normand, 
 K. Raghavachari, A. Rendell, J. C. Burant, S. S. Iyengar, J. Tomasi, 
 M. Cossi, N. Rega, J. M. Millam, M. Klene, J. E. Knox, J. B. Cross, 
 V. Bakken, C. Adamo, J. Jaramillo, R. Gomperts, R. E. Stratmann, 
 O. Yazyev, A. J. Austin, R. Cammi, C. Pomelli, J. W. Ochterski, 
 R. L. Martin, K. Morokuma, V. G. Zakrzewski, G. A. Voth, 
 P. Salvador, J. J. Dannenberg, S. Dapprich, A. D. Daniels, 
 O. Farkas, J. B. Foresman, J. V. Ortiz, J. Cioslowski, 
 and D. J. Fox, Gaussian, Inc., Wallingford CT, 2013.
 
 ******************************************
 Gaussian 09:  ES64L-G09RevE.01 30-Nov-2015
                20-Aug-2021 
 ******************************************
 %nproc=32
 Will use up to   32 processors via shared memory.
 %mem=180GB
 -------------------------
 #P OPT Freq B3LYP/6-31G**
 -------------------------
 1/14=-1,18=20,19=15,26=3,38=1/1,3;
 2/9=110,12=2,17=6,18=5,40=1/2;
 3/5=1,6=6,7=101,11=2,16=1,25=1,30=1,71=1,74=-5/1,2,3;
 4//1;
 5/5=2,38=5/2;
 6/7=2,8=2,9=2,10=2,28=1/1;
 7//1,2,3,16;
 1/14=-1,18=20,19=15,26=3/3(2);
 2/9=110/2;
 99//99;
 2/9=110/2;
 3/5=1,6=6,7=101,11=2,16=1,25=1,30=1,71=1,74=-5/1,2,3;
 4/5=5,16=3,69=1/1;
 5/5=2,38=5/2;
 7//1,2,3,16;
 1/14=-1,18=20,19=15,26=3/3(-5);
 2/9=110/2;
 6/7=2,8=2,9=2,10=2,19=2,28=1/1;
 99/9=1/99;
 Leave Link    1 at Fri Aug 20 15:58:17 2021, MaxMem= 24159191040 cpu:         4.0
 (Enter /public/home/users/caep010/software/Gaussian09/g09/l101.exe)
 ------
 JOLNED
 ------
 Symbolic Z-matrix:
 Charge =  0 Multiplicity = 1
 O                     8.1665    3.0468    11.5009 
 N                     6.9923    2.7236    11.5143 
 O                     6.2154    3.0522    12.4051 
 C                     6.4835    1.9067    10.418 
 C                     5.164     1.474     10.4422 
 H                     4.6256    1.7319    11.0715 
 C                     4.7021    0.687     9.4171 
 C                     5.537     0.3416    8.3507 
 N                     5.1741   -0.4795    7.2589 
 N                     3.9199   -0.7472    7.2632 
 N                     3.5279   -1.5222    6.2865 
 C                     2.1479   -1.9274    6.3078 
 H                     1.7494   -1.7674    5.4514 
 H                     2.0934   -2.8693    6.482 
 C                     7.3232    1.5758    9.3825 
 H                     8.1837    1.9067    9.3945 
 C                     6.85      0.8011    8.3585 
 H                     7.3179    0.5619    7.6924 
 C                     4.4649   -2.0994    5.3363 
 H                     5.3372   -1.7151    5.4679 
 H                     4.5307   -3.0431    5.4765 
 H                     4.1867   -1.9337    4.4442 
 H                     3.7004    0.3555    9.4653 
 H                     1.6723   -1.461     6.9679 
 
 NAtoms=     24 NQM=       24 NQMF=       0 NMMI=      0 NMMIF=      0
                NMic=       0 NMicF=      0.
                    Isotopes and Nuclear Properties:
 (Nuclear quadrupole moments (NQMom) in fm**2, nuclear magnetic moments (NMagM)
  in nuclear magnetons)

  Atom         1           2           3           4           5           6           7           8           9          10
 IAtWgt=          16          14          16          12          12           1          12          12          14          14
 AtmWgt=  15.9949146  14.0030740  15.9949146  12.0000000  12.0000000   1.0078250  12.0000000  12.0000000  14.0030740  14.0030740
 NucSpn=           0           2           0           0           0           1           0           0           2           2
 AtZEff=   0.0000000   0.0000000   0.0000000   0.0000000   0.0000000   0.0000000   0.0000000   0.0000000   0.0000000   0.0000000
 NQMom=    0.0000000   2.0440000   0.0000000   0.0000000   0.0000000   0.0000000   0.0000000   0.0000000   2.0440000   2.0440000
 NMagM=    0.0000000   0.4037610   0.0000000   0.0000000   0.0000000   2.7928460   0.0000000   0.0000000   0.4037610   0.4037610
 AtZNuc=   8.0000000   7.0000000   8.0000000   6.0000000   6.0000000   1.0000000   6.0000000   6.0000000   7.0000000   7.0000000

  Atom        11          12          13          14          15          16          17          18          19          20
 IAtWgt=          14          12           1           1          12           1          12           1          12           1
 AtmWgt=  14.0030740  12.0000000   1.0078250   1.0078250  12.0000000   1.0078250  12.0000000   1.0078250  12.0000000   1.0078250
 NucSpn=           2           0           1           1           0           1           0           1           0           1
 AtZEff=   0.0000000   0.0000000   0.0000000   0.0000000   0.0000000   0.0000000   0.0000000   0.0000000   0.0000000   0.0000000
 NQMom=    2.0440000   0.0000000   0.0000000   0.0000000   0.0000000   0.0000000   0.0000000   0.0000000   0.0000000   0.0000000
 NMagM=    0.4037610   0.0000000   2.7928460   2.7928460   0.0000000   2.7928460   0.0000000   2.7928460   0.0000000   2.7928460
 AtZNuc=   7.0000000   6.0000000   1.0000000   1.0000000   6.0000000   1.0000000   6.0000000   1.0000000   6.0000000   1.0000000

  Atom        21          22          23          24
 IAtWgt=           1           1           1           1
 AtmWgt=   1.0078250   1.0078250   1.0078250   1.0078250
 NucSpn=           1           1           1           1
 AtZEff=   0.0000000   0.0000000   0.0000000   0.0000000
 NQMom=    0.0000000   0.0000000   0.0000000   0.0000000
 NMagM=    2.7928460   2.7928460   2.7928460   2.7928460
 AtZNuc=   1.0000000   1.0000000   1.0000000   1.0000000
 Leave Link  101 at Fri Aug 20 15:58:18 2021, MaxMem= 24159191040 cpu:        10.3
 (Enter /public/home/users/caep010/software/Gaussian09/g09/l103.exe)

 GradGradGradGradGradGradGradGradGradGradGradGradGradGradGradGradGradGrad
 Berny optimization.
 Initialization pass.
                           ----------------------------
                           !    Initial Parameters    !
                           ! (Angstroms and Degrees)  !
 --------------------------                            --------------------------
 ! Name  Definition              Value          Derivative Info.                !
 --------------------------------------------------------------------------------
 ! R1    R(1,2)                  1.2179         estimate D2E/DX2                !
 ! R2    R(2,3)                  1.2268         estimate D2E/DX2                !
 ! R3    R(2,4)                  1.4588         estimate D2E/DX2                !
 ! R4    R(4,5)                  1.3888         estimate D2E/DX2                !
 ! R5    R(4,15)                 1.3736         estimate D2E/DX2                !
 ! R6    R(5,6)                  0.8674         estimate D2E/DX2                !
 ! R7    R(5,7)                  1.3724         estimate D2E/DX2                !
 ! R8    R(7,8)                  1.3977         estimate D2E/DX2                !
 ! R9    R(7,23)                 1.0562         estimate D2E/DX2                !
 ! R10   R(8,9)                  1.4135         estimate D2E/DX2                !
 ! R11   R(8,17)                 1.3911         estimate D2E/DX2                !
 ! R12   R(9,10)                 1.2825         estimate D2E/DX2                !
 ! R13   R(10,11)                1.307          estimate D2E/DX2                !
 ! R14   R(11,12)                1.4384         estimate D2E/DX2                !
 ! R15   R(11,19)                1.454          estimate D2E/DX2                !
 ! R16   R(12,13)                0.958          estimate D2E/DX2                !
 ! R17   R(12,14)                0.9594         estimate D2E/DX2                !
 ! R18   R(12,24)                0.9378         estimate D2E/DX2                !
 ! R19   R(15,16)                0.922          estimate D2E/DX2                !
 ! R20   R(15,17)                1.3684         estimate D2E/DX2                !
 ! R21   R(17,18)                0.8484         estimate D2E/DX2                !
 ! R22   R(19,20)                0.9622         estimate D2E/DX2                !
 ! R23   R(19,21)                0.9563         estimate D2E/DX2                !
 ! R24   R(19,22)                0.949          estimate D2E/DX2                !
 ! A1    A(1,2,3)              123.1911         estimate D2E/DX2                !
 ! A2    A(1,2,4)              118.4627         estimate D2E/DX2                !
 ! A3    A(3,2,4)              118.3462         estimate D2E/DX2                !
 ! A4    A(2,4,5)              119.5206         estimate D2E/DX2                !
 ! A5    A(2,4,15)             119.2229         estimate D2E/DX2                !
 ! A6    A(5,4,15)             121.2559         estimate D2E/DX2                !
 ! A7    A(4,5,6)              120.6448         estimate D2E/DX2                !
 ! A8    A(4,5,7)              119.0383         estimate D2E/DX2                !
 ! A9    A(6,5,7)              120.2307         estimate D2E/DX2                !
 ! A10   A(5,7,8)              120.7004         estimate D2E/DX2                !
 ! A11   A(5,7,23)             117.7149         estimate D2E/DX2                !
 ! A12   A(8,7,23)             121.5847         estimate D2E/DX2                !
 ! A13   A(7,8,9)              125.417          estimate D2E/DX2                !
 ! A14   A(7,8,17)             118.548          estimate D2E/DX2                !
 ! A15   A(9,8,17)             116.0107         estimate D2E/DX2                !
 ! A16   A(8,9,10)             111.7004         estimate D2E/DX2                !
 ! A17   A(9,10,11)            114.4932         estimate D2E/DX2                !
 ! A18   A(10,11,12)           116.3412         estimate D2E/DX2                !
 ! A19   A(10,11,19)           122.038          estimate D2E/DX2                !
 ! A20   A(12,11,19)           121.0724         estimate D2E/DX2                !
 ! A21   A(11,12,13)           109.8026         estimate D2E/DX2                !
 ! A22   A(11,12,14)           109.496          estimate D2E/DX2                !
 ! A23   A(11,12,24)           110.9084         estimate D2E/DX2                !
 ! A24   A(13,12,14)           107.616          estimate D2E/DX2                !
 ! A25   A(13,12,24)           109.5849         estimate D2E/DX2                !
 ! A26   A(14,12,24)           109.3685         estimate D2E/DX2                !
 ! A27   A(4,15,16)            118.3108         estimate D2E/DX2                !
 ! A28   A(4,15,17)            119.2805         estimate D2E/DX2                !
 ! A29   A(16,15,17)           122.3871         estimate D2E/DX2                !
 ! A30   A(8,17,15)            121.1693         estimate D2E/DX2                !
 ! A31   A(8,17,18)            115.0239         estimate D2E/DX2                !
 ! A32   A(15,17,18)           123.8062         estimate D2E/DX2                !
 ! A33   A(11,19,20)           109.6505         estimate D2E/DX2                !
 ! A34   A(11,19,21)           109.8937         estimate D2E/DX2                !
 ! A35   A(11,19,22)           110.8601         estimate D2E/DX2                !
 ! A36   A(20,19,21)           108.1607         estimate D2E/DX2                !
 ! A37   A(20,19,22)           108.9391         estimate D2E/DX2                !
 ! A38   A(21,19,22)           109.2849         estimate D2E/DX2                !
 ! D1    D(1,2,4,5)            177.0481         estimate D2E/DX2                !
 ! D2    D(1,2,4,15)            -2.6949         estimate D2E/DX2                !
 ! D3    D(3,2,4,5)             -2.9874         estimate D2E/DX2                !
 ! D4    D(3,2,4,15)           177.2695         estimate D2E/DX2                !
 ! D5    D(2,4,5,6)              4.4687         estimate D2E/DX2                !
 ! D6    D(2,4,5,7)           -178.8996         estimate D2E/DX2                !
 ! D7    D(15,4,5,6)          -175.7936         estimate D2E/DX2                !
 ! D8    D(15,4,5,7)             0.838          estimate D2E/DX2                !
 ! D9    D(2,4,15,16)           -2.1382         estimate D2E/DX2                !
 ! D10   D(2,4,15,17)          179.5091         estimate D2E/DX2                !
 ! D11   D(5,4,15,16)          178.1234         estimate D2E/DX2                !
 ! D12   D(5,4,15,17)           -0.2293         estimate D2E/DX2                !
 ! D13   D(4,5,7,8)             -1.0579         estimate D2E/DX2                !
 ! D14   D(4,5,7,23)           178.929          estimate D2E/DX2                !
 ! D15   D(6,5,7,8)            175.588          estimate D2E/DX2                !
 ! D16   D(6,5,7,23)            -4.4251         estimate D2E/DX2                !
 ! D17   D(5,7,8,9)            178.8073         estimate D2E/DX2                !
 ! D18   D(5,7,8,17)             0.6771         estimate D2E/DX2                !
 ! D19   D(23,7,8,9)            -1.1791         estimate D2E/DX2                !
 ! D20   D(23,7,8,17)         -179.3093         estimate D2E/DX2                !
 ! D21   D(7,8,9,10)             8.215          estimate D2E/DX2                !
 ! D22   D(17,8,9,10)         -173.6125         estimate D2E/DX2                !
 ! D23   D(7,8,17,15)           -0.0553         estimate D2E/DX2                !
 ! D24   D(7,8,17,18)          179.7001         estimate D2E/DX2                !
 ! D25   D(9,8,17,15)         -178.3598         estimate D2E/DX2                !
 ! D26   D(9,8,17,18)            1.3955         estimate D2E/DX2                !
 ! D27   D(8,9,10,11)         -178.9833         estimate D2E/DX2                !
 ! D28   D(9,10,11,12)         175.622          estimate D2E/DX2                !
 ! D29   D(9,10,11,19)           4.034          estimate D2E/DX2                !
 ! D30   D(10,11,12,13)        130.1274         estimate D2E/DX2                !
 ! D31   D(10,11,12,14)       -111.9225         estimate D2E/DX2                !
 ! D32   D(10,11,12,24)          8.8659         estimate D2E/DX2                !
 ! D33   D(19,11,12,13)        -58.1974         estimate D2E/DX2                !
 ! D34   D(19,11,12,14)         59.7527         estimate D2E/DX2                !
 ! D35   D(19,11,12,24)       -179.4589         estimate D2E/DX2                !
 ! D36   D(10,11,19,20)         -8.624          estimate D2E/DX2                !
 ! D37   D(10,11,19,21)        110.1383         estimate D2E/DX2                !
 ! D38   D(10,11,19,22)       -128.9472         estimate D2E/DX2                !
 ! D39   D(12,11,19,20)       -179.8195         estimate D2E/DX2                !
 ! D40   D(12,11,19,21)        -61.0572         estimate D2E/DX2                !
 ! D41   D(12,11,19,22)         59.8573         estimate D2E/DX2                !
 ! D42   D(4,15,17,8)           -0.1635         estimate D2E/DX2                !
 ! D43   D(4,15,17,18)        -179.8967         estimate D2E/DX2                !
 ! D44   D(16,15,17,8)        -178.4461         estimate D2E/DX2                !
 ! D45   D(16,15,17,18)          1.8207         estimate D2E/DX2                !
 --------------------------------------------------------------------------------
 Trust Radius=3.00D-01 FncErr=1.00D-07 GrdErr=1.00D-06
 Number of steps in this run=    117 maximum allowed number of steps=    144.
 GradGradGradGradGradGradGradGradGradGradGradGradGradGradGradGradGradGrad

 Leave Link  103 at Fri Aug 20 15:58:18 2021, MaxMem= 24159191040 cpu:         0.4
 (Enter /public/home/users/caep010/software/Gaussian09/g09/l202.exe)
                          Input orientation:                          
 ---------------------------------------------------------------------
 Center     Atomic      Atomic             Coordinates (Angstroms)
 Number     Number       Type             X           Y           Z
 ---------------------------------------------------------------------
      1          8           0        8.166500    3.046800   11.500900
      2          7           0        6.992300    2.723600   11.514300
      3          8           0        6.215400    3.052200   12.405100
      4          6           0        6.483500    1.906700   10.418000
      5          6           0        5.164000    1.474000   10.442200
      6          1           0        4.625600    1.731900   11.071500
      7          6           0        4.702100    0.687000    9.417100
      8          6           0        5.537000    0.341600    8.350700
      9          7           0        5.174100   -0.479500    7.258900
     10          7           0        3.919900   -0.747200    7.263200
     11          7           0        3.527900   -1.522200    6.286500
     12          6           0        2.147900   -1.927400    6.307800
     13          1           0        1.749400   -1.767400    5.451400
     14          1           0        2.093400   -2.869300    6.482000
     15          6           0        7.323200    1.575800    9.382500
     16          1           0        8.183700    1.906700    9.394500
     17          6           0        6.850000    0.801100    8.358500
     18          1           0        7.317900    0.561900    7.692400
     19          6           0        4.464900   -2.099400    5.336300
     20          1           0        5.337200   -1.715100    5.467900
     21          1           0        4.530700   -3.043100    5.476500
     22          1           0        4.186700   -1.933700    4.444200
     23          1           0        3.700400    0.355500    9.465300
     24          1           0        1.672300   -1.461000    6.967900
 ---------------------------------------------------------------------
                    Distance matrix (angstroms):
                    1          2          3          4          5
     1  O    0.000000
     2  N    1.217942   0.000000
     3  O    2.150441   1.226815   0.000000
     4  C    2.303256   1.458793   2.309245   0.000000
     5  C    3.550993   2.460402   2.729310   1.388847   0.000000
     6  H    3.801489   2.603999   2.459501   1.977223   0.867413
     7  C    4.681127   3.713624   4.100292   2.379675   1.372425
     8  C    4.914889   4.219027   4.923996   2.760277   2.407453
     9  N    6.275652   5.627977   6.327763   4.169939   3.734925
    10  N    7.098320   6.289511   6.792930   4.854688   4.072782
    11  N    8.341603   7.573558   8.098460   6.128802   5.378093
    12  C    9.377340   8.497509   8.861041   7.098697   6.144888
    13  H   10.047494   9.187809   9.567008   7.783176   6.861068
    14  H    9.852519   8.977962   9.334782   7.587836   6.631442
    15  C    2.713414   2.443668   3.541622   1.373627   2.407379
    16  H    2.395213   2.565212   3.774929   1.984498   3.225445
    17  C    4.080566   3.698017   4.673878   2.366054   2.763548
    18  H    4.625962   4.402940   5.443036   3.151762   3.610071
    19  C    8.842370   8.235093   8.920267   6.778441   6.271215
    20  H    8.190099   7.681170   8.463045   6.239786   5.911347
    21  H    9.305876   8.704558   9.380639   7.261706   6.742658
    22  H    9.510058   8.918977   9.609930   7.463930   6.967319
    23  H    5.597572   4.543446   4.715913   3.325583   2.085066
    24  H    9.112792   8.153713   8.400707   6.811185   5.733843
                    6          7          8          9         10
     6  H    0.000000
     7  C    1.958241   0.000000
     8  C    3.188469   1.397701   0.000000
     9  N    4.441516   2.498266   1.413481   0.000000
    10  N    4.598597   2.703341   2.232298   1.282458   0.000000
    11  N    5.889850   4.007489   3.430912   2.177788   1.306993
    12  C    6.497870   4.798622   4.561557   3.486960   2.333591
    13  H    7.218251   5.519900   5.215337   4.080970   3.005744
    14  H    6.974711   5.297867   5.065600   3.975604   2.906834
    15  C    3.186555   2.767910   2.403824   3.654116   4.633596
    16  H    3.937380   3.689135   3.247165   4.394591   5.455787
    17  C    3.629699   2.397317   1.391104   2.378591   3.490330
    18  H    4.476125   3.135706   1.911412   2.422460   3.666655
    19  C    6.899073   4.947041   4.024237   2.612170   2.416281
    20  H    6.617289   4.665792   3.546896   2.181969   2.483681
    21  H    7.356198   5.428752   4.553006   3.187940   2.972630
    22  H    7.586195   5.644771   4.718161   3.318462   3.070134
    23  H    2.308755   1.056228   2.148401   2.781585   2.472523
    24  H    5.979642   4.448839   4.483013   3.648373   2.376640
                   11         12         13         14         15
    11  N    0.000000
    12  C    1.438416   0.000000
    13  H    1.980045   0.958031   0.000000
    14  H    1.977546   0.959422   1.547468   0.000000
    15  C    5.795440   6.964906   7.595905   7.451350   0.000000
    16  H    6.564563   7.788384   8.393287   8.269497   0.922008
    17  C    4.552720   5.810321   6.408162   6.294309   1.368450
    18  H    4.547981   5.902765   6.438627   6.366600   1.970903
    19  C    1.453963   2.518310   2.738140   2.743973   6.168364
    20  H    1.995215   3.304866   3.588219   3.589264   5.486193
    21  H    1.993701   2.759272   3.060011   2.642285   6.662517
    22  H    1.999355   2.762200   2.642449   3.067553   6.822099
    23  H    3.695982   4.194245   4.942115   4.677805   3.823698
    24  H    1.977701   0.937793   1.549063   1.548139   6.854569
                   16         17         18         19         20
    16  H    0.000000
    17  C    2.018515   0.000000
    18  H    2.335646   0.848432   0.000000
    19  C    6.807885   4.820300   4.557777   0.000000
    20  H    6.052948   4.120121   3.749173   0.962243   0.000000
    21  H    7.293535   5.335068   5.067023   0.956324   1.553737
    22  H    7.431699   5.467544   5.155893   0.949049   1.555441
    23  H    4.744598   3.368018   4.033867   4.864117   4.790168
    24  H    7.721925   5.818887   6.040681   3.296709   3.968130
                   21         22         23         24
    21  H    0.000000
    22  H    1.553946   0.000000
    23  H    5.305696   5.539708   0.000000
    24  H    3.591346   3.593705   3.694573   0.000000
 Stoichiometry    C8H10N4O2
 Framework group  C1[X(C8H10N4O2)]
 Deg. of freedom    66
 Full point group                 C1      NOp   1
 Largest Abelian subgroup         C1      NOp   1
 Largest concise Abelian subgroup C1      NOp   1
                         Standard orientation:                         
 ---------------------------------------------------------------------
 Center     Atomic      Atomic             Coordinates (Angstroms)
 Number     Number       Type             X           Y           Z
 ---------------------------------------------------------------------
      1          8           0       -4.523461    0.794091    0.031116
      2          7           0       -3.811598   -0.194082    0.018902
      3          8           0       -4.251948   -1.339131    0.024459
      4          6           0       -2.364846   -0.008480   -0.004262
      5          6           0       -1.531631   -1.118591    0.043723
      6          1           0       -1.862135   -1.920437    0.029061
      7          6           0       -0.172017   -0.931512    0.044390
      8          6           0        0.371402    0.354375   -0.024595
      9          7           0        1.750704    0.662812   -0.006686
     10          7           0        2.473844   -0.393162   -0.088462
     11          7           0        3.761561   -0.171948   -0.055575
     12          6           0        4.608809   -1.334328   -0.046269
     13          1           0        5.285716   -1.247959   -0.718697
     14          1           0        5.050103   -1.402111    0.802940
     15          6           0       -1.852993    1.264629   -0.067916
     16          1           0       -2.443056    1.970816   -0.124701
     17          6           0       -0.495952    1.440586   -0.079491
     18          1           0       -0.118659    2.199618   -0.116325
     19          6           0        4.310590    1.158511    0.150466
     20          1           0        3.603000    1.809636    0.114907
     21          1           0        4.721107    1.211216    1.012588
     22          1           0        4.953619    1.365697   -0.516079
     23          1           0        0.441839   -1.789323    0.098785
     24          1           0        4.109982   -2.113307   -0.200606
 ---------------------------------------------------------------------
 Rotational constants (GHZ):      2.6573253      0.2649810      0.2416977
 Leave Link  202 at Fri Aug 20 15:58:18 2021, MaxMem= 24159191040 cpu:         0.6
 (Enter /public/home/users/caep010/software/Gaussian09/g09/l301.exe)
 Standard basis: 6-31G(d,p) (6D, 7F)
 Ernie: Thresh=  0.10000D-02 Tol=  0.10000D-05 Strict=F.
 There are   260 symmetry adapted cartesian basis functions of A   symmetry.
 There are   260 symmetry adapted basis functions of A   symmetry.
   260 basis functions,   462 primitive gaussians,   260 cartesian basis functions
    51 alpha electrons       51 beta electrons
       nuclear repulsion energy       847.6359227660 Hartrees.
 IExCor=  402 DFT=T Ex+Corr=B3LYP ExCW=0 ScaHFX=  0.200000
 ScaDFX=  0.800000  0.720000  1.000000  0.810000 ScalE2=  1.000000  1.000000
 IRadAn=      0 IRanWt=     -1 IRanGd=            0 ICorTp=0 IEmpDi=  4
 NAtoms=   24 NActive=   24 NUniq=   24 SFac= 1.00D+00 NAtFMM=   60 NAOKFM=F Big=F
 Integral buffers will be    131072 words long.
 Raffenetti 2 integral format.
 Two-electron integral symmetry is turned on.
 Leave Link  301 at Fri Aug 20 15:58:18 2021, MaxMem= 24159191040 cpu:         3.0
 (Enter /public/home/users/caep010/software/Gaussian09/g09/l302.exe)
 NPDir=0 NMtPBC=     1 NCelOv=     1 NCel=       1 NClECP=     1 NCelD=      1
         NCelK=      1 NCelE2=     1 NClLst=     1 CellRange=     0.0.
 One-electron integrals computed using PRISM.
 NBasis=   260 RedAO= T EigKep=  3.38D-04  NBF=   260
 NBsUse=   260 1.00D-06 EigRej= -1.00D+00 NBFU=   260
 Precomputing XC quadrature grid using
 IXCGrd= 4 IRadAn=           0 IRanWt=          -1 IRanGd=           0 AccXCQ= 0.00D+00.
 Generated NRdTot=       0 NPtTot=           0 NUsed=           0 NTot=          32
 NSgBfM=   257   257   257   257   257 MxSgAt=    24 MxSgA2=    24.
 Leave Link  302 at Fri Aug 20 15:58:18 2021, MaxMem= 24159191040 cpu:        13.4
 (Enter /public/home/users/caep010/software/Gaussian09/g09/l303.exe)
 DipDrv:  MaxL=1.
 Leave Link  303 at Fri Aug 20 15:58:19 2021, MaxMem= 24159191040 cpu:         2.7
 (Enter /public/home/users/caep010/software/Gaussian09/g09/l401.exe)
 ExpMin= 1.61D-01 ExpMax= 5.48D+03 ExpMxC= 8.25D+02 IAcc=1 IRadAn=         1 AccDes= 0.00D+00
 Harris functional with IExCor=  402 and IRadAn=       1 diagonalized for initial guess.
 HarFok:  IExCor=  402 AccDes= 0.00D+00 IRadAn=         1 IDoV= 1 UseB2=F ITyADJ=14
 ICtDFT=  3500011 ScaDFX=  1.000000  1.000000  1.000000  1.000000
 FoFCou: FMM=F IPFlag=           0 FMFlag=      100000 FMFlg1=           0
         NFxFlg=           0 DoJE=T BraDBF=F KetDBF=T FulRan=T
         wScrn=  0.000000 ICntrl=     500 IOpCl=  0 I1Cent=   200000004 NGrid=           0
         NMat0=    1 NMatS0=      1 NMatT0=    0 NMatD0=    1 NMtDS0=    0 NMtDT0=    0
 Petite list used in FoFCou.
 Harris En= -680.109956562810    
 JPrj=0 DoOrth=F DoCkMO=F.
 Leave Link  401 at Fri Aug 20 15:58:19 2021, MaxMem= 24159191040 cpu:        13.6
 (Enter /public/home/users/caep010/software/Gaussian09/g09/l502.exe)
 Closed shell SCF:
 Using DIIS extrapolation, IDIIS=  1040.
 Integral symmetry usage will be decided dynamically.
 Keep R1 ints in memory in canonical form, NReq=584760699.
 IVT=      231624 IEndB=      231624 NGot= 24159191040 MDV= 23583320002
 LenX= 23583320002 LenY= 23583251961
 Requested convergence on RMS density matrix=1.00D-08 within 128 cycles.
 Requested convergence on MAX density matrix=1.00D-06.
 Requested convergence on             energy=1.00D-06.
 No special actions if energy rises.
 FoFCou: FMM=F IPFlag=           0 FMFlag=           0 FMFlg1=           0
         NFxFlg=           0 DoJE=F BraDBF=F KetDBF=F FulRan=T
         wScrn=  0.000000 ICntrl=     600 IOpCl=  0 I1Cent=           0 NGrid=           0
         NMat0=    1 NMatS0=  33930 NMatT0=    0 NMatD0=    1 NMtDS0=    0 NMtDT0=    0
 Symmetry not used in FoFCou.
 Integral accuracy reduced to 1.0D-05 until final iterations.

 Cycle   1  Pass 0  IDiag  1:
 E= -679.453584771782    
 DIIS: error= 4.97D-02 at cycle   1 NSaved=   1.
 NSaved= 1 IEnMin= 1 EnMin= -679.453584771782     IErMin= 1 ErrMin= 4.97D-02
 ErrMax= 4.97D-02  0.00D+00 EMaxC= 1.00D-01 BMatC= 5.64D-01 BMatP= 5.64D-01
 IDIUse=3 WtCom= 5.03D-01 WtEn= 4.97D-01
 Coeff-Com:  0.100D+01
 Coeff-En:   0.100D+01
 Coeff:      0.100D+01
 Gap=     0.181 Goal=   None    Shift=    0.000
 GapD=    0.181 DampG=1.000 DampE=0.500 DampFc=0.5000 IDamp=-1.
 Damping current iteration by 5.00D-01
 RMSDP=6.03D-03 MaxDP=2.45D-01              OVMax= 3.68D-01

 Cycle   2  Pass 0  IDiag  1:
 E= -679.594329573262     Delta-E=       -0.140744801480 Rises=F Damp=T
 DIIS: error= 1.55D-02 at cycle   2 NSaved=   2.
 NSaved= 2 IEnMin= 2 EnMin= -679.594329573262     IErMin= 2 ErrMin= 1.55D-02
 ErrMax= 1.55D-02  0.00D+00 EMaxC= 1.00D-01 BMatC= 9.25D-02 BMatP= 5.64D-01
 IDIUse=3 WtCom= 8.45D-01 WtEn= 1.55D-01
 Coeff-Com:  0.220D+00 0.780D+00
 Coeff-En:   0.337D+00 0.663D+00
 Coeff:      0.238D+00 0.762D+00
 Gap=     0.175 Goal=   None    Shift=    0.000
 RMSDP=2.11D-03 MaxDP=8.11D-02 DE=-1.41D-01 OVMax= 3.59D-01

 Cycle   3  Pass 0  IDiag  1:
 E= -679.902724156763     Delta-E=       -0.308394583501 Rises=F Damp=F
 DIIS: error= 1.65D-02 at cycle   3 NSaved=   3.
 NSaved= 3 IEnMin= 3 EnMin= -679.902724156763     IErMin= 2 ErrMin= 1.55D-02
 ErrMax= 1.65D-02  0.00D+00 EMaxC= 1.00D-01 BMatC= 5.88D-02 BMatP= 9.25D-02
 IDIUse=3 WtCom= 8.35D-01 WtEn= 1.65D-01
 Coeff-Com:  0.674D-01 0.435D+00 0.498D+00
 Coeff-En:   0.000D+00 0.000D+00 0.100D+01
 Coeff:      0.563D-01 0.363D+00 0.581D+00
 Gap=     0.144 Goal=   None    Shift=    0.000
 RMSDP=1.52D-03 MaxDP=6.93D-02 DE=-3.08D-01 OVMax= 1.59D-01

 Cycle   4  Pass 0  IDiag  1:
 E= -679.928486924518     Delta-E=       -0.025762767755 Rises=F Damp=F
 DIIS: error= 1.24D-02 at cycle   4 NSaved=   4.
 NSaved= 4 IEnMin= 4 EnMin= -679.928486924518     IErMin= 4 ErrMin= 1.24D-02
 ErrMax= 1.24D-02  0.00D+00 EMaxC= 1.00D-01 BMatC= 3.13D-02 BMatP= 5.88D-02
 IDIUse=3 WtCom= 8.76D-01 WtEn= 1.24D-01
 Coeff-Com:  0.281D-01 0.167D+00 0.408D+00 0.396D+00
 Coeff-En:   0.000D+00 0.000D+00 0.375D+00 0.625D+00
 Coeff:      0.246D-01 0.146D+00 0.404D+00 0.425D+00
 Gap=     0.144 Goal=   None    Shift=    0.000
 RMSDP=8.43D-04 MaxDP=4.85D-02 DE=-2.58D-02 OVMax= 9.27D-02

 Cycle   5  Pass 0  IDiag  1:
 E= -679.955207881875     Delta-E=       -0.026720957356 Rises=F Damp=F
 DIIS: error= 3.13D-03 at cycle   5 NSaved=   5.
 NSaved= 5 IEnMin= 5 EnMin= -679.955207881875     IErMin= 5 ErrMin= 3.13D-03
 ErrMax= 3.13D-03  0.00D+00 EMaxC= 1.00D-01 BMatC= 2.72D-03 BMatP= 3.13D-02
 IDIUse=3 WtCom= 9.69D-01 WtEn= 3.13D-02
 Coeff-Com:  0.749D-02 0.169D-01 0.164D+00 0.288D+00 0.524D+00
 Coeff-En:   0.000D+00 0.000D+00 0.000D+00 0.684D-01 0.932D+00
 Coeff:      0.726D-02 0.163D-01 0.159D+00 0.281D+00 0.536D+00
 Gap=     0.144 Goal=   None    Shift=    0.000
 RMSDP=2.27D-04 MaxDP=1.16D-02 DE=-2.67D-02 OVMax= 2.07D-02

 Cycle   6  Pass 0  IDiag  1:
 E= -679.957435979123     Delta-E=       -0.002228097248 Rises=F Damp=F
 DIIS: error= 6.30D-04 at cycle   6 NSaved=   6.
 NSaved= 6 IEnMin= 6 EnMin= -679.957435979123     IErMin= 6 ErrMin= 6.30D-04
 ErrMax= 6.30D-04  0.00D+00 EMaxC= 1.00D-01 BMatC= 1.64D-04 BMatP= 2.72D-03
 IDIUse=3 WtCom= 9.94D-01 WtEn= 6.30D-03
 Coeff-Com:  0.166D-02-0.264D-02 0.550D-01 0.119D+00 0.299D+00 0.528D+00
 Coeff-En:   0.000D+00 0.000D+00 0.000D+00 0.000D+00 0.000D+00 0.100D+01
 Coeff:      0.165D-02-0.263D-02 0.547D-01 0.119D+00 0.297D+00 0.531D+00
 Gap=     0.145 Goal=   None    Shift=    0.000
 RMSDP=6.01D-05 MaxDP=3.02D-03 DE=-2.23D-03 OVMax= 5.65D-03

 Cycle   7  Pass 0  IDiag  1:
 E= -679.957556481697     Delta-E=       -0.000120502574 Rises=F Damp=F
 DIIS: error= 1.98D-04 at cycle   7 NSaved=   7.
 NSaved= 7 IEnMin= 7 EnMin= -679.957556481697     IErMin= 7 ErrMin= 1.98D-04
 ErrMax= 1.98D-04  0.00D+00 EMaxC= 1.00D-01 BMatC= 1.60D-05 BMatP= 1.64D-04
 IDIUse=3 WtCom= 9.98D-01 WtEn= 1.98D-03
 Coeff-Com:  0.250D-03-0.296D-02 0.120D-01 0.329D-01 0.104D+00 0.296D+00
 Coeff-Com:  0.558D+00
 Coeff-En:   0.000D+00 0.000D+00 0.000D+00 0.000D+00 0.000D+00 0.684D-01
 Coeff-En:   0.932D+00
 Coeff:      0.250D-03-0.295D-02 0.120D-01 0.328D-01 0.104D+00 0.296D+00
 Coeff:      0.558D+00
 Gap=     0.145 Goal=   None    Shift=    0.000
 RMSDP=2.23D-05 MaxDP=8.71D-04 DE=-1.21D-04 OVMax= 2.44D-03

 Cycle   8  Pass 0  IDiag  1:
 E= -679.957571150441     Delta-E=       -0.000014668744 Rises=F Damp=F
 DIIS: error= 1.38D-04 at cycle   8 NSaved=   8.
 NSaved= 8 IEnMin= 8 EnMin= -679.957571150441     IErMin= 8 ErrMin= 1.38D-04
 ErrMax= 1.38D-04  0.00D+00 EMaxC= 1.00D-01 BMatC= 1.87D-06 BMatP= 1.60D-05
 IDIUse=3 WtCom= 9.99D-01 WtEn= 1.38D-03
 Coeff-Com:  0.356D-04-0.161D-02 0.308D-02 0.107D-01 0.402D-01 0.132D+00
 Coeff-Com:  0.340D+00 0.475D+00
 Coeff-En:   0.000D+00 0.000D+00 0.000D+00 0.000D+00 0.000D+00 0.000D+00
 Coeff-En:   0.450D-01 0.955D+00
 Coeff:      0.355D-04-0.161D-02 0.307D-02 0.107D-01 0.402D-01 0.132D+00
 Coeff:      0.339D+00 0.476D+00
 Gap=     0.145 Goal=   None    Shift=    0.000
 RMSDP=7.08D-06 MaxDP=4.29D-04 DE=-1.47D-05 OVMax= 7.44D-04

 Initial convergence to 1.0D-05 achieved.  Increase integral accuracy.
 Cycle   9  Pass 1  IDiag  1:
 E= -679.957569803084     Delta-E=        0.000001347357 Rises=F Damp=F
 DIIS: error= 1.05D-04 at cycle   1 NSaved=   1.
 NSaved= 1 IEnMin= 1 EnMin= -679.957569803084     IErMin= 1 ErrMin= 1.05D-04
 ErrMax= 1.05D-04  0.00D+00 EMaxC= 1.00D-01 BMatC= 5.92D-07 BMatP= 5.92D-07
 IDIUse=3 WtCom= 9.99D-01 WtEn= 1.05D-03
 Coeff-Com:  0.100D+01
 Coeff-En:   0.100D+01
 Coeff:      0.100D+01
 Gap=     0.145 Goal=   None    Shift=    0.000
 RMSDP=7.08D-06 MaxDP=4.29D-04 DE= 1.35D-06 OVMax= 1.30D-03

 Cycle  10  Pass 1  IDiag  1:
 E= -679.957566694890     Delta-E=        0.000003108194 Rises=F Damp=F
 DIIS: error= 3.17D-04 at cycle   2 NSaved=   2.
 NSaved= 2 IEnMin= 1 EnMin= -679.957569803084     IErMin= 1 ErrMin= 1.05D-04
 ErrMax= 3.17D-04  0.00D+00 EMaxC= 1.00D-01 BMatC= 4.47D-06 BMatP= 5.92D-07
 IDIUse=3 WtCom= 3.60D-01 WtEn= 6.40D-01
 Coeff-Com:  0.741D+00 0.259D+00
 Coeff-En:   0.817D+00 0.183D+00
 Coeff:      0.790D+00 0.210D+00
 Gap=     0.145 Goal=   None    Shift=    0.000
 RMSDP=5.62D-06 MaxDP=3.90D-04 DE= 3.11D-06 OVMax= 8.27D-04

 Cycle  11  Pass 1  IDiag  1:
 E= -679.957570239664     Delta-E=       -0.000003544774 Rises=F Damp=F
 DIIS: error= 4.60D-05 at cycle   3 NSaved=   3.
 NSaved= 3 IEnMin= 3 EnMin= -679.957570239664     IErMin= 3 ErrMin= 4.60D-05
 ErrMax= 4.60D-05  0.00D+00 EMaxC= 1.00D-01 BMatC= 1.27D-07 BMatP= 5.92D-07
 IDIUse=1 WtCom= 1.00D+00 WtEn= 0.00D+00
 Coeff-Com:  0.258D+00-0.344D-01 0.777D+00
 Coeff:      0.258D+00-0.344D-01 0.777D+00
 Gap=     0.145 Goal=   None    Shift=    0.000
 RMSDP=1.65D-06 MaxDP=7.18D-05 DE=-3.54D-06 OVMax= 1.20D-04

 Cycle  12  Pass 1  IDiag  1:
 E= -679.957570339768     Delta-E=       -0.000000100104 Rises=F Damp=F
 DIIS: error= 7.51D-06 at cycle   4 NSaved=   4.
 NSaved= 4 IEnMin= 4 EnMin= -679.957570339768     IErMin= 4 ErrMin= 7.51D-06
 ErrMax= 7.51D-06  0.00D+00 EMaxC= 1.00D-01 BMatC= 1.34D-08 BMatP= 1.27D-07
 IDIUse=1 WtCom= 1.00D+00 WtEn= 0.00D+00
 Coeff-Com:  0.556D-02-0.817D-01 0.516D+00 0.560D+00
 Coeff:      0.556D-02-0.817D-01 0.516D+00 0.560D+00
 Gap=     0.145 Goal=   None    Shift=    0.000
 RMSDP=5.46D-07 MaxDP=2.16D-05 DE=-1.00D-07 OVMax= 4.45D-05

 Cycle  13  Pass 1  IDiag  1:
 E= -679.957570351800     Delta-E=       -0.000000012031 Rises=F Damp=F
 DIIS: error= 1.69D-06 at cycle   5 NSaved=   5.
 NSaved= 5 IEnMin= 5 EnMin= -679.957570351800     IErMin= 5 ErrMin= 1.69D-06
 ErrMax= 1.69D-06  0.00D+00 EMaxC= 1.00D-01 BMatC= 1.23D-09 BMatP= 1.34D-08
 IDIUse=1 WtCom= 1.00D+00 WtEn= 0.00D+00
 Coeff-Com: -0.103D-01-0.508D-01 0.292D+00 0.352D+00 0.417D+00
 Coeff:     -0.103D-01-0.508D-01 0.292D+00 0.352D+00 0.417D+00
 Gap=     0.145 Goal=   None    Shift=    0.000
 RMSDP=1.71D-07 MaxDP=8.18D-06 DE=-1.20D-08 OVMax= 1.34D-05

 Cycle  14  Pass 1  IDiag  1:
 E= -679.957570352840     Delta-E=       -0.000000001041 Rises=F Damp=F
 DIIS: error= 7.31D-07 at cycle   6 NSaved=   6.
 NSaved= 6 IEnMin= 6 EnMin= -679.957570352840     IErMin= 6 ErrMin= 7.31D-07
 ErrMax= 7.31D-07  0.00D+00 EMaxC= 1.00D-01 BMatC= 1.20D-10 BMatP= 1.23D-09
 IDIUse=1 WtCom= 1.00D+00 WtEn= 0.00D+00
 Coeff-Com: -0.706D-02-0.236D-01 0.131D+00 0.162D+00 0.273D+00 0.465D+00
 Coeff:     -0.706D-02-0.236D-01 0.131D+00 0.162D+00 0.273D+00 0.465D+00
 Gap=     0.145 Goal=   None    Shift=    0.000
 RMSDP=5.45D-08 MaxDP=3.11D-06 DE=-1.04D-09 OVMax= 6.11D-06

 Cycle  15  Pass 1  IDiag  1:
 E= -679.957570352942     Delta-E=       -0.000000000102 Rises=F Damp=F
 DIIS: error= 2.48D-07 at cycle   7 NSaved=   7.
 NSaved= 7 IEnMin= 7 EnMin= -679.957570352942     IErMin= 7 ErrMin= 2.48D-07
 ErrMax= 2.48D-07  0.00D+00 EMaxC= 1.00D-01 BMatC= 1.50D-11 BMatP= 1.20D-10
 IDIUse=1 WtCom= 1.00D+00 WtEn= 0.00D+00
 Coeff-Com: -0.348D-02-0.896D-02 0.482D-01 0.590D-01 0.124D+00 0.309D+00
 Coeff-Com:  0.473D+00
 Coeff:     -0.348D-02-0.896D-02 0.482D-01 0.590D-01 0.124D+00 0.309D+00
 Coeff:      0.473D+00
 Gap=     0.145 Goal=   None    Shift=    0.000
 RMSDP=1.84D-08 MaxDP=6.82D-07 DE=-1.02D-10 OVMax= 1.92D-06

 Cycle  16  Pass 1  IDiag  1:
 E= -679.957570352937     Delta-E=        0.000000000005 Rises=F Damp=F
 DIIS: error= 4.93D-08 at cycle   8 NSaved=   8.
 NSaved= 8 IEnMin= 7 EnMin= -679.957570352942     IErMin= 8 ErrMin= 4.93D-08
 ErrMax= 4.93D-08  0.00D+00 EMaxC= 1.00D-01 BMatC= 8.28D-13 BMatP= 1.50D-11
 IDIUse=1 WtCom= 1.00D+00 WtEn= 0.00D+00
 Coeff-Com: -0.492D-03-0.671D-03 0.289D-02 0.265D-02 0.177D-01 0.843D-01
 Coeff-Com:  0.220D+00 0.673D+00
 Coeff:     -0.492D-03-0.671D-03 0.289D-02 0.265D-02 0.177D-01 0.843D-01
 Coeff:      0.220D+00 0.673D+00
 Gap=     0.145 Goal=   None    Shift=    0.000
 RMSDP=5.35D-09 MaxDP=2.54D-07 DE= 5.23D-12 OVMax= 4.29D-07

 SCF Done:  E(RB3LYP) =  -679.957570353     A.U. after   16 cycles
            NFock= 16  Conv=0.54D-08     -V/T= 2.0045
 KE= 6.769026072633D+02 PE=-3.281492162906D+03 EE= 1.076996062524D+03
 Leave Link  502 at Fri Aug 20 15:58:39 2021, MaxMem= 24159191040 cpu:       142.1
 (Enter /public/home/users/caep010/software/Gaussian09/g09/l601.exe)
 Copying SCF densities to generalized density rwf, IOpCl= 0 IROHF=0.

 **********************************************************************

            Population analysis using the SCF density.

 **********************************************************************

 Orbital symmetries:
       Occupied  (A) (A) (A) (A) (A) (A) (A) (A) (A) (A) (A) (A)
                 (A) (A) (A) (A) (A) (A) (A) (A) (A) (A) (A) (A)
                 (A) (A) (A) (A) (A) (A) (A) (A) (A) (A) (A) (A)
                 (A) (A) (A) (A) (A) (A) (A) (A) (A) (A) (A) (A)
                 (A) (A) (A)
       Virtual   (A) (A) (A) (A) (A) (A) (A) (A) (A) (A) (A) (A)
                 (A) (A) (A) (A) (A) (A) (A) (A) (A) (A) (A) (A)
                 (A) (A) (A) (A) (A) (A) (A) (A) (A) (A) (A) (A)
                 (A) (A) (A) (A) (A) (A) (A) (A) (A) (A) (A) (A)
                 (A) (A) (A) (A) (A) (A) (A) (A) (A) (A) (A) (A)
                 (A) (A) (A) (A) (A) (A) (A) (A) (A) (A) (A) (A)
                 (A) (A) (A) (A) (A) (A) (A) (A) (A) (A) (A) (A)
                 (A) (A) (A) (A) (A) (A) (A) (A) (A) (A) (A) (A)
                 (A) (A) (A) (A) (A) (A) (A) (A) (A) (A) (A) (A)
                 (A) (A) (A) (A) (A) (A) (A) (A) (A) (A) (A) (A)
                 (A) (A) (A) (A) (A) (A) (A) (A) (A) (A) (A) (A)
                 (A) (A) (A) (A) (A) (A) (A) (A) (A) (A) (A) (A)
                 (A) (A) (A) (A) (A) (A) (A) (A) (A) (A) (A) (A)
                 (A) (A) (A) (A) (A) (A) (A) (A) (A) (A) (A) (A)
                 (A) (A) (A) (A) (A) (A) (A) (A) (A) (A) (A) (A)
                 (A) (A) (A) (A) (A) (A) (A) (A) (A) (A) (A) (A)
                 (A) (A) (A) (A) (A) (A) (A) (A) (A) (A) (A) (A)
                 (A) (A) (A) (A) (A)
 The electronic state is 1-A.
 Alpha  occ. eigenvalues --  -19.16219 -19.16004 -14.55468 -14.42573 -14.41727
 Alpha  occ. eigenvalues --  -14.35704 -10.23050 -10.22831 -10.20341 -10.19590
 Alpha  occ. eigenvalues --  -10.19089 -10.18655 -10.18338 -10.17177  -1.21539
 Alpha  occ. eigenvalues --   -1.09080  -1.03681  -0.94920  -0.88421  -0.81625
 Alpha  occ. eigenvalues --   -0.79440  -0.78080  -0.76623  -0.69248  -0.65331
 Alpha  occ. eigenvalues --   -0.62179  -0.59640  -0.56536  -0.53741  -0.52857
 Alpha  occ. eigenvalues --   -0.52778  -0.51977  -0.49877  -0.48958  -0.46789
 Alpha  occ. eigenvalues --   -0.46321  -0.46120  -0.45279  -0.44355  -0.42981
 Alpha  occ. eigenvalues --   -0.42387  -0.38261  -0.37765  -0.36798  -0.29759
 Alpha  occ. eigenvalues --   -0.29331  -0.29296  -0.27280  -0.26743  -0.25547
 Alpha  occ. eigenvalues --   -0.22190
 Alpha virt. eigenvalues --   -0.07697  -0.03256  -0.00827   0.04588   0.09634
 Alpha virt. eigenvalues --    0.12625   0.13687   0.15102   0.15643   0.16640
 Alpha virt. eigenvalues --    0.16896   0.17246   0.19636   0.20204   0.20643
 Alpha virt. eigenvalues --    0.21080   0.22072   0.23542   0.25318   0.28435
 Alpha virt. eigenvalues --    0.28846   0.30125   0.30701   0.34280   0.35882
 Alpha virt. eigenvalues --    0.40148   0.41846   0.43739   0.48257   0.49759
 Alpha virt. eigenvalues --    0.49921   0.50700   0.50989   0.51541   0.53003
 Alpha virt. eigenvalues --    0.54687   0.57010   0.57791   0.58207   0.58633
 Alpha virt. eigenvalues --    0.59525   0.62533   0.63658   0.64491   0.66547
 Alpha virt. eigenvalues --    0.66968   0.68282   0.70566   0.71987   0.74891
 Alpha virt. eigenvalues --    0.75593   0.76924   0.78368   0.78415   0.80053
 Alpha virt. eigenvalues --    0.80440   0.82881   0.84654   0.85132   0.89096
 Alpha virt. eigenvalues --    0.89378   0.90644   0.92091   0.92855   0.93713
 Alpha virt. eigenvalues --    0.94443   0.96381   0.96807   0.96994   0.98761
 Alpha virt. eigenvalues --    1.00240   1.00473   1.01321   1.01408   1.03093
 Alpha virt. eigenvalues --    1.05453   1.06670   1.07926   1.11632   1.15446
 Alpha virt. eigenvalues --    1.17787   1.19757   1.21971   1.23058   1.24785
 Alpha virt. eigenvalues --    1.27078   1.27818   1.29318   1.29829   1.33198
 Alpha virt. eigenvalues --    1.34820   1.35723   1.38088   1.38290   1.40032
 Alpha virt. eigenvalues --    1.41924   1.43999   1.46141   1.48163   1.51986
 Alpha virt. eigenvalues --    1.53404   1.57906   1.60616   1.66221   1.70776
 Alpha virt. eigenvalues --    1.71736   1.75219   1.76902   1.78419   1.78904
 Alpha virt. eigenvalues --    1.81128   1.82693   1.83170   1.84907   1.86517
 Alpha virt. eigenvalues --    1.88065   1.90004   1.93007   1.94068   1.94502
 Alpha virt. eigenvalues --    1.96649   1.97789   1.98338   2.00364   2.05173
 Alpha virt. eigenvalues --    2.07768   2.08776   2.09172   2.10530   2.12303
 Alpha virt. eigenvalues --    2.14433   2.15265   2.17314   2.18224   2.21158
 Alpha virt. eigenvalues --    2.21824   2.22945   2.24678   2.26603   2.27302
 Alpha virt. eigenvalues --    2.29967   2.31392   2.35551   2.38268   2.40601
 Alpha virt. eigenvalues --    2.41820   2.45673   2.46281   2.48472   2.49080
 Alpha virt. eigenvalues --    2.50267   2.52033   2.53547   2.55935   2.58750
 Alpha virt. eigenvalues --    2.60813   2.62165   2.64593   2.65308   2.70348
 Alpha virt. eigenvalues --    2.73097   2.73197   2.74734   2.75996   2.81416
 Alpha virt. eigenvalues --    2.82366   2.83344   2.84377   2.88220   2.88987
 Alpha virt. eigenvalues --    2.91902   2.94498   2.95857   2.99934   3.01332
 Alpha virt. eigenvalues --    3.04651   3.09673   3.12596   3.16317   3.19985
 Alpha virt. eigenvalues --    3.27339   3.31435   3.33370   3.35290   3.56860
 Alpha virt. eigenvalues --    3.58982   3.66500   3.67833   3.69129   3.73645
 Alpha virt. eigenvalues --    3.76558   3.77191   3.78862   3.84663   3.86866
 Alpha virt. eigenvalues --    3.91231   3.94998   4.03167   4.09062   4.13083
 Alpha virt. eigenvalues --    4.14356   4.21420   4.27632   4.41799   4.44326
 Alpha virt. eigenvalues --    4.46578   4.50476   4.51950   4.93744
          Condensed to atoms (all electrons):
               1          2          3          4          5          6
     1  O    8.290776   0.298049  -0.113062  -0.095043   0.007670   0.000307
     2  N    0.298049   5.973706   0.297982   0.167175  -0.043134  -0.019377
     3  O   -0.113062   0.297982   8.293397  -0.095210  -0.003327   0.024230
     4  C   -0.095043   0.167175  -0.095210   4.988741   0.474599  -0.045598
     5  C    0.007670  -0.043134  -0.003327   0.474599   4.894764   0.360409
     6  H    0.000307  -0.019377   0.024230  -0.045598   0.360409   0.673754
     7  C   -0.000031   0.004821   0.001083   0.001599   0.447825  -0.047411
     8  C   -0.000011   0.000135  -0.000011  -0.056699   0.009852   0.007110
     9  N   -0.000000   0.000001  -0.000000  -0.000001   0.006354  -0.000148
    10  N    0.000000   0.000000   0.000000   0.000021  -0.000027  -0.000016
    11  N    0.000000  -0.000000   0.000000  -0.000001  -0.000003   0.000000
    12  C    0.000000  -0.000000  -0.000000  -0.000000  -0.000000   0.000000
    13  H   -0.000000   0.000000  -0.000000   0.000000  -0.000000  -0.000000
    14  H   -0.000000   0.000000  -0.000000   0.000000   0.000000  -0.000000
    15  C   -0.005388  -0.042556   0.007637   0.468218  -0.077136   0.012220
    16  H    0.025016  -0.018835   0.000321  -0.043724   0.010486  -0.000383
    17  C    0.001049   0.004298  -0.000027  -0.004283  -0.049035   0.000083
    18  H   -0.000002  -0.000166   0.000001   0.009311  -0.000957   0.000039
    19  C   -0.000000   0.000000  -0.000000   0.000000   0.000000  -0.000000
    20  H   -0.000000   0.000000  -0.000000   0.000000  -0.000002   0.000000
    21  H   -0.000000  -0.000000  -0.000000   0.000000  -0.000000   0.000000
    22  H    0.000000  -0.000000  -0.000000  -0.000000  -0.000000   0.000000
    23  H    0.000001  -0.000086  -0.000004   0.005328  -0.047254  -0.009463
    24  H    0.000000   0.000000   0.000000   0.000000  -0.000001  -0.000000
               7          8          9         10         11         12
     1  O   -0.000031  -0.000011  -0.000000   0.000000   0.000000   0.000000
     2  N    0.004821   0.000135   0.000001   0.000000  -0.000000  -0.000000
     3  O    0.001083  -0.000011  -0.000000   0.000000   0.000000  -0.000000
     4  C    0.001599  -0.056699  -0.000001   0.000021  -0.000001  -0.000000
     5  C    0.447825   0.009852   0.006354  -0.000027  -0.000003  -0.000000
     6  H   -0.047411   0.007110  -0.000148  -0.000016   0.000000   0.000000
     7  C    5.131243   0.363634  -0.087720  -0.012789   0.000478  -0.000011
     8  C    0.363634   4.724503   0.330211  -0.065155   0.004768  -0.000352
     9  N   -0.087720   0.330211   7.097432   0.248275  -0.107686   0.006883
    10  N   -0.012789  -0.065155   0.248275   6.683806   0.231232  -0.071459
    11  N    0.000478   0.004768  -0.107686   0.231232   6.758800   0.335788
    12  C   -0.000011  -0.000352   0.006883  -0.071459   0.335788   4.691664
    13  H   -0.000001   0.000013  -0.000150   0.003947  -0.045782   0.405128
    14  H   -0.000002   0.000008   0.000023   0.002097  -0.049348   0.404316
    15  C   -0.069986   0.010643   0.006407  -0.000213   0.000006  -0.000000
    16  H   -0.000418   0.006807  -0.000128   0.000002  -0.000000   0.000000
    17  C   -0.035735   0.511423  -0.073246   0.006413  -0.000319   0.000008
    18  H    0.024290  -0.060991  -0.002306  -0.000320  -0.000112   0.000000
    19  C    0.000040   0.001217  -0.027838  -0.026635   0.269480  -0.053396
    20  H    0.000187   0.000596   0.038722  -0.012978  -0.028796   0.004017
    21  H   -0.000001  -0.000067   0.002143   0.000732  -0.042619  -0.000507
    22  H    0.000001  -0.000037   0.001508   0.002295  -0.037545  -0.000472
    23  H    0.376118  -0.051947  -0.015832   0.021621  -0.001105  -0.000046
    24  H   -0.000035   0.000002  -0.000137   0.013831  -0.030620   0.400082
              13         14         15         16         17         18
     1  O   -0.000000  -0.000000  -0.005388   0.025016   0.001049  -0.000002
     2  N    0.000000   0.000000  -0.042556  -0.018835   0.004298  -0.000166
     3  O   -0.000000  -0.000000   0.007637   0.000321  -0.000027   0.000001
     4  C    0.000000   0.000000   0.468218  -0.043724  -0.004283   0.009311
     5  C   -0.000000   0.000000  -0.077136   0.010486  -0.049035  -0.000957
     6  H   -0.000000  -0.000000   0.012220  -0.000383   0.000083   0.000039
     7  C   -0.000001  -0.000002  -0.069986  -0.000418  -0.035735   0.024290
     8  C    0.000013   0.000008   0.010643   0.006807   0.511423  -0.060991
     9  N   -0.000150   0.000023   0.006407  -0.000128  -0.073246  -0.002306
    10  N    0.003947   0.002097  -0.000213   0.000002   0.006413  -0.000320
    11  N   -0.045782  -0.049348   0.000006  -0.000000  -0.000319  -0.000112
    12  C    0.405128   0.404316  -0.000000   0.000000   0.000008   0.000000
    13  H    0.584891  -0.054229  -0.000000  -0.000000  -0.000000   0.000000
    14  H   -0.054229   0.592527  -0.000000  -0.000000  -0.000000   0.000000
    15  C   -0.000000  -0.000000   4.949627   0.369504   0.480860  -0.074287
    16  H   -0.000000  -0.000000   0.369504   0.631191  -0.047262  -0.012087
    17  C   -0.000000  -0.000000   0.480860  -0.047262   4.849138   0.337913
    18  H    0.000000   0.000000  -0.074287  -0.012087   0.337913   0.773097
    19  C    0.002262   0.001083  -0.000001   0.000000   0.000101  -0.000082
    20  H    0.000132  -0.000034  -0.000003  -0.000000  -0.000377   0.000537
    21  H   -0.001987   0.005228   0.000000   0.000000  -0.000002  -0.000001
    22  H    0.003996  -0.001762   0.000000  -0.000000  -0.000001   0.000001
    23  H    0.000002   0.000003   0.000299   0.000027   0.006895  -0.000155
    24  H   -0.025492  -0.028487  -0.000000  -0.000000   0.000001   0.000000
              19         20         21         22         23         24
     1  O   -0.000000  -0.000000  -0.000000   0.000000   0.000001   0.000000
     2  N    0.000000   0.000000  -0.000000  -0.000000  -0.000086   0.000000
     3  O   -0.000000  -0.000000  -0.000000  -0.000000  -0.000004   0.000000
     4  C    0.000000   0.000000   0.000000  -0.000000   0.005328   0.000000
     5  C    0.000000  -0.000002  -0.000000  -0.000000  -0.047254  -0.000001
     6  H   -0.000000   0.000000   0.000000   0.000000  -0.009463  -0.000000
     7  C    0.000040   0.000187  -0.000001   0.000001   0.376118  -0.000035
     8  C    0.001217   0.000596  -0.000067  -0.000037  -0.051947   0.000002
     9  N   -0.027838   0.038722   0.002143   0.001508  -0.015832  -0.000137
    10  N   -0.026635  -0.012978   0.000732   0.002295   0.021621   0.013831
    11  N    0.269480  -0.028796  -0.042619  -0.037545  -0.001105  -0.030620
    12  C   -0.053396   0.004017  -0.000507  -0.000472  -0.000046   0.400082
    13  H    0.002262   0.000132  -0.001987   0.003996   0.000002  -0.025492
    14  H    0.001083  -0.000034   0.005228  -0.001762   0.000003  -0.028487
    15  C   -0.000001  -0.000003   0.000000   0.000000   0.000299  -0.000000
    16  H    0.000000  -0.000000   0.000000  -0.000000   0.000027  -0.000000
    17  C    0.000101  -0.000377  -0.000002  -0.000001   0.006895   0.000001
    18  H   -0.000082   0.000537  -0.000001   0.000001  -0.000155   0.000000
    19  C    4.762371   0.401746   0.407048   0.405986   0.000061   0.006356
    20  H    0.401746   0.486286  -0.027775  -0.025189   0.000014  -0.000207
    21  H    0.407048  -0.027775   0.574060  -0.046110  -0.000001  -0.000063
    22  H    0.405986  -0.025189  -0.046110   0.569790  -0.000000  -0.000041
    23  H    0.000061   0.000014  -0.000001  -0.000000   0.617431   0.000388
    24  H    0.006356  -0.000207  -0.000063  -0.000041   0.000388   0.526660
 Mulliken charges:
               1
     1  O   -0.409331
     2  N    0.377990
     3  O   -0.413011
     4  C    0.225566
     5  C    0.008916
     6  H    0.044245
     7  C   -0.097179
     8  C    0.264347
     9  N   -0.422766
    10  N   -0.024678
    11  N   -0.256615
    12  C   -0.121643
    13  H    0.127270
    14  H    0.128579
    15  C   -0.035852
    16  H    0.079482
    17  C    0.012106
    18  H    0.006278
    19  C   -0.149797
    20  H    0.163124
    21  H    0.129923
    22  H    0.127582
    23  H    0.097702
    24  H    0.137764
 Sum of Mulliken charges =  -0.00000
 Mulliken charges with hydrogens summed into heavy atoms:
               1
     1  O   -0.409331
     2  N    0.377990
     3  O   -0.413011
     4  C    0.225566
     5  C    0.053161
     7  C    0.000523
     8  C    0.264347
     9  N   -0.422766
    10  N   -0.024678
    11  N   -0.256615
    12  C    0.271969
    15  C    0.043631
    17  C    0.018383
    19  C    0.270831
 Electronic spatial extent (au):  <R**2>=           4224.4058
 Charge=             -0.0000 electrons
 Dipole moment (field-independent basis, Debye):
    X=              9.3615    Y=              0.0231    Z=              0.1101  Tot=              9.3621
 Quadrupole moment (field-independent basis, Debye-Ang):
   XX=            -79.6398   YY=            -75.6314   ZZ=            -79.1178
   XY=             -4.3253   XZ=              1.1156   YZ=             -0.2054
 Traceless Quadrupole moment (field-independent basis, Debye-Ang):
   XX=             -1.5101   YY=              2.4982   ZZ=             -0.9881
   XY=             -4.3253   XZ=              1.1156   YZ=             -0.2054
 Octapole moment (field-independent basis, Debye-Ang**2):
  XXX=            268.1342  YYY=             -0.4146  ZZZ=              0.7083  XYY=             18.5683
  XXY=              0.6536  XXZ=              0.7366  XZZ=             -4.2134  YZZ=             -1.1671
  YYZ=             -0.3946  XYZ=              0.9850
 Hexadecapole moment (field-independent basis, Debye-Ang**3):
 XXXX=          -4622.8365 YYYY=           -527.6083 ZZZZ=            -83.4958 XXXY=            -65.2540
 XXXZ=             11.3432 YYYX=            -20.1188 YYYZ=             -0.4612 ZZZX=              1.0482
 ZZZY=              0.4909 XXYY=           -846.4509 XXZZ=           -750.3119 YYZZ=           -109.0906
 XXYZ=              2.6703 YYXZ=              0.8187 ZZXY=              3.1521
 N-N= 8.476359227660D+02 E-N=-3.281492164751D+03  KE= 6.769026072633D+02
 No NMR shielding tensors so no spin-rotation constants.
 Leave Link  601 at Fri Aug 20 15:58:39 2021, MaxMem= 24159191040 cpu:        11.0
 (Enter /public/home/users/caep010/software/Gaussian09/g09/l701.exe)
 Compute integral first derivatives.
 ... and contract with generalized density number  0.
 Leave Link  701 at Fri Aug 20 15:58:39 2021, MaxMem= 24159191040 cpu:        11.9
 (Enter /public/home/users/caep010/software/Gaussian09/g09/l702.exe)
 L702 exits ... SP integral derivatives will be done elsewhere.
 Leave Link  702 at Fri Aug 20 15:58:40 2021, MaxMem= 24159191040 cpu:         0.5
 (Enter /public/home/users/caep010/software/Gaussian09/g09/l703.exe)
 Compute integral first derivatives, UseDBF=F ICtDFT=           0.
 Integral derivatives from FoFJK, PRISM(SPDF).
 Calling FoFJK, ICntrl=      2127 FMM=F ISym2X=0 I1Cent= 0 IOpClX= 0 NMat=1 NMatS=1 NMatT=0.
 FoFJK:  IHMeth= 1 ICntrl=    2127 DoSepK=F KAlg= 0 I1Cent=   0 FoldK=F
 IRaf=         0 NMat=   1 IRICut=       1 DoRegI=T DoRafI=F ISym2E= 0.
 FoFCou: FMM=F IPFlag=           0 FMFlag=      100000 FMFlg1=         800
         NFxFlg=           0 DoJE=F BraDBF=F KetDBF=F FulRan=T
         wScrn=  0.000000 ICntrl=    2127 IOpCl=  0 I1Cent=           0 NGrid=           0
         NMat0=    1 NMatS0=      1 NMatT0=    0 NMatD0=    1 NMtDS0=    0 NMtDT0=    0
 Symmetry not used in FoFCou.
 Leave Link  703 at Fri Aug 20 15:58:41 2021, MaxMem= 24159191040 cpu:        29.6
 (Enter /public/home/users/caep010/software/Gaussian09/g09/l716.exe)
 Dipole        = 3.68308589D+00 9.09130642D-03 4.33022184D-02
 ***** Axes restored to original set *****
 -------------------------------------------------------------------
 Center     Atomic                   Forces (Hartrees/Bohr)
 Number     Number              X              Y              Z
 -------------------------------------------------------------------
      1        8           0.023290464    0.003481330   -0.005275854
      2        7          -0.010601785   -0.002123846   -0.001161612
      3        8          -0.012976663   -0.000151052    0.006356921
      4        6          -0.006440313    0.002754681    0.009725583
      5        6           0.174246897   -0.074936576   -0.199626989
      6        1          -0.178474810    0.083716518    0.214958724
      7        6           0.005537598    0.001908632   -0.000594019
      8        6          -0.007984295   -0.007306035   -0.001888426
      9        7          -0.006242980    0.006995806    0.010898025
     10        7           0.011132897    0.004103080    0.003068350
     11        7           0.006413223    0.007272302    0.001510700
     12        6           0.126514109    0.014242830   -0.025309657
     13        1          -0.055380799    0.024766220   -0.119758836
     14        1          -0.007865219   -0.130674220    0.026030748
     15        6          -0.146826173   -0.053106198    0.000916572
     16        1           0.172079907    0.062320336    0.000325196
     17        6          -0.185544775    0.080328049    0.240543827
     18        1           0.194185139   -0.090317918   -0.262481788
     19        6          -0.069535836    0.047781439    0.086135702
     20        1           0.109384425    0.052395193    0.019738195
     21        1           0.007030271   -0.135323909    0.020904457
     22        1          -0.047105364    0.026671605   -0.135751723
     23        1          -0.019145703   -0.007702371   -0.003216720
     24        1          -0.075690215    0.082904103    0.113952625
 -------------------------------------------------------------------
 Cartesian Forces:  Max     0.262481788 RMS     0.089941494
 Leave Link  716 at Fri Aug 20 15:58:41 2021, MaxMem= 24159191040 cpu:         0.7
 (Enter /public/home/users/caep010/software/Gaussian09/g09/l103.exe)

 GradGradGradGradGradGradGradGradGradGradGradGradGradGradGradGradGradGrad
 Berny optimization.
 FormGI is forming the generalized inverse of G from B-inverse, IUseBI=4.
 Internal  Forces:  Max     0.338627969 RMS     0.057557584
 Search for a local minimum.
 Step number   1 out of a maximum of  117
 All quantities printed in internal units (Hartrees-Bohrs-Radians)
 RMS Force = .57558D-01 SwitMx=.10000D-02 MixMth= 1
 Mixed Optimization -- RFO/linear search
 Second derivative matrix not updated -- first step.
 ITU=  0
     Eigenvalues ---    0.00914   0.00914   0.00978   0.01184   0.01313
     Eigenvalues ---    0.01513   0.01904   0.02061   0.02202   0.02268
     Eigenvalues ---    0.02336   0.02355   0.02371   0.02429   0.02476
     Eigenvalues ---    0.02525   0.02850   0.07434   0.07531   0.07615
     Eigenvalues ---    0.07772   0.15973   0.15993   0.16000   0.16000
     Eigenvalues ---    0.16000   0.16000   0.16000   0.16000   0.16000
     Eigenvalues ---    0.16000   0.22001   0.22973   0.23998   0.24745
     Eigenvalues ---    0.24892   0.24987   0.25000   0.25000   0.25000
     Eigenvalues ---    0.25000   0.25000   0.37116   0.37730   0.39026
     Eigenvalues ---    0.39803   0.43086   0.43457   0.44086   0.47330
     Eigenvalues ---    0.48056   0.49934   0.50958   0.54994   0.55598
     Eigenvalues ---    0.55899   0.56272   0.57897   0.60538   0.64518
     Eigenvalues ---    0.65288   0.72310   0.81309   0.88504   0.92426
     Eigenvalues ---    0.96301
 RFO step:  Lambda=-3.36585802D-01 EMin= 9.14062882D-03
 Linear search not attempted -- first point.
 Maximum step size (   0.300) exceeded in Quadratic search.
    -- Step size scaled by   0.525
 Iteration  1 RMS(Cart)=  0.03527480 RMS(Int)=  0.00016420
 Iteration  2 RMS(Cart)=  0.00026288 RMS(Int)=  0.00000309
 Iteration  3 RMS(Cart)=  0.00000008 RMS(Int)=  0.00000309
 ITry= 1 IFail=0 DXMaxC= 1.23D-01 DCOld= 1.00D+10 DXMaxT= 3.00D-01 DXLimC= 3.00D+00 Rises=F
 Variable       Old X    -DE/DX   Delta X   Delta X   Delta X     New X
                                 (Linear)    (Quad)   (Total)
    R1        2.30158   0.02344   0.00000   0.00947   0.00947   2.31105
    R2        2.31835   0.01279   0.00000   0.00533   0.00533   2.32368
    R3        2.75672   0.00051   0.00000   0.00038   0.00038   2.75710
    R4        2.62454   0.01002   0.00000   0.00644   0.00644   2.63098
    R5        2.59578   0.02061   0.00000   0.01302   0.01302   2.60880
    R6        1.63917   0.29162   0.00000   0.13326   0.13326   1.77243
    R7        2.59351   0.01677   0.00000   0.01031   0.01031   2.60381
    R8        2.64127   0.01203   0.00000   0.00780   0.00780   2.64907
    R9        1.99598   0.02043   0.00000   0.01476   0.01476   2.01075
   R10        2.67109  -0.00141   0.00000  -0.00096  -0.00096   2.67013
   R11        2.62881   0.01673   0.00000   0.01092   0.01092   2.63973
   R12        2.42350  -0.00359   0.00000  -0.00178  -0.00178   2.42171
   R13        2.46986   0.01715   0.00000   0.00911   0.00911   2.47897
   R14        2.71821   0.01431   0.00000   0.01023   0.01023   2.72845
   R15        2.74759   0.00908   0.00000   0.00668   0.00668   2.75428
   R16        1.81042   0.13423   0.00000   0.07874   0.07874   1.88916
   R17        1.81305   0.13346   0.00000   0.07855   0.07855   1.89160
   R18        1.77217   0.15983   0.00000   0.08914   0.08914   1.86131
   R19        1.74234   0.18297   0.00000   0.09791   0.09791   1.84025
   R20        2.58599   0.02022   0.00000   0.01266   0.01267   2.59866
   R21        1.60330   0.33863   0.00000   0.14563   0.14563   1.74893
   R22        1.81838   0.12278   0.00000   0.07276   0.07276   1.89114
   R23        1.80719   0.13709   0.00000   0.08008   0.08008   1.88727
   R24        1.79344   0.14607   0.00000   0.08381   0.08381   1.87726
    A1        2.15009   0.00960   0.00000   0.00860   0.00860   2.15869
    A2        2.06756  -0.00365   0.00000  -0.00327  -0.00327   2.06430
    A3        2.06553  -0.00596   0.00000  -0.00533  -0.00533   2.06020
    A4        2.08603  -0.00374   0.00000  -0.00345  -0.00345   2.08258
    A5        2.08083  -0.00095   0.00000  -0.00095  -0.00095   2.07988
    A6        2.11632   0.00470   0.00000   0.00439   0.00439   2.12071
    A7        2.10565  -0.00057   0.00000  -0.00058  -0.00058   2.10507
    A8        2.07761  -0.00171   0.00000  -0.00184  -0.00184   2.07577
    A9        2.09842   0.00236   0.00000   0.00253   0.00253   2.10095
   A10        2.10662  -0.00045   0.00000  -0.00078  -0.00078   2.10584
   A11        2.05451   0.00447   0.00000   0.00488   0.00488   2.05939
   A12        2.12205  -0.00401   0.00000  -0.00410  -0.00409   2.11796
   A13        2.18894   0.00075   0.00000   0.00070   0.00070   2.18964
   A14        2.06905   0.00464   0.00000   0.00411   0.00411   2.07316
   A15        2.02477  -0.00537   0.00000  -0.00479  -0.00479   2.01998
   A16        1.94954   0.01047   0.00000   0.00938   0.00938   1.95892
   A17        1.99828   0.01771   0.00000   0.01586   0.01586   2.01414
   A18        2.03054  -0.00259   0.00000  -0.00233  -0.00233   2.02821
   A19        2.12997   0.01214   0.00000   0.01093   0.01093   2.14089
   A20        2.11311  -0.00954   0.00000  -0.00855  -0.00855   2.10456
   A21        1.91642   0.00018   0.00000   0.00028   0.00027   1.91669
   A22        1.91107   0.00248   0.00000   0.00279   0.00279   1.91385
   A23        1.93572  -0.00903   0.00000  -0.00981  -0.00982   1.92590
   A24        1.87825   0.00183   0.00000   0.00247   0.00247   1.88072
   A25        1.91262   0.00263   0.00000   0.00245   0.00244   1.91506
   A26        1.90884   0.00226   0.00000   0.00221   0.00221   1.91106
   A27        2.06491   0.00490   0.00000   0.00473   0.00473   2.06964
   A28        2.08184  -0.00359   0.00000  -0.00288  -0.00288   2.07896
   A29        2.13606  -0.00129   0.00000  -0.00182  -0.00183   2.13423
   A30        2.11480  -0.00358   0.00000  -0.00300  -0.00299   2.11181
   A31        2.00755   0.00952   0.00000   0.00968   0.00967   2.01722
   A32        2.16083  -0.00594   0.00000  -0.00668  -0.00668   2.15415
   A33        1.91376  -0.00456   0.00000  -0.00477  -0.00478   1.90899
   A34        1.91801  -0.00084   0.00000  -0.00084  -0.00084   1.91716
   A35        1.93487  -0.00475   0.00000  -0.00512  -0.00513   1.92975
   A36        1.88776   0.00382   0.00000   0.00424   0.00424   1.89200
   A37        1.90135   0.00427   0.00000   0.00442   0.00441   1.90575
   A38        1.90738   0.00233   0.00000   0.00237   0.00236   1.90974
    D1        3.09007   0.00013   0.00000   0.00019   0.00019   3.09027
    D2       -0.04704   0.00012   0.00000   0.00019   0.00019  -0.04685
    D3       -0.05214   0.00034   0.00000   0.00051   0.00051  -0.05163
    D4        3.09394   0.00033   0.00000   0.00050   0.00050   3.09444
    D5        0.07799  -0.00171   0.00000  -0.00248  -0.00247   0.07552
    D6       -3.12239  -0.00018   0.00000  -0.00026  -0.00026  -3.12265
    D7       -3.06818  -0.00172   0.00000  -0.00248  -0.00248  -3.07066
    D8        0.01463  -0.00019   0.00000  -0.00027  -0.00027   0.01435
    D9       -0.03732   0.00071   0.00000   0.00107   0.00107  -0.03625
   D10        3.13302  -0.00000   0.00000  -0.00000  -0.00000   3.13302
   D11        3.10884   0.00073   0.00000   0.00108   0.00109   3.10993
   D12       -0.00400   0.00001   0.00000   0.00001   0.00001  -0.00399
   D13       -0.01846   0.00034   0.00000   0.00050   0.00049  -0.01797
   D14        3.12290   0.00021   0.00000   0.00030   0.00030   3.12320
   D15        3.06459   0.00176   0.00000   0.00259   0.00259   3.06718
   D16       -0.07723   0.00163   0.00000   0.00240   0.00240  -0.07483
   D17        3.12078   0.00017   0.00000   0.00028   0.00028   3.12106
   D18        0.01182  -0.00027   0.00000  -0.00040  -0.00040   0.01142
   D19       -0.02058   0.00030   0.00000   0.00048   0.00048  -0.02010
   D20       -3.12954  -0.00013   0.00000  -0.00020  -0.00020  -3.12974
   D21        0.14338  -0.00058   0.00000  -0.00083  -0.00083   0.14255
   D22       -3.03011   0.00001   0.00000  -0.00002  -0.00002  -3.03013
   D23       -0.00097   0.00009   0.00000   0.00014   0.00014  -0.00082
   D24        3.13636   0.00009   0.00000   0.00015   0.00015   3.13651
   D25       -3.11297  -0.00039   0.00000  -0.00056  -0.00056  -3.11352
   D26        0.02436  -0.00039   0.00000  -0.00055  -0.00055   0.02381
   D27       -3.12385  -0.00168   0.00000  -0.00241  -0.00241  -3.12626
   D28        3.06518  -0.00040   0.00000  -0.00026  -0.00026   3.06492
   D29        0.07041   0.00032   0.00000   0.00015   0.00014   0.07055
   D30        2.27115  -0.00271   0.00000  -0.00332  -0.00332   2.26783
   D31       -1.95342   0.00111   0.00000   0.00151   0.00152  -1.95190
   D32        0.15474  -0.00023   0.00000  -0.00017  -0.00018   0.15456
   D33       -1.01574  -0.00147   0.00000  -0.00197  -0.00197  -1.01770
   D34        1.04288   0.00235   0.00000   0.00286   0.00287   1.04575
   D35       -3.13215   0.00101   0.00000   0.00118   0.00117  -3.13097
   D36       -0.15052  -0.00096   0.00000  -0.00115  -0.00115  -0.15167
   D37        1.92228   0.00043   0.00000   0.00062   0.00062   1.92289
   D38       -2.25055  -0.00029   0.00000  -0.00030  -0.00030  -2.25086
   D39       -3.13844  -0.00090   0.00000  -0.00134  -0.00134  -3.13978
   D40       -1.06565   0.00049   0.00000   0.00043   0.00043  -1.06522
   D41        1.04471  -0.00023   0.00000  -0.00049  -0.00049   1.04421
   D42       -0.00285   0.00002   0.00000   0.00004   0.00004  -0.00282
   D43       -3.13979  -0.00002   0.00000  -0.00001  -0.00001  -3.13980
   D44       -3.11447  -0.00083   0.00000  -0.00119  -0.00119  -3.11566
   D45        0.03178  -0.00087   0.00000  -0.00124  -0.00124   0.03054
         Item               Value     Threshold  Converged?
 Maximum Force            0.338628     0.000450     NO 
 RMS     Force            0.057558     0.000300     NO 
 Maximum Displacement     0.123435     0.001800     NO 
 RMS     Displacement     0.035289     0.001200     NO 
 Predicted change in Energy=-1.455361D-01
 Lowest energy point so far.  Saving SCF results.
 GradGradGradGradGradGradGradGradGradGradGradGradGradGradGradGradGradGrad

 Leave Link  103 at Fri Aug 20 15:58:41 2021, MaxMem= 24159191040 cpu:         4.2
 (Enter /public/home/users/caep010/software/Gaussian09/g09/l202.exe)
                          Input orientation:                          
 ---------------------------------------------------------------------
 Center     Atomic      Atomic             Coordinates (Angstroms)
 Number     Number       Type             X           Y           Z
 ---------------------------------------------------------------------
      1          8           0        8.168303    3.058506   11.513913
      2          7           0        6.989272    2.733988   11.527823
      3          8           0        6.202947    3.058874   12.415599
      4          6           0        6.484660    1.915693   10.430358
      5          6           0        5.161855    1.482174   10.455373
      6          1           0        4.580736    1.760823   11.136819
      7          6           0        4.700090    0.691004    9.426114
      8          6           0        5.540132    0.344599    8.358661
      9          7           0        5.181266   -0.476776    7.266393
     10          7           0        3.929846   -0.752736    7.257681
     11          7           0        3.531480   -1.528485    6.277695
     12          6           0        2.145080   -1.930652    6.306075
     13          1           0        1.724051   -1.758867    5.415782
     14          1           0        2.083099   -2.912894    6.488667
     15          6           0        7.332901    1.584608    9.392718
     16          1           0        8.242177    1.933019    9.405018
     17          6           0        6.859024    0.804798    8.363940
     18          1           0        7.375253    0.546493    7.640529
     19          6           0        4.454231   -2.115256    5.314088
     20          1           0        5.364575   -1.720098    5.443004
     21          1           0        4.515017   -3.101376    5.459962
     22          1           0        4.149295   -1.936881    4.385625
     23          1           0        3.691723    0.354035    9.468914
     24          1           0        1.658984   -1.435093    7.004850
 ---------------------------------------------------------------------
                    Distance matrix (angstroms):
                    1          2          3          4          5
     1  O    0.000000
     2  N    1.222956   0.000000
     3  O    2.162328   1.229636   0.000000
     4  C    2.305377   1.458995   2.308117   0.000000
     5  C    3.555848   2.461023   2.722562   1.392256   0.000000
     6  H    3.833643   2.626971   2.439628   2.036663   0.937930
     7  C    4.689613   3.719048   4.099074   2.386014   1.377879
     8  C    4.922214   4.225254   4.925988   2.766297   2.415237
     9  N    6.281881   5.633620   6.329216   4.175335   3.742654
    10  N    7.113761   6.304874   6.804373   4.869648   4.091199
    11  N    8.364125   7.595317   8.115077   6.150468   5.401406
    12  C    9.396409   8.514206   8.870623   7.115901   6.161574
    13  H   10.095676   9.233923   9.605654   7.830183   6.907990
    14  H    9.896485   9.019473   9.368228   7.630592   6.673089
    15  C    2.714727   2.449046   3.547967   1.380517   2.419332
    16  H    2.391572   2.591837   3.806522   2.034819   3.285557
    17  C    4.088488   3.707949   4.682653   2.375778   2.777285
    18  H    4.684254   4.477183   5.521563   3.232803   3.701078
    19  C    8.888192   8.279619   8.958855   6.822566   6.314669
    20  H    8.218995   7.713853   8.494618   6.272740   5.951427
    21  H    9.377684   8.774528   9.443446   7.331802   6.810394
    22  H    9.587429   8.994079   9.677579   7.538903   7.039677
    23  H    5.615689   4.558192   4.722855   3.341205   2.099307
    24  H    9.104687   8.139440   8.373742   6.800664   5.717226
                    6          7          8          9         10
     6  H    0.000000
     7  C    2.021205   0.000000
     8  C    3.262559   1.401829   0.000000
     9  N    4.510840   2.501927   1.412973   0.000000
    10  N    4.667906   2.716572   2.238152   1.281516   0.000000
    11  N    5.960836   4.025460   3.445801   2.192124   1.311813
    12  C    6.549465   4.809969   4.573430   3.500628   2.340605
    13  H    7.299256   5.562503   5.258097   4.125634   3.044737
    14  H    7.048910   5.335290   5.104823   4.017234   2.944170
    15  C    3.263028   2.780528   2.412657   3.660614   4.647832
    16  H    4.054002   3.753588   3.304389   4.444097   5.515481
    17  C    3.713952   2.408767   1.396885   2.379478   3.497114
    18  H    4.637668   3.219580   1.980945   2.449619   3.702080
    19  C    6.996012   4.984405   4.061956   2.650413   2.430841
    20  H    6.719430   4.703203   3.576989   2.214543   2.507446
    21  H    7.474758   5.490607   4.618231   3.255089   3.015017
    22  H    7.709589   5.711014   4.787963   3.390530   3.114331
    23  H    2.356121   1.064042   2.156239   2.785693   2.484189
    24  H    5.985289   4.430704   4.479221   3.659679   2.384607
                   11         12         13         14         15
    11  N    0.000000
    12  C    1.443832   0.000000
    13  H    2.015631   0.999698   0.000000
    14  H    2.014673   1.000990   1.616099   0.000000
    15  C    5.817690   6.985550   7.645524   7.498097   0.000000
    16  H    6.629692   7.855316   8.487048   8.361951   0.973819
    17  C    4.568280   5.825699   6.452284   6.336194   1.375153
    18  H    4.575745   5.939001   6.496173   6.426589   2.037067
    19  C    1.457500   2.519979   2.755220   2.763717   6.213771
    20  H    2.023280   3.339817   3.640832   3.644758   5.513223
    21  H    2.027318   2.775447   3.097381   2.647261   6.735390
    22  H    2.031849   2.775796   2.640969   3.105569   6.899797
    23  H    3.708563   4.197076   4.976341   4.705568   3.844255
    24  H    2.010900   0.984964   1.623022   1.621793   6.856664
                   16         17         18         19         20
    16  H    0.000000
    17  C    2.066358   0.000000
    18  H    2.405708   0.925493   0.000000
    19  C    6.890048   4.859150   4.585804   0.000000
    20  H    6.109289   4.140090   3.742910   1.000747   0.000000
    21  H    7.402724   5.402375   5.122770   0.998703   1.621717
    22  H    7.544674   5.539533   5.212327   0.993402   1.625408
    23  H    4.817043   3.384665   4.116847   4.892994   4.827879
    24  H    7.774536   5.822771   6.083297   3.336870   4.031376
                   21         22         23         24
    21  H    0.000000
    22  H    1.626038   0.000000
    23  H    5.356246   5.594416   0.000000
    24  H    3.649672   3.648805   3.661232   0.000000
 Stoichiometry    C8H10N4O2
 Framework group  C1[X(C8H10N4O2)]
 Deg. of freedom    66
 Full point group                 C1      NOp   1
 RotChk:  IX=0 Diff= 2.80D-03
 Largest Abelian subgroup         C1      NOp   1
 Largest concise Abelian subgroup C1      NOp   1
                         Standard orientation:                         
 ---------------------------------------------------------------------
 Center     Atomic      Atomic             Coordinates (Angstroms)
 Number     Number       Type             X           Y           Z
 ---------------------------------------------------------------------
      1          8           0       -4.534266    0.798399    0.030545
      2          7           0       -3.821708   -0.195445    0.018026
      3          8           0       -4.255781   -1.345907    0.022756
      4          6           0       -2.374930   -0.008341   -0.004170
      5          6           0       -1.542419   -1.123251    0.043556
      6          1           0       -1.902496   -1.989181    0.028645
      7          6           0       -0.177288   -0.936251    0.044964
      8          6           0        0.367523    0.353614   -0.022504
      9          7           0        1.746062    0.663106   -0.004170
     10          7           0        2.479473   -0.384622   -0.085763
     11          7           0        3.773204   -0.169611   -0.056024
[...]
 -0.00041310,-0.00012673,0.00061585,0.00019366,-0.00011170,0.00163462,-
 0.00145496,-0.00010351,-0.00026362,0.00004752,0.00014721,-0.00002128,0
 .00001134,-0.00007697,-0.00004507,-0.00002474,-0.00002951,0.00002030,-
 0.00001135,-0.00000120,-0.00000291,-0.00000162,-0.00000205,-0.00000781
 ,-0.00000362,-0.00000110,-0.33364122,-0.06839843,-0.00909217,0.3516908
 3,-0.00108399,-0.00151661,-0.00173918,0.00169911,-0.00242443,0.0025104
 6,-0.00088539,0.00049139,0.00028034,0.00996620,0.00748789,0.00098688,0
 .00083540,0.00211971,-0.00379581,0.00057947,0.00084776,-0.00026607,0.0
 0022542,-0.00076249,-0.00023064,-0.00113156,0.00402166,-0.00586296,-0.
 00076824,-0.00014681,0.00012806,0.00000511,-0.00032900,-0.00005950,-0.
 00010831,-0.00005997,-0.00002266,0.00000519,0.00004047,-0.00006059,-0.
 00002044,-0.00000975,0.00000089,0.00000073,-0.00000650,0.00000109,-0.0
 6965592,-0.06051197,-0.01122444,0.07626486,0.05359521,-0.00240126,-0.0
 0164845,-0.00181553,0.00240796,0.00331381,-0.00029894,-0.00140555,-0.0
 0001935,0.00089465,0.02111775,0.00573188,0.00661057,0.00268203,-0.0039
 6703,-0.00224255,0.00135699,0.00004710,0.00055502,-0.00003192,-0.00022
 445,-0.00099851,0.00028691,-0.00579118,-0.00053259,-0.00106877,-0.0001
 0503,0.00013712,-0.00010063,-0.00001827,-0.00031925,-0.00017363,-0.000
 09175,-0.00008737,0.00004802,-0.00005030,-0.00001518,-0.00000995,-0.00
 000238,-0.00000510,-0.00002423,-0.00000920,-0.00000101,-0.01095555,-0.
 01161828,-0.05218371,0.01146568,0.01631029,0.04730391,-0.00147060,-0.0
 0114738,-0.00147890,-0.00055198,0.00524930,0.01060249,0.00215992,-0.00
 041219,-0.00163678,0.05164431,-0.00023600,-0.01484313,-0.03561581,-0.0
 1768947,-0.01648137,-0.00023560,-0.00042763,-0.00085053,-0.03278953,0.
 02195333,0.04571473,-0.30430613,-0.05709438,-0.00987207,-0.02626766,-0
 .01908535,-0.01824698,0.01076276,0.00430895,0.00257578,-0.00216264,-0.
 00158946,-0.00214525,0.00096576,-0.00005560,-0.00024036,-0.00033057,-0
 .00003331,-0.00001458,-0.00039274,-0.00017282,0.00008726,-0.15889998,-
 0.04030111,-0.02846718,-0.00364959,-0.01699806,-0.02293557,0.66488948,
 -0.00196374,-0.00058796,0.00075232,0.00426565,0.00872408,-0.00033242,0
 .00041444,-0.00210695,-0.00170512,0.02716295,-0.01214866,-0.03440158,-
 0.02185486,-0.01484258,-0.00982080,-0.00044271,-0.00063654,0.00011932,
 0.00454471,0.02352039,0.02192776,-0.02511121,-0.09079419,-0.02646942,-
 0.03344628,-0.00965491,-0.00983848,0.00305833,0.00267532,-0.00249193,-
 0.00305853,-0.00176568,-0.00261909,0.00108161,-0.00039674,-0.00031006,
 -0.00032667,-0.00004419,-0.00005942,-0.00043311,-0.00020338,0.00004328
 ,-0.07578570,-0.15671887,-0.12390265,-0.00102276,0.00031144,-0.0048432
 0,0.06510273,0.33052086,-0.00265144,0.00051230,0.00089059,0.00906940,-
 0.00070574,0.00422132,-0.00042166,-0.00143601,-0.00306058,0.02592226,-
 0.02575534,-0.04123685,-0.02263699,-0.01110866,-0.01323590,-0.00078786
 ,0.00017051,-0.00021659,0.01923462,0.01656725,0.02666712,0.03748774,-0
 .01663442,-0.10465083,-0.03990675,-0.01485828,-0.00439026,0.00197994,-
 0.00191266,-0.00136511,-0.00357453,-0.00265023,-0.00269845,0.00110523,
 -0.00008696,-0.00072284,-0.00042940,-0.00011012,-0.00007006,-0.0004321
 3,-0.00025885,0.00006872,-0.08122145,-0.13516154,-0.23334916,0.0008107
 8,0.00013292,0.00378485,-0.07167502,0.27877670,0.56746967,-0.00004594,
 0.00005208,0.00008463,0.00076081,-0.00040294,-0.00046104,-0.00007321,-
 0.00012008,-0.00033131,-0.00000517,-0.00250332,-0.00139718,-0.00058013
 ,-0.00058889,-0.00083834,0.00003843,0.00013829,-0.00003750,-0.00504625
 ,-0.00298008,-0.00118936,-0.01379265,0.01214971,0.02380719,0.00203667,
 0.00200711,0.00131867,0.00079349,-0.00032676,-0.00104600,0.00007386,-0
 .00000172,0.00005267,-0.00012409,-0.00005385,0.00002607,0.00002914,0.0
 0001373,0.00001558,0.00002012,0.00002511,0.00000389,0.01136279,-0.0049
 0785,-0.01018717,0.00059931,0.00100476,-0.00011459,-0.16327081,0.05700
 736,0.12499145,0.16812559,-0.00017265,-0.00006837,-0.00001066,0.000857
 48,0.00089698,-0.00073240,-0.00000221,-0.00066078,-0.00014880,-0.00313
 208,0.00355601,-0.00468308,-0.00039432,-0.00044031,0.00016968,0.000152
 64,-0.00048961,0.00031251,-0.00199643,0.00317321,-0.00250264,-0.004681
 15,0.00660057,0.00458158,0.00021752,-0.00236420,0.00232007,0.00022634,
 -0.00039453,-0.00016814,0.00006773,0.00009180,0.00006792,-0.00010591,0
 .00011388,-0.00006784,-0.00000599,-0.00000771,0.00000447,0.00004041,0.
 00002128,0.00000854,0.01158288,-0.00318538,-0.01175346,0.00072262,-0.0
 0261395,0.00258526,0.05815551,-0.07864413,-0.08126623,-0.06113667,0.07
 421068,-0.00025143,-0.00008317,-0.00006744,0.00141804,-0.00032406,0.00
 025402,-0.00015247,-0.00011889,-0.00068071,-0.00239044,-0.00488920,0.0
 0080964,-0.00053981,0.00023953,0.00006482,-0.00001276,0.00031574,-0.00
 025853,0.00018283,-0.00217925,0.00193422,-0.00131717,-0.00073203,0.003
 83432,-0.00146333,0.00173727,-0.00078835,0.00016365,0.00016354,-0.0002
 6800,0.00006456,0.00003096,0.00008565,-0.00002405,-0.00010237,0.000065
 35,0.00002807,0.00001641,0.00000546,-0.00000573,0.00000469,-0.00000187
 ,0.01443062,-0.00657666,-0.01202955,-0.00052686,0.00249343,-0.00060767
 ,0.12661098,-0.08095763,-0.19692987,-0.13594781,0.09107115,0.20448296,
 -0.00046452,-0.00025900,-0.00022072,0.00051336,0.00083730,0.00099932,0
 .00008036,-0.00027211,-0.00042043,-0.00039808,-0.00068794,-0.00088109,
 0.00000868,0.00025505,0.00041182,0.00000445,-0.00001285,-0.00000185,-0
 .00000425,-0.00048426,-0.00072692,-0.00010936,0.00058470,0.00172018,0.
 00246257,-0.00060657,-0.00775742,0.01544535,0.00016805,0.00059031,-0.1
 5740325,0.00328104,0.04768103,-0.01501170,0.01101980,0.01947517,0.0010
 9057,0.00068890,0.00032230,0.00186862,0.00021664,0.00006267,0.00006791
 ,0.00023122,0.00042038,-0.00001343,-0.00002379,-0.00004167,-0.00031536
 ,-0.00059291,-0.00069700,-0.00014151,-0.00002478,-0.00002563,0.5499262
 8,0.00014755,0.00009678,0.00003428,-0.00016150,-0.00038522,-0.00024896
 ,-0.00004896,0.00009803,0.00013119,0.00010564,0.00026479,0.00029269,-0
 .00019176,-0.00007380,-0.00009797,-0.00000103,0.00003941,-0.00001660,0
 .00016644,0.00001395,0.00029404,-0.00060177,0.00098871,-0.00187877,0.0
 0747113,-0.00861822,0.00648510,0.00828715,-0.00088069,-0.03320772,0.00
 935446,-0.08389526,-0.03423766,-0.00272398,0.00234025,0.01130314,-0.00
 066961,0.00030529,-0.00079980,-0.00068205,0.00009961,0.00025426,-0.000
 06655,-0.00005435,-0.00028194,0.00000417,-0.00000249,0.00001379,0.0002
 5060,0.00035746,0.00022313,-0.00003611,-0.00002146,-0.00001032,0.04465
 090,0.57141545,0.00065034,0.00029264,0.00027030,-0.00077983,-0.0010580
 7,-0.00149584,-0.00018920,0.00037117,0.00062868,0.00033913,0.00099466,
 0.00140702,-0.00021059,-0.00037541,-0.00036664,0.00001324,-0.00000823,
 0.00001950,0.00002201,0.00049869,0.00064226,-0.00008307,-0.00310876,-0
 .00315021,0.00789872,0.01067635,-0.00213743,0.00977010,-0.03486569,-0.
 03903950,0.05332457,-0.02812718,-0.12813963,0.00395289,0.00475445,0.00
 026362,-0.00175261,0.00000773,-0.00000199,-0.00090243,-0.00136094,0.00
 023009,-0.00014293,-0.00073206,-0.00093446,0.00000642,0.00002206,0.000
 02396,0.00113979,0.00095085,0.00118294,0.00001859,0.00000790,-0.000012
 95,0.06824126,-0.00293546,0.53103882,0.00010169,0.00006327,0.00005728,
 -0.00011484,-0.00021024,-0.00024260,-0.00003023,0.00007762,0.00011619,
 0.00008424,0.00015386,0.00019905,-0.00006650,-0.00001713,-0.00007854,0
 .00000161,0.00000281,0.00000819,0.00000171,0.00009823,0.00013276,-0.00
 017378,-0.00048737,-0.00028184,0.00109067,0.00125545,0.00017573,-0.000
 87925,-0.00115730,-0.00290096,-0.01856114,-0.01475834,0.01569756,0.000
 38254,0.00065041,0.00358686,-0.00007118,-0.00004464,-0.00019563,-0.000
 11109,-0.00022915,-0.00022361,-0.00004848,-0.00003690,-0.00010779,0.00
 000235,0.00000137,0.00000193,0.00018564,0.00008168,0.00007015,-0.00002
 903,-0.00003156,-0.00000550,-0.09523665,-0.09324273,0.04376182,0.10993
 440,0.00005132,0.00001329,0.00001832,-0.00005693,-0.00006658,-0.000115
 34,-0.00001681,0.00001776,0.00003863,0.00007241,0.00008516,0.00010728,
 -0.00000525,0.00000058,-0.00014973,-0.00000336,-0.00002029,-0.00000513
 ,-0.00013370,0.00007776,0.00000108,0.00055177,-0.00120789,-0.00006004,
 -0.00190101,0.00125851,-0.00194052,0.00141711,-0.00149736,0.00093271,0
 .00419494,0.01636057,-0.00463650,0.00079709,-0.00044349,-0.00091848,-0
 .00003005,-0.00014767,0.00022308,0.00011066,-0.00012666,-0.00011275,-0
 .00002195,-0.00004324,-0.00005527,-0.00000213,0.00000398,-0.00000035,0
 .00008723,0.00006638,0.00007639,0.00001521,0.00000685,0.00001566,-0.09
 486388,-0.22844840,0.08567185,0.10147846,0.24006144,-0.00005088,-0.000
 02871,-0.00000409,0.00005918,0.00011277,0.00008760,0.00001427,-0.00002
 813,-0.00003255,0.00002220,-0.00010419,-0.00015536,-0.00012607,0.00006
 899,-0.00000371,0.00000703,-0.00000909,0.00001931,0.00007069,0.0002008
 8,0.00007826,-0.00015539,-0.00071468,0.00094294,-0.00389735,0.00088191
 ,-0.00140107,0.00533000,0.00185769,0.00521724,0.01697599,0.01395359,-0
 .01647475,-0.00098539,-0.00030891,-0.00293574,-0.00017301,-0.00002726,
 0.00037170,0.00018193,0.00030136,-0.00012602,0.00001127,0.00007363,0.0
 0013587,-0.00000169,0.00000019,-0.00000382,-0.00003427,-0.00019110,-0.
 00019743,-0.00005524,0.00000170,-0.00002563,0.04372346,0.08224177,-0.0
 8669382,-0.05654416,-0.09168505,0.09417594,0.00017198,0.00008991,0.000
 08705,-0.00020123,-0.00029197,-0.00041093,-0.00004387,0.00010582,0.000
 18053,0.00011772,0.00025508,0.00034727,-0.00004235,-0.00012534,-0.0000
 7859,0.00000106,0.00000618,0.00000424,-0.00001114,0.00012113,0.0001900
 8,-0.00027085,-0.00033494,-0.00089595,0.00193769,0.00096379,0.00118757
 ,-0.00152171,-0.00359156,-0.00321309,-0.02354299,0.01490221,0.00457174
 ,0.00059406,0.00330679,0.00086438,-0.00000999,-0.00020387,-0.00029968,
 -0.00019888,-0.00048424,-0.00010865,-0.00004493,-0.00016266,-0.0001664
 9,0.00000311,0.00000437,0.00000608,0.00025494,0.00018002,0.00021024,-0
 .00001096,0.00001969,-0.00002316,-0.17319179,0.10600037,-0.07762241,0.
 01047207,-0.00855832,0.00460400,0.19544302,-0.00007648,-0.00002459,-0.
 00002363,0.00009299,0.00010829,0.00015573,0.00001365,-0.00002945,-0.00
 005470,0.00000163,-0.00012666,-0.00018856,-0.00010720,0.00000981,0.000
 07671,0.00000307,0.00001419,0.00000703,0.00010749,0.00006644,0.0001144
 7,-0.00046687,0.00052254,0.00036172,-0.00217038,-0.00067225,0.00130143
 ,0.00400384,0.00347443,0.00271890,0.00795547,-0.00493434,-0.00709645,-
 0.00040212,-0.00109451,0.00010821,0.00038013,-0.00009094,0.00015990,-0
 .00000217,-0.00006334,0.00017740,0.00000689,0.00009589,0.00014941,-0.0
 0000078,-0.00000344,-0.00000500,-0.00005472,-0.00015254,-0.00027204,-0
 .00004234,-0.00003903,-0.00000247,0.10610496,-0.13652736,0.06374151,0.
 01820442,-0.01585161,0.01201476,-0.12065555,0.14367573,-0.00007449,-0.
 00002685,-0.00004020,0.00009416,0.00010209,0.00018634,0.00001855,-0.00
 004318,-0.00008311,0.00003174,-0.00010987,-0.00017999,-0.00002584,-0.0
 0009130,0.00004602,-0.00000606,0.00001162,-0.00001698,0.00002724,-0.00
 007634,0.00009088,-0.00008566,0.00127292,-0.00048545,-0.00272358,-0.00
 359800,0.00153384,0.00371531,0.00547559,0.00090664,0.02375802,-0.02016
 591,0.00769651,0.00000764,-0.00219323,-0.00084555,0.00031865,0.0000242
 5,-0.00006890,-0.00029866,0.00041721,0.00009337,0.00000129,0.00011393,
 0.00014179,-0.00000150,-0.00000509,0.00000092,-0.00013819,-0.00012277,
 -0.00018689,-0.00000426,-0.00000012,0.00001025,-0.07811855,0.06518596,
 -0.09411448,-0.00974753,0.00680271,-0.00487151,0.07606804,-0.06749491,
 0.09797536,-0.00001393,-0.00001102,-0.00001340,0.00002288,0.00002776,0
 .00003845,0.00000190,-0.00001710,-0.00002668,-0.00000211,0.00000090,0.
 00000272,0.00013021,-0.00001474,-0.00004678,-0.00000894,-0.00000970,-0
 .00001453,-0.00016556,-0.00011377,-0.00011356,0.00070863,0.00011553,-0
 .00025487,-0.00020553,-0.00220167,-0.00260848,-0.00531690,0.00138973,0
 .00410686,0.01192714,0.01595073,0.02233205,0.00011589,0.00017715,0.001
 51771,-0.00012738,0.00025262,0.00001777,-0.00005980,0.00005287,0.00006
 404,0.00001637,0.00001024,0.00000488,0.00000095,0.00000080,0.00000231,
 -0.00005314,0.00005201,0.00008860,0.00003977,0.00002049,0.00001138,-0.
 12580667,-0.07463499,-0.10509498,-0.00602784,-0.00360428,-0.00954305,-
 0.00930921,-0.01298182,-0.01328358,0.13387004,-0.00006420,-0.00003889,
 -0.00003963,0.00006947,0.00010948,0.00014724,0.00000955,-0.00004437,-0
 .00006934,-0.00004263,-0.00007470,-0.00009506,0.00004419,0.00001574,0.
 00003303,-0.00000523,-0.00000149,-0.00001028,-0.00004881,-0.00012851,-
 0.00013148,0.00021204,0.00024549,0.00003722,0.00058056,0.00043836,-0.0
 0065563,0.00065873,0.00032449,-0.00152068,-0.00492833,-0.00784931,-0.0
 0674547,-0.00131999,0.00086850,0.00013221,0.00057447,-0.00008319,0.000
 21182,0.00015711,0.00011386,0.00018639,-0.00000754,0.00002836,0.000044
 53,-0.00000175,-0.00000175,-0.00000558,-0.00004079,-0.00005618,-0.0000
 6294,0.00001481,-0.00000332,0.00001544,-0.06854743,-0.11739379,-0.0942
 5309,-0.01165663,-0.01002063,-0.01880896,0.00885141,0.01172776,0.01421
 409,0.07555284,0.12192284,-0.00010153,-0.00006332,-0.00005877,0.000105
 43,0.00018404,0.00022802,0.00001823,-0.00006919,-0.00010694,-0.0000648
 3,-0.00012640,-0.00016972,-0.00000062,0.00004272,0.00007286,-0.0000016
 4,-0.00000597,-0.00000202,0.00001384,-0.00008812,-0.00016805,-0.000006
 76,0.00011588,0.00037036,0.00105443,0.00085216,0.00131359,0.00423050,-
 0.00087028,-0.00264338,-0.01312712,-0.01463302,-0.02222182,-0.00158753
 ,-0.00042888,0.00081019,0.00061697,-0.00011458,0.00027664,0.00041353,0
 .00048506,-0.00040114,-0.00001308,0.00005119,0.00008241,-0.00000200,-0
 .00000514,-0.00000643,-0.00006331,-0.00011716,-0.00014157,0.00000300,0
 .00001428,0.00000075,-0.09492224,-0.09219619,-0.18041963,0.00647488,0.
 00581559,0.01188352,-0.00575791,-0.00612370,-0.00762859,0.10297351,0.1
 0711004,0.19853744,-0.00011333,-0.00005540,-0.00019706,-0.00014963,0.0
 0018747,0.00060453,0.00005430,-0.00009426,-0.00015143,0.00182357,-0.00
 164546,-0.00061810,-0.00533872,-0.00121090,0.00087036,0.00062519,0.000
 75931,-0.00053671,-0.33179269,-0.06487597,-0.00668478,-0.01556607,-0.0
 0504464,-0.00119114,-0.00111469,-0.00055126,-0.00142181,0.00018672,-0.
 00135580,-0.00185350,0.00090441,0.00024811,-0.00009163,0.00011072,-0.0
 0001971,0.00001786,-0.00000078,0.00000597,-0.00001065,-0.00001792,0.00
 000027,0.00001172,0.00049823,0.00036878,0.00022196,-0.00007235,0.00007
 977,-0.00011753,-0.00042877,0.00111178,0.00346179,-0.00076382,-0.00037
 888,-0.00022400,-0.00016083,-0.00013267,-0.00022366,-0.00001712,0.0000
 1636,-0.00000170,-0.00002240,-0.00001210,0.00001282,0.00006546,-0.0000
 3021,-0.00007845,0.35128211,-0.00015913,-0.00062069,-0.00004772,-0.001
 01567,0.00093340,0.00002657,0.00013016,-0.00005335,-0.00011002,-0.0010
 3519,0.00354631,-0.00586438,-0.01770155,-0.00100314,-0.00015043,0.0009
 8221,-0.00277513,0.00266844,-0.06542736,-0.05855403,-0.01105648,0.0111
 1294,0.00837717,0.00238429,-0.00176593,-0.00232847,0.00172978,0.001644
 89,-0.00130818,-0.00236540,-0.00057157,-0.00033913,0.00022211,-0.00008
 009,0.00014401,-0.00019846,-0.00004581,0.00000187,0.00005860,0.0000397
 1,0.00000858,0.00000264,0.00028538,-0.00048620,-0.00011989,0.00008021,
 -0.00053174,0.00039475,0.00023462,0.00255753,-0.00421003,0.00067071,0.
 00026184,-0.00012354,0.00010561,-0.00003607,0.00018862,-0.00002596,0.0
 0000645,0.00000053,0.00002281,-0.00001243,0.00001272,-0.00002494,0.000
 02292,0.00004716,0.07265602,0.05219624,-0.00039866,-0.00011009,-0.0005
 7482,-0.00114551,-0.00028186,0.00100149,0.00018103,-0.00005130,-0.0001
 3108,0.00015017,-0.00574059,-0.00080525,-0.02381126,-0.00521518,0.0025
 2364,-0.00020910,0.00275038,-0.00064766,-0.00732071,-0.01104986,-0.052
 58909,0.02257398,0.00665202,0.00753756,-0.00263318,0.00166568,0.000334
 78,0.00190851,-0.00118142,-0.00258061,-0.00111064,-0.00000102,-0.00006
 746,-0.00001312,-0.00024151,0.00002296,0.00003060,0.00001934,0.0000183
 0,-0.00004492,0.00003479,0.00003669,0.00015519,-0.00021571,-0.00085975
 ,-0.00011985,0.00040441,-0.00019475,0.00238174,-0.00440240,-0.00185566
 ,0.00129089,0.00019053,0.00012972,0.00009080,0.00022959,0.00015812,0.0
 0001841,0.00001869,-0.00001013,-0.00001007,0.00000390,0.00001147,-0.00
 005109,0.00003193,0.00007402,0.00820894,0.01657204,0.04848184,0.000014
 29,0.00001917,0.00002219,-0.00000618,-0.00001616,-0.00001891,0.0000180
 7,0.00001305,0.00001080,0.00001283,-0.00002609,-0.00004037,0.00003142,
 0.00000814,-0.00001740,-0.00000039,-0.00000341,0.00000052,-0.00008695,
 -0.00001135,-0.00000763,0.00001476,0.00008710,0.00020997,-0.00001047,-
 0.00072373,-0.00120563,0.00273798,0.00289552,0.00338832,-0.02360623,0.
 01388675,0.02890368,-0.10544171,0.05058321,0.09168602,0.00896256,-0.00
 764483,-0.01101673,0.00075406,0.00058704,-0.00092431,0.00004420,0.0000
 5150,0.00006223,0.00000170,0.00000311,0.00000518,-0.00012190,-0.000024
 79,0.00000204,0.00000359,-0.00000070,0.00000003,-0.00321076,-0.0032447
 0,-0.00213716,-0.00088980,0.00040512,0.00056818,-0.00057334,0.00009800
 ,0.00045448,0.00019779,-0.00003162,-0.00017734,0.00000843,-0.00011208,
 -0.00012213,0.12114607,0.00003319,0.00001885,0.00002606,-0.00003260,-0
 .00004965,-0.00008070,-0.00000125,0.00001872,0.00004078,0.00001737,0.0
 0003384,0.00003944,0.00000494,-0.00000998,-0.00001653,-0.00000074,0.00
 000592,-0.00000201,-0.00003882,0.00000025,0.00003822,0.00001815,-0.000
 25605,0.00011508,0.00023466,0.00020173,-0.00036042,-0.00176570,-0.0001
 8873,0.00090916,-0.00711201,0.00486791,0.01151460,0.05906947,-0.102976
 76,-0.09665348,-0.00571137,0.00418389,0.00806799,0.01444632,-0.0109658
 0,-0.02493967,0.00001341,0.00000201,-0.00001951,0.00000113,0.00000138,
 0.00000291,-0.00000400,0.00002004,0.00003086,0.00000171,-0.00000033,-0
 .00000422,-0.00176862,0.00031740,-0.00135360,-0.00016961,-0.00008490,0
 .00019631,-0.00042113,-0.00007260,0.00029449,0.00001035,-0.00012168,0.
 00012382,-0.00002657,-0.00000777,-0.00008235,-0.05679827,0.10506231,0.
 00002945,0.00002308,0.00002064,-0.00002934,-0.00006167,-0.00007466,-0.
 00000656,0.00002775,0.00003593,0.00001956,0.00003295,0.00004619,-0.000
 01573,-0.00000357,-0.00001872,0.00000161,-0.00000319,0.00000516,-0.000
 00459,0.00004990,0.00003794,-0.00007276,0.00000153,-0.00004225,0.00024
 795,0.00026026,-0.00001779,-0.00378725,-0.00142974,-0.00010590,0.00164
 416,0.00113185,-0.00090895,0.10267259,-0.09251490,-0.21802292,0.012532
 83,-0.01177333,-0.01748772,-0.00385420,0.00262984,0.00502212,0.0000089
 9,-0.00001970,-0.00001694,0.00000062,0.00000105,0.00000142,0.00001074,
 0.00001501,0.00002283,-0.00000283,-0.00000223,-0.00000659,0.00007482,-
 0.00077756,0.00064126,0.00002738,-0.00004284,0.00002324,0.00026570,0.0
 0017039,-0.00017175,-0.00010926,0.00023421,0.00031827,-0.00000783,-0.0
 0006191,-0.00001432,-0.10964602,0.10211281,0.23071352\\0.00000223,0.00
 000038,-0.00000056,-0.00000119,-0.00000031,-0.00000010,0.00000041,-0.0
 0000040,-0.00000042,0.00000145,-0.00000051,-0.00000151,-0.00000368,0.0
 0000135,0.00000560,0.00000387,-0.00000258,-0.00000325,-0.00000045,-0.0
 0000042,-0.00000007,0.00000483,0.00000041,0.00000160,-0.00000483,0.000
 00065,-0.00000129,0.00000238,0.00000309,0.00000485,0.00000059,-0.00000
 533,-0.00000395,-0.00000058,0.00000004,0.00000134,-0.00000075,-0.00000
 027,0.00000070,0.00000098,-0.00000172,0.00000074,-0.00000084,0.0000024
 0,0.00000071,0.00000036,0.00000080,-0.00000126,-0.00000282,-0.00000011
 ,-0.00000132,0.00000083,0.00000116,-0.00000197,-0.00000002,0.00000147,
 -0.00000113,-0.00000159,0.00000062,-0.00000115,-0.00000033,0.00000032,
 0.00000082,-0.00000071,0.00000058,-0.00000131,0.00000057,-0.00000133,0
 .00000077,-0.00000070,-0.00000027,0.00000217\\\@


 A MUSTACHE HAIR ACROSS A CHIP IS LIKE A REDWOOD
 TREE FALLING THROUGH A HOUSING PROJECT.
 - AN IBM MANAGER IN EAST FISHKILL, NEW YORK
   AS QUOTED IN "FROM SANDS TO CIRCUITS", IBM INNOVATION JANUARY 1985.
 Job cpu time:       0 days  0 hours 20 minutes 55.8 seconds.
 File lengths (MBytes):  RWF=    187 Int=      0 D2E=      0 Chk=      6 Scr=      1
 Normal termination of Gaussian 09 at Fri Aug 20 16:07:17 2021.
