 Entering Gaussian System, Link 0=g09
 Input=B3LYP6-31Gxx.CUZMOZ.gjf
 Output=B3LYP6-31Gxx.CUZMOZ.log
 Initial command:
 /public/home/users/caep010/software/Gaussian09/g09/l1.exe "/public/home/users/caep010/.cache/gau_scr/Gau-55499.inp" -scrdir="/public/home/users/caep010/.cache/gau_scr/"
 Entering Link 1 = /public/home/users/caep010/software/Gaussian09/g09/l1.exe PID=     55500.
  
 Copyright (c) 1988,1990,1992,1993,1995,1998,2003,2009,2015,
            Gaussian, Inc.  All Rights Reserved.
  
 This is part of the Gaussian(R) 09 program.  It is based on
 the Gaussian(R) 03 system (copyright 2003, Gaussian, Inc.),
 the Gaussian(R) 98 system (copyright 1998, Gaussian, Inc.),
 the Gaussian(R) 94 system (copyright 1995, Gaussian, Inc.),
 the Gaussian 92(TM) system (copyright 1992, Gaussian, Inc.),
 the Gaussian 90(TM) system (copyright 1990, Gaussian, Inc.),
 the Gaussian 88(TM) system (copyright 1988, Gaussian, Inc.),
 the Gaussian 86(TM) system (copyright 1986, Carnegie Mellon
 University), and the Gaussian 82(TM) system (copyright 1983,
 Carnegie Mellon University). Gaussian is a federally registered
 trademark of Gaussian, Inc.
  
 This software contains proprietary and confidential information,
 including trade secrets, belonging to Gaussian, Inc.
  
 This software is provided under written license and may be
 used, copied, transmitted, or stored only in accord with that
 written license.
  
 The following legend is applicable only to US Government
 contracts under FAR:
  
                    RESTRICTED RIGHTS LEGEND
  
 Use, reproduction and disclosure by the US Government is
 subject to restrictions as set forth in subparagraphs (a)
 and (c) of the Commercial Computer Software - Restricted
 Rights clause in FAR 52.227-19.
  
 Gaussian, Inc.
 340 Quinnipiac St., Bldg. 40, Wallingford CT 06492
  
  
 ---------------------------------------------------------------
 Warning -- This program may not be used in any manner that
 competes with the business of Gaussian, Inc. or will provide
 assistance to any competitor of Gaussian, Inc.  The licensee
 of this program is prohibited from giving any competitor of
 Gaussian, Inc. access to this program.  By using this program,
 the user acknowledges that Gaussian, Inc. is engaged in the
 business of creating and licensing software in the field of
 computational chemistry and represents and warrants to the
 licensee that it is not a competitor of Gaussian, Inc. and that
 it will not use this program in any manner prohibited above.
 ---------------------------------------------------------------
  

 Cite this work as:
 Gaussian 09, Revision E.01,
 M. J. Frisch, G. W. Trucks, H. B. Schlegel, G. E. Scuseria, 
 M. A. Robb, J. R. Cheeseman, G. Scalmani, V. Barone, B. Mennucci, 
 G. A. Petersson, H. Nakatsuji, M. Caricato, X. Li, H. P. Hratchian, 
 A. F. Izmaylov, J. Bloino, G. Zheng, J. L. Sonnenberg, M. Hada, 
 M. Ehara, K. Toyota, R. Fukuda, J. Hasegawa, M. Ishida, T. Nakajima, 
 Y. Honda, O. Kitao, H. Nakai, T. Vreven, J. A. Montgomery, Jr., 
 J. E. Peralta, F. Ogliaro, M. Bearpark, J. J. Heyd, E. Brothers, 
 K. N. Kudin, V. N. Staroverov, T. Keith, R. Kobayashi, J. Normand, 
 K. Raghavachari, A. Rendell, J. C. Burant, S. S. Iyengar, J. Tomasi, 
 M. Cossi, N. Rega, J. M. Millam, M. Klene, J. E. Knox, J. B. Cross, 
 V. Bakken, C. Adamo, J. Jaramillo, R. Gomperts, R. E. Stratmann, 
 O. Yazyev, A. J. Austin, R. Cammi, C. Pomelli, J. W. Ochterski, 
 R. L. Martin, K. Morokuma, V. G. Zakrzewski, G. A. Voth, 
 P. Salvador, J. J. Dannenberg, S. Dapprich, A. D. Daniels, 
 O. Farkas, J. B. Foresman, J. V. Ortiz, J. Cioslowski, 
 and D. J. Fox, Gaussian, Inc., Wallingford CT, 2013.
 
 ******************************************
 Gaussian 09:  ES64L-G09RevE.01 30-Nov-2015
                21-Aug-2021 
 ******************************************
 %nproc=32
 Will use up to   32 processors via shared memory.
 %mem=180GB
 --------------------------------
 #P OPT=calcfc Freq B3LYP/6-31G**
 --------------------------------
 1/10=4,14=-1,18=20,19=15,26=3,38=1/1,3;
 2/9=110,12=2,17=6,18=5,40=1/2;
 3/5=1,6=6,7=101,11=2,16=1,25=1,30=1,71=2,74=-5,140=1/1,2,3;
 4//1;
 5/5=2,38=5/2;
 8/6=4,10=90,11=11/1;
 11/6=1,8=1,9=11,15=111,16=1/1,2,10;
 10/6=1,13=1/2;
 6/7=2,8=2,9=2,10=2,28=1/1;
 7/10=1,18=20,25=1/1,2,3,16;
 1/10=4,14=-1,18=20,19=15,26=3/3(2);
 2/9=110/2;
 99//99;
 2/9=110/2;
 3/5=1,6=6,7=101,11=2,16=1,25=1,30=1,71=1,74=-5/1,2,3;
 4/5=5,16=3,69=1/1;
 5/5=2,38=5/2;
 7//1,2,3,16;
 1/14=-1,18=20,19=15,26=3/3(-5);
 2/9=110/2;
 6/7=2,8=2,9=2,10=2,19=2,28=1/1;
 99/9=1/99;
 Leave Link    1 at Sat Aug 21 02:21:06 2021, MaxMem= 24159191040 cpu:         2.4
 (Enter /public/home/users/caep010/software/Gaussian09/g09/l101.exe)
 ------
 CUZMOZ
 ------
 Symbolic Z-matrix:
 Charge =  0 Multiplicity = 1
 C                     1.2481    0.9883    1.5891 
 N                     1.418     2.4278    1.5891 
 N                     0.3438    3.221     1.5891 
 C                     0.8636    4.4328    1.5891 
 N                    -0.0179    5.5775    1.5891 
 O                    -1.217     5.4056    1.5891 
 O                     0.5022    6.6767    1.5891 
 C                     2.5667    3.1256    1.5891 
 C                     2.2473    4.4457    1.5891 
 H                     2.8429    5.2123    1.5891 
 H                     3.3974    2.7212    1.5891 
 H                     2.133     0.5835    1.5891 
 H                     0.7514    0.7072    0.8002 
 H                     0.7514    0.7072    2.3779 
 
 NAtoms=     14 NQM=       14 NQMF=       0 NMMI=      0 NMMIF=      0
                NMic=       0 NMicF=      0.
                    Isotopes and Nuclear Properties:
 (Nuclear quadrupole moments (NQMom) in fm**2, nuclear magnetic moments (NMagM)
  in nuclear magnetons)

  Atom         1           2           3           4           5           6           7           8           9          10
 IAtWgt=          12          14          14          12          14          16          16          12          12           1
 AtmWgt=  12.0000000  14.0030740  14.0030740  12.0000000  14.0030740  15.9949146  15.9949146  12.0000000  12.0000000   1.0078250
 NucSpn=           0           2           2           0           2           0           0           0           0           1
 AtZEff=   0.0000000   0.0000000   0.0000000   0.0000000   0.0000000   0.0000000   0.0000000   0.0000000   0.0000000   0.0000000
 NQMom=    0.0000000   2.0440000   2.0440000   0.0000000   2.0440000   0.0000000   0.0000000   0.0000000   0.0000000   0.0000000
 NMagM=    0.0000000   0.4037610   0.4037610   0.0000000   0.4037610   0.0000000   0.0000000   0.0000000   0.0000000   2.7928460
 AtZNuc=   6.0000000   7.0000000   7.0000000   6.0000000   7.0000000   8.0000000   8.0000000   6.0000000   6.0000000   1.0000000

  Atom        11          12          13          14
 IAtWgt=           1           1           1           1
 AtmWgt=   1.0078250   1.0078250   1.0078250   1.0078250
 NucSpn=           1           1           1           1
 AtZEff=   0.0000000   0.0000000   0.0000000   0.0000000
 NQMom=    0.0000000   0.0000000   0.0000000   0.0000000
 NMagM=    2.7928460   2.7928460   2.7928460   2.7928460
 AtZNuc=   1.0000000   1.0000000   1.0000000   1.0000000
 Leave Link  101 at Sat Aug 21 02:21:06 2021, MaxMem= 24159191040 cpu:         9.9
 (Enter /public/home/users/caep010/software/Gaussian09/g09/l103.exe)

 GradGradGradGradGradGradGradGradGradGradGradGradGradGradGradGradGradGrad
 Berny optimization.
 Initialization pass.
                           ----------------------------
                           !    Initial Parameters    !
                           ! (Angstroms and Degrees)  !
 --------------------------                            --------------------------
 ! Name  Definition              Value          Derivative Info.                !
 --------------------------------------------------------------------------------
 ! R1    R(1,2)                  1.4495         calculate D2E/DX2 analytically  !
 ! R2    R(1,12)                 0.9731         calculate D2E/DX2 analytically  !
 ! R3    R(1,13)                 0.9737         calculate D2E/DX2 analytically  !
 ! R4    R(1,14)                 0.9736         calculate D2E/DX2 analytically  !
 ! R5    R(2,3)                  1.3353         calculate D2E/DX2 analytically  !
 ! R6    R(2,8)                  1.344          calculate D2E/DX2 analytically  !
 ! R7    R(3,4)                  1.3186         calculate D2E/DX2 analytically  !
 ! R8    R(4,5)                  1.4448         calculate D2E/DX2 analytically  !
 ! R9    R(4,9)                  1.3838         calculate D2E/DX2 analytically  !
 ! R10   R(5,6)                  1.2114         calculate D2E/DX2 analytically  !
 ! R11   R(5,7)                  1.216          calculate D2E/DX2 analytically  !
 ! R12   R(8,9)                  1.3582         calculate D2E/DX2 analytically  !
 ! R13   R(8,11)                 0.9239         calculate D2E/DX2 analytically  !
 ! R14   R(9,10)                 0.9708         calculate D2E/DX2 analytically  !
 ! A1    A(2,1,12)             107.8505         calculate D2E/DX2 analytically  !
 ! A2    A(2,1,13)             110.2731         calculate D2E/DX2 analytically  !
 ! A3    A(2,1,14)             110.2749         calculate D2E/DX2 analytically  !
 ! A4    A(12,1,13)            110.1079         calculate D2E/DX2 analytically  !
 ! A5    A(12,1,14)            110.1096         calculate D2E/DX2 analytically  !
 ! A6    A(13,1,14)            108.2292         calculate D2E/DX2 analytically  !
 ! A7    A(1,2,3)              119.7112         calculate D2E/DX2 analytically  !
 ! A8    A(1,2,8)              128.0087         calculate D2E/DX2 analytically  !
 ! A9    A(3,2,8)              112.2801         calculate D2E/DX2 analytically  !
 ! A10   A(2,3,4)              103.2257         calculate D2E/DX2 analytically  !
 ! A11   A(3,4,5)              119.1843         calculate D2E/DX2 analytically  !
 ! A12   A(3,4,9)              113.751          calculate D2E/DX2 analytically  !
 ! A13   A(5,4,9)              127.0647         calculate D2E/DX2 analytically  !
 ! A14   A(4,5,6)              119.4406         calculate D2E/DX2 analytically  !
 ! A15   A(4,5,7)              117.0794         calculate D2E/DX2 analytically  !
 ! A16   A(6,5,7)              123.4799         calculate D2E/DX2 analytically  !
 ! A17   A(2,8,9)              107.676          calculate D2E/DX2 analytically  !
 ! A18   A(2,8,11)             122.7649         calculate D2E/DX2 analytically  !
 ! A19   A(9,8,11)             129.5591         calculate D2E/DX2 analytically  !
 ! A20   A(4,9,8)              103.0673         calculate D2E/DX2 analytically  !
 ! A21   A(4,9,10)             128.3791         calculate D2E/DX2 analytically  !
 ! A22   A(8,9,10)             128.5536         calculate D2E/DX2 analytically  !
 ! D1    D(12,1,2,3)           180.0            calculate D2E/DX2 analytically  !
 ! D2    D(12,1,2,8)             0.0            calculate D2E/DX2 analytically  !
 ! D3    D(13,1,2,3)            59.7362         calculate D2E/DX2 analytically  !
 ! D4    D(13,1,2,8)          -120.2638         calculate D2E/DX2 analytically  !
 ! D5    D(14,1,2,3)           -59.733          calculate D2E/DX2 analytically  !
 ! D6    D(14,1,2,8)           120.267          calculate D2E/DX2 analytically  !
 ! D7    D(1,2,3,4)            180.0            calculate D2E/DX2 analytically  !
 ! D8    D(8,2,3,4)              0.0            calculate D2E/DX2 analytically  !
 ! D9    D(1,2,8,9)            180.0            calculate D2E/DX2 analytically  !
 ! D10   D(1,2,8,11)             0.0            calculate D2E/DX2 analytically  !
 ! D11   D(3,2,8,9)              0.0            calculate D2E/DX2 analytically  !
 ! D12   D(3,2,8,11)           180.0            calculate D2E/DX2 analytically  !
 ! D13   D(2,3,4,5)            180.0            calculate D2E/DX2 analytically  !
 ! D14   D(2,3,4,9)              0.0            calculate D2E/DX2 analytically  !
 ! D15   D(3,4,5,6)              0.0            calculate D2E/DX2 analytically  !
 ! D16   D(3,4,5,7)            180.0            calculate D2E/DX2 analytically  !
 ! D17   D(9,4,5,6)            180.0            calculate D2E/DX2 analytically  !
 ! D18   D(9,4,5,7)              0.0            calculate D2E/DX2 analytically  !
 ! D19   D(3,4,9,8)              0.0            calculate D2E/DX2 analytically  !
 ! D20   D(3,4,9,10)           180.0            calculate D2E/DX2 analytically  !
 ! D21   D(5,4,9,8)            180.0            calculate D2E/DX2 analytically  !
 ! D22   D(5,4,9,10)             0.0            calculate D2E/DX2 analytically  !
 ! D23   D(2,8,9,4)              0.0            calculate D2E/DX2 analytically  !
 ! D24   D(2,8,9,10)           180.0            calculate D2E/DX2 analytically  !
 ! D25   D(11,8,9,4)           180.0            calculate D2E/DX2 analytically  !
 ! D26   D(11,8,9,10)            0.0            calculate D2E/DX2 analytically  !
 --------------------------------------------------------------------------------
 Trust Radius=3.00D-01 FncErr=1.00D-07 GrdErr=1.00D-06
 Number of steps in this run=     72 maximum allowed number of steps=    100.
 GradGradGradGradGradGradGradGradGradGradGradGradGradGradGradGradGradGrad

 Leave Link  103 at Sat Aug 21 02:21:06 2021, MaxMem= 24159191040 cpu:         0.6
 (Enter /public/home/users/caep010/software/Gaussian09/g09/l202.exe)
                          Input orientation:                          
 ---------------------------------------------------------------------
 Center     Atomic      Atomic             Coordinates (Angstroms)
 Number     Number       Type             X           Y           Z
 ---------------------------------------------------------------------
      1          6           0        1.248100    0.988300    1.589100
      2          7           0        1.418000    2.427800    1.589100
      3          7           0        0.343800    3.221000    1.589100
      4          6           0        0.863600    4.432800    1.589100
      5          7           0       -0.017900    5.577500    1.589100
      6          8           0       -1.217000    5.405600    1.589100
      7          8           0        0.502200    6.676700    1.589100
      8          6           0        2.566700    3.125600    1.589100
      9          6           0        2.247300    4.445700    1.589100
     10          1           0        2.842900    5.212300    1.589100
     11          1           0        3.397400    2.721200    1.589100
     12          1           0        2.133000    0.583500    1.589100
     13          1           0        0.751400    0.707200    0.800200
     14          1           0        0.751400    0.707200    2.377900
 ---------------------------------------------------------------------
                    Distance matrix (angstroms):
                    1          2          3          4          5
     1  C    0.000000
     2  N    1.449492   0.000000
     3  N    2.408881   1.335317   0.000000
     4  C    3.465894   2.080237   1.318579   0.000000
     5  N    4.760621   3.461563   2.384097   1.444777   0.000000
     6  O    5.058583   3.976244   2.684879   2.296788   1.211359
     7  O    5.737095   4.346475   3.459328   2.272817   1.216036
     8  C    2.511326   1.344037   2.224946   2.146933   3.562579
     9  C    3.598891   2.181664   2.263449   1.383760   2.532213
    10  H    4.515037   3.127903   3.195431   2.127263   2.884016
    11  H    2.760875   2.001027   3.094232   3.057731   4.452272
    12  H    0.973094   1.978046   3.187106   4.053207   5.437500
    13  H    0.973700   2.006784   2.666025   3.809862   4.993396
    14  H    0.973619   2.006745   2.665996   3.809841   4.993381
                    6          7          8          9         10
     6  O    0.000000
     7  O    2.138070   0.000000
     8  C    4.417554   4.107611   0.000000
     9  C    3.594827   2.832443   1.358190   0.000000
    10  H    4.064499   2.761040   2.104900   0.970781   0.000000
    11  H    5.338416   4.901853   0.923906   2.072831   2.552068
    12  H    5.871554   6.307662   2.578831   3.863891   4.682921
    13  H    5.154796   6.026557   3.125114   4.103226   5.029181
    14  H    5.154781   6.026544   3.125088   4.103207   5.029165
                   11         12         13         14
    11  H    0.000000
    12  H    2.483640   0.000000
    13  H    3.417583   1.595770   0.000000
    14  H    3.417560   1.595721   1.577700   0.000000
 Stoichiometry    C4H5N3O2
 Framework group  C1[X(C4H5N3O2)]
 Deg. of freedom    36
 Full point group                 C1      NOp   1
 Largest Abelian subgroup         C1      NOp   1
 Largest concise Abelian subgroup C1      NOp   1
                         Standard orientation:                         
 ---------------------------------------------------------------------
 Center     Atomic      Atomic             Coordinates (Angstroms)
 Number     Number       Type             X           Y           Z
 ---------------------------------------------------------------------
      1          6           0       -2.914471   -0.796312   -0.000002
      2          7           0       -1.647425   -0.092310   -0.000002
      3          7           0       -0.505618   -0.784660   -0.000002
      4          6           0        0.417877    0.156513   -0.000002
      5          7           0        1.811630   -0.224055   -0.000002
      6          8           0        2.108133   -1.398566   -0.000002
      7          8           0        2.630853    0.674621   -0.000002
      8          6           0       -1.438305    1.235360   -0.000002
      9          6           0       -0.095832    1.441385   -0.000002
     10          1           0        0.387043    2.283553   -0.000002
     11          1           0       -2.127957    1.850162   -0.000002
     12          1           0       -3.625082   -0.131525   -0.000002
     13          1           0       -2.985811   -1.362562    0.788898
     14          1           0       -2.985811   -1.362562   -0.788802
 ---------------------------------------------------------------------
 Rotational constants (GHZ):      4.4813818      1.1629242      0.9275724
 Leave Link  202 at Sat Aug 21 02:21:06 2021, MaxMem= 24159191040 cpu:         1.0
 (Enter /public/home/users/caep010/software/Gaussian09/g09/l301.exe)
 Standard basis: 6-31G(d,p) (6D, 7F)
 Ernie: Thresh=  0.10000D-02 Tol=  0.10000D-05 Strict=F.
 There are   160 symmetry adapted cartesian basis functions of A   symmetry.
 There are   160 symmetry adapted basis functions of A   symmetry.
   160 basis functions,   287 primitive gaussians,   160 cartesian basis functions
    33 alpha electrons       33 beta electrons
       nuclear repulsion energy       446.6256499037 Hartrees.
 IExCor=  402 DFT=T Ex+Corr=B3LYP ExCW=0 ScaHFX=  0.200000
 ScaDFX=  0.800000  0.720000  1.000000  0.810000 ScalE2=  1.000000  1.000000
 IRadAn=      0 IRanWt=     -1 IRanGd=            0 ICorTp=0 IEmpDi=  4
 NAtoms=   14 NActive=   14 NUniq=   14 SFac= 1.00D+00 NAtFMM=   60 NAOKFM=F Big=F
 Integral buffers will be    131072 words long.
 Raffenetti 2 integral format.
 Two-electron integral symmetry is turned on.
 Leave Link  301 at Sat Aug 21 02:21:07 2021, MaxMem= 24159191040 cpu:         2.1
 (Enter /public/home/users/caep010/software/Gaussian09/g09/l302.exe)
 NPDir=0 NMtPBC=     1 NCelOv=     1 NCel=       1 NClECP=     1 NCelD=      1
         NCelK=      1 NCelE2=     1 NClLst=     1 CellRange=     0.0.
 One-electron integrals computed using PRISM.
 NBasis=   160 RedAO= T EigKep=  8.01D-04  NBF=   160
 NBsUse=   160 1.00D-06 EigRej= -1.00D+00 NBFU=   160
 Precomputing XC quadrature grid using
 IXCGrd= 4 IRadAn=           0 IRanWt=          -1 IRanGd=           0 AccXCQ= 0.00D+00.
 Generated NRdTot=       0 NPtTot=           0 NUsed=           0 NTot=          32
 NSgBfM=   160   160   160   160   160 MxSgAt=    14 MxSgA2=    14.
 Leave Link  302 at Sat Aug 21 02:21:07 2021, MaxMem= 24159191040 cpu:        12.2
 (Enter /public/home/users/caep010/software/Gaussian09/g09/l303.exe)
 DipDrv:  MaxL=1.
 Leave Link  303 at Sat Aug 21 02:21:07 2021, MaxMem= 24159191040 cpu:         0.8
 (Enter /public/home/users/caep010/software/Gaussian09/g09/l401.exe)
 ExpMin= 1.61D-01 ExpMax= 5.48D+03 ExpMxC= 8.25D+02 IAcc=1 IRadAn=         1 AccDes= 0.00D+00
 Harris functional with IExCor=  402 and IRadAn=       1 diagonalized for initial guess.
 HarFok:  IExCor=  402 AccDes= 0.00D+00 IRadAn=         1 IDoV= 1 UseB2=F ITyADJ=14
 ICtDFT=  3500011 ScaDFX=  1.000000  1.000000  1.000000  1.000000
 FoFCou: FMM=F IPFlag=           0 FMFlag=      100000 FMFlg1=           0
         NFxFlg=           0 DoJE=T BraDBF=F KetDBF=T FulRan=T
         wScrn=  0.000000 ICntrl=     500 IOpCl=  0 I1Cent=   200000004 NGrid=           0
         NMat0=    1 NMatS0=      1 NMatT0=    0 NMatD0=    1 NMtDS0=    0 NMtDT0=    0
 Petite list used in FoFCou.
 Harris En= -470.005893026961    
 JPrj=0 DoOrth=F DoCkMO=F.
 Leave Link  401 at Sat Aug 21 02:21:08 2021, MaxMem= 24159191040 cpu:        10.8
 (Enter /public/home/users/caep010/software/Gaussian09/g09/l502.exe)
 Closed shell SCF:
 Using DIIS extrapolation, IDIIS=  1040.
 Integral symmetry usage will be decided dynamically.
 Keep R1 ints in memory in canonical form, NReq=85141869.
 IVT=      101669 IEndB=      101669 NGot= 24159191040 MDV= 24076135732
 LenX= 24076135732 LenY= 24076109691
 Requested convergence on RMS density matrix=1.00D-08 within 128 cycles.
 Requested convergence on MAX density matrix=1.00D-06.
 Requested convergence on             energy=1.00D-06.
 No special actions if energy rises.
 FoFCou: FMM=F IPFlag=           0 FMFlag=           0 FMFlg1=           0
         NFxFlg=           0 DoJE=F BraDBF=F KetDBF=F FulRan=T
         wScrn=  0.000000 ICntrl=     600 IOpCl=  0 I1Cent=           0 NGrid=           0
         NMat0=    1 NMatS0=  12880 NMatT0=    0 NMatD0=    1 NMtDS0=    0 NMtDT0=    0
 Symmetry not used in FoFCou.
 Integral accuracy reduced to 1.0D-05 until final iterations.

 Cycle   1  Pass 0  IDiag  1:
 E= -469.644906580361    
 DIIS: error= 5.46D-02 at cycle   1 NSaved=   1.
 NSaved= 1 IEnMin= 1 EnMin= -469.644906580361     IErMin= 1 ErrMin= 5.46D-02
 ErrMax= 5.46D-02  0.00D+00 EMaxC= 1.00D-01 BMatC= 3.73D-01 BMatP= 3.73D-01
 IDIUse=3 WtCom= 4.54D-01 WtEn= 5.46D-01
 Coeff-Com:  0.100D+01
 Coeff-En:   0.100D+01
 Coeff:      0.100D+01
 Gap=     0.183 Goal=   None    Shift=    0.000
 GapD=    0.183 DampG=1.000 DampE=0.500 DampFc=0.5000 IDamp=-1.
 Damping current iteration by 5.00D-01
 RMSDP=7.30D-03 MaxDP=2.42D-01              OVMax= 3.33D-01

 Cycle   2  Pass 0  IDiag  1:
 E= -469.728910997335     Delta-E=       -0.084004416975 Rises=F Damp=T
 DIIS: error= 2.00D-02 at cycle   2 NSaved=   2.
 NSaved= 2 IEnMin= 2 EnMin= -469.728910997335     IErMin= 2 ErrMin= 2.00D-02
 ErrMax= 2.00D-02  0.00D+00 EMaxC= 1.00D-01 BMatC= 5.90D-02 BMatP= 3.73D-01
 IDIUse=3 WtCom= 8.00D-01 WtEn= 2.00D-01
 Coeff-Com:  0.236D+00 0.764D+00
 Coeff-En:   0.350D+00 0.650D+00
 Coeff:      0.259D+00 0.741D+00
 Gap=     0.199 Goal=   None    Shift=    0.000
 RMSDP=2.21D-03 MaxDP=6.53D-02 DE=-8.40D-02 OVMax= 2.17D-01

 Cycle   3  Pass 0  IDiag  1:
 E= -469.934960611523     Delta-E=       -0.206049614188 Rises=F Damp=F
 DIIS: error= 9.37D-03 at cycle   3 NSaved=   3.
 NSaved= 3 IEnMin= 3 EnMin= -469.934960611523     IErMin= 3 ErrMin= 9.37D-03
 ErrMax= 9.37D-03  0.00D+00 EMaxC= 1.00D-01 BMatC= 1.53D-02 BMatP= 5.90D-02
 IDIUse=3 WtCom= 9.06D-01 WtEn= 9.37D-02
 Coeff-Com:  0.820D-01 0.334D+00 0.584D+00
 Coeff-En:   0.000D+00 0.000D+00 0.100D+01
 Coeff:      0.743D-01 0.303D+00 0.623D+00
 Gap=     0.213 Goal=   None    Shift=    0.000
 RMSDP=1.19D-03 MaxDP=2.86D-02 DE=-2.06D-01 OVMax= 4.41D-02

 Cycle   4  Pass 0  IDiag  1:
 E= -469.944207215163     Delta-E=       -0.009246603639 Rises=F Damp=F
 DIIS: error= 7.51D-03 at cycle   4 NSaved=   4.
 NSaved= 4 IEnMin= 4 EnMin= -469.944207215163     IErMin= 4 ErrMin= 7.51D-03
 ErrMax= 7.51D-03  0.00D+00 EMaxC= 1.00D-01 BMatC= 5.84D-03 BMatP= 1.53D-02
 IDIUse=3 WtCom= 9.25D-01 WtEn= 7.51D-02
 Coeff-Com:  0.327D-01 0.108D+00 0.382D+00 0.477D+00
 Coeff-En:   0.000D+00 0.000D+00 0.260D+00 0.740D+00
 Coeff:      0.302D-01 0.100D+00 0.373D+00 0.497D+00
 Gap=     0.211 Goal=   None    Shift=    0.000
 RMSDP=5.95D-04 MaxDP=2.33D-02 DE=-9.25D-03 OVMax= 4.55D-02

 Cycle   5  Pass 0  IDiag  1:
 E= -469.947252485894     Delta-E=       -0.003045270731 Rises=F Damp=F
 DIIS: error= 6.30D-03 at cycle   5 NSaved=   5.
 NSaved= 5 IEnMin= 5 EnMin= -469.947252485894     IErMin= 5 ErrMin= 6.30D-03
 ErrMax= 6.30D-03  0.00D+00 EMaxC= 1.00D-01 BMatC= 2.26D-03 BMatP= 5.84D-03
 IDIUse=3 WtCom= 9.37D-01 WtEn= 6.30D-02
 Coeff-Com:  0.113D-01 0.169D-01 0.187D+00 0.397D+00 0.388D+00
 Coeff-En:   0.000D+00 0.000D+00 0.000D+00 0.302D+00 0.698D+00
 Coeff:      0.105D-01 0.159D-01 0.175D+00 0.391D+00 0.408D+00
 Gap=     0.211 Goal=   None    Shift=    0.000
 RMSDP=2.82D-04 MaxDP=1.30D-02 DE=-3.05D-03 OVMax= 2.65D-02

 Cycle   6  Pass 0  IDiag  1:
 E= -469.948898925235     Delta-E=       -0.001646439341 Rises=F Damp=F
 DIIS: error= 1.73D-03 at cycle   6 NSaved=   6.
 NSaved= 6 IEnMin= 6 EnMin= -469.948898925235     IErMin= 6 ErrMin= 1.73D-03
 ErrMax= 1.73D-03  0.00D+00 EMaxC= 1.00D-01 BMatC= 2.15D-04 BMatP= 2.26D-03
 IDIUse=3 WtCom= 9.83D-01 WtEn= 1.73D-02
 Coeff-Com:  0.379D-02-0.904D-03 0.815D-01 0.219D+00 0.289D+00 0.408D+00
 Coeff-En:   0.000D+00 0.000D+00 0.000D+00 0.000D+00 0.816D-01 0.918D+00
 Coeff:      0.373D-02-0.888D-03 0.801D-01 0.215D+00 0.285D+00 0.417D+00
 Gap=     0.208 Goal=   None    Shift=    0.000
 RMSDP=8.60D-05 MaxDP=3.65D-03 DE=-1.65D-03 OVMax= 6.35D-03

 Cycle   7  Pass 0  IDiag  1:
 E= -469.949060052033     Delta-E=       -0.000161126799 Rises=F Damp=F
 DIIS: error= 2.47D-04 at cycle   7 NSaved=   7.
 NSaved= 7 IEnMin= 7 EnMin= -469.949060052033     IErMin= 7 ErrMin= 2.47D-04
 ErrMax= 2.47D-04  0.00D+00 EMaxC= 1.00D-01 BMatC= 1.22D-05 BMatP= 2.15D-04
 IDIUse=3 WtCom= 9.98D-01 WtEn= 2.47D-03
 Coeff-Com:  0.952D-03-0.202D-02 0.249D-01 0.769D-01 0.119D+00 0.252D+00
 Coeff-Com:  0.529D+00
 Coeff-En:   0.000D+00 0.000D+00 0.000D+00 0.000D+00 0.000D+00 0.288D-01
 Coeff-En:   0.971D+00
 Coeff:      0.950D-03-0.201D-02 0.248D-01 0.767D-01 0.118D+00 0.251D+00
 Coeff:      0.530D+00
 Gap=     0.208 Goal=   None    Shift=    0.000
 RMSDP=2.48D-05 MaxDP=6.53D-04 DE=-1.61D-04 OVMax= 1.57D-03

 Cycle   8  Pass 0  IDiag  1:
 E= -469.949070567562     Delta-E=       -0.000010515529 Rises=F Damp=F
 DIIS: error= 5.92D-05 at cycle   8 NSaved=   8.
 NSaved= 8 IEnMin= 8 EnMin= -469.949070567562     IErMin= 8 ErrMin= 5.92D-05
 ErrMax= 5.92D-05  0.00D+00 EMaxC= 1.00D-01 BMatC= 6.50D-07 BMatP= 1.22D-05
 IDIUse=1 WtCom= 1.00D+00 WtEn= 0.00D+00
 Coeff-Com:  0.167D-03-0.125D-02 0.596D-02 0.224D-01 0.376D-01 0.928D-01
 Coeff-Com:  0.275D+00 0.568D+00
 Coeff:      0.167D-03-0.125D-02 0.596D-02 0.224D-01 0.376D-01 0.928D-01
 Coeff:      0.275D+00 0.568D+00
 Gap=     0.208 Goal=   None    Shift=    0.000
 RMSDP=5.88D-06 MaxDP=1.12D-04 DE=-1.05D-05 OVMax= 3.24D-04

 Initial convergence to 1.0D-05 achieved.  Increase integral accuracy.
 Cycle   9  Pass 1  IDiag  1:
 E= -469.949062584574     Delta-E=        0.000007982988 Rises=F Damp=F
 DIIS: error= 1.51D-05 at cycle   1 NSaved=   1.
 NSaved= 1 IEnMin= 1 EnMin= -469.949062584574     IErMin= 1 ErrMin= 1.51D-05
 ErrMax= 1.51D-05  0.00D+00 EMaxC= 1.00D-01 BMatC= 6.89D-08 BMatP= 6.89D-08
 IDIUse=1 WtCom= 1.00D+00 WtEn= 0.00D+00
 Coeff-Com:  0.100D+01
 Coeff:      0.100D+01
 Gap=     0.208 Goal=   None    Shift=    0.000
 RMSDP=5.88D-06 MaxDP=1.12D-04 DE= 7.98D-06 OVMax= 1.37D-04

 Cycle  10  Pass 1  IDiag  1:
 E= -469.949062621351     Delta-E=       -0.000000036777 Rises=F Damp=F
 DIIS: error= 1.30D-05 at cycle   2 NSaved=   2.
 NSaved= 2 IEnMin= 2 EnMin= -469.949062621351     IErMin= 2 ErrMin= 1.30D-05
 ErrMax= 1.30D-05  0.00D+00 EMaxC= 1.00D-01 BMatC= 4.52D-08 BMatP= 6.89D-08
 IDIUse=1 WtCom= 1.00D+00 WtEn= 0.00D+00
 Coeff-Com:  0.429D+00 0.571D+00
 Coeff:      0.429D+00 0.571D+00
 Gap=     0.208 Goal=   None    Shift=    0.000
 RMSDP=1.75D-06 MaxDP=5.45D-05 DE=-3.68D-08 OVMax= 8.37D-05

 Cycle  11  Pass 1  IDiag  1:
 E= -469.949062652230     Delta-E=       -0.000000030879 Rises=F Damp=F
 DIIS: error= 6.20D-06 at cycle   3 NSaved=   3.
 NSaved= 3 IEnMin= 3 EnMin= -469.949062652230     IErMin= 3 ErrMin= 6.20D-06
 ErrMax= 6.20D-06  0.00D+00 EMaxC= 1.00D-01 BMatC= 1.10D-08 BMatP= 4.52D-08
 IDIUse=1 WtCom= 1.00D+00 WtEn= 0.00D+00
 Coeff-Com:  0.154D-01 0.325D+00 0.660D+00
 Coeff:      0.154D-01 0.325D+00 0.660D+00
 Gap=     0.208 Goal=   None    Shift=    0.000
 RMSDP=6.98D-07 MaxDP=2.77D-05 DE=-3.09D-08 OVMax= 4.09D-05

 Cycle  12  Pass 1  IDiag  1:
 E= -469.949062659850     Delta-E=       -0.000000007620 Rises=F Damp=F
 DIIS: error= 3.28D-06 at cycle   4 NSaved=   4.
 NSaved= 4 IEnMin= 4 EnMin= -469.949062659850     IErMin= 4 ErrMin= 3.28D-06
 ErrMax= 3.28D-06  0.00D+00 EMaxC= 1.00D-01 BMatC= 1.90D-09 BMatP= 1.10D-08
 IDIUse=1 WtCom= 1.00D+00 WtEn= 0.00D+00
 Coeff-Com: -0.150D-01 0.175D+00 0.428D+00 0.413D+00
 Coeff:     -0.150D-01 0.175D+00 0.428D+00 0.413D+00
 Gap=     0.208 Goal=   None    Shift=    0.000
 RMSDP=2.89D-07 MaxDP=8.78D-06 DE=-7.62D-09 OVMax= 1.85D-05

 Cycle  13  Pass 1  IDiag  1:
 E= -469.949062661577     Delta-E=       -0.000000001727 Rises=F Damp=F
 DIIS: error= 3.59D-07 at cycle   5 NSaved=   5.
 NSaved= 5 IEnMin= 5 EnMin= -469.949062661577     IErMin= 5 ErrMin= 3.59D-07
 ErrMax= 3.59D-07  0.00D+00 EMaxC= 1.00D-01 BMatC= 3.21D-11 BMatP= 1.90D-09
 IDIUse=1 WtCom= 1.00D+00 WtEn= 0.00D+00
 Coeff-Com: -0.731D-02 0.611D-01 0.157D+00 0.190D+00 0.599D+00
 Coeff:     -0.731D-02 0.611D-01 0.157D+00 0.190D+00 0.599D+00
 Gap=     0.208 Goal=   None    Shift=    0.000
 RMSDP=4.17D-08 MaxDP=1.33D-06 DE=-1.73D-09 OVMax= 2.25D-06

 Cycle  14  Pass 1  IDiag  1:
 E= -469.949062661614     Delta-E=       -0.000000000037 Rises=F Damp=F
 DIIS: error= 2.07D-07 at cycle   6 NSaved=   6.
 NSaved= 6 IEnMin= 6 EnMin= -469.949062661614     IErMin= 6 ErrMin= 2.07D-07
 ErrMax= 2.07D-07  0.00D+00 EMaxC= 1.00D-01 BMatC= 6.49D-12 BMatP= 3.21D-11
 IDIUse=1 WtCom= 1.00D+00 WtEn= 0.00D+00
 Coeff-Com: -0.289D-02 0.190D-01 0.516D-01 0.764D-01 0.356D+00 0.500D+00
 Coeff:     -0.289D-02 0.190D-01 0.516D-01 0.764D-01 0.356D+00 0.500D+00
 Gap=     0.208 Goal=   None    Shift=    0.000
 RMSDP=1.91D-08 MaxDP=6.48D-07 DE=-3.66D-11 OVMax= 1.10D-06

 Cycle  15  Pass 1  IDiag  1:
 E= -469.949062661614     Delta-E=       -0.000000000000 Rises=F Damp=F
 DIIS: error= 1.58D-07 at cycle   7 NSaved=   7.
 NSaved= 7 IEnMin= 7 EnMin= -469.949062661614     IErMin= 7 ErrMin= 1.58D-07
 ErrMax= 1.58D-07  0.00D+00 EMaxC= 1.00D-01 BMatC= 1.46D-12 BMatP= 6.49D-12
 IDIUse=1 WtCom= 1.00D+00 WtEn= 0.00D+00
 Coeff-Com: -0.913D-03 0.441D-02 0.133D-01 0.263D-01 0.147D+00 0.336D+00
 Coeff-Com:  0.474D+00
 Coeff:     -0.913D-03 0.441D-02 0.133D-01 0.263D-01 0.147D+00 0.336D+00
 Coeff:      0.474D+00
 Gap=     0.208 Goal=   None    Shift=    0.000
 RMSDP=8.83D-09 MaxDP=3.97D-07 DE=-4.55D-13 OVMax= 7.82D-07

 SCF Done:  E(RB3LYP) =  -469.949062662     A.U. after   15 cycles
            NFock= 15  Conv=0.88D-08     -V/T= 2.0059
 KE= 4.672096421889D+02 PE=-1.991087420770D+03 EE= 6.073030660162D+02
 Leave Link  502 at Sat Aug 21 02:21:11 2021, MaxMem= 24159191040 cpu:        55.7
 (Enter /public/home/users/caep010/software/Gaussian09/g09/l801.exe)
 DoSCS=F DFT=T ScalE2(SS,OS)=  1.000000  1.000000
 Range of M.O.s used for correlation:     1   160
 NBasis=   160 NAE=    33 NBE=    33 NFC=     0 NFV=     0
 NROrb=    160 NOA=    33 NOB=    33 NVA=   127 NVB=   127
 Leave Link  801 at Sat Aug 21 02:21:11 2021, MaxMem= 24159191040 cpu:         1.0
 (Enter /public/home/users/caep010/software/Gaussian09/g09/l1101.exe)
 Using compressed storage, NAtomX=    14.
 Will process     15 centers per pass.
 Leave Link 1101 at Sat Aug 21 02:21:12 2021, MaxMem= 24159191040 cpu:        15.0
 (Enter /public/home/users/caep010/software/Gaussian09/g09/l1102.exe)
 Symmetrizing basis deriv contribution to polar:
 IMax=3 JMax=2 DiffMx= 0.00D+00
 Leave Link 1102 at Sat Aug 21 02:21:12 2021, MaxMem= 24159191040 cpu:         0.9
 (Enter /public/home/users/caep010/software/Gaussian09/g09/l1110.exe)
 Forming Gx(P) for the SCF density, NAtomX=    14.
 Integral derivatives from FoFJK, PRISM(SPDF).
 Do as many integral derivatives as possible in FoFJK.
 G2DrvN: MDV=   24159190824.
 G2DrvN: will do    15 centers at a time, making    1 passes.
 Calling FoFCou, ICntrl=  3107 FMM=F I1Cent=   0 AccDes= 0.00D+00.
 FoFJK:  IHMeth= 1 ICntrl=    3107 DoSepK=F KAlg= 0 I1Cent=   0 FoldK=F
 IRaf=         0 NMat=   1 IRICut=       1 DoRegI=T DoRafI=F ISym2E= 0.
 FoFCou: FMM=F IPFlag=           0 FMFlag=      100000 FMFlg1=           0
         NFxFlg=           0 DoJE=F BraDBF=F KetDBF=F FulRan=T
         wScrn=  0.000000 ICntrl=    3107 IOpCl=  0 I1Cent=           0 NGrid=           0
         NMat0=    1 NMatS0=      1 NMatT0=    0 NMatD0=    1 NMtDS0=    0 NMtDT0=    0
 Symmetry not used in FoFCou.
 End of G2Drv F.D. properties file   721 does not exist.
 End of G2Drv F.D. properties file   722 does not exist.
 End of G2Drv F.D. properties file   788 does not exist.
 Leave Link 1110 at Sat Aug 21 02:21:14 2021, MaxMem= 24159191040 cpu:        76.9
 (Enter /public/home/users/caep010/software/Gaussian09/g09/l1002.exe)
 Minotr:  Closed shell wavefunction.
          IDoAtm=11111111111111
          Direct CPHF calculation.
          Differentiating once with respect to nuclear coordinates.
          Requested convergence is 1.0D-08 RMS, and 1.0D-07 maximum.
          Secondary convergence is 1.0D-12 RMS, and 1.0D-12 maximum.
          NewPWx=T KeepS1=F KeepF1=F KeepIn=T MapXYZ=F SortEE=F KeepMc=T.
          MDV=   24159190736 using IRadAn=       2.
 Generate precomputed XC quadrature information.
 Keep R1 ints in memory in canonical form, NReq=85044798.
 FoFCou: FMM=F IPFlag=           0 FMFlag=           0 FMFlg1=           0
         NFxFlg=           0 DoJE=F BraDBF=F KetDBF=F FulRan=T
         wScrn=  0.000000 ICntrl=     600 IOpCl=  0 I1Cent=           0 NGrid=           0
         NMat0=    1 NMatS0=  12880 NMatT0=    0 NMatD0=    1 NMtDS0=    0 NMtDT0=    0
 Symmetry not used in FoFCou.
          Solving linear equations simultaneously, MaxMat=       0.
          There are    45 degrees of freedom in the 1st order CPHF.  IDoFFX=6 NUNeed=     0.
     39 vectors produced by pass  0 Test12= 9.31D-15 2.22D-09 XBig12= 2.76D-01 1.75D-01.
 AX will form    39 AO Fock derivatives at one time.
     39 vectors produced by pass  1 Test12= 9.31D-15 2.22D-09 XBig12= 2.36D-01 2.27D-01.
     39 vectors produced by pass  2 Test12= 9.31D-15 2.22D-09 XBig12= 3.11D-03 7.71D-03.
     39 vectors produced by pass  3 Test12= 9.31D-15 2.22D-09 XBig12= 1.64D-05 1.12D-03.
     39 vectors produced by pass  4 Test12= 9.31D-15 2.22D-09 XBig12= 5.11D-08 2.23D-05.
     35 vectors produced by pass  5 Test12= 9.31D-15 2.22D-09 XBig12= 5.86D-11 1.16D-06.
     15 vectors produced by pass  6 Test12= 9.31D-15 2.22D-09 XBig12= 4.13D-14 2.49D-08.
 InvSVY:  IOpt=1 It=  1 EMax= 2.22D-15
 Solved reduced A of dimension   245 with    39 vectors.
 End of Minotr F.D. properties file   721 does not exist.
 End of Minotr F.D. properties file   722 does not exist.
 End of Minotr F.D. properties file   788 does not exist.
 Leave Link 1002 at Sat Aug 21 02:21:18 2021, MaxMem= 24159191040 cpu:       113.2
 (Enter /public/home/users/caep010/software/Gaussian09/g09/l601.exe)
 Copying SCF densities to generalized density rwf, IOpCl= 0 IROHF=0.

 **********************************************************************

            Population analysis using the SCF density.

 **********************************************************************

 Orbital symmetries:
       Occupied  (A) (A) (A) (A) (A) (A) (A) (A) (A) (A) (A) (A)
                 (A) (A) (A) (A) (A) (A) (A) (A) (A) (A) (A) (A)
                 (A) (A) (A) (A) (A) (A) (A) (A) (A)
       Virtual   (A) (A) (A) (A) (A) (A) (A) (A) (A) (A) (A) (A)
                 (A) (A) (A) (A) (A) (A) (A) (A) (A) (A) (A) (A)
                 (A) (A) (A) (A) (A) (A) (A) (A) (A) (A) (A) (A)
                 (A) (A) (A) (A) (A) (A) (A) (A) (A) (A) (A) (A)
                 (A) (A) (A) (A) (A) (A) (A) (A) (A) (A) (A) (A)
                 (A) (A) (A) (A) (A) (A) (A) (A) (A) (A) (A) (A)
                 (A) (A) (A) (A) (A) (A) (A) (A) (A) (A) (A) (A)
                 (A) (A) (A) (A) (A) (A) (A) (A) (A) (A) (A) (A)
                 (A) (A) (A) (A) (A) (A) (A) (A) (A) (A) (A) (A)
                 (A) (A) (A) (A) (A) (A) (A) (A) (A) (A) (A) (A)
                 (A) (A) (A) (A) (A) (A) (A)
 The electronic state is 1-A.
 Alpha  occ. eigenvalues --  -19.16712 -19.16693 -14.56486 -14.44703 -14.37727
 Alpha  occ. eigenvalues --  -10.26098 -10.23230 -10.22283 -10.19784  -1.23037
 Alpha  occ. eigenvalues --   -1.09375  -1.04856  -0.89273  -0.82946  -0.78968
 Alpha  occ. eigenvalues --   -0.70975  -0.64195  -0.59980  -0.56369  -0.53705
 Alpha  occ. eigenvalues --   -0.52095  -0.51602  -0.50013  -0.48313  -0.45667
 Alpha  occ. eigenvalues --   -0.45140  -0.43535  -0.32463  -0.30077  -0.29910
 Alpha  occ. eigenvalues --   -0.28643  -0.27814  -0.27767
 Alpha virt. eigenvalues --   -0.06921   0.00354   0.07763   0.09327   0.12129
 Alpha virt. eigenvalues --    0.13977   0.16457   0.17931   0.18100   0.18565
 Alpha virt. eigenvalues --    0.22662   0.26177   0.29178   0.30582   0.36532
 Alpha virt. eigenvalues --    0.38447   0.45242   0.45353   0.46434   0.49439
 Alpha virt. eigenvalues --    0.52260   0.52874   0.56993   0.59017   0.60733
 Alpha virt. eigenvalues --    0.61762   0.65049   0.67736   0.71540   0.72221
 Alpha virt. eigenvalues --    0.74725   0.77620   0.79289   0.81039   0.82283
 Alpha virt. eigenvalues --    0.82535   0.84952   0.86294   0.89515   0.89682
 Alpha virt. eigenvalues --    0.92744   0.96088   0.96349   0.99658   1.00895
 Alpha virt. eigenvalues --    1.01103   1.05121   1.10120   1.10700   1.13490
 Alpha virt. eigenvalues --    1.21120   1.24836   1.26617   1.29803   1.31425
 Alpha virt. eigenvalues --    1.31827   1.36931   1.37641   1.41132   1.43505
 Alpha virt. eigenvalues --    1.44894   1.54887   1.62037   1.67349   1.70074
 Alpha virt. eigenvalues --    1.73490   1.74337   1.80012   1.82426   1.83627
 Alpha virt. eigenvalues --    1.86798   1.90799   1.92330   1.93442   1.95984
 Alpha virt. eigenvalues --    2.01431   2.04235   2.05284   2.07144   2.09528
 Alpha virt. eigenvalues --    2.14621   2.15291   2.16540   2.17773   2.20001
 Alpha virt. eigenvalues --    2.20051   2.23384   2.30306   2.32250   2.38024
 Alpha virt. eigenvalues --    2.39449   2.47780   2.51335   2.53518   2.54608
 Alpha virt. eigenvalues --    2.59141   2.63792   2.68202   2.69646   2.72319
 Alpha virt. eigenvalues --    2.74293   2.81617   2.86105   2.87142   2.91044
 Alpha virt. eigenvalues --    2.92628   2.95450   3.05496   3.07591   3.11455
 Alpha virt. eigenvalues --    3.17697   3.25141   3.43359   3.56491   3.67714
 Alpha virt. eigenvalues --    3.67986   3.70078   3.70463   3.85762   3.92825
 Alpha virt. eigenvalues --    4.01058   4.06026   4.12560   4.25196   4.39271
 Alpha virt. eigenvalues --    4.48860   4.81850
          Condensed to atoms (all electrons):
               1          2          3          4          5          6
     1  C    4.711764   0.317994  -0.058972   0.007342  -0.000095   0.000008
     2  N    0.317994   6.650085   0.238325  -0.105136   0.006026   0.000465
     3  N   -0.058972   0.238325   6.952207   0.395554  -0.056830   0.000568
     4  C    0.007342  -0.105136   0.395554   4.843909   0.148671  -0.079557
     5  N   -0.000095   0.006026  -0.056830   0.148671   5.973989   0.298892
     6  O    0.000008   0.000465   0.000568  -0.079557   0.298892   8.267049
     7  O    0.000002  -0.000073   0.003348  -0.098233   0.326551  -0.102968
     8  C   -0.048302   0.343655  -0.095765  -0.053150   0.002843  -0.000176
     9  C    0.005504  -0.035861  -0.077248   0.479160  -0.065322   0.006093
    10  H   -0.000130   0.005133   0.008485  -0.023644  -0.007267  -0.000015
    11  H   -0.001479  -0.049634   0.007326   0.001524  -0.000141   0.000001
    12  H    0.396828  -0.030407   0.005566  -0.000629   0.000001  -0.000000
    13  H    0.403198  -0.033605   0.001850   0.000416  -0.000004  -0.000000
    14  H    0.403203  -0.033601   0.001851   0.000416  -0.000004  -0.000000
               7          8          9         10         11         12
     1  C    0.000002  -0.048302   0.005504  -0.000130  -0.001479   0.396828
     2  N   -0.000073   0.343655  -0.035861   0.005133  -0.049634  -0.030407
     3  N    0.003348  -0.095765  -0.077248   0.008485   0.007326   0.005566
     4  C   -0.098233  -0.053150   0.479160  -0.023644   0.001524  -0.000629
     5  N    0.326551   0.002843  -0.065322  -0.007267  -0.000141   0.000001
     6  O   -0.102968  -0.000176   0.006093  -0.000015   0.000001  -0.000000
     7  O    8.265546   0.000817   0.006014   0.007527   0.000001  -0.000000
     8  C    0.000817   4.760780   0.543996  -0.046339   0.380406   0.000899
     9  C    0.006014   0.543996   4.952111   0.376280  -0.037159   0.000314
    10  H    0.007527  -0.046339   0.376280   0.580718   0.000129  -0.000013
    11  H    0.000001   0.380406  -0.037159   0.000129   0.607573   0.002169
    12  H   -0.000000   0.000899   0.000314  -0.000013   0.002169   0.559988
    13  H   -0.000000   0.002092  -0.000268   0.000002   0.000027  -0.029938
    14  H   -0.000000   0.002093  -0.000268   0.000002   0.000027  -0.029939
              13         14
     1  C    0.403198   0.403203
     2  N   -0.033605  -0.033601
     3  N    0.001850   0.001851
     4  C    0.000416   0.000416
     5  N   -0.000004  -0.000004
     6  O   -0.000000  -0.000000
     7  O   -0.000000  -0.000000
     8  C    0.002092   0.002093
     9  C   -0.000268  -0.000268
    10  H    0.000002   0.000002
    11  H    0.000027   0.000027
    12  H   -0.029938  -0.029939
    13  H    0.536839  -0.037112
    14  H   -0.037112   0.536828
 Mulliken charges:
               1
     1  C   -0.136865
     2  N   -0.273365
     3  N   -0.326265
     4  C    0.483358
     5  N    0.372689
     6  O   -0.390359
     7  O   -0.408531
     8  C    0.206151
     9  C   -0.153345
    10  H    0.099132
    11  H    0.089230
    12  H    0.125163
    13  H    0.156503
    14  H    0.156504
 Sum of Mulliken charges =  -0.00000
 Mulliken charges with hydrogens summed into heavy atoms:
               1
     1  C    0.301305
     2  N   -0.273365
     3  N   -0.326265
     4  C    0.483358
     5  N    0.372689
     6  O   -0.390359
     7  O   -0.408531
     8  C    0.295382
     9  C   -0.054213
 APT charges:
               1
     1  C   -0.956944
     2  N   -0.238347
     3  N   -0.293195
     4  C    0.106441
     5  N   -0.278357
     6  O   -0.025909
     7  O    0.000836
     8  C   -0.078436
     9  C   -0.552593
    10  H    0.458971
    11  H    0.519025
    12  H    0.514988
    13  H    0.411760
    14  H    0.411759
 Sum of APT charges =  -0.00000
 APT charges with hydrogens summed into heavy atoms:
               1
     1  C    0.381563
     2  N   -0.238347
     3  N   -0.293195
     4  C    0.106441
     5  N   -0.278357
     6  O   -0.025909
     7  O    0.000836
     8  C    0.440589
     9  C   -0.093621
 Electronic spatial extent (au):  <R**2>=           1174.1322
 Charge=              0.0000 electrons
 Dipole moment (field-independent basis, Debye):
    X=             -6.7257    Y=              2.0378    Z=              0.0000  Tot=              7.0277
 Quadrupole moment (field-independent basis, Debye-Ang):
   XX=            -47.5933   YY=            -50.7181   ZZ=            -49.5231
   XY=              1.7927   XZ=             -0.0000   YZ=             -0.0000
 Traceless Quadrupole moment (field-independent basis, Debye-Ang):
   XX=              1.6849   YY=             -1.4399   ZZ=             -0.2450
   XY=              1.7927   XZ=             -0.0000   YZ=             -0.0000
 Octapole moment (field-independent basis, Debye-Ang**2):
  XXX=            -54.7766  YYY=              8.4419  ZZZ=             -0.0000  XYY=             -9.0149
  XXY=             -5.4611  XXZ=             -0.0000  XZZ=              5.6545  YZZ=             -3.9689
  YYZ=             -0.0000  XYZ=              0.0000
 Hexadecapole moment (field-independent basis, Debye-Ang**3):
 XXXX=          -1027.7394 YYYY=           -306.4457 ZZZZ=            -47.9007 XXXY=             10.8103
 XXXZ=              0.0012 YYYX=              5.5491 YYYZ=              0.0004 ZZZX=              0.0007
 ZZZY=              0.0003 XXYY=           -225.1550 XXZZ=           -178.0349 YYZZ=            -62.2720
 XXYZ=              0.0001 YYXZ=              0.0003 ZZXY=              2.2347
 N-N= 4.466256499037D+02 E-N=-1.991087423914D+03  KE= 4.672096421889D+02
  Exact polarizability:   0.000   0.000   0.000   0.000   0.000   0.000
 Approx polarizability: 127.855   7.202 133.033  -0.000  -0.001  44.535
 No NMR shielding tensors so no spin-rotation constants.
 Leave Link  601 at Sat Aug 21 02:21:18 2021, MaxMem= 24159191040 cpu:        11.3
 (Enter /public/home/users/caep010/software/Gaussian09/g09/l701.exe)
 Compute integral second derivatives.
 ... and contract with generalized density number  0.
 Leave Link  701 at Sat Aug 21 02:21:19 2021, MaxMem= 24159191040 cpu:        12.6
 (Enter /public/home/users/caep010/software/Gaussian09/g09/l702.exe)
 L702 exits ... SP integral derivatives will be done elsewhere.
 Leave Link  702 at Sat Aug 21 02:21:19 2021, MaxMem= 24159191040 cpu:         0.6
 (Enter /public/home/users/caep010/software/Gaussian09/g09/l703.exe)
 Compute integral second derivatives, UseDBF=F ICtDFT=           0.
 Integral derivatives from FoFJK, PRISM(SPDF).
 Calling FoFJK, ICntrl=    100147 FMM=F ISym2X=0 I1Cent= 0 IOpClX= 0 NMat=1 NMatS=1 NMatT=0.
 FoFJK:  IHMeth= 1 ICntrl=  100147 DoSepK=F KAlg= 0 I1Cent=   0 FoldK=F
 IRaf=         0 NMat=   1 IRICut=       1 DoRegI=T DoRafI=F ISym2E= 0.
 FoFCou: FMM=F IPFlag=           0 FMFlag=      100000 FMFlg1=         800
         NFxFlg=           0 DoJE=F BraDBF=F KetDBF=F FulRan=T
         wScrn=  0.000000 ICntrl=  100147 IOpCl=  0 I1Cent=           0 NGrid=           0
         NMat0=    1 NMatS0=      1 NMatT0=    0 NMatD0=    1 NMtDS0=    0 NMtDT0=    0
 Symmetry not used in FoFCou.
 Leave Link  703 at Sat Aug 21 02:21:22 2021, MaxMem= 24159191040 cpu:       107.6
 (Enter /public/home/users/caep010/software/Gaussian09/g09/l716.exe)
 Dipole        =-2.64610144D+00 8.01750284D-01 2.55669182D-06
 Polarizability= 0.00000000D+00 0.00000000D+00 0.00000000D+00
                 0.00000000D+00 0.00000000D+00 0.00000000D+00
 ***** Axes restored to original set *****
 -------------------------------------------------------------------
 Center     Atomic                   Forces (Hartrees/Bohr)
 Number     Number              X              Y              Z
 -------------------------------------------------------------------
      1        6           0.011138331    0.097804540   -0.000082823
      2        7          -0.014702648   -0.003218330    0.000001644
      3        7          -0.007693319   -0.011839737    0.000000068
      4        6          -0.017135742    0.008062057    0.000000029
      5        7           0.000982655   -0.003932302   -0.000000014
      6        8          -0.024616940   -0.012968794    0.000000002
      7        8           0.022206917    0.022217710    0.000000001
      8        6          -0.131981182    0.064920692   -0.000000002
      9        6          -0.051415193   -0.058978612   -0.000000056
     10        1           0.064365194    0.084032822   -0.000000020
     11        1           0.158932788   -0.080482801    0.000000040
     12        1           0.100392444   -0.046993954    0.000000830
     13        1          -0.055208465   -0.029296766   -0.091921479
     14        1          -0.055264841   -0.029326524    0.092001778
 -------------------------------------------------------------------
 Cartesian Forces:  Max     0.158932788 RMS     0.053445660
 FormGI is forming the generalized inverse of G from B-inverse, IUseBI=4.
 Leave Link  716 at Sat Aug 21 02:21:22 2021, MaxMem= 24159191040 cpu:         0.8
 (Enter /public/home/users/caep010/software/Gaussian09/g09/l103.exe)

 GradGradGradGradGradGradGradGradGradGradGradGradGradGradGradGradGradGrad
 Berny optimization.
 Red2BG is reusing G-inverse.
 Internal  Forces:  Max     0.178127640 RMS     0.036761159
 Search for a local minimum.
 Step number   1 out of a maximum of   72
 All quantities printed in internal units (Hartrees-Bohrs-Radians)
 RMS Force = .36761D-01 SwitMx=.10000D-02 MixMth= 1
 Mixed Optimization -- RFO/linear search
 Second derivative matrix not updated -- analytic derivatives used.
 ITU=  0
     Eigenvalues ---    0.00013   0.00395   0.00936   0.01307   0.01678
     Eigenvalues ---    0.02173   0.05381   0.05644   0.06682   0.06746
     Eigenvalues ---    0.09689   0.11445   0.11621   0.14038   0.15282
     Eigenvalues ---    0.18513   0.19212   0.20671   0.22488   0.25433
     Eigenvalues ---    0.28105   0.29404   0.36964   0.39577   0.40871
     Eigenvalues ---    0.45288   0.48440   0.53011   0.62325   0.67354
     Eigenvalues ---    0.67602   0.67823   0.69667   0.69964   0.89159
     Eigenvalues ---    0.89911
 RFO step:  Lambda=-9.87818620D-02 EMin= 1.27165822D-04
 Linear search not attempted -- first point.
 Maximum step size (   0.300) exceeded in Quadratic search.
    -- Step size scaled by   0.869
 Iteration  1 RMS(Cart)=  0.04196173 RMS(Int)=  0.00023375
 Iteration  2 RMS(Cart)=  0.00032630 RMS(Int)=  0.00001152
 Iteration  3 RMS(Cart)=  0.00000010 RMS(Int)=  0.00001152
 ITry= 1 IFail=0 DXMaxC= 1.46D-01 DCOld= 1.00D+10 DXMaxT= 3.00D-01 DXLimC= 3.00D+00 Rises=F
 Variable       Old X    -DE/DX   Delta X   Delta X   Delta X     New X
                                 (Linear)    (Quad)   (Total)
    R1        2.73914   0.00764   0.00000   0.01129   0.01129   2.75043
    R2        1.83888   0.11084   0.00000   0.12411   0.12411   1.96299
    R3        1.84003   0.11110   0.00000   0.12466   0.12466   1.96468
    R4        1.83987   0.11120   0.00000   0.12472   0.12472   1.96460
    R5        2.52338   0.00629   0.00000   0.00427   0.00425   2.52763
    R6        2.53986   0.02029   0.00000   0.02827   0.02828   2.56814
    R7        2.49175   0.01482   0.00000   0.01679   0.01677   2.50853
    R8        2.73023   0.00508   0.00000   0.00552   0.00552   2.73576
    R9        2.61493   0.02088   0.00000   0.02980   0.02981   2.64473
   R10        2.28914   0.02621   0.00000   0.02111   0.02111   2.31024
   R11        2.29798   0.02958   0.00000   0.02531   0.02531   2.32328
   R12        2.56661   0.02450   0.00000   0.02946   0.02949   2.59609
   R13        1.74593   0.17813   0.00000   0.15501   0.15501   1.90094
   R14        1.83451   0.10585   0.00000   0.11569   0.11569   1.95020
    A1        1.88235   0.00220   0.00000   0.00755   0.00756   1.88991
    A2        1.92463  -0.00352   0.00000  -0.00710  -0.00710   1.91752
    A3        1.92466  -0.00353   0.00000  -0.00712  -0.00712   1.91754
    A4        1.92175   0.00040   0.00000  -0.00169  -0.00168   1.92007
    A5        1.92178   0.00040   0.00000  -0.00169  -0.00168   1.92009
    A6        1.88896   0.00397   0.00000   0.00984   0.00983   1.89878
    A7        2.08935  -0.00164   0.00000  -0.00463  -0.00463   2.08473
    A8        2.23417  -0.00154   0.00000  -0.00256  -0.00256   2.23162
    A9        1.95966   0.00319   0.00000   0.00719   0.00718   1.96684
   A10        1.80163   0.00346   0.00000   0.00402   0.00398   1.80560
   A11        2.08016   0.00495   0.00000   0.01307   0.01307   2.09323
   A12        1.98533  -0.00118   0.00000  -0.00220  -0.00220   1.98313
   A13        2.21770  -0.00377   0.00000  -0.01087  -0.01087   2.20683
   A14        2.08463  -0.00616   0.00000  -0.00948  -0.00948   2.07515
   A15        2.04342  -0.00907   0.00000  -0.01510  -0.01510   2.02832
   A16        2.15513   0.01523   0.00000   0.02458   0.02458   2.17971
   A17        1.87930  -0.00403   0.00000  -0.00839  -0.00836   1.87094
   A18        2.14265  -0.00043   0.00000  -0.00762  -0.00763   2.13502
   A19        2.26123   0.00446   0.00000   0.01601   0.01599   2.27722
   A20        1.79886  -0.00144   0.00000  -0.00063  -0.00060   1.79827
   A21        2.24064   0.00005   0.00000  -0.00365  -0.00367   2.23697
   A22        2.24368   0.00139   0.00000   0.00428   0.00426   2.24795
    D1        3.14159   0.00000   0.00000   0.00001   0.00001  -3.14159
    D2        0.00000   0.00000   0.00000   0.00001   0.00001   0.00001
    D3        1.04259   0.00023   0.00000   0.00160   0.00161   1.04420
    D4       -2.09900   0.00023   0.00000   0.00160   0.00161  -2.09739
    D5       -1.04254  -0.00023   0.00000  -0.00160  -0.00161  -1.04415
    D6        2.09905  -0.00023   0.00000  -0.00160  -0.00161   2.09744
    D7        3.14159   0.00000   0.00000   0.00000   0.00000  -3.14159
    D8        0.00000   0.00000   0.00000   0.00000   0.00000   0.00000
    D9        3.14159  -0.00000   0.00000  -0.00000  -0.00000   3.14159
   D10        0.00000  -0.00000   0.00000  -0.00000  -0.00000  -0.00000
   D11        0.00000  -0.00000   0.00000  -0.00000  -0.00000  -0.00000
   D12        3.14159  -0.00000   0.00000  -0.00000  -0.00000   3.14159
   D13        3.14159  -0.00000   0.00000  -0.00000  -0.00000   3.14159
   D14        0.00000  -0.00000   0.00000  -0.00000  -0.00000   0.00000
   D15        0.00000   0.00000   0.00000   0.00000   0.00000   0.00000
   D16        3.14159   0.00000   0.00000   0.00000   0.00000  -3.14159
   D17        3.14159  -0.00000   0.00000   0.00000   0.00000   3.14159
   D18        0.00000  -0.00000   0.00000   0.00000   0.00000   0.00000
   D19        0.00000  -0.00000   0.00000  -0.00000  -0.00000  -0.00000
   D20        3.14159  -0.00000   0.00000   0.00000   0.00000   3.14159
   D21        3.14159  -0.00000   0.00000  -0.00000  -0.00000   3.14159
   D22        0.00000   0.00000   0.00000   0.00000   0.00000   0.00000
   D23        0.00000   0.00000   0.00000   0.00000   0.00000   0.00000
   D24        3.14159   0.00000   0.00000   0.00000   0.00000  -3.14159
   D25        3.14159   0.00000   0.00000   0.00000   0.00000  -3.14159
   D26        0.00000  -0.00000   0.00000  -0.00000  -0.00000  -0.00000
         Item               Value     Threshold  Converged?
 Maximum Force            0.178128     0.000450     NO 
 RMS     Force            0.036761     0.000300     NO 
 Maximum Displacement     0.146306     0.001800     NO 
 RMS     Displacement     0.041963     0.001200     NO 
 Predicted change in Energy=-5.299523D-02
 Lowest energy point so far.  Saving SCF results.
 GradGradGradGradGradGradGradGradGradGradGradGradGradGradGradGradGradGrad

 Leave Link  103 at Sat Aug 21 02:21:23 2021, MaxMem= 24159191040 cpu:         2.9
 (Enter /public/home/users/caep010/software/Gaussian09/g09/l202.exe)
                          Input orientation:                          
 ---------------------------------------------------------------------
 Center     Atomic      Atomic             Coordinates (Angstroms)
 Number     Number       Type             X           Y           Z
 ---------------------------------------------------------------------
      1          6           0        1.241902    0.981085    1.589093
      2          7           0        1.411745    2.426607    1.589096
      3          7           0        0.331659    3.215590    1.589096
      4          6           0        0.843803    4.440273    1.589099
      5          7           0       -0.034950    5.590763    1.589101
      6          8           0       -1.244127    5.410580    1.589099
      7          8           0        0.511941    6.691855    1.589103
      8          6           0        2.574664    3.129815    1.589098
      9          6           0        2.243152    4.463010    1.589100
     10          1           0        2.867646    5.284612    1.589102
     11          1           0        3.474822    2.680792    1.589098
     12          1           0        2.183463    0.542328    1.589098
     13          1           0        0.712599    0.687546    0.743765
     14          1           0        0.712580    0.687544    2.434351
 ---------------------------------------------------------------------
                    Distance matrix (angstroms):
                    1          2          3          4          5
     1  C    0.000000
     2  N    1.455466   0.000000
     3  N    2.412790   1.337565   0.000000
     4  C    3.482020   2.092225   1.327456   0.000000
     5  N    4.783250   3.479196   2.403299   1.447700   0.000000
     6  O    5.079446   3.994716   2.702052   2.302379   1.222528
     7  O    5.757233   4.359127   3.480936   2.275908   1.229428
     8  C    2.528497   1.359000   2.244645   2.170986   3.586970
     9  C    3.623024   2.199585   2.282512   1.399533   2.541962
    10  H    4.600369   3.207466   3.272932   2.192909   2.918697
    11  H    2.806231   2.078676   3.188335   3.165127   4.559213
    12  H    1.038771   2.036186   3.252001   4.121730   5.514349
    13  H    1.039666   2.056143   2.692714   3.848995   5.031397
    14  H    1.039620   2.056120   2.692689   3.848979   5.031381
                    6          7          8          9         10
     6  O    0.000000
     7  O    2.173807   0.000000
     8  C    4.448040   4.116183   0.000000
     9  C    3.613724   2.822205   1.373794   0.000000
    10  H    4.113702   2.744026   2.174624   1.032000   0.000000
    11  H    5.451626   4.986712   1.005935   2.166406   2.673676
    12  H    5.953843   6.372650   2.616892   3.921136   4.791384
    13  H    5.181739   6.066843   3.185365   4.160686   5.147022
    14  H    5.181720   6.066832   3.185357   4.160678   5.147018
                   11         12         13         14
    11  H    0.000000
    12  H    2.498126   0.000000
    13  H    3.509628   1.702679   0.000000
    14  H    3.509625   1.702656   1.690586   0.000000
 Stoichiometry    C4H5N3O2
 Framework group  C1[X(C4H5N3O2)]
 Deg. of freedom    36
 Full point group                 C1      NOp   1
 RotChk:  IX=0 Diff= 4.33D-04
 Largest Abelian subgroup         C1      NOp   1
 Largest concise Abelian subgroup C1      NOp   1
                         Standard orientation:                         
 ---------------------------------------------------------------------
 Center     Atomic      Atomic             Coordinates (Angstroms)
 Number     Number       Type             X           Y           Z
 ---------------------------------------------------------------------
      1          6           0       -2.925660   -0.799319    0.000005
      2          7           0       -1.652806   -0.093470    0.000002
      3          7           0       -0.512878   -0.793217    0.000001
      4          6           0        0.425730    0.145482   -0.000002
      5          7           0        1.823680   -0.230774   -0.000003
      6          8           0        2.115986   -1.417843   -0.000002
      7          8           0        2.634759    0.693156   -0.000006
      8          6           0       -1.443674    1.249342   -0.000001
      9          6           0       -0.084425    1.448722   -0.000003
     10          1           0        0.438624    2.338352   -0.000005
     11          1           0       -2.200787    1.911676   -0.000001
     12          1           0       -3.688992   -0.094784   -0.000000
     13          1           0       -2.996306   -1.400431    0.845332
     14          1           0       -2.996300   -1.400450   -0.845254
 ---------------------------------------------------------------------
 Rotational constants (GHZ):      4.3624846      1.1523840      0.9163434
 Leave Link  202 at Sat Aug 21 02:21:23 2021, MaxMem= 24159191040 cpu:         0.3
 (Enter /public/home/users/caep010/software/Gaussian09/g09/l301.exe)
 Standard basis: 6-31G(d,p) (6D, 7F)
 Ernie: Thresh=  0.10000D-02 Tol=  0.10000D-05 Strict=F.
 There are   160 symmetry adapted cartesian basis functions of A   symmetry.
 There are   160 symmetry adapted basis functions of A   symmetry.
   160 basis functions,   287 primitive gaussians,   160 cartesian basis functions
    33 alpha electrons       33 beta electrons
       nuclear repulsion energy       442.0567067683 Hartrees.
 IExCor=  402 DFT=T Ex+Corr=B3LYP ExCW=0 ScaHFX=  0.200000
 ScaDFX=  0.800000  0.720000  1.000000  0.810000 ScalE2=  1.000000  1.000000
 IRadAn=      0 IRanWt=     -1 IRanGd=            0 ICorTp=0 IEmpDi=  4
 NAtoms=   14 NActive=   14 NUniq=   14 SFac= 1.00D+00 NAtFMM=   60 NAOKFM=F Big=F
 Integral buffers will be    131072 words long.
 Raffenetti 2 integral format.
 Two-electron integral symmetry is turned on.
 Leave Link  301 at Sat Aug 21 02:21:23 2021, MaxMem= 24159191040 cpu:         1.7
 (Enter /public/home/users/caep010/software/Gaussian09/g09/l302.exe)
 NPDir=0 NMtPBC=     1 NCelOv=     1 NCel=       1 NClECP=     1 NCelD=      1
         NCelK=      1 NCelE2=     1 NClLst=     1 CellRange=     0.0.
 One-electron integrals computed using PRISM.
 NBasis=   160 RedAO= T EigKep=  8.81D-04  NBF=   160
 NBsUse=   160 1.00D-06 EigRej= -1.00D+00 NBFU=   160
 Precomputing XC quadrature grid using
 IXCGrd= 4 IRadAn=           0 IRanWt=          -1 IRanGd=           0 AccXCQ= 0.00D+00.
 Generated NRdTot=       0 NPtTot=           0 NUsed=           0 NTot=          32
 NSgBfM=   160   160   160   160   160 MxSgAt=    14 MxSgA2=    14.
 Leave Link  302 at Sat Aug 21 02:21:23 2021, MaxMem= 24159191040 cpu:        11.8
 (Enter /public/home/users/caep010/software/Gaussian09/g09/l303.exe)
 DipDrv:  MaxL=1.
 Leave Link  303 at Sat Aug 21 02:21:23 2021, MaxMem= 24159191040 cpu:         0.7
 (Enter /public/home/users/caep010/software/Gaussian09/g09/l401.exe)
 Initial guess from the checkpoint file:  "/public/home/users/caep010/.cache/gau_scr/Gau-55500.chk"
 B after Tr=    -0.000000   -0.000000    0.000000
         Rot=    1.000000    0.000000   -0.000000    0.000319 Ang=   0.04 deg.
 Guess basis will be translated and rotated to current coordinates.
 JPrj=2 DoOrth=T DoCkMO=T.
 Generating alternative initial guess.
 ExpMin= 1.61D-01 ExpMax= 5.48D+03 ExpMxC= 8.25D+02 IAcc=1 IRadAn=         1 AccDes= 0.00D+00
 Harris functional with IExCor=  402 and IRadAn=       1 diagonalized for initial guess.
 HarFok:  IExCor=  402 AccDes= 0.00D+00 IRadAn=         1 IDoV= 1 UseB2=F ITyADJ=14
 ICtDFT=  3500011 ScaDFX=  1.000000  1.000000  1.000000  1.000000
 FoFCou: FMM=F IPFlag=           0 FMFlag=      100000 FMFlg1=           0
         NFxFlg=           0 DoJE=T BraDBF=F KetDBF=T FulRan=T
         wScrn=  0.000000 ICntrl=     500 IOpCl=  0 I1Cent=   200000004 NGrid=           0
         NMat0=    1 NMatS0=      1 NMatT0=    0 NMatD0=    1 NMtDS0=    0 NMtDT0=    0
 Petite list used in FoFCou.
 Harris En= -470.027777108482    
 Leave Link  401 at Sat Aug 21 02:21:24 2021, MaxMem= 24159191040 cpu:        12.5
 (Enter /public/home/users/caep010/software/Gaussian09/g09/l502.exe)
 Closed shell SCF:
 Using DIIS extrapolation, IDIIS=  1040.
 Integral symmetry usage will be decided dynamically.
 Keep R1 ints in memory in canonical form, NReq=85141869.
 IVT=      101669 IEndB=      101669 NGot= 24159191040 MDV= 24076135732
 LenX= 24076135732 LenY= 24076109691
 Requested convergence on RMS density matrix=1.00D-08 within 128 cycles.
 Requested convergence on MAX density matrix=1.00D-06.
 Requested convergence on             energy=1.00D-06.
 No special actions if energy rises.
 FoFCou: FMM=F IPFlag=           0 FMFlag=           0 FMFlg1=           0
         NFxFlg=           0 DoJE=F BraDBF=F KetDBF=F FulRan=T
         wScrn=  0.000000 ICntrl=     600 IOpCl=  0 I1Cent=           0 NGrid=           0
         NMat0=    1 NMatS0=  12880 NMatT0=    0 NMatD0=    1 NMtDS0=    0 NMtDT0=    0
 Symmetry not used in FoFCou.
 Integral accuracy reduced to 1.0D-05 until final iterations.

 Cycle   1  Pass 0  IDiag  1:
 E= -470.001158041522    
 DIIS: error= 4.08D-03 at cycle   1 NSaved=   1.
 NSaved= 1 IEnMin= 1 EnMin= -470.001158041522     IErMin= 1 ErrMin= 4.08D-03
 ErrMax= 4.08D-03  0.00D+00 EMaxC= 1.00D-01 BMatC= 3.80D-03 BMatP= 3.80D-03
 IDIUse=3 WtCom= 9.59D-01 WtEn= 4.08D-02
 Coeff-Com:  0.100D+01
 Coeff-En:   0.100D+01
 Coeff:      0.100D+01
 Gap=     1.780 Goal=   None    Shift=    0.000
 GapD=    1.780 DampG=2.000 DampE=1.000 DampFc=2.0000 IDamp=-1.
 RMSDP=6.88D-04 MaxDP=1.92D-02              OVMax= 1.74D-02

 Cycle   2  Pass 0  IDiag  1:
 E= -470.004532233448     Delta-E=       -0.003374191926 Rises=F Damp=F
 DIIS: error= 3.73D-03 at cycle   2 NSaved=   2.
 NSaved= 2 IEnMin= 2 EnMin= -470.004532233448     IErMin= 2 ErrMin= 3.73D-03
 ErrMax= 3.73D-03  0.00D+00 EMaxC= 1.00D-01 BMatC= 1.22D-03 BMatP= 3.80D-03
 IDIUse=3 WtCom= 9.63D-01 WtEn= 3.73D-02
 Coeff-Com:  0.319D+00 0.681D+00
 Coeff-En:   0.000D+00 0.100D+01
 Coeff:      0.308D+00 0.692D+00
 Gap=     0.206 Goal=   None    Shift=    0.000
 RMSDP=3.27D-04 MaxDP=9.92D-03 DE=-3.37D-03 OVMax= 1.75D-02

 Cycle   3  Pass 0  IDiag  1:
 E= -470.005225176865     Delta-E=       -0.000692943417 Rises=F Damp=F
 DIIS: error= 1.67D-03 at cycle   3 NSaved=   3.
 NSaved= 3 IEnMin= 3 EnMin= -470.005225176865     IErMin= 3 ErrMin= 1.67D-03
 ErrMax= 1.67D-03  0.00D+00 EMaxC= 1.00D-01 BMatC= 5.65D-04 BMatP= 1.22D-03
 IDIUse=3 WtCom= 9.83D-01 WtEn= 1.67D-02
 Coeff-Com:  0.606D-01 0.402D+00 0.538D+00
 Coeff-En:   0.000D+00 0.309D+00 0.691D+00
 Coeff:      0.596D-01 0.400D+00 0.540D+00
 Gap=     0.203 Goal=   None    Shift=    0.000
 RMSDP=1.93D-04 MaxDP=7.03D-03 DE=-6.93D-04 OVMax= 1.18D-02

 Cycle   4  Pass 0  IDiag  1:
 E= -470.005655637842     Delta-E=       -0.000430460977 Rises=F Damp=F
 DIIS: error= 9.23D-04 at cycle   4 NSaved=   4.
 NSaved= 4 IEnMin= 4 EnMin= -470.005655637842     IErMin= 4 ErrMin= 9.23D-04
 ErrMax= 9.23D-04  0.00D+00 EMaxC= 1.00D-01 BMatC= 1.24D-04 BMatP= 5.65D-04
 IDIUse=3 WtCom= 9.91D-01 WtEn= 9.23D-03
 Coeff-Com:  0.114D-01 0.206D+00 0.367D+00 0.416D+00
 Coeff-En:   0.000D+00 0.000D+00 0.158D+00 0.842D+00
 Coeff:      0.113D-01 0.204D+00 0.365D+00 0.420D+00
 Gap=     0.203 Goal=   None    Shift=    0.000
 RMSDP=7.48D-05 MaxDP=2.79D-03 DE=-4.30D-04 OVMax= 4.23D-03

 Cycle   5  Pass 0  IDiag  1:
 E= -470.005758072342     Delta-E=       -0.000102434500 Rises=F Damp=F
 DIIS: error= 4.89D-04 at cycle   5 NSaved=   5.
 NSaved= 5 IEnMin= 5 EnMin= -470.005758072342     IErMin= 5 ErrMin= 4.89D-04
 ErrMax= 4.89D-04  0.00D+00 EMaxC= 1.00D-01 BMatC= 1.28D-05 BMatP= 1.24D-04
 IDIUse=3 WtCom= 9.95D-01 WtEn= 4.89D-03
 Coeff-Com:  0.180D-02 0.991D-01 0.192D+00 0.282D+00 0.426D+00
 Coeff-En:   0.000D+00 0.000D+00 0.000D+00 0.401D-01 0.960D+00
 Coeff:      0.179D-02 0.987D-01 0.191D+00 0.280D+00 0.429D+00
 Gap=     0.203 Goal=   None    Shift=    0.000
 RMSDP=2.55D-05 MaxDP=1.22D-03 DE=-1.02D-04 OVMax= 2.45D-03

 Cycle   6  Pass 0  IDiag  1:
 E= -470.005765207219     Delta-E=       -0.000007134877 Rises=F Damp=F
 DIIS: error= 2.64D-04 at cycle   6 NSaved=   6.
 NSaved= 6 IEnMin= 6 EnMin= -470.005765207219     IErMin= 6 ErrMin= 2.64D-04
 ErrMax= 2.64D-04  0.00D+00 EMaxC= 1.00D-01 BMatC= 3.94D-06 BMatP= 1.28D-05
 IDIUse=3 WtCom= 9.97D-01 WtEn= 2.64D-03
 Coeff-Com: -0.174D-02 0.257D-01 0.578D-01 0.118D+00 0.354D+00 0.446D+00
 Coeff-En:   0.000D+00 0.000D+00 0.000D+00 0.000D+00 0.286D+00 0.714D+00
 Coeff:     -0.174D-02 0.257D-01 0.576D-01 0.118D+00 0.354D+00 0.446D+00
 Gap=     0.203 Goal=   None    Shift=    0.000
 RMSDP=1.07D-05 MaxDP=4.75D-04 DE=-7.13D-06 OVMax= 9.14D-04

 Cycle   7  Pass 0  IDiag  1:
 E= -470.005768329215     Delta-E=       -0.000003121996 Rises=F Damp=F
 DIIS: error= 2.04D-05 at cycle   7 NSaved=   7.
 NSaved= 7 IEnMin= 7 EnMin= -470.005768329215     IErMin= 7 ErrMin= 2.04D-05
 ErrMax= 2.04D-05  0.00D+00 EMaxC= 1.00D-01 BMatC= 9.82D-08 BMatP= 3.94D-06
 IDIUse=1 WtCom= 1.00D+00 WtEn= 0.00D+00
 Coeff-Com: -0.109D-02 0.576D-02 0.155D-01 0.395D-01 0.151D+00 0.232D+00
 Coeff-Com:  0.557D+00
 Coeff:     -0.109D-02 0.576D-02 0.155D-01 0.395D-01 0.151D+00 0.232D+00
 Coeff:      0.557D+00
 Gap=     0.203 Goal=   None    Shift=    0.000
 RMSDP=2.03D-06 MaxDP=7.84D-05 DE=-3.12D-06 OVMax= 1.31D-04

 Initial convergence to 1.0D-05 achieved.  Increase integral accuracy.
 Cycle   8  Pass 1  IDiag  1:
 E= -470.005752549082     Delta-E=        0.000015780133 Rises=F Damp=F
 DIIS: error= 1.60D-05 at cycle   1 NSaved=   1.
 NSaved= 1 IEnMin= 1 EnMin= -470.005752549082     IErMin= 1 ErrMin= 1.60D-05
 ErrMax= 1.60D-05  0.00D+00 EMaxC= 1.00D-01 BMatC= 5.27D-08 BMatP= 5.27D-08
 IDIUse=1 WtCom= 1.00D+00 WtEn= 0.00D+00
 Coeff-Com:  0.100D+01
 Coeff:      0.100D+01
 Gap=     0.203 Goal=   None    Shift=    0.000
 RMSDP=2.03D-06 MaxDP=7.84D-05 DE= 1.58D-05 OVMax= 9.06D-05

 Cycle   9  Pass 1  IDiag  1:
 E= -470.005752593654     Delta-E=       -0.000000044572 Rises=F Damp=F
 DIIS: error= 8.27D-06 at cycle   2 NSaved=   2.
 NSaved= 2 IEnMin= 2 EnMin= -470.005752593654     IErMin= 2 ErrMin= 8.27D-06
 ErrMax= 8.27D-06  0.00D+00 EMaxC= 1.00D-01 BMatC= 1.55D-08 BMatP= 5.27D-08
 IDIUse=1 WtCom= 1.00D+00 WtEn= 0.00D+00
 Coeff-Com:  0.279D+00 0.721D+00
 Coeff:      0.279D+00 0.721D+00
 Gap=     0.203 Goal=   None    Shift=    0.000
 RMSDP=1.23D-06 MaxDP=4.32D-05 DE=-4.46D-08 OVMax= 7.20D-05

 Cycle  10  Pass 1  IDiag  1:
 E= -470.005752595953     Delta-E=       -0.000000002299 Rises=F Damp=F
 DIIS: error= 7.20D-06 at cycle   3 NSaved=   3.
 NSaved= 3 IEnMin= 3 EnMin= -470.005752595953     IErMin= 3 ErrMin= 7.20D-06
 ErrMax= 7.20D-06  0.00D+00 EMaxC= 1.00D-01 BMatC= 1.30D-08 BMatP= 1.55D-08
 IDIUse=1 WtCom= 1.00D+00 WtEn= 0.00D+00
 Coeff-Com: -0.939D-02 0.480D+00 0.530D+00
 Coeff:     -0.939D-02 0.480D+00 0.530D+00
 Gap=     0.203 Goal=   None    Shift=    0.000
 RMSDP=6.74D-07 MaxDP=1.99D-05 DE=-2.30D-09 OVMax= 4.12D-05

 Cycle  11  Pass 1  IDiag  1:
 E= -470.005752606769     Delta-E=       -0.000000010816 Rises=F Damp=F
 DIIS: error= 2.16D-06 at cycle   4 NSaved=   4.
 NSaved= 4 IEnMin= 4 EnMin= -470.005752606769     IErMin= 4 ErrMin= 2.16D-06
 ErrMax= 2.16D-06  0.00D+00 EMaxC= 1.00D-01 BMatC= 7.95D-10 BMatP= 1.30D-08
 IDIUse=1 WtCom= 1.00D+00 WtEn= 0.00D+00
 Coeff-Com: -0.162D-01 0.284D+00 0.339D+00 0.393D+00
 Coeff:     -0.162D-01 0.284D+00 0.339D+00 0.393D+00
 Gap=     0.203 Goal=   None    Shift=    0.000
 RMSDP=1.71D-07 MaxDP=6.08D-06 DE=-1.08D-08 OVMax= 1.17D-05

 Cycle  12  Pass 1  IDiag  1:
 E= -470.005752607369     Delta-E=       -0.000000000600 Rises=F Damp=F
 DIIS: error= 1.27D-06 at cycle   5 NSaved=   5.
 NSaved= 5 IEnMin= 5 EnMin= -470.005752607369     IErMin= 5 ErrMin= 1.27D-06
 ErrMax= 1.27D-06  0.00D+00 EMaxC= 1.00D-01 BMatC= 7.99D-11 BMatP= 7.95D-10
 IDIUse=1 WtCom= 1.00D+00 WtEn= 0.00D+00
 Coeff-Com: -0.931D-02 0.141D+00 0.172D+00 0.270D+00 0.426D+00
 Coeff:     -0.931D-02 0.141D+00 0.172D+00 0.270D+00 0.426D+00
 Gap=     0.203 Goal=   None    Shift=    0.000
 RMSDP=6.33D-08 MaxDP=3.01D-06 DE=-6.00D-10 OVMax= 5.90D-06

 Cycle  13  Pass 1  IDiag  1:
 E= -470.005752607419     Delta-E=       -0.000000000050 Rises=F Damp=F
 DIIS: error= 5.41D-07 at cycle   6 NSaved=   6.
 NSaved= 6 IEnMin= 6 EnMin= -470.005752607419     IErMin= 6 ErrMin= 5.41D-07
 ErrMax= 5.41D-07  0.00D+00 EMaxC= 1.00D-01 BMatC= 2.07D-11 BMatP= 7.99D-11
 IDIUse=1 WtCom= 1.00D+00 WtEn= 0.00D+00
 Coeff-Com: -0.350D-02 0.460D-01 0.574D-01 0.123D+00 0.335D+00 0.442D+00
 Coeff:     -0.350D-02 0.460D-01 0.574D-01 0.123D+00 0.335D+00 0.442D+00
 Gap=     0.203 Goal=   None    Shift=    0.000
 RMSDP=2.45D-08 MaxDP=9.13D-07 DE=-4.97D-11 OVMax= 1.88D-06

 Cycle  14  Pass 1  IDiag  1:
 E= -470.005752607447     Delta-E=       -0.000000000029 Rises=F Damp=F
 DIIS: error= 6.51D-08 at cycle   7 NSaved=   7.
 NSaved= 7 IEnMin= 7 EnMin= -470.005752607447     IErMin= 7 ErrMin= 6.51D-08
 ErrMax= 6.51D-08  0.00D+00 EMaxC= 1.00D-01 BMatC= 1.00D-12 BMatP= 2.07D-11
 IDIUse=1 WtCom= 1.00D+00 WtEn= 0.00D+00
 Coeff-Com: -0.111D-02 0.110D-01 0.142D-01 0.430D-01 0.149D+00 0.250D+00
 Coeff-Com:  0.534D+00
 Coeff:     -0.111D-02 0.110D-01 0.142D-01 0.430D-01 0.149D+00 0.250D+00
 Coeff:      0.534D+00
 Gap=     0.203 Goal=   None    Shift=    0.000
 RMSDP=5.78D-09 MaxDP=2.08D-07 DE=-2.86D-11 OVMax= 2.60D-07

 SCF Done:  E(RB3LYP) =  -470.005752607     A.U. after   14 cycles
            NFock= 14  Conv=0.58D-08     -V/T= 2.0078
 KE= 4.663459481160D+02 PE=-1.981469502204D+03 EE= 6.030610947124D+02
 Leave Link  502 at Sat Aug 21 02:21:27 2021, MaxMem= 24159191040 cpu:        57.9
 (Enter /public/home/users/caep010/software/Gaussian09/g09/l701.exe)
 Compute integral first derivatives.
 ... and contract with generalized density number  0.
 Leave Link  701 at Sat Aug 21 02:21:28 2021, MaxMem= 24159191040 cpu:        11.0
 (Enter /public/home/users/caep010/software/Gaussian09/g09/l702.exe)
 L702 exits ... SP integral derivatives will be done elsewhere.
 Leave Link  702 at Sat Aug 21 02:21:28 2021, MaxMem= 24159191040 cpu:         0.5
 (Enter /public/home/users/caep010/software/Gaussian09/g09/l703.exe)
 Compute integral first derivatives, UseDBF=F ICtDFT=           0.
 Integral derivatives from FoFJK, PRISM(SPDF).
 Calling FoFJK, ICntrl=      2127 FMM=F ISym2X=0 I1Cent= 0 IOpClX= 0 NMat=1 NMatS=1 NMatT=0.
 FoFJK:  IHMeth= 1 ICntrl=    2127 DoSepK=F KAlg= 0 I1Cent=   0 FoldK=F
 IRaf=         0 NMat=   1 IRICut=       1 DoRegI=T DoRafI=F ISym2E= 0.
 FoFCou: FMM=F IPFlag=           0 FMFlag=      100000 FMFlg1=         800
         NFxFlg=           0 DoJE=F BraDBF=F KetDBF=F FulRan=T
         wScrn=  0.000000 ICntrl=    2127 IOpCl=  0 I1Cent=           0 NGrid=           0
         NMat0=    1 NMatS0=      1 NMatT0=    0 NMatD0=    1 NMtDS0=    0 NMtDT0=    0
 Symmetry not used in FoFCou.
 Leave Link  703 at Sat Aug 21 02:21:28 2021, MaxMem= 24159191040 cpu:        14.4
 (Enter /public/home/users/caep010/software/Gaussian09/g09/l716.exe)
 Dipole        =-2.61551672D+00 8.13131822D-01 2.94109292D-06
 ***** Axes restored to original set *****
 -------------------------------------------------------------------
 Center     Atomic                   Forces (Hartrees/Bohr)
 Number     Number              X              Y              Z
 -------------------------------------------------------------------
      1        6           0.003894785    0.036523125   -0.000033701
      2        7          -0.004712566   -0.000862819    0.000000925
      3        7          -0.001612429   -0.003658439    0.000000031
      4        6          -0.005953548    0.002011982   -0.000000003
      5        7          -0.000404510    0.000195930    0.000000002
      6        8          -0.006015071   -0.003949572   -0.000000011
      7        8           0.006407375    0.005354251    0.000000014
      8        6          -0.049849068    0.026875760   -0.000000014
      9        6          -0.018601170   -0.023339652   -0.000000096
     10        1           0.022253625    0.030049665    0.000000070
     11        1           0.058027311   -0.030722743    0.000000014
     12        1           0.036116448   -0.017445291    0.000001059
     13        1          -0.019765005   -0.010510662   -0.033556233
     14        1          -0.019786178   -0.010521533    0.033587942
 -------------------------------------------------------------------
 Cartesian Forces:  Max     0.058027311 RMS     0.019653375
 Leave Link  716 at Sat Aug 21 02:21:28 2021, MaxMem= 24159191040 cpu:         0.5
 (Enter /public/home/users/caep010/software/Gaussian09/g09/l103.exe)

 GradGradGradGradGradGradGradGradGradGradGradGradGradGradGradGradGradGrad
 Berny optimization.
 Using GEDIIS/GDIIS optimizer.
 FormGI is forming the generalized inverse of G from B-inverse, IUseBI=4.
 Internal  Forces:  Max     0.065639905 RMS     0.013242249
 Search for a local minimum.
 Step number   2 out of a maximum of   72
 All quantities printed in internal units (Hartrees-Bohrs-Radians)
 RMS Force = .13242D-01 SwitMx=.10000D-02 MixMth= 1
 Mixed Optimization -- RFO/linear search
 Update second derivatives using D2CorX and points    1    2
 DE= -5.67D-02 DEPred=-5.30D-02 R= 1.07D+00
 TightC=F SS=  1.41D+00  RLast= 3.00D-01 DXNew= 5.0454D-01 9.0005D-01
 Trust test= 1.07D+00 RLast= 3.00D-01 DXMaxT set to 5.05D-01
 ITU=  1  0
 Use linear search instead of GDIIS.
     Eigenvalues ---    0.00013   0.00395   0.00936   0.01307   0.01678
     Eigenvalues ---    0.02173   0.05380   0.05644   0.06682   0.06746
     Eigenvalues ---    0.09690   0.11445   0.11621   0.14040   0.15282
     Eigenvalues ---    0.18513   0.19212   0.20674   0.22488   0.25433
     Eigenvalues ---    0.28116   0.29402   0.36975   0.39576   0.40870
     Eigenvalues ---    0.45298   0.48461   0.53011   0.59676   0.62483
     Eigenvalues ---    0.67355   0.67798   0.69303   0.69965   0.85129
     Eigenvalues ---    0.89344
 RFO step:  Lambda=-3.69225930D-04 EMin= 1.27165807D-04
 Quartic linear search produced a step of  0.80771.
 Iteration  1 RMS(Cart)=  0.03455360 RMS(Int)=  0.00043930
 Iteration  2 RMS(Cart)=  0.00057124 RMS(Int)=  0.00001813
 Iteration  3 RMS(Cart)=  0.00000043 RMS(Int)=  0.00001812
 ITry= 1 IFail=0 DXMaxC= 1.25D-01 DCOld= 1.00D+10 DXMaxT= 5.05D-01 DXLimC= 3.00D+00 Rises=F
 Variable       Old X    -DE/DX   Delta X   Delta X   Delta X     New X
                                 (Linear)    (Quad)   (Total)
    R1        2.75043   0.00189   0.00912  -0.00330   0.00582   2.75625
    R2        1.96299   0.04010   0.10025   0.00295   0.10320   2.06619
    R3        1.96468   0.04032   0.10069   0.00284   0.10352   2.06821
    R4        1.96460   0.04035   0.10074   0.00283   0.10357   2.06817
    R5        2.52763   0.00134   0.00343  -0.00432  -0.00092   2.52672
    R6        2.56814   0.00597   0.02284   0.00051   0.02336   2.59150
    R7        2.50853   0.00395   0.01355  -0.00431   0.00921   2.51774
    R8        2.73576   0.00128   0.00446  -0.00072   0.00374   2.73949
    R9        2.64473   0.00627   0.02407  -0.00073   0.02335   2.66808
   R10        2.31024   0.00653   0.01705  -0.00684   0.01020   2.32045
   R11        2.32328   0.00765   0.02044  -0.00750   0.01294   2.33623
   R12        2.59609   0.00663   0.02382  -0.00688   0.01697   2.61307
   R13        1.90094   0.06564   0.12520  -0.00200   0.12320   2.02415
   R14        1.95020   0.03739   0.09344  -0.00054   0.09290   2.04310
    A1        1.88991   0.00102   0.00611   0.00584   0.01198   1.90188
    A2        1.91752  -0.00124  -0.00574  -0.00060  -0.00633   1.91120
    A3        1.91754  -0.00124  -0.00575  -0.00064  -0.00637   1.91117
    A4        1.92007  -0.00008  -0.00135  -0.00826  -0.00958   1.91049
    A5        1.92009  -0.00008  -0.00136  -0.00830  -0.00962   1.91047
    A6        1.89878   0.00158   0.00794   0.01181   0.01974   1.91852
    A7        2.08473  -0.00067  -0.00374  -0.00235  -0.00608   2.07865
    A8        2.23162  -0.00051  -0.00206   0.00039  -0.00167   2.22995
    A9        1.96684   0.00119   0.00580   0.00196   0.00775   1.97459
   A10        1.80560   0.00092   0.00321  -0.00080   0.00234   1.80794
   A11        2.09323   0.00196   0.01056   0.00863   0.01920   2.11242
   A12        1.98313  -0.00041  -0.00178  -0.00065  -0.00244   1.98069
   A13        2.20683  -0.00154  -0.00878  -0.00799  -0.01676   2.19007
   A14        2.07515  -0.00204  -0.00766  -0.00192  -0.00957   2.06558
   A15        2.02832  -0.00288  -0.01219  -0.00035  -0.01254   2.01578
   A16        2.17971   0.00493   0.01985   0.00227   0.02212   2.20182
   A17        1.87094  -0.00140  -0.00675  -0.00263  -0.00933   1.86161
   A18        2.13502  -0.00082  -0.00616  -0.02201  -0.02819   2.10683
[...]
 RMS     Force            0.000066     0.000300     YES
 Maximum Displacement     0.001687     0.001800     YES
 RMS     Displacement     0.000437     0.001200     YES
 Predicted change in Energy=-3.673491D-07
 Optimization completed.
    -- Stationary point found.
                           ----------------------------
                           !   Optimized Parameters   !
                           ! (Angstroms and Degrees)  !
 --------------------------                            --------------------------
 ! Name  Definition              Value          Derivative Info.                !
 --------------------------------------------------------------------------------
 ! R1    R(1,2)                  1.4545         -DE/DX =    0.0001              !
 ! R2    R(1,12)                 1.0907         -DE/DX =   -0.0001              !
 ! R3    R(1,13)                 1.0922         -DE/DX =   -0.0001              !
 ! R4    R(1,14)                 1.0922         -DE/DX =   -0.0001              !
 ! R5    R(2,3)                  1.3382         -DE/DX =    0.0                 !
 ! R6    R(2,8)                  1.3661         -DE/DX =    0.0001              !
 ! R7    R(3,4)                  1.3304         -DE/DX =    0.0001              !
 ! R8    R(4,5)                  1.449          -DE/DX =    0.0                 !
 ! R9    R(4,9)                  1.4071         -DE/DX =    0.0002              !
 ! R10   R(5,6)                  1.2263         -DE/DX =    0.0001              !
 ! R11   R(5,7)                  1.2342         -DE/DX =    0.0001              !
 ! R12   R(8,9)                  1.3786         -DE/DX =    0.0002              !
 ! R13   R(8,11)                 1.0796         -DE/DX =    0.0002              !
 ! R14   R(9,10)                 1.0772         -DE/DX =   -0.0001              !
 ! A1    A(2,1,12)             108.7014         -DE/DX =    0.0                 !
 ! A2    A(2,1,13)             109.8464         -DE/DX =    0.0                 !
 ! A3    A(2,1,14)             109.8514         -DE/DX =    0.0                 !
 ! A4    A(12,1,13)            109.6171         -DE/DX =    0.0                 !
 ! A5    A(12,1,14)            109.6169         -DE/DX =    0.0                 !
 ! A6    A(13,1,14)            109.195          -DE/DX =    0.0                 !
 ! A7    A(1,2,3)              119.3109         -DE/DX =    0.0                 !
 ! A8    A(1,2,8)              127.8459         -DE/DX =    0.0                 !
 ! A9    A(3,2,8)              112.8432         -DE/DX =    0.0                 !
 ! A10   A(2,3,4)              103.5672         -DE/DX =    0.0                 !
 ! A11   A(3,4,5)              120.4386         -DE/DX =    0.0001              !
 ! A12   A(3,4,9)              113.541          -DE/DX =    0.0                 !
 ! A13   A(5,4,9)              126.0204         -DE/DX =    0.0                 !
 ! A14   A(4,5,6)              118.5471         -DE/DX =    0.0                 !
 ! A15   A(4,5,7)              115.8274         -DE/DX =   -0.0001              !
 ! A16   A(6,5,7)              125.6255         -DE/DX =    0.0001              !
 ! A17   A(2,8,9)              107.0011         -DE/DX =    0.0                 !
 ! A18   A(2,8,11)             121.5128         -DE/DX =    0.0                 !
 ! A19   A(9,8,11)             131.4861         -DE/DX =    0.0001              !
 ! A20   A(4,9,8)              103.0476         -DE/DX =    0.0                 !
 ! A21   A(4,9,10)             127.8248         -DE/DX =    0.0                 !
 ! A22   A(8,9,10)             129.1276         -DE/DX =    0.0                 !
 ! D1    D(12,1,2,3)           179.9516         -DE/DX =    0.0                 !
 ! D2    D(12,1,2,8)            -0.0587         -DE/DX =    0.0                 !
 ! D3    D(13,1,2,3)            60.0172         -DE/DX =    0.0                 !
 ! D4    D(13,1,2,8)          -119.9931         -DE/DX =    0.0                 !
 ! D5    D(14,1,2,3)           -60.1112         -DE/DX =    0.0                 !
 ! D6    D(14,1,2,8)           119.8785         -DE/DX =    0.0                 !
 ! D7    D(1,2,3,4)            179.9921         -DE/DX =    0.0                 !
 ! D8    D(8,2,3,4)              0.001          -DE/DX =    0.0                 !
 ! D9    D(1,2,8,9)           -179.9912         -DE/DX =    0.0                 !
 ! D10   D(1,2,8,11)             0.0095         -DE/DX =    0.0                 !
 ! D11   D(3,2,8,9)             -0.001          -DE/DX =    0.0                 !
 ! D12   D(3,2,8,11)           179.9997         -DE/DX =    0.0                 !
 ! D13   D(2,3,4,5)            179.9983         -DE/DX =    0.0                 !
 ! D14   D(2,3,4,9)             -0.0006         -DE/DX =    0.0                 !
 ! D15   D(3,4,5,6)              0.0004         -DE/DX =    0.0                 !
 ! D16   D(3,4,5,7)           -179.9998         -DE/DX =    0.0                 !
 ! D17   D(9,4,5,6)            179.9992         -DE/DX =    0.0                 !
 ! D18   D(9,4,5,7)             -0.001          -DE/DX =    0.0                 !
 ! D19   D(3,4,9,8)              0.0001         -DE/DX =    0.0                 !
 ! D20   D(3,4,9,10)           179.9985         -DE/DX =    0.0                 !
 ! D21   D(5,4,9,8)           -179.9988         -DE/DX =    0.0                 !
 ! D22   D(5,4,9,10)            -0.0004         -DE/DX =    0.0                 !
 ! D23   D(2,8,9,4)              0.0005         -DE/DX =    0.0                 !
 ! D24   D(2,8,9,10)          -179.9979         -DE/DX =    0.0                 !
 ! D25   D(11,8,9,4)           179.9997         -DE/DX =    0.0                 !
 ! D26   D(11,8,9,10)            0.0013         -DE/DX =    0.0                 !
 --------------------------------------------------------------------------------
 GradGradGradGradGradGradGradGradGradGradGradGradGradGradGradGradGradGrad

 Leave Link  103 at Sat Aug 21 02:22:04 2021, MaxMem= 24159191040 cpu:         1.0
 (Enter /public/home/users/caep010/software/Gaussian09/g09/l9999.exe)
 1\1\GINC-B1114\Freq\RB3LYP\6-31G(d,p)\C4H5N3O2\ROOT\21-Aug-2021\0\\#P 
 Geom=AllCheck Guess=TCheck SCRF=Check GenChk RB3LYP/6-31G(d,p) Freq\\C
 UZMOZ\\0,1\C,1.2376604172,0.9834545996,1.5890705533\N,1.4062595532,2.4
 281818916,1.5890068579\N,0.3231896082,3.2141315757,1.5889078885\C,0.83
 01846112,4.4441904918,1.5890524781\N,-0.0450701459,5.598914248,1.58896
 82533\O,-1.2575606031,5.4152338459,1.5887684964\O,0.5154608209,6.69848
 34044,1.5891114904\C,2.5748861107,3.1356380719,1.5892303284\C,2.236966
 4624,4.4722081144,1.5892591666\H,2.8804581544,5.3360273208,1.589380143
 9\H,3.534265775,2.6405165351,1.5893376989\H,2.2232529912,0.5163521099,
 1.5882761742\H,0.6847959287,0.6746202211,0.6992145385\H,0.686150316,0.
 6744475699,2.4797159317\\Version=ES64L-G09RevE.01\State=1-A\HF=-470.01
 75107\RMSD=4.133e-09\RMSF=8.922e-05\ZeroPoint=0.1017174\Thermal=0.1096
 077\Dipole=1.7404044,-2.0742395,0.0001969\DipoleDeriv=0.1801524,0.0087
 555,-0.000083,0.0628158,0.674906,-0.000137,-0.0000843,0.000156,0.20750
 06,-0.0789391,0.2756516,0.0000378,0.0720661,-0.6226043,0.0000737,0.000
 0285,-0.000329,-0.0869001,-0.4646973,-0.3406029,-0.0000577,-0.2685365,
 0.1522107,-0.0000552,-0.0000405,0.0000066,-0.155059,0.1968387,0.127647
 5,0.0000448,0.2490161,-0.3818269,0.0000531,0.0000318,0.0000228,0.10144
 21,1.5620433,-0.257753,0.0001992,-0.1974697,1.7184191,0.0000256,0.0001
 761,0.0000295,0.3000881,-1.0425939,0.0668802,-0.0001285,0.1152296,-0.5
 465348,0.0000046,-0.0001171,-0.000005,-0.2477029,-0.5948285,-0.0422773
 ,-0.0000538,-0.1351791,-1.0597745,-0.0000541,-0.0000543,-0.0000474,-0.
 2735527,0.1117604,0.1620512,0.0000262,0.0299068,0.1849607,-0.0000005,0
 .0000117,0.0000999,-0.0737084,-0.0463915,0.0113545,-0.0000161,0.052987
 7,-0.1591301,0.0000267,-0.0000051,0.0000116,-0.1354988,0.10205,-0.0213
 58,-0.0000094,-0.0350318,0.0821794,-0.0000101,0.0000032,-0.0000125,0.1
 599285,0.0356101,0.0401931,-0.0000164,0.0648854,0.0485034,-0.0000012,-
 0.0000083,-0.0000063,0.1583104,-0.06283,0.0752872,0.0001334,-0.0082661
 ,0.0031723,0.0000037,0.0001153,-0.0000491,0.0911377,0.0508507,-0.05293
 76,-0.0579232,-0.0011922,-0.0471087,0.000135,-0.0579175,-0.0577929,-0.
 0228709,0.0509747,-0.0528919,0.0578465,-0.0012322,-0.0473724,-0.000064
 3,0.0578605,0.0579158,-0.0231147\Polar=74.9499663,-6.0505631,92.168342
 6,0.0059159,-0.000014,32.046476\PG=C01 [X(C4H5N3O2)]\NImag=0\\0.626102
 65,-0.01709175,0.48903730,0.00000929,0.00000120,0.58458223,-0.11135753
 ,-0.02314752,-0.00000684,0.64887181,-0.03033638,-0.22568674,0.00002046
 ,0.04616350,0.81608276,-0.00000742,0.00001740,-0.05794551,0.00007248,-
 0.00000524,0.14326424,0.00785089,0.00698461,0.00000649,-0.23186203,0.0
 5652879,-0.00002258,0.50497041,0.03937856,-0.03125775,-0.00001022,0.11
 686634,-0.16214524,0.00002506,0.02907798,0.57704261,0.00000581,0.00000
 247,-0.00710740,-0.00001337,0.00000230,-0.07084660,0.00005704,0.000027
 58,0.10235476,-0.00866905,0.00431682,0.00000249,-0.02907602,0.02137357
 ,-0.00001249,-0.15273080,-0.14286538,-0.00002100,0.70028398,0.00195343
 ,0.00434366,0.00000689,0.04708208,-0.12595584,-0.00001208,-0.09422686,
 -0.30106236,-0.00002463,0.00127408,0.71707715,-0.00000427,-0.00000157,
 0.00313242,-0.00000342,-0.00000315,0.00929507,-0.00001575,-0.00003252,
 -0.06560191,0.00008455,0.00003170,0.13664406,0.00102803,0.00254126,0.0
 0000216,0.00650316,-0.01657046,-0.00000460,0.01297483,0.01537310,0.000
 00580,-0.12919591,0.03207384,-0.00000701,0.89328067,0.00109819,-0.0026
 4192,-0.00000289,-0.01810653,0.00117822,0.00000053,0.02180974,-0.04950
 096,0.00000089,0.03863469,-0.12334754,0.00000316,0.13709198,0.77433294
 ,-0.00000107,0.00000086,0.00290389,-0.00000145,-0.00000411,0.00801789,
 0.00000462,0.00000055,-0.01537106,-0.00000745,0.00000254,-0.07109712,0
 .00011255,0.00004867,0.22545775,0.00007081,-0.00153135,-0.00000106,-0.
 00502080,0.00402099,0.00000097,0.00218161,-0.00926836,-0.00000068,-0.0
 6712167,0.01781463,-0.00001271,-0.56215082,-0.04748504,-0.00007938,0.6
 8196058,0.00016266,0.00088912,-0.00000003,0.00267868,0.00108499,0.0000
 0014,0.00248130,-0.00221867,0.00000035,0.02973444,0.01105036,0.0000042
 6,-0.03663001,-0.13575259,-0.00000858,0.08651268,0.13552349,0.00000010
 ,-0.00000029,-0.00039638,-0.00000056,0.00000081,-0.00009905,0.00000032
 ,-0.00000164,0.00201015,-0.00001201,0.00000256,0.01782126,-0.00007869,
 -0.00001032,-0.07535549,0.00010765,0.00001880,0.02801119,-0.00022689,-
 0.00068539,0.00000010,0.00262790,0.00359400,0.00000127,-0.00096997,0.0
 0281275,-0.00000077,0.01811155,0.00412156,0.00000022,-0.19647303,-0.14
 201109,-0.00002641,-0.05472079,-0.08854725,-0.00001715,0.23425932,0.00
 085154,0.00109160,0.00000090,0.00408996,-0.00506046,-0.00000054,0.0076
 4600,0.00318989,0.00000138,-0.01248199,-0.07424219,-0.00000657,-0.1555
 5038,-0.47383580,-0.00004427,-0.05819348,-0.00448728,-0.00001075,0.217
 26881,0.55831955,0.00000049,-0.00000007,-0.00088990,0.00000081,0.00000
 048,-0.00101291,-0.00000043,0.00000038,0.00463513,-0.00000067,-0.00000
 374,0.01808499,-0.00002713,-0.00004236,-0.07508157,-0.00001554,-0.0000
 1544,0.02597863,0.00004354,0.00006062,0.02768513,0.00816595,-0.0055748
 9,-0.00000116,-0.25956771,-0.09096036,-0.00003143,-0.09522168,0.024910
 00,-0.00001654,-0.02259297,0.01675556,-0.00000429,-0.01028944,-0.00005
 111,-0.00000153,-0.00020751,0.00285026,0.00000011,0.00021802,-0.001554
 74,-0.00000023,0.79011817,-0.02265505,-0.01614180,-0.00001398,-0.08612
 820,-0.16575186,-0.00000833,-0.01154125,-0.02187974,-0.00000474,0.0924
 2949,-0.00282666,0.00001149,-0.00320452,0.00912786,0.00000070,0.002011
 27,-0.00121979,0.00000011,-0.00260595,-0.00344178,-0.00000075,-0.14836
 339,0.70629082,0.00000309,-0.00000032,-0.00617503,-0.00003629,-0.00001
 753,-0.05432923,-0.00001618,-0.00000095,0.01766971,0.00000273,0.000002
 59,0.00925490,-0.00000211,0.00000045,0.00519258,0.00000017,0.00000036,
 -0.00088146,-0.00000036,-0.00000042,0.00029881,0.00008739,0.00000960,0
 .11802852,-0.00341138,-0.00316759,-0.00000658,-0.00135655,-0.00421462,
 0.00000588,-0.04091772,-0.07180521,-0.00001340,-0.30380782,-0.00241375
 ,-0.00003715,-0.01546417,0.01291229,-0.00000034,0.00417755,-0.00013725
 ,0.,-0.00442533,-0.00400529,-0.00000106,-0.13068187,0.05283139,-0.0000
 0749,0.66054413,-0.00462251,0.00379547,0.00000160,-0.06263820,-0.07418
 007,-0.00001974,-0.01010610,-0.01591752,-0.00000396,-0.03428313,-0.099
 42247,-0.00000535,0.02769988,-0.00207264,0.00000368,0.00439956,-0.0041
 4531,0.00000048,0.00420033,0.00075439,0.00000072,0.07985621,-0.3688972
 2,-0.00000453,0.14746616,0.82067377,0.00000044,-0.00000225,0.00392980,
 -0.00000689,-0.00000496,0.01283088,-0.00000828,-0.00001352,0.01754634,
 -0.00003581,-0.00000058,-0.06193249,-0.00000052,0.00000146,-0.00410311
 ,0.00000015,-0.00000021,0.00334765,-0.00000048,-0.00000038,0.00086805,
 -0.00000475,-0.00000838,-0.06136523,0.00008258,0.00005575,0.11592929,0
 .00082285,0.00003455,-0.00000022,-0.00147054,0.00506116,-0.00000048,-0
 .00607841,-0.00176190,-0.00000197,-0.00512656,-0.02229800,-0.00000125,
 -0.00060578,-0.00359148,-0.00000002,0.00070724,0.00081167,0.00000015,0
 .00145674,0.00170527,0.00000038,0.01214894,0.00899809,0.00000210,-0.16
 852807,-0.15122868,-0.00002501,0.16677742,-0.00077990,0.00021043,-0.00
 000080,0.00143893,-0.00417251,0.00000029,0.00282832,0.00112975,0.00000
 036,0.00281799,0.00647520,0.00000064,-0.00086369,0.00030985,0.00000001
 ,-0.00029913,-0.00010903,-0.00000008,0.00124161,-0.00117305,0.00000013
 ,-0.01761296,-0.00870206,-0.00000265,-0.15170504,-0.25727269,-0.000030
 00,0.16261154,0.26328472,0.00000014,0.00000060,0.00233977,-0.00000011,
 -0.00000043,0.00442472,-0.00000224,-0.00000005,0.00609748,-0.00000063,
 -0.00000332,-0.00133483,0.00000009,-0.00000012,-0.00213882,0.00000008,
 0.00000006,0.00012086,0.00000025,0.00000009,-0.00033077,0.00000090,0.0
 0000054,-0.00150469,-0.00002458,-0.00002931,-0.02743523,0.00002586,0.0
 0003175,0.02251054,0.00001084,0.00148821,0.00000146,-0.01853779,0.0158
 7631,-0.00000096,-0.00201190,-0.00281910,-0.00000154,-0.00080387,-0.00
 166366,-0.00000090,0.00032745,-0.00025369,-0.00000019,0.00008976,0.000
 22437,0.00000011,0.00006489,0.00026174,0.00000005,-0.29308505,0.121437
 76,-0.00003095,0.00390455,-0.00153095,0.00000037,-0.00018362,0.0004142
 4,0.00000033,0.30950777,-0.00031061,0.00111515,0.00000064,-0.01839064,
 0.01198711,-0.00000149,-0.00451432,-0.00131913,-0.00000142,0.00061359,
 -0.00621944,-0.00000036,0.00069932,0.00099932,-0.00000008,0.00088061,-
 0.00044376,0.00000018,0.00010540,-0.00005965,0.00000004,0.13093580,-0.
 12792989,0.00001188,0.02287066,0.00141172,0.00000364,-0.00066480,0.000
 35158,-0.00000001,-0.13222729,0.12036565,-0.00000124,0.00000115,-0.002
 10939,-0.00000461,0.00000208,-0.00437666,-0.00000135,-0.00000082,0.007
 07880,-0.00000076,-0.00000099,0.00476324,-0.00000011,-0.00000001,0.001
 58155,0.00000019,0.,-0.00058912,0.00000004,0.00000004,-0.00019340,-0.0
 0002936,0.00001149,-0.02607867,0.00000189,-0.00000020,0.00103563,0.000
 00028,0.00000019,-0.00251406,0.00003345,-0.00001246,0.02078694,-0.2807
 1979,0.10767647,0.00018598,0.00525619,-0.00415141,-0.00000698,0.000778
 75,-0.00092706,0.00000078,0.00047133,-0.00040724,-0.00000030,0.0000400
 9,-0.00030702,0.00000069,0.00000981,0.00006231,-0.00000011,0.00000096,
 0.00006332,-0.00000014,0.00026226,-0.00130124,-0.00000083,0.00018279,0
 .00043571,-0.00000081,0.00002153,0.00000476,0.00000022,0.00038927,-0.0
 0016103,0.00000062,0.29741555,0.09355356,-0.09685661,-0.00007899,0.037
 60640,-0.01834438,-0.00001968,-0.00361504,-0.00606371,-0.00000585,0.00
 203350,-0.00109739,0.00000090,-0.00075818,-0.00003003,0.00000105,0.000
 14587,-0.00006548,-0.00000010,0.00009980,-0.00050610,-0.00000030,0.000
 88122,0.00124093,0.00000046,0.00006183,-0.00005744,0.00000006,-0.00005
 043,0.00005471,0.00000022,-0.00087934,-0.00033187,-0.00000062,-0.11244
 356,0.11190633,0.00018852,-0.00008823,-0.04949355,-0.00000608,0.000002
 29,-0.00244790,-0.00000165,0.00000440,0.00048901,-0.00000085,0.0000000
 5,0.00063382,-0.00000017,0.00000016,0.00014990,0.00000003,0.00000010,-
 0.00000858,-0.00000003,-0.00000001,-0.00005281,0.00000112,0.00000044,0
 .00031081,0.00000008,-0.00000072,-0.00022085,0.00000011,0.00000003,-0.
 00011519,-0.00000081,-0.00000046,0.00042375,-0.00020327,0.00008862,0.0
 4569829,-0.12000687,-0.03596213,-0.11265800,-0.00250844,-0.00319176,-0
 .00185569,0.00051910,0.00051481,0.00003567,0.00012860,-0.00003201,0.00
 046257,0.00001272,0.00012918,-0.00028658,0.00001205,-0.00010192,0.0000
 3651,0.00003836,-0.00005029,0.00003233,0.00036691,-0.00095389,-0.00060
 708,-0.00010818,0.00017565,0.00065428,0.00002920,-0.00004827,-0.000062
 96,0.00016423,0.00008188,-0.00032090,-0.01206985,-0.00831588,-0.023601
 93,0.12342510,-0.03063108,-0.06394250,-0.05274425,-0.02378535,-0.02450
 999,-0.02743839,-0.00167494,0.00500169,-0.00011298,-0.00179796,-0.0023
 8400,0.00018590,-0.00095034,0.00061583,0.00056696,0.00049558,-0.000052
 82,-0.00005510,0.00020260,-0.00027406,-0.00014396,0.00396561,0.0000602
 6,-0.00273531,0.00065069,-0.00233434,0.00043765,0.00018665,-0.00019379
 ,0.00052918,-0.00016420,0.00003669,-0.00014498,0.00573752,0.00507466,0
 .01264027,0.04269007,0.07926391,-0.11405374,-0.05865296,-0.23623011,0.
 00183514,-0.00169752,0.00660687,-0.00014078,0.00080053,0.00052272,-0.0
 0017517,-0.00079499,0.00016808,-0.00029699,0.00009210,-0.00007806,0.00
 013226,-0.00000197,0.00002012,0.00008701,-0.00002147,0.00000531,0.0008
 8910,0.00138261,-0.00021034,0.00064514,-0.00008823,-0.00021516,0.00003
 251,0.00004732,-0.00005979,0.00001318,0.00002064,0.00009587,0.00205719
 ,0.00171942,0.00233556,0.12359516,0.06310711,0.24734032,-0.11966052,-0
 .03588130,0.11246589,-0.00250164,-0.00319333,0.00186203,0.00051691,0.0
 0051346,-0.00003582,0.00012924,-0.00003365,-0.00046030,0.00001218,0.00
 012989,0.00028656,0.00001220,-0.00010193,-0.00003643,0.00003828,-0.000
 05047,-0.00003241,0.00036598,-0.00095452,0.00060581,-0.00010792,0.0001
 7606,-0.00065528,0.00002905,-0.00004840,0.00006264,0.00016348,0.000081
 45,0.00032186,-0.01203890,-0.00831976,0.02362495,0.00999707,0.00507517
 ,-0.01462000,0.12304458,-0.03057065,-0.06395542,0.05281947,-0.02372944
 ,-0.02452600,0.02746207,-0.00167824,0.00500111,0.00011825,-0.00179971,
 -0.00238849,-0.00018853,-0.00095177,0.00061744,-0.00056799,0.00049616,
 -0.00005324,0.00005532,0.00020281,-0.00027506,0.00014425,0.00396279,0.
 00007093,0.00273637,0.00065573,-0.00233565,-0.00043827,0.00018637,-0.0
 0019312,-0.00052920,-0.00016443,0.00003651,0.00014515,0.00571847,0.005
 07637,-0.01264693,0.00506456,0.00363846,-0.00591258,0.04260735,0.07928
 615,0.11385986,0.05872201,-0.23654082,-0.00182881,0.00170454,0.0066182
 0,0.00014077,-0.00079879,0.00052288,0.00017708,0.00079400,0.00016851,0
 .00029672,-0.00009172,-0.00007832,-0.00013214,0.00000217,0.00002023,-0
 .00008725,0.00002137,0.00000535,-0.00088932,-0.00138080,-0.00021067,-0
 .00064498,0.00008981,-0.00021556,-0.00003244,-0.00004720,-0.00006000,-
 0.00001360,-0.00002074,0.00009552,-0.00203304,-0.00170519,0.00229775,0
 .01457663,0.00590789,-0.02030138,-0.12338949,-0.06319737,0.24767831\\0
 .00003384,0.00021851,0.00000105,0.00011959,-0.00001676,0.00000053,0.00
 002237,0.00009217,0.00000013,0.00016338,-0.00004096,-0.00000013,0.0000
 2539,-0.00003552,0.00000004,0.00010797,0.00009057,0.,-0.00012895,-0.00
 008924,-0.00000003,-0.00001736,-0.00006292,-0.00000009,-0.00014028,-0.
 00021531,-0.00000013,0.00005918,0.00004937,0.00000004,-0.00019029,0.00
 015052,0.,0.00012423,-0.00003702,-0.00000033,-0.00008979,-0.00005212,-
 0.00008382,-0.00008928,-0.00005129,0.00008271\\\@


 In the beginning the Universe was created.
 This has made a lot of people very angry
 and been widely regarded as a bad move.
                               -D.Adams
 Job cpu time:       0 days  0 hours  6 minutes 58.4 seconds.
 File lengths (MBytes):  RWF=     48 Int=      0 D2E=      0 Chk=      3 Scr=      1
 Normal termination of Gaussian 09 at Sat Aug 21 02:22:04 2021.
