 Entering Gaussian System, Link 0=g09
 Input=B3LYP6-31G.TENZUJ.gjf
 Output=B3LYP6-31G.TENZUJ.log
 Initial command:
 /public/home/users/caep010/software/Gaussian09/g09/l1.exe "/public/home/users/caep010/.cache/gau_scr/Gau-98364.inp" -scrdir="/public/home/users/caep010/.cache/gau_scr/"
 Entering Link 1 = /public/home/users/caep010/software/Gaussian09/g09/l1.exe PID=     98365.
  
 Copyright (c) 1988,1990,1992,1993,1995,1998,2003,2009,2015,
            Gaussian, Inc.  All Rights Reserved.
  
 This is part of the Gaussian(R) 09 program.  It is based on
 the Gaussian(R) 03 system (copyright 2003, Gaussian, Inc.),
 the Gaussian(R) 98 system (copyright 1998, Gaussian, Inc.),
 the Gaussian(R) 94 system (copyright 1995, Gaussian, Inc.),
 the Gaussian 92(TM) system (copyright 1992, Gaussian, Inc.),
 the Gaussian 90(TM) system (copyright 1990, Gaussian, Inc.),
 the Gaussian 88(TM) system (copyright 1988, Gaussian, Inc.),
 the Gaussian 86(TM) system (copyright 1986, Carnegie Mellon
 University), and the Gaussian 82(TM) system (copyright 1983,
 Carnegie Mellon University). Gaussian is a federally registered
 trademark of Gaussian, Inc.
  
 This software contains proprietary and confidential information,
 including trade secrets, belonging to Gaussian, Inc.
  
 This software is provided under written license and may be
 used, copied, transmitted, or stored only in accord with that
 written license.
  
 The following legend is applicable only to US Government
 contracts under FAR:
  
                    RESTRICTED RIGHTS LEGEND
  
 Use, reproduction and disclosure by the US Government is
 subject to restrictions as set forth in subparagraphs (a)
 and (c) of the Commercial Computer Software - Restricted
 Rights clause in FAR 52.227-19.
  
 Gaussian, Inc.
 340 Quinnipiac St., Bldg. 40, Wallingford CT 06492
  
  
 ---------------------------------------------------------------
 Warning -- This program may not be used in any manner that
 competes with the business of Gaussian, Inc. or will provide
 assistance to any competitor of Gaussian, Inc.  The licensee
 of this program is prohibited from giving any competitor of
 Gaussian, Inc. access to this program.  By using this program,
 the user acknowledges that Gaussian, Inc. is engaged in the
 business of creating and licensing software in the field of
 computational chemistry and represents and warrants to the
 licensee that it is not a competitor of Gaussian, Inc. and that
 it will not use this program in any manner prohibited above.
 ---------------------------------------------------------------
  

 Cite this work as:
 Gaussian 09, Revision E.01,
 M. J. Frisch, G. W. Trucks, H. B. Schlegel, G. E. Scuseria, 
 M. A. Robb, J. R. Cheeseman, G. Scalmani, V. Barone, B. Mennucci, 
 G. A. Petersson, H. Nakatsuji, M. Caricato, X. Li, H. P. Hratchian, 
 A. F. Izmaylov, J. Bloino, G. Zheng, J. L. Sonnenberg, M. Hada, 
 M. Ehara, K. Toyota, R. Fukuda, J. Hasegawa, M. Ishida, T. Nakajima, 
 Y. Honda, O. Kitao, H. Nakai, T. Vreven, J. A. Montgomery, Jr., 
 J. E. Peralta, F. Ogliaro, M. Bearpark, J. J. Heyd, E. Brothers, 
 K. N. Kudin, V. N. Staroverov, T. Keith, R. Kobayashi, J. Normand, 
 K. Raghavachari, A. Rendell, J. C. Burant, S. S. Iyengar, J. Tomasi, 
 M. Cossi, N. Rega, J. M. Millam, M. Klene, J. E. Knox, J. B. Cross, 
 V. Bakken, C. Adamo, J. Jaramillo, R. Gomperts, R. E. Stratmann, 
 O. Yazyev, A. J. Austin, R. Cammi, C. Pomelli, J. W. Ochterski, 
 R. L. Martin, K. Morokuma, V. G. Zakrzewski, G. A. Voth, 
 P. Salvador, J. J. Dannenberg, S. Dapprich, A. D. Daniels, 
 O. Farkas, J. B. Foresman, J. V. Ortiz, J. Cioslowski, 
 and D. J. Fox, Gaussian, Inc., Wallingford CT, 2013.
 
 ******************************************
 Gaussian 09:  ES64L-G09RevE.01 30-Nov-2015
                20-Aug-2021 
 ******************************************
 %nproc=32
 Will use up to   32 processors via shared memory.
 %mem=180GB
 -------------------------
 #P OPT Freq B3LYP/6-31G**
 -------------------------
 1/14=-1,18=20,19=15,26=3,38=1/1,3;
 2/9=110,12=2,17=6,18=5,40=1/2;
 3/5=1,6=6,7=101,11=2,16=1,25=1,30=1,71=1,74=-5/1,2,3;
 4//1;
 5/5=2,38=5/2;
 6/7=2,8=2,9=2,10=2,28=1/1;
 7//1,2,3,16;
 1/14=-1,18=20,19=15,26=3/3(2);
 2/9=110/2;
 99//99;
 2/9=110/2;
 3/5=1,6=6,7=101,11=2,16=1,25=1,30=1,71=1,74=-5/1,2,3;
 4/5=5,16=3,69=1/1;
 5/5=2,38=5/2;
 7//1,2,3,16;
 1/14=-1,18=20,19=15,26=3/3(-5);
 2/9=110/2;
 6/7=2,8=2,9=2,10=2,19=2,28=1/1;
 99/9=1/99;
 Leave Link    1 at Fri Aug 20 15:56:42 2021, MaxMem= 24159191040 cpu:         2.2
 (Enter /public/home/users/caep010/software/Gaussian09/g09/l101.exe)
 ------
 TENZUJ
 ------
 Symbolic Z-matrix:
 Charge =  0 Multiplicity = 1
 N                     2.2042    0.6414    1.8842 
 C                     3.0963    1.4332    2.4545 
 C                     2.463     2.5531    2.9752 
 N                     1.0938    1.2942    2.0556 
 H                     0.3443    0.9876    1.7674 
 N                     1.1685    2.4579    2.6971 
 N                     3.085     3.6168    3.5956 
 H                     3.944     3.6449    3.5757 
 N                     2.4405    4.6139    4.2322 
 O                     1.2338    4.6439    4.2023 
 O                     3.1642    5.4332    4.775 
 N                     4.4746    1.0882    2.4857 
 O                     4.8501    0.1096    1.8857 
 O                     5.1865    1.8266    3.1515 
 
 NAtoms=     14 NQM=       14 NQMF=       0 NMMI=      0 NMMIF=      0
                NMic=       0 NMicF=      0.
                    Isotopes and Nuclear Properties:
 (Nuclear quadrupole moments (NQMom) in fm**2, nuclear magnetic moments (NMagM)
  in nuclear magnetons)

  Atom         1           2           3           4           5           6           7           8           9          10
 IAtWgt=          14          12          12          14           1          14          14           1          14          16
 AtmWgt=  14.0030740  12.0000000  12.0000000  14.0030740   1.0078250  14.0030740  14.0030740   1.0078250  14.0030740  15.9949146
 NucSpn=           2           0           0           2           1           2           2           1           2           0
 AtZEff=   0.0000000   0.0000000   0.0000000   0.0000000   0.0000000   0.0000000   0.0000000   0.0000000   0.0000000   0.0000000
 NQMom=    2.0440000   0.0000000   0.0000000   2.0440000   0.0000000   2.0440000   2.0440000   0.0000000   2.0440000   0.0000000
 NMagM=    0.4037610   0.0000000   0.0000000   0.4037610   2.7928460   0.4037610   0.4037610   2.7928460   0.4037610   0.0000000
 AtZNuc=   7.0000000   6.0000000   6.0000000   7.0000000   1.0000000   7.0000000   7.0000000   1.0000000   7.0000000   8.0000000

  Atom        11          12          13          14
 IAtWgt=          16          14          16          16
 AtmWgt=  15.9949146  14.0030740  15.9949146  15.9949146
 NucSpn=           0           2           0           0
 AtZEff=   0.0000000   0.0000000   0.0000000   0.0000000
 NQMom=    0.0000000   2.0440000   0.0000000   0.0000000
 NMagM=    0.0000000   0.4037610   0.0000000   0.0000000
 AtZNuc=   8.0000000   7.0000000   8.0000000   8.0000000
 Leave Link  101 at Fri Aug 20 15:56:43 2021, MaxMem= 24159191040 cpu:        10.6
 (Enter /public/home/users/caep010/software/Gaussian09/g09/l103.exe)

 GradGradGradGradGradGradGradGradGradGradGradGradGradGradGradGradGradGrad
 Berny optimization.
 Initialization pass.
                           ----------------------------
                           !    Initial Parameters    !
                           ! (Angstroms and Degrees)  !
 --------------------------                            --------------------------
 ! Name  Definition              Value          Derivative Info.                !
 --------------------------------------------------------------------------------
 ! R1    R(1,2)                  1.3221         estimate D2E/DX2                !
 ! R2    R(1,4)                  1.2994         estimate D2E/DX2                !
 ! R3    R(2,3)                  1.3879         estimate D2E/DX2                !
 ! R4    R(2,12)                 1.4212         estimate D2E/DX2                !
 ! R5    R(3,6)                  1.3275         estimate D2E/DX2                !
 ! R6    R(3,7)                  1.3796         estimate D2E/DX2                !
 ! R7    R(4,5)                  0.8595         estimate D2E/DX2                !
 ! R8    R(4,6)                  1.3309         estimate D2E/DX2                !
 ! R9    R(7,8)                  0.8597         estimate D2E/DX2                !
 ! R10   R(7,9)                  1.3472         estimate D2E/DX2                !
 ! R11   R(9,10)                 1.2074         estimate D2E/DX2                !
 ! R12   R(9,11)                 1.2205         estimate D2E/DX2                !
 ! R13   R(12,13)                1.2077         estimate D2E/DX2                !
 ! R14   R(12,14)                1.2228         estimate D2E/DX2                !
 ! A1    A(2,1,4)              102.6403         estimate D2E/DX2                !
 ! A2    A(1,2,3)              109.7047         estimate D2E/DX2                !
 ! A3    A(1,2,12)             121.2302         estimate D2E/DX2                !
 ! A4    A(3,2,12)             129.0624         estimate D2E/DX2                !
 ! A5    A(2,3,6)              107.9688         estimate D2E/DX2                !
 ! A6    A(2,3,7)              125.8113         estimate D2E/DX2                !
 ! A7    A(6,3,7)              126.0987         estimate D2E/DX2                !
 ! A8    A(1,4,5)              121.4467         estimate D2E/DX2                !
 ! A9    A(1,4,6)              117.057          estimate D2E/DX2                !
 ! A10   A(5,4,6)              121.4963         estimate D2E/DX2                !
 ! A11   A(3,6,4)              102.6162         estimate D2E/DX2                !
 ! A12   A(3,7,8)              117.7292         estimate D2E/DX2                !
 ! A13   A(3,7,9)              124.5751         estimate D2E/DX2                !
 ! A14   A(8,7,9)              117.6956         estimate D2E/DX2                !
 ! A15   A(7,9,10)             118.9998         estimate D2E/DX2                !
 ! A16   A(7,9,11)             115.045          estimate D2E/DX2                !
 ! A17   A(10,9,11)            125.9389         estimate D2E/DX2                !
 ! A18   A(2,12,13)            119.1649         estimate D2E/DX2                !
 ! A19   A(2,12,14)            115.4661         estimate D2E/DX2                !
 ! A20   A(13,12,14)           125.3635         estimate D2E/DX2                !
 ! D1    D(4,1,2,3)              0.7962         estimate D2E/DX2                !
 ! D2    D(4,1,2,12)          -179.74           estimate D2E/DX2                !
 ! D3    D(2,1,4,5)            179.8661         estimate D2E/DX2                !
 ! D4    D(2,1,4,6)             -0.1461         estimate D2E/DX2                !
 ! D5    D(1,2,3,6)             -1.1985         estimate D2E/DX2                !
 ! D6    D(1,2,3,7)           -177.385          estimate D2E/DX2                !
 ! D7    D(12,2,3,6)           179.392          estimate D2E/DX2                !
 ! D8    D(12,2,3,7)             3.2055         estimate D2E/DX2                !
 ! D9    D(1,2,12,13)            6.1197         estimate D2E/DX2                !
 ! D10   D(1,2,12,14)         -173.0704         estimate D2E/DX2                !
 ! D11   D(3,2,12,13)         -174.5304         estimate D2E/DX2                !
 ! D12   D(3,2,12,14)            6.2795         estimate D2E/DX2                !
 ! D13   D(2,3,6,4)              1.0129         estimate D2E/DX2                !
 ! D14   D(7,3,6,4)            177.1855         estimate D2E/DX2                !
 ! D15   D(2,3,7,8)              8.1964         estimate D2E/DX2                !
 ! D16   D(2,3,7,9)           -171.7078         estimate D2E/DX2                !
 ! D17   D(6,3,7,8)           -167.3129         estimate D2E/DX2                !
 ! D18   D(6,3,7,9)             12.7829         estimate D2E/DX2                !
 ! D19   D(1,4,6,3)             -0.5739         estimate D2E/DX2                !
 ! D20   D(5,4,6,3)            179.4139         estimate D2E/DX2                !
 ! D21   D(3,7,9,10)            -4.741          estimate D2E/DX2                !
 ! D22   D(3,7,9,11)           176.6416         estimate D2E/DX2                !
 ! D23   D(8,7,9,10)           175.3548         estimate D2E/DX2                !
 ! D24   D(8,7,9,11)            -3.2626         estimate D2E/DX2                !
 --------------------------------------------------------------------------------
 Trust Radius=3.00D-01 FncErr=1.00D-07 GrdErr=1.00D-06
 Number of steps in this run=     68 maximum allowed number of steps=    100.
 GradGradGradGradGradGradGradGradGradGradGradGradGradGradGradGradGradGrad

 Leave Link  103 at Fri Aug 20 15:56:43 2021, MaxMem= 24159191040 cpu:         0.5
 (Enter /public/home/users/caep010/software/Gaussian09/g09/l202.exe)
                          Input orientation:                          
 ---------------------------------------------------------------------
 Center     Atomic      Atomic             Coordinates (Angstroms)
 Number     Number       Type             X           Y           Z
 ---------------------------------------------------------------------
      1          7           0        2.204200    0.641400    1.884200
      2          6           0        3.096300    1.433200    2.454500
      3          6           0        2.463000    2.553100    2.975200
      4          7           0        1.093800    1.294200    2.055600
      5          1           0        0.344300    0.987600    1.767400
      6          7           0        1.168500    2.457900    2.697100
      7          7           0        3.085000    3.616800    3.595600
      8          1           0        3.944000    3.644900    3.575700
      9          7           0        2.440500    4.613900    4.232200
     10          8           0        1.233800    4.643900    4.202300
     11          8           0        3.164200    5.433200    4.775000
     12          7           0        4.474600    1.088200    2.485700
     13          8           0        4.850100    0.109600    1.885700
     14          8           0        5.186500    1.826600    3.151500
 ---------------------------------------------------------------------
                    Distance matrix (angstroms):
                    1          2          3          4          5
     1  N    0.000000
     2  C    1.322132   0.000000
     3  C    2.216271   1.387939   0.000000
     4  N    1.299428   2.046570   2.074898   0.000000
     5  H    1.895448   2.871266   2.898010   0.859542   0.000000
     6  N    2.243469   2.196651   1.327454   1.330902   1.924949
     7  N    3.543685   2.463807   1.379579   3.425047   4.215026
     8  H    3.861229   2.620554   1.935456   3.995014   4.825871
     9  N    4.620573   3.702316   2.414012   4.191849   4.859974
    10  O    4.726021   4.102719   2.718115   3.981006   4.482017
    11  O    5.677999   4.624860   3.467843   5.367775   6.063073
    12  N    2.390847   1.421165   2.536154   3.414269   4.193501
    13  O    2.698815   2.269640   3.585519   3.942326   4.592071
    14  O    3.450342   2.238193   2.824241   4.270204   5.105542
                    6          7          8          9         10
     6  N    0.000000
     7  N    2.413156   0.000000
     8  H    3.143932   0.859690   0.000000
     9  N    2.936469   1.347163   1.905378   0.000000
    10  O    2.654899   2.202263   2.955641   1.207443   0.000000
    11  O    4.141606   2.167156   2.290071   1.220502   2.162735
    12  N    3.584838   3.091389   2.829550   4.429265   5.108082
    13  O    4.441516   4.282498   4.021873   5.621472   6.245329
    14  O    4.092596   2.796130   2.242759   4.059245   4.966407
                   11         12         13         14
    11  O    0.000000
    12  N    5.083018   0.000000
    13  O    6.287371   1.207749   0.000000
    14  O    4.442186   1.222835   2.159515   0.000000
 Stoichiometry    C2H2N6O4
 Framework group  C1[X(C2H2N6O4)]
 Deg. of freedom    36
 Full point group                 C1      NOp   1
 Largest Abelian subgroup         C1      NOp   1
 Largest concise Abelian subgroup C1      NOp   1
                         Standard orientation:                         
 ---------------------------------------------------------------------
 Center     Atomic      Atomic             Coordinates (Angstroms)
 Number     Number       Type             X           Y           Z
 ---------------------------------------------------------------------
      1          7           0        1.855493    1.369616   -0.032903
      2          6           0        1.229779    0.205325   -0.002212
      3          6           0       -0.142216    0.412166    0.032712
      4          7           0        0.874235    2.220772    0.001455
      5          1           0        1.015520    3.068583   -0.006769
      6          7           0       -0.358629    1.721750    0.049665
      7          7           0       -1.104921   -0.571982    0.121529
      8          1           0       -0.841495   -1.377258    0.267147
      9          7           0       -2.429156   -0.359762   -0.005806
     10          8           0       -2.831697    0.772242   -0.125999
     11          8           0       -3.120215   -1.364743    0.039762
     12          7           0        1.950711   -1.019293   -0.018852
     13          8           0        3.156182   -0.993606    0.050701
     14          8           0        1.269038   -2.029390   -0.120589
 ---------------------------------------------------------------------
 Rotational constants (GHZ):      1.7215372      0.7179898      0.5075893
 Leave Link  202 at Fri Aug 20 15:56:43 2021, MaxMem= 24159191040 cpu:         0.6
 (Enter /public/home/users/caep010/software/Gaussian09/g09/l301.exe)
 Standard basis: 6-31G(d,p) (6D, 7F)
 Ernie: Thresh=  0.10000D-02 Tol=  0.10000D-05 Strict=F.
 There are   190 symmetry adapted cartesian basis functions of A   symmetry.
 There are   190 symmetry adapted basis functions of A   symmetry.
   190 basis functions,   350 primitive gaussians,   190 cartesian basis functions
    44 alpha electrons       44 beta electrons
       nuclear repulsion energy       726.9958904136 Hartrees.
 IExCor=  402 DFT=T Ex+Corr=B3LYP ExCW=0 ScaHFX=  0.200000
 ScaDFX=  0.800000  0.720000  1.000000  0.810000 ScalE2=  1.000000  1.000000
 IRadAn=      0 IRanWt=     -1 IRanGd=            0 ICorTp=0 IEmpDi=  4
 NAtoms=   14 NActive=   14 NUniq=   14 SFac= 1.00D+00 NAtFMM=   60 NAOKFM=F Big=F
 Integral buffers will be    131072 words long.
 Raffenetti 2 integral format.
 Two-electron integral symmetry is turned on.
 Leave Link  301 at Fri Aug 20 15:56:43 2021, MaxMem= 24159191040 cpu:         1.8
 (Enter /public/home/users/caep010/software/Gaussian09/g09/l302.exe)
 NPDir=0 NMtPBC=     1 NCelOv=     1 NCel=       1 NClECP=     1 NCelD=      1
         NCelK=      1 NCelE2=     1 NClLst=     1 CellRange=     0.0.
 One-electron integrals computed using PRISM.
 NBasis=   190 RedAO= T EigKep=  6.87D-04  NBF=   190
 NBsUse=   190 1.00D-06 EigRej= -1.00D+00 NBFU=   190
 Precomputing XC quadrature grid using
 IXCGrd= 4 IRadAn=           0 IRanWt=          -1 IRanGd=           0 AccXCQ= 0.00D+00.
 Generated NRdTot=       0 NPtTot=           0 NUsed=           0 NTot=          32
 NSgBfM=   189   189   189   189   189 MxSgAt=    14 MxSgA2=    14.
 Leave Link  302 at Fri Aug 20 15:56:43 2021, MaxMem= 24159191040 cpu:        13.5
 (Enter /public/home/users/caep010/software/Gaussian09/g09/l303.exe)
 DipDrv:  MaxL=1.
 Leave Link  303 at Fri Aug 20 15:56:43 2021, MaxMem= 24159191040 cpu:         0.8
 (Enter /public/home/users/caep010/software/Gaussian09/g09/l401.exe)
 ExpMin= 1.61D-01 ExpMax= 5.48D+03 ExpMxC= 8.25D+02 IAcc=1 IRadAn=         1 AccDes= 0.00D+00
 Harris functional with IExCor=  402 and IRadAn=       1 diagonalized for initial guess.
 HarFok:  IExCor=  402 AccDes= 0.00D+00 IRadAn=         1 IDoV= 1 UseB2=F ITyADJ=14
 ICtDFT=  3500011 ScaDFX=  1.000000  1.000000  1.000000  1.000000
 FoFCou: FMM=F IPFlag=           0 FMFlag=      100000 FMFlg1=           0
         NFxFlg=           0 DoJE=T BraDBF=F KetDBF=T FulRan=T
         wScrn=  0.000000 ICntrl=     500 IOpCl=  0 I1Cent=   200000004 NGrid=           0
         NMat0=    1 NMatS0=      1 NMatT0=    0 NMatD0=    1 NMtDS0=    0 NMtDT0=    0
 Petite list used in FoFCou.
 Harris En= -706.495577328051    
 JPrj=0 DoOrth=F DoCkMO=F.
 Leave Link  401 at Fri Aug 20 15:56:44 2021, MaxMem= 24159191040 cpu:        11.5
 (Enter /public/home/users/caep010/software/Gaussian09/g09/l502.exe)
 Closed shell SCF:
 Using DIIS extrapolation, IDIIS=  1040.
 Integral symmetry usage will be decided dynamically.
 Keep R1 ints in memory in canonical form, NReq=168247767.
 IVT=      134342 IEndB=      134342 NGot= 24159191040 MDV= 23994427114
 LenX= 23994427114 LenY= 23994390573
 Requested convergence on RMS density matrix=1.00D-08 within 128 cycles.
 Requested convergence on MAX density matrix=1.00D-06.
 Requested convergence on             energy=1.00D-06.
 No special actions if energy rises.
 FoFCou: FMM=F IPFlag=           0 FMFlag=           0 FMFlg1=           0
         NFxFlg=           0 DoJE=F BraDBF=F KetDBF=F FulRan=T
         wScrn=  0.000000 ICntrl=     600 IOpCl=  0 I1Cent=           0 NGrid=           0
         NMat0=    1 NMatS0=  18145 NMatT0=    0 NMatD0=    1 NMtDS0=    0 NMtDT0=    0
 Symmetry not used in FoFCou.
 Integral accuracy reduced to 1.0D-05 until final iterations.

 Cycle   1  Pass 0  IDiag  1:
 E= -706.138528203057    
 DIIS: error= 6.05D-02 at cycle   1 NSaved=   1.
 NSaved= 1 IEnMin= 1 EnMin= -706.138528203057     IErMin= 1 ErrMin= 6.05D-02
 ErrMax= 6.05D-02  0.00D+00 EMaxC= 1.00D-01 BMatC= 5.04D-01 BMatP= 5.04D-01
 IDIUse=3 WtCom= 3.95D-01 WtEn= 6.05D-01
 Coeff-Com:  0.100D+01
 Coeff-En:   0.100D+01
 Coeff:      0.100D+01
 Gap=     0.165 Goal=   None    Shift=    0.000
 GapD=    0.165 DampG=1.000 DampE=0.500 DampFc=0.5000 IDamp=-1.
 Damping current iteration by 5.00D-01
 RMSDP=7.88D-03 MaxDP=2.80D-01              OVMax= 3.24D-01

 Cycle   2  Pass 0  IDiag  1:
 E= -706.179726671745     Delta-E=       -0.041198468689 Rises=F Damp=T
 DIIS: error= 1.77D-02 at cycle   2 NSaved=   2.
 NSaved= 2 IEnMin= 2 EnMin= -706.179726671745     IErMin= 2 ErrMin= 1.77D-02
 ErrMax= 1.77D-02  0.00D+00 EMaxC= 1.00D-01 BMatC= 1.13D-01 BMatP= 5.04D-01
 IDIUse=3 WtCom= 8.23D-01 WtEn= 1.77D-01
 Coeff-Com:  0.296D+00 0.704D+00
 Coeff-En:   0.453D+00 0.547D+00
 Coeff:      0.324D+00 0.676D+00
 Gap=     0.178 Goal=   None    Shift=    0.000
 RMSDP=2.13D-03 MaxDP=8.84D-02 DE=-4.12D-02 OVMax= 1.84D-01

 Cycle   3  Pass 0  IDiag  1:
 E= -706.475284477578     Delta-E=       -0.295557805832 Rises=F Damp=F
 DIIS: error= 7.33D-03 at cycle   3 NSaved=   3.
 NSaved= 3 IEnMin= 3 EnMin= -706.475284477578     IErMin= 3 ErrMin= 7.33D-03
 ErrMax= 7.33D-03  0.00D+00 EMaxC= 1.00D-01 BMatC= 2.08D-02 BMatP= 1.13D-01
 IDIUse=3 WtCom= 9.27D-01 WtEn= 7.33D-02
 Coeff-Com:  0.137D+00 0.309D+00 0.554D+00
 Coeff-En:   0.000D+00 0.000D+00 0.100D+01
 Coeff:      0.127D+00 0.286D+00 0.587D+00
 Gap=     0.190 Goal=   None    Shift=    0.000
 RMSDP=1.25D-03 MaxDP=4.60D-02 DE=-2.96D-01 OVMax= 6.71D-02

 Cycle   4  Pass 0  IDiag  1:
 E= -706.477469295564     Delta-E=       -0.002184817986 Rises=F Damp=F
 DIIS: error= 1.05D-02 at cycle   4 NSaved=   4.
 NSaved= 4 IEnMin= 4 EnMin= -706.477469295564     IErMin= 3 ErrMin= 7.33D-03
 ErrMax= 1.05D-02  0.00D+00 EMaxC= 1.00D-01 BMatC= 1.89D-02 BMatP= 2.08D-02
 IDIUse=3 WtCom= 8.95D-01 WtEn= 1.05D-01
 Coeff-Com:  0.468D-01 0.826D-01 0.457D+00 0.413D+00
 Coeff-En:   0.000D+00 0.000D+00 0.475D+00 0.525D+00
 Coeff:      0.419D-01 0.740D-01 0.459D+00 0.425D+00
 Gap=     0.185 Goal=   None    Shift=    0.000
 RMSDP=7.18D-04 MaxDP=3.36D-02 DE=-2.18D-03 OVMax= 7.22D-02

 Cycle   5  Pass 0  IDiag  1:
 E= -706.491130178653     Delta-E=       -0.013660883089 Rises=F Damp=F
 DIIS: error= 4.06D-03 at cycle   5 NSaved=   5.
 NSaved= 5 IEnMin= 5 EnMin= -706.491130178653     IErMin= 5 ErrMin= 4.06D-03
 ErrMax= 4.06D-03  0.00D+00 EMaxC= 1.00D-01 BMatC= 2.40D-03 BMatP= 1.89D-02
 IDIUse=3 WtCom= 9.59D-01 WtEn= 4.06D-02
 Coeff-Com:  0.166D-01 0.175D-01 0.260D+00 0.307D+00 0.398D+00
 Coeff-En:   0.000D+00 0.000D+00 0.000D+00 0.101D+00 0.899D+00
 Coeff:      0.159D-01 0.168D-01 0.250D+00 0.299D+00 0.419D+00
 Gap=     0.185 Goal=   None    Shift=    0.000
 RMSDP=2.67D-04 MaxDP=1.20D-02 DE=-1.37D-02 OVMax= 2.55D-02

 Cycle   6  Pass 0  IDiag  1:
 E= -706.492840574530     Delta-E=       -0.001710395877 Rises=F Damp=F
 DIIS: error= 1.11D-03 at cycle   6 NSaved=   6.
 NSaved= 6 IEnMin= 6 EnMin= -706.492840574530     IErMin= 6 ErrMin= 1.11D-03
 ErrMax= 1.11D-03  0.00D+00 EMaxC= 1.00D-01 BMatC= 2.62D-04 BMatP= 2.40D-03
 IDIUse=3 WtCom= 9.89D-01 WtEn= 1.11D-02
 Coeff-Com:  0.357D-02-0.159D-02 0.950D-01 0.129D+00 0.282D+00 0.492D+00
 Coeff-En:   0.000D+00 0.000D+00 0.000D+00 0.000D+00 0.118D+00 0.882D+00
 Coeff:      0.353D-02-0.157D-02 0.940D-01 0.127D+00 0.280D+00 0.496D+00
 Gap=     0.183 Goal=   None    Shift=    0.000
 RMSDP=8.31D-05 MaxDP=2.93D-03 DE=-1.71D-03 OVMax= 6.10D-03

 Cycle   7  Pass 0  IDiag  1:
 E= -706.493037640294     Delta-E=       -0.000197065764 Rises=F Damp=F
 DIIS: error= 2.09D-04 at cycle   7 NSaved=   7.
 NSaved= 7 IEnMin= 7 EnMin= -706.493037640294     IErMin= 7 ErrMin= 2.09D-04
 ErrMax= 2.09D-04  0.00D+00 EMaxC= 1.00D-01 BMatC= 1.88D-05 BMatP= 2.62D-04
 IDIUse=3 WtCom= 9.98D-01 WtEn= 2.09D-03
 Coeff-Com:  0.832D-03-0.220D-02 0.351D-01 0.497D-01 0.133D+00 0.301D+00
 Coeff-Com:  0.482D+00
 Coeff-En:   0.000D+00 0.000D+00 0.000D+00 0.000D+00 0.000D+00 0.163D-01
 Coeff-En:   0.984D+00
 Coeff:      0.831D-03-0.219D-02 0.351D-01 0.496D-01 0.133D+00 0.301D+00
 Coeff:      0.483D+00
 Gap=     0.184 Goal=   None    Shift=    0.000
 RMSDP=2.42D-05 MaxDP=7.67D-04 DE=-1.97D-04 OVMax= 1.47D-03

 Cycle   8  Pass 0  IDiag  1:
 E= -706.493051755079     Delta-E=       -0.000014114785 Rises=F Damp=F
 DIIS: error= 1.21D-04 at cycle   8 NSaved=   8.
 NSaved= 8 IEnMin= 8 EnMin= -706.493051755079     IErMin= 8 ErrMin= 1.21D-04
 ErrMax= 1.21D-04  0.00D+00 EMaxC= 1.00D-01 BMatC= 2.29D-06 BMatP= 1.88D-05
 IDIUse=3 WtCom= 9.99D-01 WtEn= 1.21D-03
 Coeff-Com:  0.909D-04-0.135D-02 0.124D-01 0.177D-01 0.544D-01 0.139D+00
 Coeff-Com:  0.312D+00 0.466D+00
 Coeff-En:   0.000D+00 0.000D+00 0.000D+00 0.000D+00 0.000D+00 0.000D+00
 Coeff-En:   0.672D-01 0.933D+00
 Coeff:      0.908D-04-0.135D-02 0.124D-01 0.177D-01 0.544D-01 0.139D+00
 Coeff:      0.312D+00 0.466D+00
 Gap=     0.184 Goal=   None    Shift=    0.000
 RMSDP=8.76D-06 MaxDP=4.19D-04 DE=-1.41D-05 OVMax= 7.82D-04

 Initial convergence to 1.0D-05 achieved.  Increase integral accuracy.
 Cycle   9  Pass 1  IDiag  1:
 E= -706.493103596105     Delta-E=       -0.000051841026 Rises=F Damp=F
 DIIS: error= 6.10D-05 at cycle   1 NSaved=   1.
 NSaved= 1 IEnMin= 1 EnMin= -706.493103596105     IErMin= 1 ErrMin= 6.10D-05
 ErrMax= 6.10D-05  0.00D+00 EMaxC= 1.00D-01 BMatC= 5.02D-07 BMatP= 5.02D-07
 IDIUse=1 WtCom= 1.00D+00 WtEn= 0.00D+00
 Coeff-Com:  0.100D+01
 Coeff:      0.100D+01
 Gap=     0.184 Goal=   None    Shift=    0.000
 RMSDP=8.76D-06 MaxDP=4.19D-04 DE=-5.18D-05 OVMax= 9.72D-04

 Cycle  10  Pass 1  IDiag  1:
 E= -706.493101709882     Delta-E=        0.000001886223 Rises=F Damp=F
 DIIS: error= 1.70D-04 at cycle   2 NSaved=   2.
 NSaved= 2 IEnMin= 1 EnMin= -706.493103596105     IErMin= 1 ErrMin= 6.10D-05
 ErrMax= 1.70D-04  0.00D+00 EMaxC= 1.00D-01 BMatC= 2.89D-06 BMatP= 5.02D-07
 IDIUse=3 WtCom= 4.34D-01 WtEn= 5.66D-01
 Coeff-Com:  0.715D+00 0.285D+00
 Coeff-En:   0.796D+00 0.204D+00
 Coeff:      0.761D+00 0.239D+00
 Gap=     0.184 Goal=   None    Shift=    0.000
 RMSDP=6.47D-06 MaxDP=3.14D-04 DE= 1.89D-06 OVMax= 6.57D-04

 Cycle  11  Pass 1  IDiag  1:
 E= -706.493103977029     Delta-E=       -0.000002267147 Rises=F Damp=F
 DIIS: error= 1.40D-05 at cycle   3 NSaved=   3.
 NSaved= 3 IEnMin= 3 EnMin= -706.493103977029     IErMin= 3 ErrMin= 1.40D-05
 ErrMax= 1.40D-05  0.00D+00 EMaxC= 1.00D-01 BMatC= 5.32D-08 BMatP= 5.02D-07
 IDIUse=1 WtCom= 1.00D+00 WtEn= 0.00D+00
 Coeff-Com:  0.267D+00 0.264D-01 0.707D+00
 Coeff:      0.267D+00 0.264D-01 0.707D+00
 Gap=     0.184 Goal=   None    Shift=    0.000
 RMSDP=1.49D-06 MaxDP=5.29D-05 DE=-2.27D-06 OVMax= 7.84D-05

 Cycle  12  Pass 1  IDiag  1:
 E= -706.493104010794     Delta-E=       -0.000000033765 Rises=F Damp=F
 DIIS: error= 4.86D-06 at cycle   4 NSaved=   4.
 NSaved= 4 IEnMin= 4 EnMin= -706.493104010794     IErMin= 4 ErrMin= 4.86D-06
 ErrMax= 4.86D-06  0.00D+00 EMaxC= 1.00D-01 BMatC= 1.41D-08 BMatP= 5.32D-08
 IDIUse=1 WtCom= 1.00D+00 WtEn= 0.00D+00
 Coeff-Com:  0.774D-02-0.518D-01 0.483D+00 0.561D+00
 Coeff:      0.774D-02-0.518D-01 0.483D+00 0.561D+00
 Gap=     0.184 Goal=   None    Shift=    0.000
 RMSDP=6.42D-07 MaxDP=2.24D-05 DE=-3.38D-08 OVMax= 3.46D-05

 Cycle  13  Pass 1  IDiag  1:
 E= -706.493104021455     Delta-E=       -0.000000010660 Rises=F Damp=F
 DIIS: error= 2.41D-06 at cycle   5 NSaved=   5.
 NSaved= 5 IEnMin= 5 EnMin= -706.493104021455     IErMin= 5 ErrMin= 2.41D-06
 ErrMax= 2.41D-06  0.00D+00 EMaxC= 1.00D-01 BMatC= 1.62D-09 BMatP= 1.41D-08
 IDIUse=1 WtCom= 1.00D+00 WtEn= 0.00D+00
 Coeff-Com: -0.113D-01-0.374D-01 0.290D+00 0.377D+00 0.382D+00
 Coeff:     -0.113D-01-0.374D-01 0.290D+00 0.377D+00 0.382D+00
 Gap=     0.184 Goal=   None    Shift=    0.000
 RMSDP=1.94D-07 MaxDP=8.44D-06 DE=-1.07D-08 OVMax= 1.76D-05

 Cycle  14  Pass 1  IDiag  1:
 E= -706.493104022611     Delta-E=       -0.000000001157 Rises=F Damp=F
 DIIS: error= 1.03D-06 at cycle   6 NSaved=   6.
 NSaved= 6 IEnMin= 6 EnMin= -706.493104022611     IErMin= 6 ErrMin= 1.03D-06
 ErrMax= 1.03D-06  0.00D+00 EMaxC= 1.00D-01 BMatC= 1.27D-10 BMatP= 1.62D-09
 IDIUse=1 WtCom= 1.00D+00 WtEn= 0.00D+00
 Coeff-Com: -0.814D-02-0.236D-01 0.179D+00 0.234D+00 0.275D+00 0.344D+00
 Coeff:     -0.814D-02-0.236D-01 0.179D+00 0.234D+00 0.275D+00 0.344D+00
 Gap=     0.184 Goal=   None    Shift=    0.000
 RMSDP=5.62D-08 MaxDP=2.88D-06 DE=-1.16D-09 OVMax= 5.72D-06

 Cycle  15  Pass 1  IDiag  1:
 E= -706.493104022708     Delta-E=       -0.000000000097 Rises=F Damp=F
 DIIS: error= 1.82D-07 at cycle   7 NSaved=   7.
 NSaved= 7 IEnMin= 7 EnMin= -706.493104022708     IErMin= 7 ErrMin= 1.82D-07
 ErrMax= 1.82D-07  0.00D+00 EMaxC= 1.00D-01 BMatC= 9.14D-12 BMatP= 1.27D-10
 IDIUse=1 WtCom= 1.00D+00 WtEn= 0.00D+00
 Coeff-Com: -0.259D-02-0.644D-02 0.474D-01 0.595D-01 0.892D-01 0.215D+00
 Coeff-Com:  0.597D+00
 Coeff:     -0.259D-02-0.644D-02 0.474D-01 0.595D-01 0.892D-01 0.215D+00
 Coeff:      0.597D+00
 Gap=     0.184 Goal=   None    Shift=    0.000
 RMSDP=1.99D-08 MaxDP=5.56D-07 DE=-9.69D-11 OVMax= 1.11D-06

 Cycle  16  Pass 1  IDiag  1:
 E= -706.493104022732     Delta-E=       -0.000000000024 Rises=F Damp=F
 DIIS: error= 7.22D-08 at cycle   8 NSaved=   8.
 NSaved= 8 IEnMin= 8 EnMin= -706.493104022732     IErMin= 8 ErrMin= 7.22D-08
 ErrMax= 7.22D-08  0.00D+00 EMaxC= 1.00D-01 BMatC= 1.89D-12 BMatP= 9.14D-12
 IDIUse=1 WtCom= 1.00D+00 WtEn= 0.00D+00
 Coeff-Com: -0.779D-03-0.150D-02 0.104D-01 0.115D-01 0.254D-01 0.938D-01
 Coeff-Com:  0.393D+00 0.468D+00
 Coeff:     -0.779D-03-0.150D-02 0.104D-01 0.115D-01 0.254D-01 0.938D-01
 Coeff:      0.393D+00 0.468D+00
 Gap=     0.184 Goal=   None    Shift=    0.000
 RMSDP=7.43D-09 MaxDP=2.38D-07 DE=-2.36D-11 OVMax= 2.98D-07

 SCF Done:  E(RB3LYP) =  -706.493104023     A.U. after   16 cycles
            NFock= 16  Conv=0.74D-08     -V/T= 2.0069
 KE= 7.016738550238D+02 PE=-3.107256101380D+03 EE= 9.720932519195D+02
 Leave Link  502 at Fri Aug 20 15:56:50 2021, MaxMem= 24159191040 cpu:        80.1
 (Enter /public/home/users/caep010/software/Gaussian09/g09/l601.exe)
 Copying SCF densities to generalized density rwf, IOpCl= 0 IROHF=0.

 **********************************************************************

            Population analysis using the SCF density.

 **********************************************************************

 Orbital symmetries:
       Occupied  (A) (A) (A) (A) (A) (A) (A) (A) (A) (A) (A) (A)
                 (A) (A) (A) (A) (A) (A) (A) (A) (A) (A) (A) (A)
                 (A) (A) (A) (A) (A) (A) (A) (A) (A) (A) (A) (A)
                 (A) (A) (A) (A) (A) (A) (A) (A)
       Virtual   (A) (A) (A) (A) (A) (A) (A) (A) (A) (A) (A) (A)
                 (A) (A) (A) (A) (A) (A) (A) (A) (A) (A) (A) (A)
                 (A) (A) (A) (A) (A) (A) (A) (A) (A) (A) (A) (A)
                 (A) (A) (A) (A) (A) (A) (A) (A) (A) (A) (A) (A)
                 (A) (A) (A) (A) (A) (A) (A) (A) (A) (A) (A) (A)
                 (A) (A) (A) (A) (A) (A) (A) (A) (A) (A) (A) (A)
                 (A) (A) (A) (A) (A) (A) (A) (A) (A) (A) (A) (A)
                 (A) (A) (A) (A) (A) (A) (A) (A) (A) (A) (A) (A)
                 (A) (A) (A) (A) (A) (A) (A) (A) (A) (A) (A) (A)
                 (A) (A) (A) (A) (A) (A) (A) (A) (A) (A) (A) (A)
                 (A) (A) (A) (A) (A) (A) (A) (A) (A) (A) (A) (A)
                 (A) (A) (A) (A) (A) (A) (A) (A) (A) (A) (A) (A)
                 (A) (A)
 The electronic state is 1-A.
 Alpha  occ. eigenvalues --  -19.21283 -19.21270 -19.19853 -19.19351 -14.63049
 Alpha  occ. eigenvalues --  -14.61113 -14.49806 -14.44871 -14.43654 -14.42165
 Alpha  occ. eigenvalues --  -10.32892 -10.31031  -1.28339  -1.27533  -1.18883
 Alpha  occ. eigenvalues --   -1.09746  -1.09049  -1.04575  -0.96566  -0.92614
 Alpha  occ. eigenvalues --   -0.81594  -0.78358  -0.70617  -0.65154  -0.62935
 Alpha  occ. eigenvalues --   -0.59368  -0.58833  -0.58206  -0.57911  -0.57467
 Alpha  occ. eigenvalues --   -0.53589  -0.53478  -0.51780  -0.41563  -0.40646
 Alpha  occ. eigenvalues --   -0.36296  -0.35087  -0.34881  -0.34197  -0.33626
 Alpha  occ. eigenvalues --   -0.32871  -0.32336  -0.30726  -0.29872
 Alpha virt. eigenvalues --   -0.11484  -0.07319  -0.03745   0.04717   0.07013
 Alpha virt. eigenvalues --    0.10363   0.12066   0.15402   0.16983   0.20379
 Alpha virt. eigenvalues --    0.23172   0.24733   0.26617   0.28774   0.35188
 Alpha virt. eigenvalues --    0.35994   0.39345   0.45297   0.47655   0.47802
 Alpha virt. eigenvalues --    0.50375   0.54090   0.56017   0.56799   0.58500
 Alpha virt. eigenvalues --    0.59799   0.60613   0.64166   0.65974   0.67103
 Alpha virt. eigenvalues --    0.68228   0.70277   0.72014   0.72364   0.72603
 Alpha virt. eigenvalues --    0.76234   0.76769   0.77165   0.79951   0.81093
 Alpha virt. eigenvalues --    0.84558   0.84798   0.86914   0.89483   0.91032
 Alpha virt. eigenvalues --    0.92069   0.93275   0.94150   0.96836   0.97623
 Alpha virt. eigenvalues --    0.98606   0.99123   1.00968   1.06634   1.11415
 Alpha virt. eigenvalues --    1.12342   1.15231   1.19976   1.23363   1.23658
 Alpha virt. eigenvalues --    1.25524   1.28258   1.30776   1.32831   1.33183
 Alpha virt. eigenvalues --    1.35030   1.37525   1.38761   1.39521   1.42224
 Alpha virt. eigenvalues --    1.49478   1.52643   1.56224   1.62123   1.67330
 Alpha virt. eigenvalues --    1.68495   1.69224   1.73577   1.73951   1.75799
 Alpha virt. eigenvalues --    1.77185   1.78475   1.78935   1.79721   1.81183
 Alpha virt. eigenvalues --    1.82436   1.87714   1.93235   1.94857   1.95983
 Alpha virt. eigenvalues --    1.99538   2.01020   2.04791   2.06212   2.07664
 Alpha virt. eigenvalues --    2.09647   2.12698   2.14170   2.15814   2.19522
 Alpha virt. eigenvalues --    2.23761   2.29059   2.31918   2.33705   2.33717
 Alpha virt. eigenvalues --    2.35877   2.45544   2.48123   2.50666   2.51808
 Alpha virt. eigenvalues --    2.57064   2.59489   2.63338   2.64091   2.67585
 Alpha virt. eigenvalues --    2.69730   2.71214   2.73849   2.77644   2.79361
 Alpha virt. eigenvalues --    2.82442   2.83549   2.85673   2.87370   2.87999
 Alpha virt. eigenvalues --    2.92499   3.00853   3.10394   3.13881   3.25479
 Alpha virt. eigenvalues --    3.31792   3.47783   3.55732   3.66977   3.70968
 Alpha virt. eigenvalues --    3.72501   3.83149   3.89270   3.93593   3.99080
 Alpha virt. eigenvalues --    4.02897   4.10352   4.18751   4.26161   4.53843
 Alpha virt. eigenvalues --    4.56470
          Condensed to atoms (all electrons):
               1          2          3          4          5          6
     1  N    6.927680   0.380753  -0.064215   0.252270  -0.041074  -0.102845
     2  C    0.380753   5.080719   0.361924  -0.122081   0.006318  -0.036121
     3  C   -0.064215   0.361924   4.752892  -0.100853   0.005472   0.400280
     4  N    0.252270  -0.122081  -0.100853   6.312954   0.411118   0.225014
     5  H   -0.041074   0.006318   0.005472   0.411118   0.386799  -0.039228
     6  N   -0.102845  -0.036121   0.400280   0.225014  -0.039228   6.956400
     7  N    0.006677  -0.062770   0.152446   0.005834  -0.000157  -0.070416
     8  H    0.000321  -0.006267  -0.029803  -0.000161   0.000005   0.003527
     9  N   -0.000047   0.002603  -0.033077   0.000029  -0.000002  -0.003602
    10  O   -0.000037   0.000850   0.018159   0.000528   0.000007  -0.008702
    11  O   -0.000000  -0.000140   0.007310   0.000002  -0.000000   0.000017
    12  N   -0.061474   0.094921  -0.055051   0.005153  -0.000127   0.005487
    13  O   -0.000961  -0.086372   0.004238   0.000334   0.000014  -0.000060
    14  O    0.003753  -0.079429  -0.012007  -0.000068   0.000004   0.000077
               7          8          9         10         11         12
     1  N    0.006677   0.000321  -0.000047  -0.000037  -0.000000  -0.061474
     2  C   -0.062770  -0.006267   0.002603   0.000850  -0.000140   0.094921
     3  C    0.152446  -0.029803  -0.033077   0.018159   0.007310  -0.055051
     4  N    0.005834  -0.000161   0.000029   0.000528   0.000002   0.005153
     5  H   -0.000157   0.000005  -0.000002   0.000007  -0.000000  -0.000127
     6  N   -0.070416   0.003527  -0.003602  -0.008702   0.000017   0.005487
     7  N    7.098157   0.363579   0.159184  -0.122803  -0.124560  -0.007920
     8  H    0.363579   0.393587  -0.013346   0.005734   0.011576  -0.001252
     9  N    0.159184  -0.013346   5.542037   0.356691   0.330090  -0.000022
    10  O   -0.122803   0.005734   0.356691   8.247054  -0.106874  -0.000001
    11  O   -0.124560   0.011576   0.330090  -0.106874   8.296136   0.000006
    12  N   -0.007920  -0.001252  -0.000022  -0.000001   0.000006   6.055096
    13  O   -0.000040   0.000175   0.000001  -0.000000  -0.000000   0.309533
    14  O   -0.006492   0.028886   0.000397  -0.000003  -0.000023   0.285441
              13         14
     1  N   -0.000961   0.003753
     2  C   -0.086372  -0.079429
     3  C    0.004238  -0.012007
     4  N    0.000334  -0.000068
     5  H    0.000014   0.000004
     6  N   -0.000060   0.000077
     7  N   -0.000040  -0.006492
     8  H    0.000175   0.028886
     9  N    0.000001   0.000397
    10  O   -0.000000  -0.000003
    11  O   -0.000000  -0.000023
    12  N    0.309533   0.285441
    13  O    8.231255  -0.091562
    14  O   -0.091562   8.289856
 Mulliken charges:
               1
     1  N   -0.300801
     2  C    0.465092
     3  C    0.592285
     4  N    0.009927
     5  H    0.270852
     6  N   -0.329828
     7  N   -0.390718
     8  H    0.243439
     9  N    0.659067
    10  O   -0.390603
    11  O   -0.413540
    12  N    0.370210
    13  O   -0.366554
    14  O   -0.418829
 Sum of Mulliken charges =  -0.00000
 Mulliken charges with hydrogens summed into heavy atoms:
               1
     1  N   -0.300801
     2  C    0.465092
     3  C    0.592285
     4  N    0.280779
     6  N   -0.329828
     7  N   -0.147280
     9  N    0.659067
    10  O   -0.390603
    11  O   -0.413540
    12  N    0.370210
    13  O   -0.366554
    14  O   -0.418829
 Electronic spatial extent (au):  <R**2>=           1958.9762
 Charge=              0.0000 electrons
 Dipole moment (field-independent basis, Debye):
    X=              1.6575    Y=              3.0021    Z=              0.3952  Tot=              3.4520
 Quadrupole moment (field-independent basis, Debye-Ang):
   XX=            -86.8027   YY=            -61.1344   ZZ=            -62.0846
   XY=              6.2853   XZ=             -0.4984   YZ=             -0.6225
 Traceless Quadrupole moment (field-independent basis, Debye-Ang):
   XX=            -16.7955   YY=              8.8729   ZZ=              7.9227
   XY=              6.2853   XZ=             -0.4984   YZ=             -0.6225
 Octapole moment (field-independent basis, Debye-Ang**2):
  XXX=              3.3123  YYY=             39.4926  ZZZ=             -0.3951  XYY=             12.9064
  XXY=              8.4972  XXZ=              0.5178  XZZ=             -1.8069  YZZ=             -4.3120
  YYZ=              1.1159  XYZ=             -0.3815
 Hexadecapole moment (field-independent basis, Debye-Ang**3):
 XXXX=          -1793.3339 YYYY=           -577.8101 ZZZZ=            -51.2309 XXXY=            -16.4691
 XXXZ=             -5.4464 YYYX=             53.9454 YYYZ=             -3.5559 ZZZX=              0.5505
 ZZZY=             -0.2328 XXYY=           -408.9258 XXZZ=           -250.5209 YYZZ=           -121.4750
 XXYZ=              2.5079 YYXZ=              0.8962 ZZXY=             -3.2698
 N-N= 7.269958904136D+02 E-N=-3.107256094082D+03  KE= 7.016738550238D+02
 No NMR shielding tensors so no spin-rotation constants.
 Leave Link  601 at Fri Aug 20 15:56:51 2021, MaxMem= 24159191040 cpu:        11.4
 (Enter /public/home/users/caep010/software/Gaussian09/g09/l701.exe)
 Compute integral first derivatives.
 ... and contract with generalized density number  0.
 Leave Link  701 at Fri Aug 20 15:56:51 2021, MaxMem= 24159191040 cpu:        10.8
 (Enter /public/home/users/caep010/software/Gaussian09/g09/l702.exe)
 L702 exits ... SP integral derivatives will be done elsewhere.
 Leave Link  702 at Fri Aug 20 15:56:51 2021, MaxMem= 24159191040 cpu:         0.5
 (Enter /public/home/users/caep010/software/Gaussian09/g09/l703.exe)
 Compute integral first derivatives, UseDBF=F ICtDFT=           0.
 Integral derivatives from FoFJK, PRISM(SPDF).
 Calling FoFJK, ICntrl=      2127 FMM=F ISym2X=0 I1Cent= 0 IOpClX= 0 NMat=1 NMatS=1 NMatT=0.
 FoFJK:  IHMeth= 1 ICntrl=    2127 DoSepK=F KAlg= 0 I1Cent=   0 FoldK=F
 IRaf=         0 NMat=   1 IRICut=       1 DoRegI=T DoRafI=F ISym2E= 0.
 FoFCou: FMM=F IPFlag=           0 FMFlag=      100000 FMFlg1=         800
         NFxFlg=           0 DoJE=F BraDBF=F KetDBF=F FulRan=T
         wScrn=  0.000000 ICntrl=    2127 IOpCl=  0 I1Cent=           0 NGrid=           0
         NMat0=    1 NMatS0=      1 NMatT0=    0 NMatD0=    1 NMtDS0=    0 NMtDT0=    0
 Symmetry not used in FoFCou.
 Leave Link  703 at Fri Aug 20 15:56:52 2021, MaxMem= 24159191040 cpu:        18.5
 (Enter /public/home/users/caep010/software/Gaussian09/g09/l716.exe)
 Dipole        = 6.52110426D-01 1.18113381D+00 1.55471579D-01
 ***** Axes restored to original set *****
 -------------------------------------------------------------------
 Center     Atomic                   Forces (Hartrees/Bohr)
 Number     Number              X              Y              Z
 -------------------------------------------------------------------
      1        7           0.003748139   -0.014261202   -0.009982308
      2        6           0.005743471   -0.014830641   -0.005592571
      3        6          -0.007626377    0.020562878    0.004841013
      4        7           0.189068042    0.079676419    0.075358966
      5        1          -0.198290031   -0.079823686   -0.074763749
      6        7          -0.010366988    0.006293935    0.002357062
      7        7          -0.213272232   -0.034774226   -0.012567123
      8        1           0.226118459    0.011549481    0.003585229
      9        7          -0.002690957    0.025545218    0.010687943
     10        8          -0.022496555   -0.005367695   -0.000959716
     11        8           0.015796567    0.006698279    0.005502231
     12        7          -0.004834144   -0.002655253    0.000117857
     13        8           0.005047914   -0.019039411   -0.012064573
     14        8           0.014054692    0.020425904    0.013479740
 -------------------------------------------------------------------
 Cartesian Forces:  Max     0.226118459 RMS     0.069253803
 Leave Link  716 at Fri Aug 20 15:56:52 2021, MaxMem= 24159191040 cpu:         0.7
 (Enter /public/home/users/caep010/software/Gaussian09/g09/l103.exe)

 GradGradGradGradGradGradGradGradGradGradGradGradGradGradGradGradGradGrad
 Berny optimization.
 FormGI is forming the generalized inverse of G from B-inverse, IUseBI=4.
 Internal  Forces:  Max     0.226444843 RMS     0.043075662
 Search for a local minimum.
 Step number   1 out of a maximum of   68
 All quantities printed in internal units (Hartrees-Bohrs-Radians)
 RMS Force = .43076D-01 SwitMx=.10000D-02 MixMth= 1
 Mixed Optimization -- RFO/linear search
 Second derivative matrix not updated -- first step.
 ITU=  0
     Eigenvalues ---    0.01412   0.01413   0.01962   0.01978   0.01985
     Eigenvalues ---    0.01994   0.01998   0.02206   0.02372   0.02443
     Eigenvalues ---    0.02542   0.16000   0.16000   0.22000   0.23441
     Eigenvalues ---    0.24933   0.24991   0.24999   0.25000   0.25000
     Eigenvalues ---    0.25000   0.25000   0.42285   0.44027   0.49179
     Eigenvalues ---    0.54473   0.55629   0.56575   0.60749   0.64905
     Eigenvalues ---    0.84139   0.84194   0.94138   0.95161   1.01024
     Eigenvalues ---    1.01170
 RFO step:  Lambda=-1.14968238D-01 EMin= 1.41181085D-02
 Linear search not attempted -- first point.
 Maximum step size (   0.300) exceeded in Quadratic search.
    -- Step size scaled by   0.849
 Iteration  1 RMS(Cart)=  0.05022055 RMS(Int)=  0.00076272
 Iteration  2 RMS(Cart)=  0.00075066 RMS(Int)=  0.00003638
 Iteration  3 RMS(Cart)=  0.00000080 RMS(Int)=  0.00003638
 ITry= 1 IFail=0 DXMaxC= 1.88D-01 DCOld= 1.00D+10 DXMaxT= 3.00D-01 DXLimC= 3.00D+00 Rises=F
 Variable       Old X    -DE/DX   Delta X   Delta X   Delta X     New X
                                 (Linear)    (Quad)   (Total)
    R1        2.49847   0.01051   0.00000   0.01261   0.01262   2.51108
    R2        2.45556   0.01544   0.00000   0.01654   0.01654   2.47210
    R3        2.62282   0.02580   0.00000   0.03739   0.03740   2.66022
    R4        2.68561   0.01418   0.00000   0.02239   0.02239   2.70800
    R5        2.50852   0.00825   0.00000   0.00959   0.00959   2.51812
    R6        2.60703   0.00718   0.00000   0.01005   0.01005   2.61707
    R7        1.62430   0.22644   0.00000   0.20094   0.20094   1.82524
    R8        2.51504   0.01030   0.00000   0.01194   0.01193   2.52697
    R9        1.62458   0.22623   0.00000   0.20087   0.20087   1.82544
   R10        2.54577   0.03158   0.00000   0.03995   0.03995   2.58572
   R11        2.28174   0.02238   0.00000   0.01686   0.01686   2.29860
   R12        2.30642   0.01631   0.00000   0.01298   0.01298   2.31940
   R13        2.28232   0.02299   0.00000   0.01735   0.01735   2.29966
   R14        2.31082   0.02786   0.00000   0.02239   0.02239   2.33322
    A1        1.79141  -0.00258   0.00000  -0.00536  -0.00535   1.78606
    A2        1.91471  -0.00094   0.00000  -0.00115  -0.00114   1.91357
    A3        2.11587   0.00537   0.00000   0.01198   0.01197   2.12784
    A4        2.25256  -0.00442   0.00000  -0.01080  -0.01081   2.24176
    A5        1.88441  -0.00080   0.00000  -0.00171  -0.00172   1.88269
    A6        2.19582  -0.00504   0.00000  -0.01165  -0.01167   2.18416
    A7        2.20084   0.00593   0.00000   0.01392   0.01391   2.21474
    A8        2.11964  -0.00096   0.00000  -0.00125  -0.00125   2.11840
    A9        2.04303   0.00448   0.00000   0.01039   0.01038   2.05342
   A10        2.12051  -0.00352   0.00000  -0.00914  -0.00914   2.11137
   A11        1.79099  -0.00016   0.00000  -0.00217  -0.00218   1.78881
   A12        2.05476   0.00141   0.00000   0.00722   0.00721   2.06197
   A13        2.17425   0.01041   0.00000   0.02638   0.02637   2.20061
   A14        2.05418  -0.01182   0.00000  -0.03362  -0.03363   2.02054
   A15        2.07694  -0.00196   0.00000  -0.00446  -0.00454   2.07240
   A16        2.00791  -0.00776   0.00000  -0.01796  -0.01803   1.98988
   A17        2.19805   0.00981   0.00000   0.02293   0.02285   2.22090
   A18        2.07982  -0.00081   0.00000  -0.00183  -0.00190   2.07792
   A19        2.01526  -0.00342   0.00000  -0.00791  -0.00797   2.00729
   A20        2.18801   0.00428   0.00000   0.01002   0.00995   2.19796
    D1        0.01390  -0.00056   0.00000  -0.00315  -0.00313   0.01077
    D2       -3.13705  -0.00019   0.00000  -0.00054  -0.00048  -3.13754
    D3        3.13926   0.00050   0.00000   0.00313   0.00312  -3.14081
    D4       -0.00255   0.00074   0.00000   0.00445   0.00445   0.00190
    D5       -0.02092   0.00016   0.00000   0.00099   0.00099  -0.01993
    D6       -3.09595  -0.00150   0.00000  -0.00840  -0.00834  -3.10429
    D7        3.13098  -0.00031   0.00000  -0.00205  -0.00204   3.12894
    D8        0.05595  -0.00197   0.00000  -0.01144  -0.01137   0.04458
    D9        0.10681  -0.00031   0.00000  -0.00207  -0.00208   0.10473
   D10       -3.02065  -0.00341   0.00000  -0.02248  -0.02249  -3.04314
   D11       -3.04613   0.00017   0.00000   0.00119   0.00120  -3.04494
   D12        0.10960  -0.00293   0.00000  -0.01922  -0.01922   0.09038
   D13        0.01768   0.00024   0.00000   0.00147   0.00146   0.01914
   D14        3.09247   0.00137   0.00000   0.00965   0.00974   3.10221
   D15        0.14305  -0.00119   0.00000  -0.00745  -0.00748   0.13557
   D16       -2.99687   0.00041   0.00000   0.00264   0.00271  -2.99416
   D17       -2.92016  -0.00279   0.00000  -0.01767  -0.01773  -2.93789
   D18        0.22310  -0.00119   0.00000  -0.00758  -0.00754   0.21556
   D19       -0.01002  -0.00070   0.00000  -0.00395  -0.00395  -0.01397
   D20        3.13136  -0.00045   0.00000  -0.00262  -0.00263   3.12874
   D21       -0.08275   0.00203   0.00000   0.01275   0.01281  -0.06994
   D22        3.08298  -0.00148   0.00000  -0.00933  -0.00927   3.07370
   D23        3.06052   0.00362   0.00000   0.02280   0.02275   3.08327
   D24       -0.05694   0.00011   0.00000   0.00072   0.00067  -0.05627
         Item               Value     Threshold  Converged?
 Maximum Force            0.226445     0.000450     NO 
 RMS     Force            0.043076     0.000300     NO 
 Maximum Displacement     0.187998     0.001800     NO 
 RMS     Displacement     0.050374     0.001200     NO 
 Predicted change in Energy=-6.148840D-02
 Lowest energy point so far.  Saving SCF results.
 GradGradGradGradGradGradGradGradGradGradGradGradGradGradGradGradGradGrad

 Leave Link  103 at Fri Aug 20 15:56:52 2021, MaxMem= 24159191040 cpu:         9.1
 (Enter /public/home/users/caep010/software/Gaussian09/g09/l202.exe)
                          Input orientation:                          
 ---------------------------------------------------------------------
 Center     Atomic      Atomic             Coordinates (Angstroms)
 Number     Number       Type             X           Y           Z
 ---------------------------------------------------------------------
      1          7           0        2.205082    0.616159    1.871830
      2          6           0        3.093005    1.419386    2.448155
      3          6           0        2.438996    2.552965    2.966780
      4          7           0        1.085117    1.270741    2.040759
      5          1           0        0.244816    0.921595    1.716870
      6          7           0        1.142583    2.444819    2.678240
      7          7           0        3.064838    3.616079    3.596102
      8          1           0        4.030407    3.643948    3.591431
      9          7           0        2.443162    4.645795    4.248376
     10          8           0        1.227979    4.697771    4.235052
     11          8           0        3.214404    5.430966    4.791640
     12          7           0        4.488191    1.095866    2.496303
     13          8           0        4.887794    0.112663    1.900865
     14          8           0        5.182425    1.875747    3.155296
 ---------------------------------------------------------------------
                    Distance matrix (angstroms):
                    1          2          3          4          5
     1  N    0.000000
     2  C    1.328809   0.000000
     3  C    2.237152   1.407729   0.000000
     4  N    1.308180   2.054186   2.081970   0.000000
     5  H    1.989962   2.982408   3.006338   0.965875   0.000000
     6  N    2.263448   2.215535   1.332530   1.337215   2.012568
     7  N    3.565363   2.478716   1.384895   3.440784   4.329466
     8  H    3.931456   2.671045   2.028059   4.087962   5.025524
     9  N    4.684295   3.751374   2.454067   4.255450   5.011080
    10  O    4.816545   4.173623   2.770428   4.071839   4.644067
    11  O    5.720699   4.647519   3.494891   5.422978   6.213461
    12  N    2.415093   1.433013   2.558063   3.437879   4.317884
    13  O    2.729706   2.286552   3.617714   3.977570   4.716510
    14  O    3.478278   2.252552   2.832060   4.289074   5.230627
                    6          7          8          9         10
     6  N    0.000000
     7  N    2.430922   0.000000
     8  H    3.257508   0.965983   0.000000
     9  N    3.000188   1.368305   1.988623   0.000000
    10  O    2.739845   2.225391   3.062417   1.216367   0.000000
    11  O    4.204281   2.178417   2.302129   1.227373   2.189350
    12  N    3.611906   3.096282   2.810977   4.455772   5.160034
    13  O    4.479940   4.297781   4.007880   5.660064   6.313944
    14  O    4.107523   2.776192   2.154970   4.046178   4.976679
                   11         12         13         14
    11  O    0.000000
    12  N    5.067958   0.000000
    13  O    6.280220   1.216930   0.000000
    14  O    4.380675   1.234685   2.183774   0.000000
 Stoichiometry    C2H2N6O4
 Framework group  C1[X(C2H2N6O4)]
 Deg. of freedom    36
 Full point group                 C1      NOp   1
 RotChk:  IX=0 Diff= 1.41D-02
 Largest Abelian subgroup         C1      NOp   1
 Largest concise Abelian subgroup C1      NOp   1
                         Standard orientation:                         
 ---------------------------------------------------------------------
 Center     Atomic      Atomic             Coordinates (Angstroms)
 Number     Number       Type             X           Y           Z
 ---------------------------------------------------------------------
      1          7           0        1.901660    1.363075   -0.035773
      2          6           0        1.250889    0.204927   -0.005424
      3          6           0       -0.136012    0.442482    0.036663
      4          7           0        0.925511    2.233167    0.001751
      5          1           0        1.098187    3.183421   -0.008923
      6          7           0       -0.324525    1.761455    0.056928
      7          7           0       -1.110632   -0.538040    0.118078
      8          1           0       -0.828159   -1.450225    0.263853
      9          7           0       -2.459939   -0.345122   -0.001974
     10          8           0       -2.879813    0.789812   -0.125175
     11          8           0       -3.117539   -1.380906    0.032058
     12          7           0        1.939393   -1.051698   -0.024978
     13          8           0        3.154519   -1.060930    0.040623
     14          8           0        1.210387   -2.045164   -0.102579
 ---------------------------------------------------------------------
 Rotational constants (GHZ):      1.6744073      0.7105360      0.4996528
 Leave Link  202 at Fri Aug 20 15:56:52 2021, MaxMem= 24159191040 cpu:         0.2
 (Enter /public/home/users/caep010/software/Gaussian09/g09/l301.exe)
 Standard basis: 6-31G(d,p) (6D, 7F)
 Ernie: Thresh=  0.10000D-02 Tol=  0.10000D-05 Strict=F.
 There are   190 symmetry adapted cartesian basis functions of A   symmetry.
 There are   190 symmetry adapted basis functions of A   symmetry.
   190 basis functions,   350 primitive gaussians,   190 cartesian basis functions
    44 alpha electrons       44 beta electrons
       nuclear repulsion energy       719.7576596836 Hartrees.
 IExCor=  402 DFT=T Ex+Corr=B3LYP ExCW=0 ScaHFX=  0.200000
 ScaDFX=  0.800000  0.720000  1.000000  0.810000 ScalE2=  1.000000  1.000000
 IRadAn=      0 IRanWt=     -1 IRanGd=            0 ICorTp=0 IEmpDi=  4
 NAtoms=   14 NActive=   14 NUniq=   14 SFac= 1.00D+00 NAtFMM=   60 NAOKFM=F Big=F
 Integral buffers will be    131072 words long.
 Raffenetti 2 integral format.
 Two-electron integral symmetry is turned on.
 Leave Link  301 at Fri Aug 20 15:56:52 2021, MaxMem= 24159191040 cpu:         1.7
 (Enter /public/home/users/caep010/software/Gaussian09/g09/l302.exe)
 NPDir=0 NMtPBC=     1 NCelOv=     1 NCel=       1 NClECP=     1 NCelD=      1
         NCelK=      1 NCelE2=     1 NClLst=     1 CellRange=     0.0.
 One-electron integrals computed using PRISM.
 NBasis=   190 RedAO= T EigKep=  7.34D-04  NBF=   190
 NBsUse=   190 1.00D-06 EigRej= -1.00D+00 NBFU=   190
 Precomputing XC quadrature grid using
 IXCGrd= 4 IRadAn=           0 IRanWt=          -1 IRanGd=           0 AccXCQ= 0.00D+00.
 Generated NRdTot=       0 NPtTot=           0 NUsed=           0 NTot=          32
 NSgBfM=   189   189   189   189   189 MxSgAt=    14 MxSgA2=    14.
 Leave Link  302 at Fri Aug 20 15:56:53 2021, MaxMem= 24159191040 cpu:        11.4
 (Enter /public/home/users/caep010/software/Gaussian09/g09/l303.exe)
 DipDrv:  MaxL=1.
 Leave Link  303 at Fri Aug 20 15:56:53 2021, MaxMem= 24159191040 cpu:         0.7
 (Enter /public/home/users/caep010/software/Gaussian09/g09/l401.exe)
 Initial guess from the checkpoint file:  "/public/home/users/caep010/.cache/gau_scr/Gau-98365.chk"
 B after Tr=    -0.000000    0.000000    0.000000
         Rot=    0.999985    0.000018   -0.000295    0.005423 Ang=   0.62 deg.
 Guess basis will be translated and rotated to current coordinates.
 JPrj=2 DoOrth=T DoCkMO=T.
 Generating alternative initial guess.
 ExpMin= 1.61D-01 ExpMax= 5.48D+03 ExpMxC= 8.25D+02 IAcc=1 IRadAn=         1 AccDes= 0.00D+00
 Harris functional with IExCor=  402 and IRadAn=       1 diagonalized for initial guess.
 HarFok:  IExCor=  402 AccDes= 0.00D+00 IRadAn=         1 IDoV= 1 UseB2=F ITyADJ=14
 ICtDFT=  3500011 ScaDFX=  1.000000  1.000000  1.000000  1.000000
 FoFCou: FMM=F IPFlag=           0 FMFlag=      100000 FMFlg1=           0
         NFxFlg=           0 DoJE=T BraDBF=F KetDBF=T FulRan=T
         wScrn=  0.000000 ICntrl=     500 IOpCl=  0 I1Cent=   200000004 NGrid=           0
         NMat0=    1 NMatS0=      1 NMatT0=    0 NMatD0=    1 NMtDS0=    0 NMtDT0=    0
 Petite list used in FoFCou.
 Harris En= -706.546107146552    
 Leave Link  401 at Fri Aug 20 15:56:53 2021, MaxMem= 24159191040 cpu:        13.2
 (Enter /public/home/users/caep010/software/Gaussian09/g09/l502.exe)
 Closed shell SCF:
 Using DIIS extrapolation, IDIIS=  1040.
 Integral symmetry usage will be decided dynamically.
 Keep R1 ints in memory in canonical form, NReq=168247767.
 IVT=      134342 IEndB=      134342 NGot= 24159191040 MDV= 23994427114
 LenX= 23994427114 LenY= 23994390573
 Requested convergence on RMS density matrix=1.00D-08 within 128 cycles.
 Requested convergence on MAX density matrix=1.00D-06.
 Requested convergence on             energy=1.00D-06.
 No special actions if energy rises.
 FoFCou: FMM=F IPFlag=           0 FMFlag=           0 FMFlg1=           0
         NFxFlg=           0 DoJE=F BraDBF=F KetDBF=F FulRan=T
         wScrn=  0.000000 ICntrl=     600 IOpCl=  0 I1Cent=           0 NGrid=           0
         NMat0=    1 NMatS0=  18145 NMatT0=    0 NMatD0=    1 NMtDS0=    0 NMtDT0=    0
 Symmetry not used in FoFCou.
 Integral accuracy reduced to 1.0D-05 until final iterations.

 Cycle   1  Pass 0  IDiag  1:
 E= -706.538703536409    
 DIIS: error= 4.15D-03 at cycle   1 NSaved=   1.
 NSaved= 1 IEnMin= 1 EnMin= -706.538703536409     IErMin= 1 ErrMin= 4.15D-03
 ErrMax= 4.15D-03  0.00D+00 EMaxC= 1.00D-01 BMatC= 8.49D-03 BMatP= 8.49D-03
 IDIUse=3 WtCom= 9.59D-01 WtEn= 4.15D-02
 Coeff-Com:  0.100D+01
 Coeff-En:   0.100D+01
 Coeff:      0.100D+01
 Gap=     1.734 Goal=   None    Shift=    0.000
 GapD=    1.734 DampG=2.000 DampE=1.000 DampFc=2.0000 IDamp=-1.
 RMSDP=8.52D-04 MaxDP=2.03D-02              OVMax= 2.49D-02

 Cycle   2  Pass 0  IDiag  1:
 E= -706.546513191387     Delta-E=       -0.007809654978 Rises=F Damp=F
 DIIS: error= 3.00D-03 at cycle   2 NSaved=   2.
 NSaved= 2 IEnMin= 2 EnMin= -706.546513191387     IErMin= 2 ErrMin= 3.00D-03
 ErrMax= 3.00D-03  0.00D+00 EMaxC= 1.00D-01 BMatC= 2.48D-03 BMatP= 8.49D-03
 IDIUse=3 WtCom= 9.70D-01 WtEn= 3.00D-02
 Coeff-Com:  0.284D+00 0.716D+00
 Coeff-En:   0.000D+00 0.100D+01
 Coeff:      0.276D+00 0.724D+00
 Gap=     0.182 Goal=   None    Shift=    0.000
 RMSDP=4.54D-04 MaxDP=2.06D-02 DE=-7.81D-03 OVMax= 2.87D-02

 Cycle   3  Pass 0  IDiag  1:
 E= -706.546341845530     Delta-E=        0.000171345858 Rises=F Damp=F
 DIIS: error= 3.23D-03 at cycle   3 NSaved=   3.
 NSaved= 3 IEnMin= 2 EnMin= -706.546513191387     IErMin= 2 ErrMin= 3.00D-03
 ErrMax= 3.23D-03  0.00D+00 EMaxC= 1.00D-01 BMatC= 2.84D-03 BMatP= 2.48D-03
 IDIUse=3 WtCom= 1.50D-01 WtEn= 8.50D-01
 Coeff-Com:  0.201D-01 0.513D+00 0.467D+00
 Coeff-En:   0.000D+00 0.516D+00 0.484D+00
 Coeff:      0.301D-02 0.515D+00 0.482D+00
 Gap=     0.177 Goal=   None    Shift=    0.000
 RMSDP=2.54D-04 MaxDP=1.02D-02 DE= 1.71D-04 OVMax= 1.52D-02

 Cycle   4  Pass 0  IDiag  1:
 E= -706.548530881242     Delta-E=       -0.002189035713 Rises=F Damp=F
 DIIS: error= 6.66D-04 at cycle   4 NSaved=   4.
 NSaved= 4 IEnMin= 4 EnMin= -706.548530881242     IErMin= 4 ErrMin= 6.66D-04
 ErrMax= 6.66D-04  0.00D+00 EMaxC= 1.00D-01 BMatC= 1.01D-04 BMatP= 2.48D-03
 IDIUse=3 WtCom= 9.93D-01 WtEn= 6.66D-03
 Coeff-Com: -0.149D-02 0.258D+00 0.261D+00 0.482D+00
 Coeff-En:   0.000D+00 0.000D+00 0.000D+00 0.100D+01
 Coeff:     -0.148D-02 0.257D+00 0.260D+00 0.485D+00
 Gap=     0.176 Goal=   None    Shift=    0.000
 RMSDP=6.11D-05 MaxDP=2.81D-03 DE=-2.19D-03 OVMax= 6.06D-03

 Cycle   5  Pass 0  IDiag  1:
 E= -706.548570059912     Delta-E=       -0.000039178670 Rises=F Damp=F
 DIIS: error= 5.72D-04 at cycle   5 NSaved=   5.
 NSaved= 5 IEnMin= 5 EnMin= -706.548570059912     IErMin= 5 ErrMin= 5.72D-04
 ErrMax= 5.72D-04  0.00D+00 EMaxC= 1.00D-01 BMatC= 4.59D-05 BMatP= 1.01D-04
 IDIUse=3 WtCom= 9.94D-01 WtEn= 5.72D-03
 Coeff-Com: -0.475D-02 0.100D+00 0.109D+00 0.382D+00 0.413D+00
 Coeff-En:   0.000D+00 0.000D+00 0.000D+00 0.358D+00 0.642D+00
 Coeff:     -0.472D-02 0.995D-01 0.108D+00 0.382D+00 0.415D+00
 Gap=     0.176 Goal=   None    Shift=    0.000
 RMSDP=3.32D-05 MaxDP=1.83D-03 DE=-3.92D-05 OVMax= 3.70D-03

 Cycle   6  Pass 0  IDiag  1:
 E= -706.548601601974     Delta-E=       -0.000031542062 Rises=F Damp=F
 DIIS: error= 1.52D-04 at cycle   6 NSaved=   6.
 NSaved= 6 IEnMin= 6 EnMin= -706.548601601974     IErMin= 6 ErrMin= 1.52D-04
 ErrMax= 1.52D-04  0.00D+00 EMaxC= 1.00D-01 BMatC= 5.73D-06 BMatP= 4.59D-05
 IDIUse=3 WtCom= 9.98D-01 WtEn= 1.52D-03
 Coeff-Com: -0.333D-02 0.383D-01 0.442D-01 0.216D+00 0.302D+00 0.403D+00
 Coeff-En:   0.000D+00 0.000D+00 0.000D+00 0.000D+00 0.114D+00 0.886D+00
 Coeff:     -0.332D-02 0.382D-01 0.442D-01 0.215D+00 0.302D+00 0.404D+00
 Gap=     0.176 Goal=   None    Shift=    0.000
 RMSDP=1.07D-05 MaxDP=4.38D-04 DE=-3.15D-05 OVMax= 9.23D-04

 Cycle   7  Pass 0  IDiag  1:
 E= -706.548605714856     Delta-E=       -0.000004112882 Rises=F Damp=F
 DIIS: error= 3.60D-05 at cycle   7 NSaved=   7.
 NSaved= 7 IEnMin= 7 EnMin= -706.548605714856     IErMin= 7 ErrMin= 3.60D-05
 ErrMax= 3.60D-05  0.00D+00 EMaxC= 1.00D-01 BMatC= 2.72D-07 BMatP= 5.73D-06
 IDIUse=1 WtCom= 1.00D+00 WtEn= 0.00D+00
 Coeff-Com: -0.126D-02 0.968D-02 0.121D-01 0.751D-01 0.119D+00 0.236D+00
 Coeff-Com:  0.549D+00
 Coeff:     -0.126D-02 0.968D-02 0.121D-01 0.751D-01 0.119D+00 0.236D+00
 Coeff:      0.549D+00
 Gap=     0.176 Goal=   None    Shift=    0.000
 RMSDP=2.89D-06 MaxDP=8.42D-05 DE=-4.11D-06 OVMax= 1.17D-04

 Initial convergence to 1.0D-05 achieved.  Increase integral accuracy.
 Cycle   8  Pass 1  IDiag  1:
 E= -706.548638268790     Delta-E=       -0.000032553934 Rises=F Damp=F
 DIIS: error= 1.30D-05 at cycle   1 NSaved=   1.
 NSaved= 1 IEnMin= 1 EnMin= -706.548638268790     IErMin= 1 ErrMin= 1.30D-05
 ErrMax= 1.30D-05  0.00D+00 EMaxC= 1.00D-01 BMatC= 1.03D-07 BMatP= 1.03D-07
 IDIUse=1 WtCom= 1.00D+00 WtEn= 0.00D+00
 Coeff-Com:  0.100D+01
 Coeff:      0.100D+01
 Gap=     0.176 Goal=   None    Shift=    0.000
 RMSDP=2.89D-06 MaxDP=8.42D-05 DE=-3.26D-05 OVMax= 1.33D-04

 Cycle   9  Pass 1  IDiag  1:
 E= -706.548638269389     Delta-E=       -0.000000000599 Rises=F Damp=F
 DIIS: error= 1.72D-05 at cycle   2 NSaved=   2.
 NSaved= 2 IEnMin= 2 EnMin= -706.548638269389     IErMin= 1 ErrMin= 1.30D-05
 ErrMax= 1.72D-05  0.00D+00 EMaxC= 1.00D-01 BMatC= 1.15D-07 BMatP= 1.03D-07
 IDIUse=1 WtCom= 1.00D+00 WtEn= 0.00D+00
 Coeff-Com:  0.519D+00 0.481D+00
 Coeff:      0.519D+00 0.481D+00
 Gap=     0.176 Goal=   None    Shift=    0.000
 RMSDP=2.37D-06 MaxDP=1.03D-04 DE=-5.99D-10 OVMax= 1.42D-04

 Cycle  10  Pass 1  IDiag  1:
 E= -706.548638337796     Delta-E=       -0.000000068407 Rises=F Damp=F
 DIIS: error= 1.27D-05 at cycle   3 NSaved=   3.
 NSaved= 3 IEnMin= 3 EnMin= -706.548638337796     IErMin= 3 ErrMin= 1.27D-05
 ErrMax= 1.27D-05  0.00D+00 EMaxC= 1.00D-01 BMatC= 3.69D-08 BMatP= 1.03D-07
 IDIUse=1 WtCom= 1.00D+00 WtEn= 0.00D+00
 Coeff-Com:  0.407D-01 0.354D+00 0.606D+00
 Coeff:      0.407D-01 0.354D+00 0.606D+00
 Gap=     0.176 Goal=   None    Shift=    0.000
 RMSDP=1.08D-06 MaxDP=4.83D-05 DE=-6.84D-08 OVMax= 8.01D-05

 Cycle  11  Pass 1  IDiag  1:
 E= -706.548638363178     Delta-E=       -0.000000025382 Rises=F Damp=F
 DIIS: error= 7.97D-06 at cycle   4 NSaved=   4.
 NSaved= 4 IEnMin= 4 EnMin= -706.548638363178     IErMin= 4 ErrMin= 7.97D-06
 ErrMax= 7.97D-06  0.00D+00 EMaxC= 1.00D-01 BMatC= 7.95D-09 BMatP= 3.69D-08
 IDIUse=1 WtCom= 1.00D+00 WtEn= 0.00D+00
 Coeff-Com: -0.136D-01 0.217D+00 0.437D+00 0.360D+00
 Coeff:     -0.136D-01 0.217D+00 0.437D+00 0.360D+00
 Gap=     0.176 Goal=   None    Shift=    0.000
 RMSDP=4.11D-07 MaxDP=1.85D-05 DE=-2.54D-08 OVMax= 3.58D-05

 Cycle  12  Pass 1  IDiag  1:
 E= -706.548638369003     Delta-E=       -0.000000005826 Rises=F Damp=F
 DIIS: error= 1.63D-06 at cycle   5 NSaved=   5.
 NSaved= 5 IEnMin= 5 EnMin= -706.548638369003     IErMin= 5 ErrMin= 1.63D-06
 ErrMax= 1.63D-06  0.00D+00 EMaxC= 1.00D-01 BMatC= 4.59D-10 BMatP= 7.95D-09
 IDIUse=1 WtCom= 1.00D+00 WtEn= 0.00D+00
 Coeff-Com: -0.112D-01 0.124D+00 0.257D+00 0.248D+00 0.383D+00
 Coeff:     -0.112D-01 0.124D+00 0.257D+00 0.248D+00 0.383D+00
 Gap=     0.176 Goal=   None    Shift=    0.000
 RMSDP=1.02D-07 MaxDP=3.70D-06 DE=-5.83D-09 OVMax= 6.84D-06

 Cycle  13  Pass 1  IDiag  1:
 E= -706.548638369379     Delta-E=       -0.000000000376 Rises=F Damp=F
 DIIS: error= 2.32D-07 at cycle   6 NSaved=   6.
 NSaved= 6 IEnMin= 6 EnMin= -706.548638369379     IErMin= 6 ErrMin= 2.32D-07
 ErrMax= 2.32D-07  0.00D+00 EMaxC= 1.00D-01 BMatC= 1.97D-11 BMatP= 4.59D-10
 IDIUse=1 WtCom= 1.00D+00 WtEn= 0.00D+00
 Coeff-Com: -0.537D-02 0.513D-01 0.108D+00 0.112D+00 0.213D+00 0.522D+00
 Coeff:     -0.537D-02 0.513D-01 0.108D+00 0.112D+00 0.213D+00 0.522D+00
 Gap=     0.176 Goal=   None    Shift=    0.000
 RMSDP=2.90D-08 MaxDP=1.33D-06 DE=-3.76D-10 OVMax= 2.18D-06

 Cycle  14  Pass 1  IDiag  1:
 E= -706.548638369389     Delta-E=       -0.000000000010 Rises=F Damp=F
 DIIS: error= 1.91D-07 at cycle   7 NSaved=   7.
 NSaved= 7 IEnMin= 7 EnMin= -706.548638369389     IErMin= 7 ErrMin= 1.91D-07
 ErrMax= 1.91D-07  0.00D+00 EMaxC= 1.00D-01 BMatC= 7.57D-12 BMatP= 1.97D-11
 IDIUse=1 WtCom= 1.00D+00 WtEn= 0.00D+00
 Coeff-Com: -0.142D-02 0.109D-01 0.239D-01 0.279D-01 0.679D-01 0.389D+00
 Coeff-Com:  0.482D+00
 Coeff:     -0.142D-02 0.109D-01 0.239D-01 0.279D-01 0.679D-01 0.389D+00
 Coeff:      0.482D+00
 Gap=     0.176 Goal=   None    Shift=    0.000
 RMSDP=1.61D-08 MaxDP=7.41D-07 DE=-9.78D-12 OVMax= 1.33D-06

 Cycle  15  Pass 1  IDiag  1:
 E= -706.548638369394     Delta-E=       -0.000000000005 Rises=F Damp=F
 DIIS: error= 9.35D-08 at cycle   8 NSaved=   8.
 NSaved= 8 IEnMin= 8 EnMin= -706.548638369394     IErMin= 8 ErrMin= 9.35D-08
 ErrMax= 9.35D-08  0.00D+00 EMaxC= 1.00D-01 BMatC= 1.76D-12 BMatP= 7.57D-12
 IDIUse=1 WtCom= 1.00D+00 WtEn= 0.00D+00
 Coeff-Com: -0.177D-03-0.409D-03-0.332D-03 0.143D-02 0.134D-01 0.198D+00
 Coeff-Com:  0.366D+00 0.422D+00
 Coeff:     -0.177D-03-0.409D-03-0.332D-03 0.143D-02 0.134D-01 0.198D+00
 Coeff:      0.366D+00 0.422D+00
 Gap=     0.176 Goal=   None    Shift=    0.000
 RMSDP=7.03D-09 MaxDP=2.97D-07 DE=-5.00D-12 OVMax= 5.37D-07

 SCF Done:  E(RB3LYP) =  -706.548638369     A.U. after   15 cycles
            NFock= 15  Conv=0.70D-08     -V/T= 2.0082
 KE= 7.008243980166D+02 PE=-3.092542658582D+03 EE= 9.654119625120D+02
 Leave Link  502 at Fri Aug 20 15:57:00 2021, MaxMem= 24159191040 cpu:        80.6
 (Enter /public/home/users/caep010/software/Gaussian09/g09/l701.exe)
 Compute integral first derivatives.
 ... and contract with generalized density number  0.
 Leave Link  701 at Fri Aug 20 15:57:00 2021, MaxMem= 24159191040 cpu:        10.4
 (Enter /public/home/users/caep010/software/Gaussian09/g09/l702.exe)
 L702 exits ... SP integral derivatives will be done elsewhere.
 Leave Link  702 at Fri Aug 20 15:57:00 2021, MaxMem= 24159191040 cpu:         0.5
 (Enter /public/home/users/caep010/software/Gaussian09/g09/l703.exe)
 Compute integral first derivatives, UseDBF=F ICtDFT=           0.
 Integral derivatives from FoFJK, PRISM(SPDF).
 Calling FoFJK, ICntrl=      2127 FMM=F ISym2X=0 I1Cent= 0 IOpClX= 0 NMat=1 NMatS=1 NMatT=0.
 FoFJK:  IHMeth= 1 ICntrl=    2127 DoSepK=F KAlg= 0 I1Cent=   0 FoldK=F
 IRaf=         0 NMat=   1 IRICut=       1 DoRegI=T DoRafI=F ISym2E= 0.
 FoFCou: FMM=F IPFlag=           0 FMFlag=      100000 FMFlg1=         800
         NFxFlg=           0 DoJE=F BraDBF=F KetDBF=F FulRan=T
         wScrn=  0.000000 ICntrl=    2127 IOpCl=  0 I1Cent=           0 NGrid=           0
         NMat0=    1 NMatS0=      1 NMatT0=    0 NMatD0=    1 NMtDS0=    0 NMtDT0=    0
 Symmetry not used in FoFCou.
 Leave Link  703 at Fri Aug 20 15:57:01 2021, MaxMem= 24159191040 cpu:        18.8
 (Enter /public/home/users/caep010/software/Gaussian09/g09/l716.exe)
 Dipole        = 6.86621004D-01 1.22880404D+00 1.49653990D-01
 ***** Axes restored to original set *****
 -------------------------------------------------------------------
 Center     Atomic                   Forces (Hartrees/Bohr)
 Number     Number              X              Y              Z
 -------------------------------------------------------------------
      1        7           0.000797110   -0.004021405   -0.004144967
      2        6           0.002971182   -0.007174237   -0.001211994
      3        6          -0.001611239    0.012483917    0.002050701
      4        7           0.039116057    0.016292268    0.015776010
      5        1          -0.041057762   -0.016558355   -0.015082407
      6        7          -0.003046561    0.002434704    0.002165893
      7        7          -0.046249292   -0.017486299   -0.011654252
      8        1           0.048564457    0.001535146    0.005369424
      9        7          -0.000967383    0.013298420    0.007580921
     10        8          -0.005978639   -0.002916830   -0.000813385
     11        8           0.003286682    0.001190716   -0.000020545
     12        7          -0.004739742   -0.000459892   -0.002029113
     13        8           0.002031680   -0.005636333   -0.001891971
     14        8           0.006883451    0.007018181    0.003905684
 -------------------------------------------------------------------
 Cartesian Forces:  Max     0.048564457 RMS     0.015392423
 Leave Link  716 at Fri Aug 20 15:57:01 2021, MaxMem= 24159191040 cpu:         0.5
 (Enter /public/home/users/caep010/software/Gaussian09/g09/l103.exe)

 GradGradGradGradGradGradGradGradGradGradGradGradGradGradGradGradGradGrad
 Berny optimization.
 Using GEDIIS/GDIIS optimizer.
 FormGI is forming the generalized inverse of G from B-inverse, IUseBI=4.
 Internal  Forces:  Max     0.048560535 RMS     0.009444442
 Search for a local minimum.
 Step number   2 out of a maximum of   68
 All quantities printed in internal units (Hartrees-Bohrs-Radians)
 RMS Force = .94444D-02 SwitMx=.10000D-02 MixMth= 1
 Mixed Optimization -- RFO/linear search
 Update second derivatives using D2CorX and points    1    2
 DE= -5.55D-02 DEPred=-6.15D-02 R= 9.03D-01
 TightC=F SS=  1.41D+00  RLast= 3.04D-01 DXNew= 5.0454D-01 9.1203D-01
 Trust test= 9.03D-01 RLast= 3.04D-01 DXMaxT set to 5.05D-01
 ITU=  1  0
 Use linear search instead of GDIIS.
     Eigenvalues ---    0.01411   0.01414   0.01961   0.01978   0.01985
     Eigenvalues ---    0.01993   0.01997   0.02205   0.02371   0.02444
     Eigenvalues ---    0.02541   0.16000   0.16007   0.22063   0.23434
     Eigenvalues ---    0.24957   0.24968   0.24994   0.25000   0.25000
     Eigenvalues ---    0.25000   0.25101   0.42299   0.43992   0.49197
     Eigenvalues ---    0.54566   0.55307   0.56562   0.60745   0.64902
     Eigenvalues ---    0.84124   0.88760   0.94170   0.95228   1.00965
     Eigenvalues ---    1.01141
 RFO step:  Lambda=-7.29850431D-03 EMin= 1.41135635D-02
 Quartic linear search produced a step of  0.47471.
 Iteration  1 RMS(Cart)=  0.09440397 RMS(Int)=  0.01088933
 Iteration  2 RMS(Cart)=  0.01252862 RMS(Int)=  0.00102424
 Iteration  3 RMS(Cart)=  0.00023661 RMS(Int)=  0.00100185
 Iteration  4 RMS(Cart)=  0.00000035 RMS(Int)=  0.00100185
 ITry= 1 IFail=0 DXMaxC= 4.61D-01 DCOld= 1.00D+10 DXMaxT= 5.05D-01 DXLimC= 3.00D+00 Rises=F
 Variable       Old X    -DE/DX   Delta X   Delta X   Delta X     New X
                                 (Linear)    (Quad)   (Total)
    R1        2.51108   0.00333   0.00599   0.00348   0.00946   2.52054
    R2        2.47210   0.00454   0.00785   0.00284   0.01038   2.48248
    R3        2.66022   0.00937   0.01775   0.01612   0.03416   2.69438
    R4        2.70800   0.00386   0.01063   0.00598   0.01661   2.72462
    R5        2.51812   0.00147   0.00455  -0.00044   0.00430   2.52242
    R6        2.61707  -0.00376   0.00477  -0.01467  -0.00990   2.60717
    R7        1.82524   0.04676   0.09539  -0.00710   0.08829   1.91353
    R8        2.52697   0.00331   0.00566   0.00277   0.00825   2.53522
    R9        1.82544   0.04856   0.09535  -0.00388   0.09148   1.91692
   R10        2.58572   0.01359   0.01897   0.02039   0.03935   2.62507
   R11        2.29860   0.00586   0.00801   0.00073   0.00874   2.30734
   R12        2.31940   0.00282   0.00616  -0.00155   0.00461   2.32401
   R13        2.29966   0.00615   0.00824   0.00094   0.00917   2.30884
   R14        2.33322   0.01039   0.01063   0.00602   0.01665   2.34987
    A1        1.78606  -0.00097  -0.00254  -0.00407  -0.00673   1.77933
    A2        1.91357  -0.00082  -0.00054  -0.00257  -0.00291   1.91066
    A3        2.12784   0.00167   0.00568   0.00677   0.01198   2.13981
    A4        2.24176  -0.00085  -0.00513  -0.00395  -0.00953   2.23223
    A5        1.88269   0.00014  -0.00082   0.00262   0.00114   1.88384
    A6        2.18416  -0.00070  -0.00554  -0.00071  -0.00784   2.17631
    A7        2.21474   0.00063   0.00660   0.00283   0.00779   2.22254
    A8        2.11840  -0.00040  -0.00059   0.00080   0.00030   2.11869
    A9        2.05342   0.00201   0.00493   0.00946   0.01420   2.06762
   A10        2.11137  -0.00161  -0.00434  -0.01026  -0.01451   2.09687
   A11        1.78881  -0.00036  -0.00103  -0.00547  -0.00617   1.78264
   A12        2.06197   0.00213   0.00342   0.02230   0.02393   2.08590
   A13        2.20061   0.00128   0.01252   0.00512   0.01599   2.21660
   A14        2.02054  -0.00342  -0.01597  -0.02844  -0.04596   1.97459
   A15        2.07240  -0.00321  -0.00215  -0.01754  -0.02135   2.05105
   A16        1.98988  -0.00062  -0.00856  -0.00049  -0.01071   1.97918
   A17        2.22090   0.00383   0.01085   0.01821   0.02739   2.24829
   A18        2.07792  -0.00038  -0.00090  -0.00209  -0.00591   2.07201
   A19        2.00729   0.00129  -0.00378   0.00845   0.00175   2.00904
   A20        2.19796  -0.00091   0.00472  -0.00712  -0.00534   2.19261
    D1        0.01077  -0.00024  -0.00148  -0.02074  -0.02198  -0.01121
    D2       -3.13754   0.00023  -0.00023   0.01512   0.01551  -3.12203
    D3       -3.14081   0.00033   0.00148   0.02514   0.02661  -3.11420
    D4        0.00190   0.00035   0.00211   0.02753   0.02972   0.03162
    D5       -0.01993   0.00006   0.00047   0.00916   0.00959  -0.01034
    D6       -3.10429  -0.00116  -0.00396  -0.07585  -0.07945   3.09945
    D7        3.12894  -0.00046  -0.00097  -0.02976  -0.03054   3.09839
    D8        0.04458  -0.00168  -0.00540  -0.11476  -0.11958  -0.07500
    D9        0.10473  -0.00157  -0.00099  -0.11195  -0.11322  -0.00849
   D10       -3.04314  -0.00214  -0.01068  -0.23590  -0.24645   2.99360
   D11       -3.04494  -0.00100   0.00057  -0.06882  -0.06837  -3.11331
   D12        0.09038  -0.00157  -0.00912  -0.19276  -0.20160  -0.11122
   D13        0.01914   0.00012   0.00069   0.00654   0.00717   0.02630
   D14        3.10221   0.00131   0.00462   0.09331   0.09858  -3.08240
   D15        0.13557  -0.00147  -0.00355  -0.10811  -0.11249   0.02308
   D16       -2.99416  -0.00005   0.00129   0.00038   0.00267  -2.99148
   D17       -2.93789  -0.00289  -0.00842  -0.20926  -0.21868   3.12661
   D18        0.21556  -0.00147  -0.00358  -0.10076  -0.10352   0.11205
   D19       -0.01397  -0.00033  -0.00188  -0.02216  -0.02413  -0.03810
   D20        3.12874  -0.00031  -0.00125  -0.01980  -0.02107   3.10767
   D21       -0.06994   0.00045   0.00608   0.06386   0.07090   0.00096
   D22        3.07370   0.00014  -0.00440  -0.02238  -0.02565   3.04806
   D23        3.08327   0.00180   0.01080   0.16979   0.17946  -3.02045
   D24       -0.05627   0.00149   0.00032   0.08356   0.08291   0.02664
         Item               Value     Threshold  Converged?
 Maximum Force            0.048561     0.000450     NO 
 RMS     Force            0.009444     0.000300     NO 
 Maximum Displacement     0.460550     0.001800     NO 
 RMS     Displacement     0.100630     0.001200     NO 
 Predicted change in Energy=-2.200543D-03
 Lowest energy point so far.  Saving SCF results.
 GradGradGradGradGradGradGradGradGradGradGradGradGradGradGradGradGradGrad

 Leave Link  103 at Fri Aug 20 15:57:01 2021, MaxMem= 24159191040 cpu:         2.0
 (Enter /public/home/users/caep010/software/Gaussian09/g09/l202.exe)
                          Input orientation:                          
 ---------------------------------------------------------------------
 Center     Atomic      Atomic             Coordinates (Angstroms)
 Number     Number       Type             X           Y           Z
 ---------------------------------------------------------------------
      1          7           0        2.200343    0.593085    1.880972
      2          6           0        3.092841    1.405299    2.449143
      3          6           0        2.434095    2.576880    2.924932
      4          7           0        1.082290    1.264413    2.039126
      5          1           0        0.194529    0.891995    1.725219
      6          7           0        1.137511    2.469258    2.626605
      7          7           0        3.053362    3.603578    3.607460
      8          1           0        4.051721    3.557493    3.781074
      9          7           0        2.439492    4.680528    4.234377
     10          8           0        1.220904    4.740925    4.187334
[...]
   D23       -2.89337   0.00001   0.00000   0.00016   0.00016  -2.89320
   D24        0.27693  -0.00001   0.00000   0.00007   0.00007   0.27701
         Item               Value     Threshold  Converged?
 Maximum Force            0.000044     0.000450     YES
 RMS     Force            0.000010     0.000300     YES
 Maximum Displacement     0.000534     0.001800     YES
 RMS     Displacement     0.000118     0.001200     YES
 Predicted change in Energy=-9.154674D-09
 Optimization completed.
    -- Stationary point found.
                           ----------------------------
                           !   Optimized Parameters   !
                           ! (Angstroms and Degrees)  !
 --------------------------                            --------------------------
 ! Name  Definition              Value          Derivative Info.                !
 --------------------------------------------------------------------------------
 ! R1    R(1,2)                  1.3324         -DE/DX =    0.0                 !
 ! R2    R(1,4)                  1.3119         -DE/DX =    0.0                 !
 ! R3    R(2,3)                  1.4203         -DE/DX =    0.0                 !
 ! R4    R(2,12)                 1.4349         -DE/DX =    0.0                 !
 ! R5    R(3,6)                  1.3338         -DE/DX =    0.0                 !
 ! R6    R(3,7)                  1.3805         -DE/DX =    0.0                 !
 ! R7    R(4,5)                  1.0109         -DE/DX =    0.0                 !
 ! R8    R(4,6)                  1.3397         -DE/DX =    0.0                 !
 ! R9    R(7,8)                  1.0166         -DE/DX =    0.0                 !
 ! R10   R(7,9)                  1.405          -DE/DX =    0.0                 !
 ! R11   R(9,10)                 1.2174         -DE/DX =    0.0                 !
 ! R12   R(9,11)                 1.2243         -DE/DX =    0.0                 !
 ! R13   R(12,13)                1.2205         -DE/DX =    0.0                 !
 ! R14   R(12,14)                1.2436         -DE/DX =    0.0                 !
 ! A1    A(2,1,4)              102.1132         -DE/DX =    0.0                 !
 ! A2    A(1,2,3)              109.5726         -DE/DX =    0.0                 !
 ! A3    A(1,2,12)             122.3821         -DE/DX =    0.0                 !
 ! A4    A(3,2,12)             128.0452         -DE/DX =    0.0                 !
 ! A5    A(2,3,6)              107.7783         -DE/DX =    0.0                 !
 ! A6    A(2,3,7)              125.4327         -DE/DX =    0.0                 !
 ! A7    A(6,3,7)              126.7011         -DE/DX =    0.0                 !
 ! A8    A(1,4,5)              121.3559         -DE/DX =    0.0                 !
 ! A9    A(1,4,6)              118.0844         -DE/DX =    0.0                 !
 ! A10   A(5,4,6)              120.5597         -DE/DX =    0.0                 !
 ! A11   A(3,6,4)              102.4466         -DE/DX =    0.0                 !
 ! A12   A(3,7,8)              116.2956         -DE/DX =    0.0                 !
 ! A13   A(3,7,9)              123.9517         -DE/DX =    0.0                 !
 ! A14   A(8,7,9)              112.4755         -DE/DX =    0.0                 !
 ! A15   A(7,9,10)             117.9099         -DE/DX =    0.0                 !
 ! A16   A(7,9,11)             113.7162         -DE/DX =    0.0                 !
 ! A17   A(10,9,11)            128.3495         -DE/DX =    0.0                 !
 ! A18   A(2,12,13)            119.082          -DE/DX =    0.0                 !
 ! A19   A(2,12,14)            115.3789         -DE/DX =    0.0                 !
 ! A20   A(13,12,14)           125.5389         -DE/DX =    0.0                 !
 ! D1    D(4,1,2,3)             -0.0824         -DE/DX =    0.0                 !
 ! D2    D(4,1,2,12)          -179.9804         -DE/DX =    0.0                 !
 ! D3    D(2,1,4,5)           -179.4105         -DE/DX =    0.0                 !
 ! D4    D(2,1,4,6)              0.5306         -DE/DX =    0.0                 !
 ! D5    D(1,2,3,6)             -0.3546         -DE/DX =    0.0                 !
 ! D6    D(1,2,3,7)           -177.13           -DE/DX =    0.0                 !
 ! D7    D(12,2,3,6)           179.5361         -DE/DX =    0.0                 !
 ! D8    D(12,2,3,7)             2.7606         -DE/DX =    0.0                 !
 ! D9    D(1,2,12,13)           -2.6312         -DE/DX =    0.0                 !
 ! D10   D(1,2,12,14)          177.5194         -DE/DX =    0.0                 !
 ! D11   D(3,2,12,13)          177.4908         -DE/DX =    0.0                 !
 ! D12   D(3,2,12,14)           -2.3586         -DE/DX =    0.0                 !
 ! D13   D(2,3,6,4)              0.6078         -DE/DX =    0.0                 !
 ! D14   D(7,3,6,4)            177.3307         -DE/DX =    0.0                 !
 ! D15   D(2,3,7,8)             -4.0449         -DE/DX =    0.0                 !
 ! D16   D(2,3,7,9)           -151.9045         -DE/DX =    0.0                 !
 ! D17   D(6,3,7,8)            179.7857         -DE/DX =    0.0                 !
 ! D18   D(6,3,7,9)             31.9261         -DE/DX =    0.0                 !
 ! D19   D(1,4,6,3)             -0.7501         -DE/DX =    0.0                 !
 ! D20   D(5,4,6,3)            179.1915         -DE/DX =    0.0                 !
 ! D21   D(3,7,9,10)           -16.852          -DE/DX =    0.0                 !
 ! D22   D(3,7,9,11)           164.7928         -DE/DX =    0.0                 !
 ! D23   D(8,7,9,10)          -165.7777         -DE/DX =    0.0                 !
 ! D24   D(8,7,9,11)            15.8671         -DE/DX =    0.0                 !
 --------------------------------------------------------------------------------
 GradGradGradGradGradGradGradGradGradGradGradGradGradGradGradGradGradGrad

 Leave Link  103 at Fri Aug 20 16:00:21 2021, MaxMem= 24159191040 cpu:         2.0
 (Enter /public/home/users/caep010/software/Gaussian09/g09/l9999.exe)
 1\1\GINC-B1813\Freq\RB3LYP\6-31G(d,p)\C2H2N6O4\ROOT\20-Aug-2021\0\\#P 
 Geom=AllCheck Guess=TCheck SCRF=Check GenChk RB3LYP/6-31G(d,p) Freq\\T
 ENZUJ\\0,1\N,2.1976768224,0.5954928162,1.9085496936\C,3.0908024068,1.4
 304161077,2.4382128723\C,2.4387668799,2.6195556152,2.8601144813\N,1.08
 21808605,1.2762610374,2.0238784303\H,0.1993056709,0.8962676088,1.71088
 63287\N,1.1421985301,2.4971278286,2.5723125895\N,3.0626871506,3.725150
 2168,3.4024284911\H,4.0636630262,3.6448780223,3.5608895535\N,2.4461176
 894,4.6122534826,4.3007096651\O,1.2315879336,4.5891297453,4.3812070405
 \O,3.2325131417,5.3441219738,4.8878981941\N,4.4855092882,1.1060302838,
 2.5309924952\O,4.8656128868,0.0086291451,2.1555750057\O,5.2101777129,1
 .9991861165,3.004045159\\Version=ES64L-G09RevE.01\State=1-A\HF=-706.55
 47395\RMSD=3.979e-09\RMSF=1.636e-05\ZeroPoint=0.0818958\Thermal=0.0914
 184\Dipole=-0.9830615,-0.7055716,-0.7385369\DipoleDeriv=0.4482328,-0.0
 273573,0.0638272,0.0583612,-0.5023663,-0.1831712,0.1269984,-0.1922123,
 -0.1795131,-0.5001992,0.2839153,0.0318181,-0.1376352,0.0231097,-0.0525
 195,-0.167699,-0.011478,0.058547,0.131755,0.4351453,0.260957,0.0110678
 ,1.0466933,0.3660226,0.037067,0.3987732,0.4212048,-0.4968731,-0.060104
 1,-0.1002722,-0.075377,0.0549016,0.0209347,-0.1218516,0.0749839,-0.120
 4437,0.3588433,0.0788789,0.0513779,0.0835952,0.232427,-0.0214317,0.054
 7228,-0.0281353,0.3082289,-0.2933827,-0.1704401,-0.0944753,0.2279915,-
 0.1483729,0.0715885,0.0596516,0.0252066,-0.1144204,-0.3363242,0.203701
 4,0.2196622,0.0708442,-1.2462523,-0.5883218,0.1708424,-0.6345555,-0.75
 73376,0.3386168,-0.0779535,-0.0490813,0.0051216,0.2700535,-0.0651716,-
 0.041083,-0.0558651,0.2474241,1.5594382,-0.3401553,-0.3383703,0.013537
 8,1.7697805,1.0824275,-0.0987752,1.1247594,1.276389,-0.9111987,0.20665
 63,0.1949216,0.0377752,-0.4530539,-0.1644887,0.0868239,-0.1916698,-0.3
 55588,-0.6311232,-0.3086903,-0.2194389,-0.202926,-0.8653558,-0.4404812
 ,-0.1509455,-0.4733708,-0.5952549,1.7307407,-0.4317262,0.0032074,-0.24
 91476,1.4280567,0.430351,0.1330452,0.363896,0.4894388,-0.6172926,0.339
 526,0.0895454,0.2746203,-0.9137565,-0.2559247,0.0426432,-0.2118813,-0.
 3088211,-0.7812333,-0.1313964,-0.1136789,-0.117829,-0.6958645,-0.19981
 4,-0.1314404,-0.1884509,-0.3698538\Polar=89.8634465,-3.9442445,89.8625
 597,5.5556178,32.4786982,49.7173587\PG=C01 [X(C2H2N6O4)]\NImag=0\\0.54
 439708,-0.01906999,0.47859088,0.06876161,0.16568770,0.18791087,-0.1765
 3894,-0.08818600,-0.05946453,0.73422812,-0.12045274,-0.21712755,-0.090
 31758,-0.02325678,0.57012293,-0.07528555,-0.08312399,-0.11508942,0.096
 12528,0.19513092,0.22745363,0.03471808,0.02291121,0.01510092,-0.132115
 61,0.04245866,0.00802578,0.68096505,-0.03943811,-0.05218160,-0.0346942
 4,0.06491113,-0.20657121,-0.05523120,0.07969157,0.66897142,-0.01577232
 ,-0.02507776,0.00264436,0.02211532,-0.06004938,-0.09027092,0.11256322,
 0.25149659,0.28603149,-0.27632359,0.07802728,-0.00126657,-0.15079085,-
 0.02846221,-0.04089980,-0.07008188,-0.04207745,-0.03043293,0.95843100,
 0.14115639,-0.16104498,-0.01653678,0.00661088,-0.01307559,-0.01272875,
 -0.06645183,-0.02927970,-0.03112840,0.09446775,0.57693342,0.02628781,-
 0.02947769,-0.07416487,-0.02584820,-0.01503339,0.00164549,-0.04553224,
 -0.02593854,-0.01275840,0.18755268,0.22617237,0.22831543,-0.02355439,-
 0.01146971,-0.00682863,-0.00116708,0.00716627,0.00209467,0.00407466,0.
 00039620,0.00040765,-0.36323478,-0.12606868,-0.11465357,0.37751634,0.0
 1892582,0.01047403,0.01364645,0.00677773,-0.00094203,-0.00186224,0.001
 31180,-0.00687504,-0.00405667,-0.12654167,-0.11440911,-0.06967233,0.12
 963371,0.11850921,0.00633653,0.00841027,-0.00834758,0.00210116,-0.0018
 2247,0.00569492,-0.00023495,-0.00561955,0.00139116,-0.11433341,-0.0691
 7276,-0.05469086,0.11690885,0.06741551,0.06392438,-0.04558104,0.013367
 03,-0.00828096,-0.04984699,0.07545347,0.02120435,-0.34420729,0.0106050
 8,-0.04295148,-0.10126404,-0.04018910,-0.02481490,0.00635062,-0.029022
 20,-0.00935508,0.55332394,0.04455050,-0.07073971,-0.03931359,-0.003032
 17,0.02035173,0.00291221,-0.01517605,-0.11851675,-0.02100351,0.0264402
 5,-0.24240360,-0.07343953,-0.00008570,-0.00913163,0.00062197,-0.019355
 63,0.42118973,0.00941364,-0.04254242,0.01217109,-0.01455694,0.01483447
 ,0.02063278,-0.05251466,-0.01894326,-0.08436461,0.00061610,-0.08305503
 ,-0.09592730,0.00274722,-0.00435214,-0.01194614,0.07317954,0.14034112,
 0.16485163,-0.00542682,0.00486021,-0.00100657,0.02196027,0.00785687,0.
 00693522,-0.17858687,-0.07707833,-0.03435195,-0.00545467,0.00009859,-0
 .00053984,0.00062490,-0.00166828,-0.00102536,-0.01963651,-0.04042825,-
 0.01900077,0.80249641,-0.00871691,-0.00044862,-0.00674203,0.00150102,-
 0.03277829,-0.01192128,-0.06222022,-0.22320376,-0.08693934,0.00622266,
 -0.01505279,-0.00607595,0.00139348,0.00099405,0.00069929,-0.02096083,0
 .01136512,0.00235806,0.04433755,0.44181161,-0.00438138,-0.00331098,-0.
 00059372,-0.00182149,-0.01412742,-0.00163410,-0.03152399,-0.10899819,-
 0.07820025,0.00030901,-0.00759805,0.00439077,0.00045535,-0.00077572,0.
 00189211,-0.01114848,-0.00018178,-0.00738602,0.09488521,0.25337350,0.2
 2798240,0.00144114,0.00159875,0.00136511,-0.00271479,0.00030934,0.0002
 4851,-0.00890456,-0.00698878,-0.00615189,-0.00167907,0.00145684,0.0000
 8491,-0.00009201,0.00013680,0.00003268,0.00320553,0.00043121,0.0000871
 5,-0.42063300,0.02463390,-0.06347741,0.43767506,-0.00204870,-0.0013447
 0,-0.00019372,0.00236448,0.00056758,-0.00003226,-0.03082371,0.00699986
 ,0.00028184,0.00033275,-0.00068301,-0.00116078,0.00020845,-0.00041316,
 -0.00053923,-0.00026820,-0.00462856,-0.00160254,0.03374598,-0.04928354
 ,-0.02477633,-0.02173078,0.04965544,-0.00011860,-0.00042969,-0.0014254
 2,0.00030188,-0.00035725,0.00038921,-0.00918481,0.00853200,-0.00207584
 ,-0.00046394,-0.00019072,0.00140913,0.00002371,-0.00044038,0.00026422,
 -0.00101666,-0.00303015,-0.00107099,-0.08954593,-0.02233262,-0.0411137
 0,0.06786583,0.02081687,0.04840793,-0.00455158,0.00108853,-0.00138734,
 0.00018766,-0.00655434,-0.00143664,0.03536248,0.00524601,-0.00424544,-
 0.00385563,-0.01011540,-0.00226620,0.00099247,-0.00023268,0.00013953,-
 0.00086947,0.00460290,0.00040937,-0.15078600,-0.01186344,-0.01166847,-
 0.01221632,0.02486342,0.03194116,1.00286854,0.00547617,0.00170258,0.00
 115690,-0.00806102,0.00409481,-0.00126528,-0.00033138,-0.04618667,-0.0
 2606121,-0.00014414,0.00781204,0.00360646,-0.00145371,-0.00002050,-0.0
 0004480,0.00377963,-0.00127125,-0.00067724,0.00281414,-0.09200982,-0.0
 2605342,0.00488456,0.00154258,0.00144710,0.15419911,0.49906906,0.00016
 277,0.00207433,0.00507398,0.00030098,0.00520129,0.00010610,-0.01574938
 ,-0.01643500,-0.02482856,0.00143466,0.00251664,-0.00003890,-0.00097721
 ,0.00017989,-0.00020234,0.00432439,-0.00061221,0.00117011,0.01817313,-
 0.04856763,-0.07840824,0.00307975,0.01294015,0.00084234,0.07792397,0.2
 1003454,0.40725827,0.00228490,-0.00142246,0.00063127,-0.00081840,0.001
 69690,-0.00019310,-0.00770992,-0.00647172,-0.00501214,0.00267465,0.004
 90630,0.00155835,-0.00060921,0.00010679,-0.00001722,-0.00040577,-0.003
 00569,-0.00186909,-0.06370152,0.03008434,0.03582317,0.00390543,0.00165
 246,0.00384091,-0.56751350,-0.01136886,0.02942858,0.71077362,0.0004830
 0,-0.00152690,0.00031612,0.00050778,0.00001191,-0.00043154,0.00149509,
 0.00557135,0.00273437,0.00090149,-0.00015917,-0.00130906,0.00026255,0.
 00002227,0.00004152,-0.00232189,-0.00400493,-0.00303312,0.03931702,0.0
 0838709,-0.00845965,0.00070638,-0.00094075,-0.00674515,0.00042594,-0.1
 1273712,-0.02462728,0.01394543,0.08654702,0.00093061,-0.00118997,-0.00
 047411,-0.00010700,-0.00049003,-0.00058477,0.00275384,0.00401249,0.001
 97543,0.00070566,-0.00047173,-0.00017051,0.00020166,0.00001264,-0.0000
 1136,-0.00336951,-0.00362661,-0.00259252,0.04447042,-0.01033842,0.0073
 3195,-0.00030358,-0.00586312,-0.00188967,0.03848270,-0.02137732,-0.109
 95941,-0.04491758,0.04607865,0.07887186,-0.00093437,-0.00149980,-0.000
 81255,0.00015516,0.00110549,0.00093428,-0.00103993,-0.00125545,0.00100
 138,0.00208843,-0.00020815,-0.00017720,0.00008974,0.00012217,0.0001013
 4,0.00080422,0.00040859,-0.00020369,0.02522745,-0.00159537,-0.00746259
 ,0.00099277,-0.00446143,-0.00201279,-0.29569017,-0.15277275,-0.1172361
 2,-0.07869851,-0.05587851,-0.03973816,0.34731822,-0.00250943,-0.002140
 56,-0.00078384,0.00074376,0.00000863,0.00003174,0.00607170,0.00493307,
 -0.00434506,0.00079707,-0.00368969,-0.00081663,0.00056749,-0.00001623,
 0.00016687,0.00002727,0.00143672,-0.00006544,-0.02141908,-0.04751714,-
 0.05739970,-0.00352414,-0.00192700,0.00132150,-0.16427445,-0.26201829,
 -0.14493326,-0.03104575,0.01949427,-0.00554532,0.21597571,0.29113403,-
 0.00105778,-0.00193709,-0.00161122,-0.00093139,-0.00043418,0.00010447,
 0.00847912,-0.00146673,0.00163588,0.00047531,-0.00164368,-0.00073554,0
 .00040712,-0.00000973,0.00007429,-0.00052243,0.00057305,0.00011442,-0.
 02186530,-0.06100671,-0.03463241,-0.00229523,-0.00102477,-0.00122286,-
 0.12786158,-0.14099691,-0.20213360,-0.01965882,-0.00450332,0.02792985,
 0.16558949,0.21256298,0.21056982,-0.05214774,-0.00983058,-0.01078971,-
 0.16403439,0.02929743,-0.00481052,-0.00798292,0.02789949,0.01081324,0.
 01852460,-0.00807226,-0.00100947,-0.00155915,-0.00085909,-0.00159885,0
 .00185542,0.00337367,0.00186870,-0.00682551,-0.01418276,-0.00565722,0.
 01167236,-0.00995132,-0.00331992,-0.00513194,0.00938653,0.00439247,0.0
 0035089,-0.00107945,-0.00005551,-0.00246863,-0.00469021,-0.00344114,0.
 67020109,-0.01278682,0.01164662,0.00970525,0.02537971,-0.09671482,-0.0
 0868674,0.02361399,0.00228405,0.00945941,-0.01288909,-0.00611277,-0.00
 810873,-0.00008506,0.00209821,-0.00061475,0.00804508,-0.00424841,-0.00
 403056,-0.00410849,0.00404688,0.00247641,0.00376075,-0.00909052,-0.002
 97416,0.00349825,-0.00541977,-0.00565493,-0.00326031,0.00111331,0.0014
 3899,-0.00041538,0.00126229,0.00101220,-0.01899005,0.87110877,-0.01275
 471,0.01069461,-0.01234744,-0.00496548,-0.01012461,-0.07331613,0.01103
 628,0.01175394,-0.00202496,-0.00342406,-0.00757185,0.00328452,-0.00096
 769,-0.00080127,0.00304946,0.00252242,-0.00488307,0.00576680,-0.002697
 20,-0.00168392,-0.00020802,0.00344231,-0.00457064,-0.00273300,0.000269
 91,-0.00075919,-0.00073911,-0.00109596,0.00033414,0.00043891,-0.000667
 91,-0.00032373,-0.00035481,0.06503998,0.25638817,0.33663500,0.00346391
 ,0.00247642,0.00130325,-0.02646147,0.05205285,0.01394430,-0.00400537,-
 0.00793175,-0.00488918,-0.00241558,0.00358150,0.00103999,0.00048734,0.
 00030135,0.00031071,-0.00438900,0.00145893,0.00023749,0.00061549,0.002
 93998,0.00138293,-0.00202266,0.00161763,0.00048469,0.00140925,-0.00284
 277,-0.00183051,-0.00032833,0.00048247,0.00025051,0.00067152,0.0014586
 2,0.00114281,-0.18609516,0.15469546,0.04375069,0.17652773,-0.00897081,
 -0.00068888,-0.00249108,0.04390094,-0.03275850,-0.01371746,-0.00042330
 ,0.00503568,-0.00020493,0.00530949,-0.00053264,0.00078316,-0.00052532,
 -0.00032784,-0.00017081,0.00066156,0.00077349,0.00137351,0.00285041,-0
 .00456529,-0.00179341,-0.00297563,0.00400667,0.00088761,-0.00248609,0.
 00388581,0.00380905,0.00195824,-0.00077075,-0.00096248,0.00012305,-0.0
 0117495,-0.00097473,0.14031535,-0.47940005,-0.13792629,-0.17309622,0.5
 8886270,-0.00329305,-0.00063890,0.00059852,0.01007654,-0.01132178,0.01
 533030,-0.00186813,-0.00193559,0.00328526,0.00186809,0.00029509,0.0003
 0594,-0.00006931,0.00002722,-0.00030415,0.00004369,0.00174477,-0.00120
 552,0.00114624,-0.00072317,-0.00061521,-0.00183905,0.00124640,0.001496
 19,-0.00053929,0.00138557,0.00052093,0.00069015,-0.00031615,-0.0002376
 0,0.00016741,-0.00026253,-0.00008206,0.03824796,-0.13583387,-0.1240301
 1,-0.04515683,0.19526579,0.09968587,-0.00124662,0.00714912,0.00267470,
 -0.05204270,-0.03867118,-0.02688678,-0.00048592,-0.00750789,-0.0030934
 9,-0.00661859,-0.00117285,-0.00168212,0.00008056,0.00100777,0.00063408
 ,0.00066038,-0.00018256,-0.00041407,0.00012639,0.00842661,0.00428537,-
 0.01062989,0.00449897,0.00120446,-0.00020578,-0.00356550,-0.00342747,-
 0.00020434,0.00075270,0.00069595,0.00148410,0.00182145,0.00153981,-0.2
 7635893,-0.16645804,-0.09948857,0.04254234,-0.00664165,0.00052558,0.30
 289900,0.00340163,0.00482940,0.00056045,-0.03016144,0.00481040,-0.0090
 7412,-0.00212752,-0.01098070,-0.00510595,-0.00238418,0.00169759,0.0004
 7064,0.00006005,0.00003777,0.00062895,0.00017874,-0.00017196,-0.000605
 43,0.00882165,-0.00174550,-0.00237525,-0.00269919,0.00553910,0.0034950
 6,0.00160224,0.00155654,0.00407442,0.00222433,-0.00100758,-0.00167777,
 0.00035184,0.00021486,-0.00015037,-0.14261673,-0.29257381,-0.11052629,
 -0.03719447,-0.08234544,-0.04893286,0.20054304,0.37013934,0.00077043,0
 .00086158,0.00565497,-0.02332613,-0.01108857,0.00953843,-0.00135100,-0
 .00653271,-0.00244006,-0.00214080,0.00111368,-0.00086489,0.00025019,0.
 00068877,-0.00078810,0.00018509,-0.00010265,-0.00021372,0.00442270,-0.
 00009980,0.00119443,-0.00213909,0.00447812,-0.00127753,0.00023833,-0.0
 0039520,0.00133843,0.00079151,-0.00007953,-0.00062804,0.00051710,0.000
 39241,0.00034377,-0.08968002,-0.11457669,-0.13342111,-0.01197085,-0.04
 387793,0.00525165,0.12343255,0.16921853,0.11631177\\-0.00000232,-0.000
 00695,-0.00000723,0.00001550,0.00000849,0.00000270,-0.00000373,-0.0000
 1087,-0.00000404,-0.00001940,-0.00001223,-0.00000193,0.00002208,0.0000
 0763,0.00000368,0.00000263,-0.00000020,0.00000475,-0.00002070,0.000022
 51,0.00001048,0.00000737,0.00000469,0.00000335,0.00004846,-0.00003498,
 -0.00001018,-0.00004820,-0.00000063,-0.00000274,-0.00000041,0.00001030
 ,0.00000122,-0.00001724,-0.00001819,-0.00001453,0.00000254,-0.00000247
 ,0.00000070,0.00001341,0.00003290,0.00001377\\\@


 REVOLUTIONS HAVE NEVER LIGHTENED THE BURDEN OF TYRANNY:
 THEY HAVE MERELY SHIFTED IT TO OTHER SHOULDERS.
                                   -- G. B. SHAW (1903)
 Job cpu time:       0 days  0 hours  9 minutes 19.4 seconds.
 File lengths (MBytes):  RWF=     70 Int=      0 D2E=      0 Chk=      4 Scr=      1
 Normal termination of Gaussian 09 at Fri Aug 20 16:00:21 2021.
