 Entering Gaussian System, Link 0=g09
 Input=B3LYP6-31G.YUYCOK.gjf
 Output=B3LYP6-31G.YUYCOK.log
 Initial command:
 /public/home/users/caep010/software/Gaussian09/g09/l1.exe "/public/home/users/caep010/.cache/gau_scr/Gau-30701.inp" -scrdir="/public/home/users/caep010/.cache/gau_scr/"
 Entering Link 1 = /public/home/users/caep010/software/Gaussian09/g09/l1.exe PID=     30702.
  
 Copyright (c) 1988,1990,1992,1993,1995,1998,2003,2009,2015,
            Gaussian, Inc.  All Rights Reserved.
  
 This is part of the Gaussian(R) 09 program.  It is based on
 the Gaussian(R) 03 system (copyright 2003, Gaussian, Inc.),
 the Gaussian(R) 98 system (copyright 1998, Gaussian, Inc.),
 the Gaussian(R) 94 system (copyright 1995, Gaussian, Inc.),
 the Gaussian 92(TM) system (copyright 1992, Gaussian, Inc.),
 the Gaussian 90(TM) system (copyright 1990, Gaussian, Inc.),
 the Gaussian 88(TM) system (copyright 1988, Gaussian, Inc.),
 the Gaussian 86(TM) system (copyright 1986, Carnegie Mellon
 University), and the Gaussian 82(TM) system (copyright 1983,
 Carnegie Mellon University). Gaussian is a federally registered
 trademark of Gaussian, Inc.
  
 This software contains proprietary and confidential information,
 including trade secrets, belonging to Gaussian, Inc.
  
 This software is provided under written license and may be
 used, copied, transmitted, or stored only in accord with that
 written license.
  
 The following legend is applicable only to US Government
 contracts under FAR:
  
                    RESTRICTED RIGHTS LEGEND
  
 Use, reproduction and disclosure by the US Government is
 subject to restrictions as set forth in subparagraphs (a)
 and (c) of the Commercial Computer Software - Restricted
 Rights clause in FAR 52.227-19.
  
 Gaussian, Inc.
 340 Quinnipiac St., Bldg. 40, Wallingford CT 06492
  
  
 ---------------------------------------------------------------
 Warning -- This program may not be used in any manner that
 competes with the business of Gaussian, Inc. or will provide
 assistance to any competitor of Gaussian, Inc.  The licensee
 of this program is prohibited from giving any competitor of
 Gaussian, Inc. access to this program.  By using this program,
 the user acknowledges that Gaussian, Inc. is engaged in the
 business of creating and licensing software in the field of
 computational chemistry and represents and warrants to the
 licensee that it is not a competitor of Gaussian, Inc. and that
 it will not use this program in any manner prohibited above.
 ---------------------------------------------------------------
  

 Cite this work as:
 Gaussian 09, Revision E.01,
 M. J. Frisch, G. W. Trucks, H. B. Schlegel, G. E. Scuseria, 
 M. A. Robb, J. R. Cheeseman, G. Scalmani, V. Barone, B. Mennucci, 
 G. A. Petersson, H. Nakatsuji, M. Caricato, X. Li, H. P. Hratchian, 
 A. F. Izmaylov, J. Bloino, G. Zheng, J. L. Sonnenberg, M. Hada, 
 M. Ehara, K. Toyota, R. Fukuda, J. Hasegawa, M. Ishida, T. Nakajima, 
 Y. Honda, O. Kitao, H. Nakai, T. Vreven, J. A. Montgomery, Jr., 
 J. E. Peralta, F. Ogliaro, M. Bearpark, J. J. Heyd, E. Brothers, 
 K. N. Kudin, V. N. Staroverov, T. Keith, R. Kobayashi, J. Normand, 
 K. Raghavachari, A. Rendell, J. C. Burant, S. S. Iyengar, J. Tomasi, 
 M. Cossi, N. Rega, J. M. Millam, M. Klene, J. E. Knox, J. B. Cross, 
 V. Bakken, C. Adamo, J. Jaramillo, R. Gomperts, R. E. Stratmann, 
 O. Yazyev, A. J. Austin, R. Cammi, C. Pomelli, J. W. Ochterski, 
 R. L. Martin, K. Morokuma, V. G. Zakrzewski, G. A. Voth, 
 P. Salvador, J. J. Dannenberg, S. Dapprich, A. D. Daniels, 
 O. Farkas, J. B. Foresman, J. V. Ortiz, J. Cioslowski, 
 and D. J. Fox, Gaussian, Inc., Wallingford CT, 2013.
 
 ******************************************
 Gaussian 09:  ES64L-G09RevE.01 30-Nov-2015
                20-Aug-2021 
 ******************************************
 %nproc=32
 Will use up to   32 processors via shared memory.
 %mem=180GB
 -------------------------
 #P OPT Freq B3LYP/6-31G**
 -------------------------
 1/14=-1,18=20,19=15,26=3,38=1/1,3;
 2/9=110,12=2,17=6,18=5,40=1/2;
 3/5=1,6=6,7=101,11=2,16=1,25=1,30=1,71=1,74=-5/1,2,3;
 4//1;
 5/5=2,38=5/2;
 6/7=2,8=2,9=2,10=2,28=1/1;
 7//1,2,3,16;
 1/14=-1,18=20,19=15,26=3/3(2);
 2/9=110/2;
 99//99;
 2/9=110/2;
 3/5=1,6=6,7=101,11=2,16=1,25=1,30=1,71=1,74=-5/1,2,3;
 4/5=5,16=3,69=1/1;
 5/5=2,38=5/2;
 7//1,2,3,16;
 1/14=-1,18=20,19=15,26=3/3(-5);
 2/9=110/2;
 6/7=2,8=2,9=2,10=2,19=2,28=1/1;
 99/9=1/99;
 Leave Link    1 at Fri Aug 20 15:36:56 2021, MaxMem= 24159191040 cpu:         2.2
 (Enter /public/home/users/caep010/software/Gaussian09/g09/l101.exe)
 ------
 YUYCOK
 ------
 Symbolic Z-matrix:
 Charge =  0 Multiplicity = 1
 O                     5.2634    2.2424    2.4631 
 C                     4.1093    2.8893    2.8019 
 C                     3.0776    2.4463    2.0378 
 H                     2.1813    2.7554    2.0637 
 C                     3.5925    1.4657    1.1874 
 H                     3.113     0.9819    0.6044 
 C                     4.9051    1.3897    1.4829 
 N                     5.9013    0.5088    1.0056 
 O                     5.5759   -0.2716    0.1131 
 O                     7.0148    0.544     1.5134 
 C                     4.1679    3.9278    3.7994 
 H                     3.4378    4.3634    4.0342 
 N                     5.2711    4.2739    4.3285 
 O                     5.1036    5.3041    5.235 
 H                     5.9329    5.742     5.4566 
 
 NAtoms=     15 NQM=       15 NQMF=       0 NMMI=      0 NMMIF=      0
                NMic=       0 NMicF=      0.
                    Isotopes and Nuclear Properties:
 (Nuclear quadrupole moments (NQMom) in fm**2, nuclear magnetic moments (NMagM)
  in nuclear magnetons)

  Atom         1           2           3           4           5           6           7           8           9          10
 IAtWgt=          16          12          12           1          12           1          12          14          16          16
 AtmWgt=  15.9949146  12.0000000  12.0000000   1.0078250  12.0000000   1.0078250  12.0000000  14.0030740  15.9949146  15.9949146
 NucSpn=           0           0           0           1           0           1           0           2           0           0
 AtZEff=   0.0000000   0.0000000   0.0000000   0.0000000   0.0000000   0.0000000   0.0000000   0.0000000   0.0000000   0.0000000
 NQMom=    0.0000000   0.0000000   0.0000000   0.0000000   0.0000000   0.0000000   0.0000000   2.0440000   0.0000000   0.0000000
 NMagM=    0.0000000   0.0000000   0.0000000   2.7928460   0.0000000   2.7928460   0.0000000   0.4037610   0.0000000   0.0000000
 AtZNuc=   8.0000000   6.0000000   6.0000000   1.0000000   6.0000000   1.0000000   6.0000000   7.0000000   8.0000000   8.0000000

  Atom        11          12          13          14          15
 IAtWgt=          12           1          14          16           1
 AtmWgt=  12.0000000   1.0078250  14.0030740  15.9949146   1.0078250
 NucSpn=           0           1           2           0           1
 AtZEff=   0.0000000   0.0000000   0.0000000   0.0000000   0.0000000
 NQMom=    0.0000000   0.0000000   2.0440000   0.0000000   0.0000000
 NMagM=    0.0000000   2.7928460   0.4037610   0.0000000   2.7928460
 AtZNuc=   6.0000000   1.0000000   7.0000000   8.0000000   1.0000000
 Leave Link  101 at Fri Aug 20 15:36:57 2021, MaxMem= 24159191040 cpu:        10.8
 (Enter /public/home/users/caep010/software/Gaussian09/g09/l103.exe)

 GradGradGradGradGradGradGradGradGradGradGradGradGradGradGradGradGradGrad
 Berny optimization.
 Initialization pass.
                           ----------------------------
                           !    Initial Parameters    !
                           ! (Angstroms and Degrees)  !
 --------------------------                            --------------------------
 ! Name  Definition              Value          Derivative Info.                !
 --------------------------------------------------------------------------------
 ! R1    R(1,2)                  1.3657         estimate D2E/DX2                !
 ! R2    R(1,7)                  1.3477         estimate D2E/DX2                !
 ! R3    R(2,3)                  1.3581         estimate D2E/DX2                !
 ! R4    R(2,11)                 1.4412         estimate D2E/DX2                !
 ! R5    R(3,4)                  0.9485         estimate D2E/DX2                !
 ! R6    R(3,5)                  1.3964         estimate D2E/DX2                !
 ! R7    R(5,6)                  0.8966         estimate D2E/DX2                !
 ! R8    R(5,7)                  1.3476         estimate D2E/DX2                !
 ! R9    R(7,8)                  1.4129         estimate D2E/DX2                !
 ! R10   R(8,9)                  1.2294         estimate D2E/DX2                !
 ! R11   R(8,10)                 1.2243         estimate D2E/DX2                !
 ! R12   R(11,12)                0.882          estimate D2E/DX2                !
 ! R13   R(11,13)                1.2715         estimate D2E/DX2                !
 ! R14   R(13,14)                1.3824         estimate D2E/DX2                !
 ! R15   R(14,15)                0.9636         estimate D2E/DX2                !
 ! A1    A(2,1,7)              104.8007         estimate D2E/DX2                !
 ! A2    A(1,2,3)              110.3568         estimate D2E/DX2                !
 ! A3    A(1,2,11)             118.5985         estimate D2E/DX2                !
 ! A4    A(3,2,11)             130.9465         estimate D2E/DX2                !
 ! A5    A(2,3,4)              126.599          estimate D2E/DX2                !
 ! A6    A(2,3,5)              106.9527         estimate D2E/DX2                !
 ! A7    A(4,3,5)              126.438          estimate D2E/DX2                !
 ! A8    A(3,5,6)              125.2909         estimate D2E/DX2                !
 ! A9    A(3,5,7)              105.3804         estimate D2E/DX2                !
 ! A10   A(6,5,7)              129.2769         estimate D2E/DX2                !
 ! A11   A(1,7,5)              112.5048         estimate D2E/DX2                !
 ! A12   A(1,7,8)              116.9191         estimate D2E/DX2                !
 ! A13   A(5,7,8)              130.3806         estimate D2E/DX2                !
 ! A14   A(7,8,9)              117.0257         estimate D2E/DX2                !
 ! A15   A(7,8,10)             118.896          estimate D2E/DX2                !
 ! A16   A(9,8,10)             124.0602         estimate D2E/DX2                !
 ! A17   A(2,11,12)            120.4304         estimate D2E/DX2                !
 ! A18   A(2,11,13)            121.2945         estimate D2E/DX2                !
 ! A19   A(12,11,13)           118.2286         estimate D2E/DX2                !
 ! A20   A(11,13,14)           111.7511         estimate D2E/DX2                !
 ! A21   A(13,14,15)           112.6537         estimate D2E/DX2                !
 ! D1    D(7,1,2,3)             -0.4551         estimate D2E/DX2                !
 ! D2    D(7,1,2,11)          -177.2444         estimate D2E/DX2                !
 ! D3    D(2,1,7,5)              0.0359         estimate D2E/DX2                !
 ! D4    D(2,1,7,8)           -175.4145         estimate D2E/DX2                !
 ! D5    D(1,2,3,4)           -178.2005         estimate D2E/DX2                !
 ! D6    D(1,2,3,5)              0.6888         estimate D2E/DX2                !
 ! D7    D(11,2,3,4)            -1.9334         estimate D2E/DX2                !
 ! D8    D(11,2,3,5)           176.9559         estimate D2E/DX2                !
 ! D9    D(1,2,11,12)          179.7575         estimate D2E/DX2                !
 ! D10   D(1,2,11,13)            2.284          estimate D2E/DX2                !
 ! D11   D(3,2,11,12)            3.744          estimate D2E/DX2                !
 ! D12   D(3,2,11,13)         -173.7296         estimate D2E/DX2                !
 ! D13   D(2,3,5,6)            176.9493         estimate D2E/DX2                !
 ! D14   D(2,3,5,7)             -0.6338         estimate D2E/DX2                !
 ! D15   D(4,3,5,6)             -4.1591         estimate D2E/DX2                !
 ! D16   D(4,3,5,7)            178.2578         estimate D2E/DX2                !
 ! D17   D(3,5,7,1)              0.3743         estimate D2E/DX2                !
 ! D18   D(3,5,7,8)            175.0469         estimate D2E/DX2                !
 ! D19   D(6,5,7,1)           -177.0771         estimate D2E/DX2                !
 ! D20   D(6,5,7,8)             -2.4045         estimate D2E/DX2                !
 ! D21   D(1,7,8,9)            179.8707         estimate D2E/DX2                !
 ! D22   D(1,7,8,10)             1.3528         estimate D2E/DX2                !
 ! D23   D(5,7,8,9)              5.3911         estimate D2E/DX2                !
 ! D24   D(5,7,8,10)          -173.1268         estimate D2E/DX2                !
 ! D25   D(2,11,13,14)         178.6503         estimate D2E/DX2                !
 ! D26   D(12,11,13,14)          1.1228         estimate D2E/DX2                !
 ! D27   D(11,13,14,15)       -163.8487         estimate D2E/DX2                !
 --------------------------------------------------------------------------------
 Trust Radius=3.00D-01 FncErr=1.00D-07 GrdErr=1.00D-06
 Number of steps in this run=     73 maximum allowed number of steps=    100.
 GradGradGradGradGradGradGradGradGradGradGradGradGradGradGradGradGradGrad

 Leave Link  103 at Fri Aug 20 15:36:57 2021, MaxMem= 24159191040 cpu:         0.6
 (Enter /public/home/users/caep010/software/Gaussian09/g09/l202.exe)
                          Input orientation:                          
 ---------------------------------------------------------------------
 Center     Atomic      Atomic             Coordinates (Angstroms)
 Number     Number       Type             X           Y           Z
 ---------------------------------------------------------------------
      1          8           0        5.263400    2.242400    2.463100
      2          6           0        4.109300    2.889300    2.801900
      3          6           0        3.077600    2.446300    2.037800
      4          1           0        2.181300    2.755400    2.063700
      5          6           0        3.592500    1.465700    1.187400
      6          1           0        3.113000    0.981900    0.604400
      7          6           0        4.905100    1.389700    1.482900
      8          7           0        5.901300    0.508800    1.005600
      9          8           0        5.575900   -0.271600    0.113100
     10          8           0        7.014800    0.544000    1.513400
     11          6           0        4.167900    3.927800    3.799400
     12          1           0        3.437800    4.363400    4.034200
     13          7           0        5.271100    4.273900    4.328500
     14          8           0        5.103600    5.304100    5.235000
     15          1           0        5.932900    5.742000    5.456600
 ---------------------------------------------------------------------
                    Distance matrix (angstroms):
                    1          2          3          4          5
     1  O    0.000000
     2  C    1.365728   0.000000
     3  C    2.236108   1.358125   0.000000
     4  H    3.149925   2.068829   0.948455   0.000000
     5  C    2.241111   2.213669   1.396381   2.103025   0.000000
     6  H    3.109316   3.075678   2.049477   2.478492   0.896589
     7  C    1.347690   2.149851   2.182676   3.101863   1.347596
     8  N    2.352996   3.479186   3.576678   4.472716   2.505846
     9  O    3.455481   4.401346   4.163286   4.948826   2.847140
    10  O    2.617994   3.950012   4.404008   5.343767   3.559206
    11  C    2.413792   1.441153   2.546926   2.886825   3.635322
    12  H    3.209332   2.035300   2.791170   2.836781   4.065079
    13  N    2.758037   2.365883   3.660447   4.120925   4.535438
    14  O    4.133155   3.569295   4.742761   5.009277   5.779256
    15  H    4.653652   4.302423   5.540990   5.874185   6.479991
                    6          7          8          9         10
     6  H    0.000000
     7  C    2.037078   0.000000
     8  N    2.856467   1.412875   0.000000
     9  O    2.806869   2.255270   1.229417   0.000000
    10  O    4.030146   2.273098   1.224329   2.167136   0.000000
    11  C    4.472043   3.514483   4.743370   5.762485   4.978026
    12  H    4.827377   4.183897   5.486273   6.436592   5.808371
    13  N    5.418817   4.068170   5.061106   6.206776   4.987728
    14  O    6.639756   5.425881   6.443528   7.585866   6.337314
    15  H    7.358956   5.982406   6.870137   8.052566   6.613512
                   11         12         13         14         15
    11  C    0.000000
    12  H    0.882000   0.000000
    13  N    1.271528   1.858928   0.000000
    14  O    2.197882   2.258700   1.382429   0.000000
    15  H    3.025369   3.185794   1.966191   0.963640   0.000000
 Stoichiometry    C5H4N2O4
 Framework group  C1[X(C5H4N2O4)]
 Deg. of freedom    39
 Full point group                 C1      NOp   1
 Largest Abelian subgroup         C1      NOp   1
 Largest concise Abelian subgroup C1      NOp   1
                         Standard orientation:                         
 ---------------------------------------------------------------------
 Center     Atomic      Atomic             Coordinates (Angstroms)
 Number     Number       Type             X           Y           Z
 ---------------------------------------------------------------------
      1          8           0        0.032693   -0.324894   -0.005151
      2          6           0       -0.831952    0.730903   -0.058929
      3          6           0       -0.148037    1.903799   -0.026103
      4          1           0       -0.520757    2.775949   -0.027353
      5          6           0        1.209356    1.582033    0.035781
      6          1           0        1.882840    2.173841    0.028424
      7          6           0        1.257135    0.235366    0.050699
      8          7           0        2.364180   -0.641742    0.014018
      9          8           0        3.482157   -0.132573    0.062385
     10          8           0        2.162579   -1.844826   -0.090527
     11          6           0       -2.248002    0.463189   -0.066365
     12          1           0       -2.827974    1.126960   -0.097422
     13          7           0       -2.696261   -0.723629    0.019127
     14          8           0       -4.078429   -0.750130    0.023499
     15          1           0       -4.432547   -1.591509    0.332181
 ---------------------------------------------------------------------
 Rotational constants (GHZ):      2.8338003      0.5927232      0.4906479
 Leave Link  202 at Fri Aug 20 15:36:57 2021, MaxMem= 24159191040 cpu:         0.7
 (Enter /public/home/users/caep010/software/Gaussian09/g09/l301.exe)
 Standard basis: 6-31G(d,p) (6D, 7F)
 Ernie: Thresh=  0.10000D-02 Tol=  0.10000D-05 Strict=F.
 There are   185 symmetry adapted cartesian basis functions of A   symmetry.
 There are   185 symmetry adapted basis functions of A   symmetry.
   185 basis functions,   336 primitive gaussians,   185 cartesian basis functions
    40 alpha electrons       40 beta electrons
       nuclear repulsion energy       587.4945724775 Hartrees.
 IExCor=  402 DFT=T Ex+Corr=B3LYP ExCW=0 ScaHFX=  0.200000
 ScaDFX=  0.800000  0.720000  1.000000  0.810000 ScalE2=  1.000000  1.000000
 IRadAn=      0 IRanWt=     -1 IRanGd=            0 ICorTp=0 IEmpDi=  4
 NAtoms=   15 NActive=   15 NUniq=   15 SFac= 1.00D+00 NAtFMM=   60 NAOKFM=F Big=F
 Integral buffers will be    131072 words long.
 Raffenetti 2 integral format.
 Two-electron integral symmetry is turned on.
 Leave Link  301 at Fri Aug 20 15:36:57 2021, MaxMem= 24159191040 cpu:         1.9
 (Enter /public/home/users/caep010/software/Gaussian09/g09/l302.exe)
 NPDir=0 NMtPBC=     1 NCelOv=     1 NCel=       1 NClECP=     1 NCelD=      1
         NCelK=      1 NCelE2=     1 NClLst=     1 CellRange=     0.0.
 One-electron integrals computed using PRISM.
 NBasis=   185 RedAO= T EigKep=  5.10D-04  NBF=   185
 NBsUse=   185 1.00D-06 EigRej= -1.00D+00 NBFU=   185
 Precomputing XC quadrature grid using
 IXCGrd= 4 IRadAn=           0 IRanWt=          -1 IRanGd=           0 AccXCQ= 0.00D+00.
 Generated NRdTot=       0 NPtTot=           0 NUsed=           0 NTot=          32
 NSgBfM=   184   184   184   184   184 MxSgAt=    15 MxSgA2=    15.
 Leave Link  302 at Fri Aug 20 15:36:57 2021, MaxMem= 24159191040 cpu:        12.5
 (Enter /public/home/users/caep010/software/Gaussian09/g09/l303.exe)
 DipDrv:  MaxL=1.
 Leave Link  303 at Fri Aug 20 15:36:58 2021, MaxMem= 24159191040 cpu:         1.7
 (Enter /public/home/users/caep010/software/Gaussian09/g09/l401.exe)
 ExpMin= 1.61D-01 ExpMax= 5.48D+03 ExpMxC= 8.25D+02 IAcc=1 IRadAn=         1 AccDes= 0.00D+00
 Harris functional with IExCor=  402 and IRadAn=       1 diagonalized for initial guess.
 HarFok:  IExCor=  402 AccDes= 0.00D+00 IRadAn=         1 IDoV= 1 UseB2=F ITyADJ=14
 ICtDFT=  3500011 ScaDFX=  1.000000  1.000000  1.000000  1.000000
 FoFCou: FMM=F IPFlag=           0 FMFlag=      100000 FMFlg1=           0
         NFxFlg=           0 DoJE=T BraDBF=F KetDBF=T FulRan=T
         wScrn=  0.000000 ICntrl=     500 IOpCl=  0 I1Cent=   200000004 NGrid=           0
         NMat0=    1 NMatS0=      1 NMatT0=    0 NMatD0=    1 NMtDS0=    0 NMtDT0=    0
 Petite list used in FoFCou.
 Harris En= -603.113511297582    
 JPrj=0 DoOrth=F DoCkMO=F.
 Leave Link  401 at Fri Aug 20 15:36:58 2021, MaxMem= 24159191040 cpu:        14.4
 (Enter /public/home/users/caep010/software/Gaussian09/g09/l502.exe)
 Closed shell SCF:
 Using DIIS extrapolation, IDIIS=  1040.
 Integral symmetry usage will be decided dynamically.
 Keep R1 ints in memory in canonical form, NReq=151360476.
 IVT=      128526 IEndB=      128526 NGot= 24159191040 MDV= 24011047900
 LenX= 24011047900 LenY= 24011013234
 Requested convergence on RMS density matrix=1.00D-08 within 128 cycles.
 Requested convergence on MAX density matrix=1.00D-06.
 Requested convergence on             energy=1.00D-06.
 No special actions if energy rises.
 FoFCou: FMM=F IPFlag=           0 FMFlag=           0 FMFlg1=           0
         NFxFlg=           0 DoJE=F BraDBF=F KetDBF=F FulRan=T
         wScrn=  0.000000 ICntrl=     600 IOpCl=  0 I1Cent=           0 NGrid=           0
         NMat0=    1 NMatS0=  17205 NMatT0=    0 NMatD0=    1 NMtDS0=    0 NMtDT0=    0
 Symmetry not used in FoFCou.
 Integral accuracy reduced to 1.0D-05 until final iterations.

 Cycle   1  Pass 0  IDiag  1:
 E= -602.716296128106    
 DIIS: error= 4.84D-02 at cycle   1 NSaved=   1.
 NSaved= 1 IEnMin= 1 EnMin= -602.716296128106     IErMin= 1 ErrMin= 4.84D-02
 ErrMax= 4.84D-02  0.00D+00 EMaxC= 1.00D-01 BMatC= 4.09D-01 BMatP= 4.09D-01
 IDIUse=3 WtCom= 5.16D-01 WtEn= 4.84D-01
 Coeff-Com:  0.100D+01
 Coeff-En:   0.100D+01
 Coeff:      0.100D+01
 Gap=     0.080 Goal=   None    Shift=    0.000
 GapD=    0.080 DampG=0.500 DampE=0.500 DampFc=0.2500 IDamp=-1.
 Damping current iteration by 2.50D-01
 RMSDP=7.40D-03 MaxDP=2.51D-01              OVMax= 3.39D-01

 Cycle   2  Pass 0  IDiag  1:
 E= -602.836877655209     Delta-E=       -0.120581527103 Rises=F Damp=T
 DIIS: error= 1.43D-02 at cycle   2 NSaved=   2.
 NSaved= 2 IEnMin= 2 EnMin= -602.836877655209     IErMin= 2 ErrMin= 1.43D-02
 ErrMax= 1.43D-02  0.00D+00 EMaxC= 1.00D-01 BMatC= 6.59D-02 BMatP= 4.09D-01
 IDIUse=3 WtCom= 8.57D-01 WtEn= 1.43D-01
 Coeff-Com: -0.438D+00 0.144D+01
 Coeff-En:   0.000D+00 0.100D+01
 Coeff:     -0.375D+00 0.138D+01
 Gap=     0.156 Goal=   None    Shift=    0.000
 RMSDP=2.37D-03 MaxDP=5.69D-02 DE=-1.21D-01 OVMax= 2.58D-01

 Cycle   3  Pass 0  IDiag  1:
 E= -603.032972485499     Delta-E=       -0.196094830290 Rises=F Damp=F
 DIIS: error= 9.51D-03 at cycle   3 NSaved=   3.
 NSaved= 3 IEnMin= 3 EnMin= -603.032972485499     IErMin= 3 ErrMin= 9.51D-03
 ErrMax= 9.51D-03  0.00D+00 EMaxC= 1.00D-01 BMatC= 2.20D-02 BMatP= 6.59D-02
 IDIUse=3 WtCom= 9.05D-01 WtEn= 9.51D-02
 Coeff-Com: -0.222D+00 0.669D+00 0.553D+00
 Coeff-En:   0.000D+00 0.000D+00 0.100D+01
 Coeff:     -0.201D+00 0.605D+00 0.596D+00
 Gap=     0.151 Goal=   None    Shift=    0.000
 RMSDP=1.20D-03 MaxDP=3.80D-02 DE=-1.96D-01 OVMax= 7.79D-02

 Cycle   4  Pass 0  IDiag  1:
 E= -603.041028180502     Delta-E=       -0.008055695003 Rises=F Damp=F
 DIIS: error= 1.46D-02 at cycle   4 NSaved=   4.
 NSaved= 4 IEnMin= 4 EnMin= -603.041028180502     IErMin= 3 ErrMin= 9.51D-03
 ErrMax= 1.46D-02  0.00D+00 EMaxC= 1.00D-01 BMatC= 1.39D-02 BMatP= 2.20D-02
 IDIUse=3 WtCom= 8.54D-01 WtEn= 1.46D-01
 Coeff-Com: -0.954D-01 0.292D+00 0.421D+00 0.382D+00
 Coeff-En:   0.000D+00 0.000D+00 0.382D+00 0.618D+00
 Coeff:     -0.814D-01 0.250D+00 0.415D+00 0.416D+00
 Gap=     0.149 Goal=   None    Shift=    0.000
 RMSDP=6.88D-04 MaxDP=3.46D-02 DE=-8.06D-03 OVMax= 7.59D-02

 Cycle   5  Pass 0  IDiag  1:
 E= -603.049317528787     Delta-E=       -0.008289348285 Rises=F Damp=F
 DIIS: error= 8.25D-03 at cycle   5 NSaved=   5.
 NSaved= 5 IEnMin= 5 EnMin= -603.049317528787     IErMin= 5 ErrMin= 8.25D-03
 ErrMax= 8.25D-03  0.00D+00 EMaxC= 1.00D-01 BMatC= 3.44D-03 BMatP= 1.39D-02
 IDIUse=3 WtCom= 9.17D-01 WtEn= 8.25D-02
 Coeff-Com: -0.135D-01 0.557D-01 0.192D+00 0.335D+00 0.431D+00
 Coeff-En:   0.000D+00 0.000D+00 0.000D+00 0.251D+00 0.749D+00
 Coeff:     -0.124D-01 0.511D-01 0.176D+00 0.328D+00 0.457D+00
 Gap=     0.148 Goal=   None    Shift=    0.000
 RMSDP=3.08D-04 MaxDP=1.60D-02 DE=-8.29D-03 OVMax= 3.17D-02

 Cycle   6  Pass 0  IDiag  1:
 E= -603.051878905072     Delta-E=       -0.002561376285 Rises=F Damp=F
 DIIS: error= 1.56D-03 at cycle   6 NSaved=   6.
 NSaved= 6 IEnMin= 6 EnMin= -603.051878905072     IErMin= 6 ErrMin= 1.56D-03
 ErrMax= 1.56D-03  0.00D+00 EMaxC= 1.00D-01 BMatC= 2.77D-04 BMatP= 3.44D-03
 IDIUse=3 WtCom= 9.84D-01 WtEn= 1.56D-02
 Coeff-Com:  0.135D-02 0.408D-02 0.668D-01 0.164D+00 0.303D+00 0.462D+00
 Coeff-En:   0.000D+00 0.000D+00 0.000D+00 0.000D+00 0.684D-01 0.932D+00
 Coeff:      0.133D-02 0.401D-02 0.658D-01 0.161D+00 0.299D+00 0.469D+00
 Gap=     0.149 Goal=   None    Shift=    0.000
 RMSDP=8.03D-05 MaxDP=2.93D-03 DE=-2.56D-03 OVMax= 5.98D-03

 Cycle   7  Pass 0  IDiag  1:
 E= -603.052086398462     Delta-E=       -0.000207493390 Rises=F Damp=F
 DIIS: error= 2.25D-04 at cycle   7 NSaved=   7.
 NSaved= 7 IEnMin= 7 EnMin= -603.052086398462     IErMin= 7 ErrMin= 2.25D-04
 ErrMax= 2.25D-04  0.00D+00 EMaxC= 1.00D-01 BMatC= 1.35D-05 BMatP= 2.77D-04
 IDIUse=3 WtCom= 9.98D-01 WtEn= 2.25D-03
 Coeff-Com:  0.167D-02-0.223D-02 0.197D-01 0.577D-01 0.125D+00 0.265D+00
 Coeff-Com:  0.533D+00
 Coeff-En:   0.000D+00 0.000D+00 0.000D+00 0.000D+00 0.000D+00 0.000D+00
 Coeff-En:   0.100D+01
 Coeff:      0.167D-02-0.223D-02 0.196D-01 0.575D-01 0.125D+00 0.265D+00
 Coeff:      0.534D+00
 Gap=     0.149 Goal=   None    Shift=    0.000
 RMSDP=2.30D-05 MaxDP=6.59D-04 DE=-2.07D-04 OVMax= 1.52D-03

 Cycle   8  Pass 0  IDiag  1:
 E= -603.052096528688     Delta-E=       -0.000010130226 Rises=F Damp=F
 DIIS: error= 7.48D-05 at cycle   8 NSaved=   8.
 NSaved= 8 IEnMin= 8 EnMin= -603.052096528688     IErMin= 8 ErrMin= 7.48D-05
 ErrMax= 7.48D-05  0.00D+00 EMaxC= 1.00D-01 BMatC= 1.64D-06 BMatP= 1.35D-05
 IDIUse=1 WtCom= 1.00D+00 WtEn= 0.00D+00
 Coeff-Com:  0.971D-03-0.209D-02 0.443D-02 0.175D-01 0.445D-01 0.111D+00
 Coeff-Com:  0.315D+00 0.509D+00
 Coeff:      0.971D-03-0.209D-02 0.443D-02 0.175D-01 0.445D-01 0.111D+00
 Coeff:      0.315D+00 0.509D+00
 Gap=     0.149 Goal=   None    Shift=    0.000
 RMSDP=8.10D-06 MaxDP=2.84D-04 DE=-1.01D-05 OVMax= 6.79D-04

 Initial convergence to 1.0D-05 achieved.  Increase integral accuracy.
 Cycle   9  Pass 1  IDiag  1:
 E= -603.052094908438     Delta-E=        0.000001620250 Rises=F Damp=F
 DIIS: error= 1.85D-05 at cycle   1 NSaved=   1.
 NSaved= 1 IEnMin= 1 EnMin= -603.052094908438     IErMin= 1 ErrMin= 1.85D-05
 ErrMax= 1.85D-05  0.00D+00 EMaxC= 1.00D-01 BMatC= 1.60D-07 BMatP= 1.60D-07
 IDIUse=1 WtCom= 1.00D+00 WtEn= 0.00D+00
 Coeff-Com:  0.100D+01
 Coeff:      0.100D+01
 Gap=     0.149 Goal=   None    Shift=    0.000
 RMSDP=8.10D-06 MaxDP=2.84D-04 DE= 1.62D-06 OVMax= 5.15D-04

 Cycle  10  Pass 1  IDiag  1:
 E= -603.052094650913     Delta-E=        0.000000257525 Rises=F Damp=F
 DIIS: error= 3.88D-05 at cycle   2 NSaved=   2.
 NSaved= 2 IEnMin= 1 EnMin= -603.052094908438     IErMin= 1 ErrMin= 1.85D-05
 ErrMax= 3.88D-05  0.00D+00 EMaxC= 1.00D-01 BMatC= 4.32D-07 BMatP= 1.60D-07
 IDIUse=1 WtCom= 1.00D+00 WtEn= 0.00D+00
 Coeff-Com:  0.635D+00 0.365D+00
 Coeff:      0.635D+00 0.365D+00
 Gap=     0.149 Goal=   None    Shift=    0.000
 RMSDP=3.86D-06 MaxDP=2.08D-04 DE= 2.58D-07 OVMax= 3.99D-04

 Cycle  11  Pass 1  IDiag  1:
 E= -603.052095055680     Delta-E=       -0.000000404767 Rises=F Damp=F
 DIIS: error= 7.59D-06 at cycle   3 NSaved=   3.
 NSaved= 3 IEnMin= 3 EnMin= -603.052095055680     IErMin= 3 ErrMin= 7.59D-06
 ErrMax= 7.59D-06  0.00D+00 EMaxC= 1.00D-01 BMatC= 1.33D-08 BMatP= 1.60D-07
 IDIUse=1 WtCom= 1.00D+00 WtEn= 0.00D+00
 Coeff-Com:  0.115D+00 0.162D+00 0.723D+00
 Coeff:      0.115D+00 0.162D+00 0.723D+00
 Gap=     0.149 Goal=   None    Shift=    0.000
 RMSDP=7.21D-07 MaxDP=3.22D-05 DE=-4.05D-07 OVMax= 4.47D-05

 Cycle  12  Pass 1  IDiag  1:
 E= -603.052095063146     Delta-E=       -0.000000007466 Rises=F Damp=F
 DIIS: error= 4.62D-06 at cycle   4 NSaved=   4.
 NSaved= 4 IEnMin= 4 EnMin= -603.052095063146     IErMin= 4 ErrMin= 4.62D-06
 ErrMax= 4.62D-06  0.00D+00 EMaxC= 1.00D-01 BMatC= 5.05D-09 BMatP= 1.33D-08
 IDIUse=1 WtCom= 1.00D+00 WtEn= 0.00D+00
 Coeff-Com: -0.295D-02 0.642D-01 0.468D+00 0.471D+00
 Coeff:     -0.295D-02 0.642D-01 0.468D+00 0.471D+00
 Gap=     0.149 Goal=   None    Shift=    0.000
 RMSDP=3.70D-07 MaxDP=1.25D-05 DE=-7.47D-09 OVMax= 2.75D-05

 Cycle  13  Pass 1  IDiag  1:
 E= -603.052095066643     Delta-E=       -0.000000003497 Rises=F Damp=F
 DIIS: error= 3.67D-06 at cycle   5 NSaved=   5.
 NSaved= 5 IEnMin= 5 EnMin= -603.052095066643     IErMin= 5 ErrMin= 3.67D-06
 ErrMax= 3.67D-06  0.00D+00 EMaxC= 1.00D-01 BMatC= 7.64D-10 BMatP= 5.05D-09
 IDIUse=1 WtCom= 1.00D+00 WtEn= 0.00D+00
 Coeff-Com: -0.758D-02 0.378D-01 0.292D+00 0.343D+00 0.335D+00
 Coeff:     -0.758D-02 0.378D-01 0.292D+00 0.343D+00 0.335D+00
 Gap=     0.149 Goal=   None    Shift=    0.000
 RMSDP=1.40D-07 MaxDP=7.01D-06 DE=-3.50D-09 OVMax= 1.50D-05

 Cycle  14  Pass 1  IDiag  1:
 E= -603.052095067224     Delta-E=       -0.000000000581 Rises=F Damp=F
 DIIS: error= 8.77D-07 at cycle   6 NSaved=   6.
 NSaved= 6 IEnMin= 6 EnMin= -603.052095067224     IErMin= 6 ErrMin= 8.77D-07
 ErrMax= 8.77D-07  0.00D+00 EMaxC= 1.00D-01 BMatC= 6.23D-11 BMatP= 7.64D-10
 IDIUse=1 WtCom= 1.00D+00 WtEn= 0.00D+00
 Coeff-Com: -0.559D-02 0.160D-01 0.125D+00 0.163D+00 0.228D+00 0.473D+00
 Coeff:     -0.559D-02 0.160D-01 0.125D+00 0.163D+00 0.228D+00 0.473D+00
 Gap=     0.149 Goal=   None    Shift=    0.000
 RMSDP=4.00D-08 MaxDP=1.70D-06 DE=-5.81D-10 OVMax= 3.63D-06

 Cycle  15  Pass 1  IDiag  1:
 E= -603.052095067267     Delta-E=       -0.000000000044 Rises=F Damp=F
 DIIS: error= 2.17D-07 at cycle   7 NSaved=   7.
 NSaved= 7 IEnMin= 7 EnMin= -603.052095067267     IErMin= 7 ErrMin= 2.17D-07
 ErrMax= 2.17D-07  0.00D+00 EMaxC= 1.00D-01 BMatC= 5.65D-12 BMatP= 6.23D-11
 IDIUse=1 WtCom= 1.00D+00 WtEn= 0.00D+00
 Coeff-Com: -0.238D-02 0.602D-02 0.442D-01 0.618D-01 0.960D-01 0.292D+00
 Coeff-Com:  0.502D+00
 Coeff:     -0.238D-02 0.602D-02 0.442D-01 0.618D-01 0.960D-01 0.292D+00
 Coeff:      0.502D+00
 Gap=     0.149 Goal=   None    Shift=    0.000
 RMSDP=1.28D-08 MaxDP=4.71D-07 DE=-4.37D-11 OVMax= 8.35D-07

 Cycle  16  Pass 1  IDiag  1:
 E= -603.052095067283     Delta-E=       -0.000000000015 Rises=F Damp=F
 DIIS: error= 3.46D-08 at cycle   8 NSaved=   8.
 NSaved= 8 IEnMin= 8 EnMin= -603.052095067283     IErMin= 8 ErrMin= 3.46D-08
 ErrMax= 3.46D-08  0.00D+00 EMaxC= 1.00D-01 BMatC= 4.83D-13 BMatP= 5.65D-12
 IDIUse=1 WtCom= 1.00D+00 WtEn= 0.00D+00
 Coeff-Com: -0.665D-03 0.147D-02 0.890D-02 0.139D-01 0.251D-01 0.108D+00
 Coeff-Com:  0.282D+00 0.562D+00
 Coeff:     -0.665D-03 0.147D-02 0.890D-02 0.139D-01 0.251D-01 0.108D+00
 Coeff:      0.282D+00 0.562D+00
 Gap=     0.149 Goal=   None    Shift=    0.000
 RMSDP=4.74D-09 MaxDP=1.51D-07 DE=-1.52D-11 OVMax= 3.00D-07

 SCF Done:  E(RB3LYP) =  -603.052095067     A.U. after   16 cycles
            NFock= 16  Conv=0.47D-08     -V/T= 2.0065
 KE= 5.991641896357D+02 PE=-2.586681147458D+03 EE= 7.969702902775D+02
 Leave Link  502 at Fri Aug 20 15:37:04 2021, MaxMem= 24159191040 cpu:        72.1
 (Enter /public/home/users/caep010/software/Gaussian09/g09/l601.exe)
 Copying SCF densities to generalized density rwf, IOpCl= 0 IROHF=0.

 **********************************************************************

            Population analysis using the SCF density.

 **********************************************************************

 Orbital symmetries:
       Occupied  (A) (A) (A) (A) (A) (A) (A) (A) (A) (A) (A) (A)
                 (A) (A) (A) (A) (A) (A) (A) (A) (A) (A) (A) (A)
                 (A) (A) (A) (A) (A) (A) (A) (A) (A) (A) (A) (A)
                 (A) (A) (A) (A)
       Virtual   (A) (A) (A) (A) (A) (A) (A) (A) (A) (A) (A) (A)
                 (A) (A) (A) (A) (A) (A) (A) (A) (A) (A) (A) (A)
                 (A) (A) (A) (A) (A) (A) (A) (A) (A) (A) (A) (A)
                 (A) (A) (A) (A) (A) (A) (A) (A) (A) (A) (A) (A)
                 (A) (A) (A) (A) (A) (A) (A) (A) (A) (A) (A) (A)
                 (A) (A) (A) (A) (A) (A) (A) (A) (A) (A) (A) (A)
                 (A) (A) (A) (A) (A) (A) (A) (A) (A) (A) (A) (A)
                 (A) (A) (A) (A) (A) (A) (A) (A) (A) (A) (A) (A)
                 (A) (A) (A) (A) (A) (A) (A) (A) (A) (A) (A) (A)
                 (A) (A) (A) (A) (A) (A) (A) (A) (A) (A) (A) (A)
                 (A) (A) (A) (A) (A) (A) (A) (A) (A) (A) (A) (A)
                 (A) (A) (A) (A) (A) (A) (A) (A) (A) (A) (A) (A)
                 (A)
 The electronic state is 1-A.
 Alpha  occ. eigenvalues --  -19.25605 -19.21183 -19.17801 -19.17656 -14.57699
 Alpha  occ. eigenvalues --  -14.41156 -10.30605 -10.28765 -10.23438 -10.21640
 Alpha  occ. eigenvalues --  -10.21322  -1.23411  -1.15994  -1.10832  -1.05228
 Alpha  occ. eigenvalues --   -0.90524  -0.86333  -0.83513  -0.74026  -0.66821
 Alpha  occ. eigenvalues --   -0.64715  -0.62023  -0.57530  -0.56067  -0.54808
 Alpha  occ. eigenvalues --   -0.51850  -0.50748  -0.48700  -0.47610  -0.46189
 Alpha  occ. eigenvalues --   -0.45200  -0.42946  -0.42096  -0.33020  -0.32046
 Alpha  occ. eigenvalues --   -0.31210  -0.30519  -0.29167  -0.28856  -0.24855
 Alpha virt. eigenvalues --   -0.09955  -0.04226   0.04425   0.05479   0.07238
 Alpha virt. eigenvalues --    0.10741   0.12955   0.15073   0.17098   0.17447
 Alpha virt. eigenvalues --    0.20192   0.21796   0.26038   0.27353   0.33698
 Alpha virt. eigenvalues --    0.34535   0.36070   0.41570   0.43266   0.48614
 Alpha virt. eigenvalues --    0.49934   0.51836   0.52359   0.55372   0.57433
 Alpha virt. eigenvalues --    0.57806   0.58786   0.59996   0.61725   0.63573
 Alpha virt. eigenvalues --    0.65612   0.68335   0.71002   0.73441   0.75598
 Alpha virt. eigenvalues --    0.77009   0.77130   0.79836   0.79911   0.84424
 Alpha virt. eigenvalues --    0.85959   0.89614   0.90691   0.90958   0.91973
 Alpha virt. eigenvalues --    0.93413   0.93864   0.95594   0.97463   0.98477
 Alpha virt. eigenvalues --    1.01269   1.02405   1.03923   1.05577   1.10949
 Alpha virt. eigenvalues --    1.13485   1.17850   1.19831   1.24277   1.25321
 Alpha virt. eigenvalues --    1.28966   1.29315   1.30602   1.32831   1.33078
 Alpha virt. eigenvalues --    1.35537   1.40185   1.41818   1.43413   1.45582
 Alpha virt. eigenvalues --    1.49915   1.52488   1.57063   1.61102   1.64058
 Alpha virt. eigenvalues --    1.65466   1.71118   1.73648   1.79967   1.80930
 Alpha virt. eigenvalues --    1.81092   1.82417   1.83214   1.87289   1.90766
 Alpha virt. eigenvalues --    1.91990   1.95491   1.96555   1.99250   2.03432
 Alpha virt. eigenvalues --    2.06008   2.08332   2.09459   2.11545   2.15015
 Alpha virt. eigenvalues --    2.16095   2.18120   2.20255   2.22993   2.26348
 Alpha virt. eigenvalues --    2.32475   2.34836   2.36795   2.39724   2.44087
 Alpha virt. eigenvalues --    2.47078   2.48510   2.49756   2.50495   2.54400
 Alpha virt. eigenvalues --    2.62012   2.63152   2.67573   2.67764   2.70204
 Alpha virt. eigenvalues --    2.75504   2.76528   2.79197   2.84391   2.86354
 Alpha virt. eigenvalues --    2.89602   2.90606   2.92262   2.97425   2.98783
 Alpha virt. eigenvalues --    3.10437   3.20746   3.23125   3.32662   3.40387
 Alpha virt. eigenvalues --    3.48881   3.66677   3.76469   3.77618   3.86183
 Alpha virt. eigenvalues --    3.88829   4.00138   4.04137   4.10468   4.15566
 Alpha virt. eigenvalues --    4.17286   4.32685   4.45627   4.69938   4.88155
          Condensed to atoms (all electrons):
               1          2          3          4          5          6
     1  O    8.057806   0.305426  -0.068718   0.004706  -0.079649   0.005323
     2  C    0.305426   4.680065   0.524071  -0.044275  -0.010931   0.007250
     3  C   -0.068718   0.524071   4.977571   0.392929   0.424741  -0.048377
     4  H    0.004706  -0.044275   0.392929   0.600286  -0.043064  -0.004119
     5  C   -0.079649  -0.010931   0.424741  -0.043064   4.879544   0.395606
     6  H    0.005323   0.007250  -0.048377  -0.004119   0.395606   0.613489
     7  C    0.303622  -0.099171  -0.023374   0.006851   0.481703  -0.044461
     8  N   -0.043296  -0.002032   0.007156  -0.000072  -0.073500  -0.007738
     9  O    0.001515   0.000008   0.000730  -0.000000   0.008399   0.006449
    10  O   -0.002513   0.000575  -0.000218   0.000001   0.006596   0.000015
    11  C   -0.046071   0.409547  -0.080313  -0.003690   0.007488  -0.000177
    12  H    0.003888  -0.061761  -0.007318   0.001719   0.000010  -0.000004
    13  N   -0.001026  -0.040442   0.004794   0.000050  -0.000241   0.000002
    14  O    0.000003   0.003527  -0.000070  -0.000000   0.000001  -0.000000
    15  H    0.000001  -0.000320   0.000004  -0.000000  -0.000000   0.000000
               7          8          9         10         11         12
     1  O    0.303622  -0.043296   0.001515  -0.002513  -0.046071   0.003888
     2  C   -0.099171  -0.002032   0.000008   0.000575   0.409547  -0.061761
     3  C   -0.023374   0.007156   0.000730  -0.000218  -0.080313  -0.007318
     4  H    0.006851  -0.000072  -0.000000   0.000001  -0.003690   0.001719
     5  C    0.481703  -0.073500   0.008399   0.006596   0.007488   0.000010
     6  H   -0.044461  -0.007738   0.006449   0.000015  -0.000177  -0.000004
     7  C    4.877412   0.150795  -0.095390  -0.074849   0.001800   0.000253
     8  N    0.150795   6.048162   0.319877   0.273506  -0.000134   0.000003
     9  O   -0.095390   0.319877   8.260227  -0.093082   0.000002  -0.000000
    10  O   -0.074849   0.273506  -0.093082   8.277504   0.000027   0.000000
    11  C    0.001800  -0.000134   0.000002   0.000027   4.759721   0.368090
    12  H    0.000253   0.000003  -0.000000   0.000000   0.368090   0.685232
    13  N    0.000445  -0.000002  -0.000000  -0.000002   0.478927  -0.057560
    14  O   -0.000003  -0.000000   0.000000   0.000000  -0.057021   0.004366
    15  H   -0.000001  -0.000000  -0.000000   0.000000   0.002885  -0.000526
              13         14         15
     1  O   -0.001026   0.000003   0.000001
     2  C   -0.040442   0.003527  -0.000320
     3  C    0.004794  -0.000070   0.000004
     4  H    0.000050  -0.000000  -0.000000
     5  C   -0.000241   0.000001  -0.000000
     6  H    0.000002  -0.000000   0.000000
     7  C    0.000445  -0.000003  -0.000001
     8  N   -0.000002  -0.000000  -0.000000
     9  O   -0.000000   0.000000  -0.000000
    10  O   -0.000002   0.000000   0.000000
    11  C    0.478927  -0.057021   0.002885
    12  H   -0.057560   0.004366  -0.000526
    13  N    6.678895   0.113364  -0.025445
    14  O    0.113364   8.064046   0.285511
    15  H   -0.025445   0.285511   0.392834
 Mulliken charges:
               1
     1  O   -0.441018
     2  C    0.328462
     3  C   -0.103610
     4  H    0.088678
     5  C    0.003296
     6  H    0.076742
     7  C    0.514367
     8  N    0.327276
     9  O   -0.408734
    10  O   -0.387561
    11  C    0.158920
    12  H    0.063608
    13  N   -0.151759
    14  O   -0.413723
    15  H    0.345056
 Sum of Mulliken charges =  -0.00000
 Mulliken charges with hydrogens summed into heavy atoms:
               1
     1  O   -0.441018
     2  C    0.328462
     3  C   -0.014931
     5  C    0.080039
     7  C    0.514367
     8  N    0.327276
     9  O   -0.408734
    10  O   -0.387561
    11  C    0.222527
    13  N   -0.151759
    14  O   -0.068666
 Electronic spatial extent (au):  <R**2>=           2058.1199
 Charge=             -0.0000 electrons
 Dipole moment (field-independent basis, Debye):
    X=             -4.2596    Y=              3.4715    Z=              0.5084  Tot=              5.5185
 Quadrupole moment (field-independent basis, Debye-Ang):
   XX=            -63.2078   YY=            -55.7015   ZZ=            -59.3529
   XY=              8.4400   XZ=             -2.3166   YZ=             -1.4337
 Traceless Quadrupole moment (field-independent basis, Debye-Ang):
   XX=             -3.7871   YY=              3.7192   ZZ=              0.0679
   XY=              8.4400   XZ=             -2.3166   YZ=             -1.4337
 Octapole moment (field-independent basis, Debye-Ang**2):
  XXX=            -86.8521  YYY=              4.5137  ZZZ=              0.4032  XYY=            -22.5022
  XXY=            -21.1301  XXZ=             11.1970  XZZ=              2.5230  YZZ=             -7.4130
  YYZ=              2.3120  XYZ=              4.3289
 Hexadecapole moment (field-independent basis, Debye-Ang**3):
 XXXX=          -1878.3348 YYYY=           -440.9562 ZZZZ=            -51.7985 XXXY=            183.2656
 XXXZ=            -58.8141 YYYX=             51.6696 YYYZ=             -4.0844 ZZZX=             -2.4672
 ZZZY=             -0.2917 XXYY=           -321.0955 XXZZ=           -317.6647 YYZZ=            -90.5839
 XXYZ=            -24.0954 YYXZ=             -6.9917 ZZXY=             -0.5566
 N-N= 5.874945724775D+02 E-N=-2.586681144526D+03  KE= 5.991641896357D+02
 No NMR shielding tensors so no spin-rotation constants.
 Leave Link  601 at Fri Aug 20 15:37:04 2021, MaxMem= 24159191040 cpu:        10.7
 (Enter /public/home/users/caep010/software/Gaussian09/g09/l701.exe)
 Compute integral first derivatives.
 ... and contract with generalized density number  0.
 Leave Link  701 at Fri Aug 20 15:37:05 2021, MaxMem= 24159191040 cpu:        10.9
 (Enter /public/home/users/caep010/software/Gaussian09/g09/l702.exe)
 L702 exits ... SP integral derivatives will be done elsewhere.
 Leave Link  702 at Fri Aug 20 15:37:05 2021, MaxMem= 24159191040 cpu:         0.6
 (Enter /public/home/users/caep010/software/Gaussian09/g09/l703.exe)
 Compute integral first derivatives, UseDBF=F ICtDFT=           0.
 Integral derivatives from FoFJK, PRISM(SPDF).
 Calling FoFJK, ICntrl=      2127 FMM=F ISym2X=0 I1Cent= 0 IOpClX= 0 NMat=1 NMatS=1 NMatT=0.
 FoFJK:  IHMeth= 1 ICntrl=    2127 DoSepK=F KAlg= 0 I1Cent=   0 FoldK=F
 IRaf=         0 NMat=   1 IRICut=       1 DoRegI=T DoRafI=F ISym2E= 0.
 FoFCou: FMM=F IPFlag=           0 FMFlag=      100000 FMFlg1=         800
         NFxFlg=           0 DoJE=F BraDBF=F KetDBF=F FulRan=T
         wScrn=  0.000000 ICntrl=    2127 IOpCl=  0 I1Cent=           0 NGrid=           0
         NMat0=    1 NMatS0=      1 NMatT0=    0 NMatD0=    1 NMtDS0=    0 NMtDT0=    0
 Symmetry not used in FoFCou.
 Leave Link  703 at Fri Aug 20 15:37:05 2021, MaxMem= 24159191040 cpu:        16.3
 (Enter /public/home/users/caep010/software/Gaussian09/g09/l716.exe)
 Dipole        =-1.67583788D+00 1.36578150D+00 2.00009500D-01
 ***** Axes restored to original set *****
 -------------------------------------------------------------------
 Center     Atomic                   Forces (Hartrees/Bohr)
 Number     Number              X              Y              Z
 -------------------------------------------------------------------
      1        8          -0.004898929    0.001962044    0.002342929
      2        6           0.019269337    0.009780210    0.011226675
      3        6           0.108933125   -0.035667643   -0.001026093
      4        1          -0.131393828    0.045028136    0.005481448
      5        6           0.102806017    0.109557108    0.131606805
      6        1          -0.115588932   -0.124562622   -0.151035751
      7        6           0.014353817   -0.002420493    0.004669882
      8        7           0.010259027   -0.009878101   -0.002567116
      9        8          -0.011076671   -0.003229112   -0.009516574
     10        8           0.008378529    0.006714890    0.007699292
     11        6           0.197252348   -0.118936436   -0.063540417
     12        1          -0.223794450    0.124481970    0.064611836
     13        7           0.045142035    0.005527646    0.004464158
     14        8          -0.031719418    0.005004302    0.004105148
     15        1           0.012077995   -0.013361900   -0.008522224
 -------------------------------------------------------------------
 Cartesian Forces:  Max     0.223794450 RMS     0.075408432
 Leave Link  716 at Fri Aug 20 15:37:05 2021, MaxMem= 24159191040 cpu:         0.7
 (Enter /public/home/users/caep010/software/Gaussian09/g09/l103.exe)

 GradGradGradGradGradGradGradGradGradGradGradGradGradGradGradGradGradGrad
 Berny optimization.
 FormGI is forming the generalized inverse of G from B-inverse, IUseBI=4.
 Internal  Forces:  Max     0.263931966 RMS     0.047998737
 Search for a local minimum.
 Step number   1 out of a maximum of   73
 All quantities printed in internal units (Hartrees-Bohrs-Radians)
 RMS Force = .47999D-01 SwitMx=.10000D-02 MixMth= 1
 Mixed Optimization -- RFO/linear search
 Second derivative matrix not updated -- first step.
 ITU=  0
     Eigenvalues ---    0.01521   0.01526   0.01527   0.01544   0.02098
     Eigenvalues ---    0.02147   0.02181   0.02335   0.02387   0.02515
     Eigenvalues ---    0.02597   0.03391   0.15974   0.15995   0.15996
     Eigenvalues ---    0.16000   0.22002   0.22863   0.24699   0.24911
     Eigenvalues ---    0.24952   0.25000   0.25000   0.25000   0.39428
     Eigenvalues ---    0.43331   0.43552   0.46528   0.48661   0.50572
     Eigenvalues ---    0.54388   0.54686   0.54698   0.58033   0.71696
     Eigenvalues ---    0.75764   0.76301   0.91330   0.93491
 RFO step:  Lambda=-1.68486343D-01 EMin= 1.52147448D-02
 Linear search not attempted -- first point.
 Maximum step size (   0.300) exceeded in Quadratic search.
    -- Step size scaled by   0.667
 Iteration  1 RMS(Cart)=  0.04044622 RMS(Int)=  0.00049583
 Iteration  2 RMS(Cart)=  0.00053563 RMS(Int)=  0.00001072
 Iteration  3 RMS(Cart)=  0.00000034 RMS(Int)=  0.00001072
 ITry= 1 IFail=0 DXMaxC= 1.43D-01 DCOld= 1.00D+10 DXMaxT= 3.00D-01 DXLimC= 3.00D+00 Rises=F
 Variable       Old X    -DE/DX   Delta X   Delta X   Delta X     New X
                                 (Linear)    (Quad)   (Total)
    R1        2.58085   0.00142   0.00000   0.00059   0.00058   2.58143
    R2        2.54676   0.00685   0.00000   0.00574   0.00574   2.55250
    R3        2.56648   0.02068   0.00000   0.01976   0.01976   2.58624
    R4        2.72338   0.00269   0.00000   0.00319   0.00319   2.72657
    R5        1.79232   0.13899   0.00000   0.12379   0.12379   1.91611
    R6        2.63878   0.02297   0.00000   0.02524   0.02524   2.66402
    R7        1.69431   0.22724   0.00000   0.17115   0.17115   1.86546
    R8        2.54659   0.01945   0.00000   0.01827   0.01828   2.56487
    R9        2.66995   0.01080   0.00000   0.01192   0.01192   2.68187
   R10        2.32326   0.01189   0.00000   0.00733   0.00733   2.33059
   R11        2.31365   0.01101   0.00000   0.00665   0.00665   2.32030
   R12        1.66674   0.26393   0.00000   0.18896   0.18896   1.85570
   R13        2.40284   0.02137   0.00000   0.01539   0.01539   2.41823
   R14        2.61241  -0.00674   0.00000  -0.00687  -0.00687   2.60555
   R15        1.82102   0.00236   0.00000   0.00220   0.00220   1.82322
    A1        1.82912   0.00890   0.00000   0.01134   0.01133   1.84045
    A2        1.92609  -0.00154   0.00000  -0.00314  -0.00315   1.92294
    A3        2.06994   0.00251   0.00000   0.00440   0.00440   2.07434
    A4        2.28545  -0.00092   0.00000  -0.00106  -0.00106   2.28439
    A5        2.20957   0.00010   0.00000  -0.00107  -0.00107   2.20850
    A6        1.86668  -0.00209   0.00000  -0.00170  -0.00170   1.86498
    A7        2.20676   0.00199   0.00000   0.00276   0.00276   2.20952
    A8        2.18674   0.00750   0.00000   0.01352   0.01352   2.20026
    A9        1.83923  -0.00349   0.00000  -0.00363  -0.00362   1.83561
   A10        2.25631  -0.00398   0.00000  -0.00979  -0.00980   2.24651
   A11        1.96358  -0.00177   0.00000  -0.00284  -0.00284   1.96074
   A12        2.04062   0.00347   0.00000   0.00562   0.00562   2.04624
   A13        2.27557  -0.00161   0.00000  -0.00248  -0.00248   2.27309
   A14        2.04248  -0.00840   0.00000  -0.01333  -0.01335   2.02913
   A15        2.07513  -0.00396   0.00000  -0.00626  -0.00628   2.06885
   A16        2.16526   0.01243   0.00000   0.01985   0.01984   2.18510
   A17        2.10191  -0.00540   0.00000  -0.01176  -0.01176   2.09014
   A18        2.11699  -0.00525   0.00000  -0.00898  -0.00899   2.10800
   A19        2.06348   0.01072   0.00000   0.02099   0.02098   2.08446
   A20        1.95042  -0.01777   0.00000  -0.02832  -0.02832   1.92210
   A21        1.96618  -0.03536   0.00000  -0.07178  -0.07178   1.89440
    D1       -0.00794   0.00073   0.00000   0.00253   0.00253  -0.00542
    D2       -3.09350  -0.00016   0.00000  -0.00070  -0.00070  -3.09420
    D3        0.00063  -0.00038   0.00000  -0.00129  -0.00129  -0.00067
    D4       -3.06156  -0.00127   0.00000  -0.00462  -0.00462  -3.06618
    D5       -3.11019  -0.00079   0.00000  -0.00267  -0.00266  -3.11285
    D6        0.01202  -0.00084   0.00000  -0.00285  -0.00284   0.00919
    D7       -0.03374   0.00039   0.00000   0.00130   0.00130  -0.03244
    D8        3.08846   0.00034   0.00000   0.00112   0.00112   3.08959
    D9        3.13736   0.00138   0.00000   0.00478   0.00476  -3.14106
   D10        0.03986  -0.00071   0.00000  -0.00242  -0.00240   0.03746
   D11        0.06535   0.00026   0.00000   0.00079   0.00077   0.06611
   D12       -3.03215  -0.00183   0.00000  -0.00642  -0.00640  -3.03855
   D13        3.08835   0.00108   0.00000   0.00391   0.00393   3.09227
   D14       -0.01106   0.00059   0.00000   0.00194   0.00194  -0.00913
   D15       -0.07259   0.00100   0.00000   0.00368   0.00369  -0.06890
   D16        3.11119   0.00051   0.00000   0.00171   0.00170   3.11289
   D17        0.00653  -0.00011   0.00000  -0.00038  -0.00038   0.00615
   D18        3.05514   0.00123   0.00000   0.00398   0.00396   3.05911
   D19       -3.09058  -0.00100   0.00000  -0.00324  -0.00322  -3.09380
   D20       -0.04197   0.00033   0.00000   0.00112   0.00112  -0.04085
   D21        3.13934   0.00187   0.00000   0.00677   0.00678  -3.13707
   D22        0.02361  -0.00111   0.00000  -0.00405  -0.00405   0.01956
   D23        0.09409   0.00073   0.00000   0.00265   0.00265   0.09674
   D24       -3.02163  -0.00225   0.00000  -0.00818  -0.00818  -3.02981
   D25        3.11804   0.00248   0.00000   0.00858   0.00862   3.12666
   D26        0.01960   0.00082   0.00000   0.00232   0.00228   0.02187
   D27       -2.85970  -0.00639   0.00000  -0.02317  -0.02317  -2.88287
         Item               Value     Threshold  Converged?
 Maximum Force            0.263932     0.000450     NO 
 RMS     Force            0.047999     0.000300     NO 
 Maximum Displacement     0.142527     0.001800     NO 
 RMS     Displacement     0.040488     0.001200     NO 
 Predicted change in Energy=-8.255557D-02
 Lowest energy point so far.  Saving SCF results.
 GradGradGradGradGradGradGradGradGradGradGradGradGradGradGradGradGradGrad

 Leave Link  103 at Fri Aug 20 15:37:06 2021, MaxMem= 24159191040 cpu:         2.6
 (Enter /public/home/users/caep010/software/Gaussian09/g09/l202.exe)
                          Input orientation:                          
 ---------------------------------------------------------------------
 Center     Atomic      Atomic             Coordinates (Angstroms)
 Number     Number       Type             X           Y           Z
 ---------------------------------------------------------------------
      1          8           0        5.272019    2.246350    2.468262
      2          6           0        4.121532    2.899184    2.809204
      3          6           0        3.079521    2.450272    2.043891
      4          1           0        2.121678    2.781532    2.074227
      5          6           0        3.598913    1.457950    1.187799
      6          1           0        3.082011    0.918216    0.542831
      7          6           0        4.920545    1.385835    1.488241
      8          7           0        5.922874    0.503016    1.008604
      9          8           0        5.583754   -0.271351    0.110623
     10          8           0        7.039330    0.551281    1.517339
     11          6           0        4.181459    3.941516    3.805064
     12          1           0        3.362378    4.419164    4.060544
     13          7           0        5.297242    4.280205    4.332204
     14          8           0        5.103843    5.303321    5.236034
     15          1           0        5.960403    5.696610    5.442134
 ---------------------------------------------------------------------
                    Distance matrix (angstroms):
                    1          2          3          4          5
     1  O    0.000000
     2  C    1.366036   0.000000
     3  C    2.242481   1.368581   0.000000
     4  H    3.219679   2.133881   1.013961   0.000000
     5  C    2.249543   2.231421   1.409739   2.172521   0.000000
     6  H    3.204272   3.184538   2.144850   2.596028   0.987160
     7  C    1.350726   2.161849   2.197986   3.181981   1.357268
     8  N    2.365042   3.496943   3.598371   4.558100   2.518889
     9  O    3.463301   4.412791   4.173240   5.016154   2.844360
    10  O    2.626957   3.961705   4.423066   5.428393   3.573110
    11  C    2.418667   1.442839   2.557305   2.929857   3.654797
    12  H    3.302001   2.110096   2.832567   2.857732   4.132481
    13  N    2.758892   2.368342   3.674686   4.174768   4.553760
    14  O    4.127217   3.554478   4.735773   5.024913   5.782725
    15  H    4.606743   4.259032   5.512372   5.880160   6.453080
                    6          7          8          9         10
     6  H    0.000000
     7  C    2.119593   0.000000
     8  N    2.908580   1.419184   0.000000
     9  O    2.803674   2.254760   1.233295   0.000000
    10  O    4.092027   2.277406   1.227850   2.185012   0.000000
    11  C    4.581626   3.527807   4.761932   5.776121   4.989470
    12  H    4.970870   4.271500   5.586295   6.522064   5.911716
    13  N    5.528975   4.075218   5.069998   6.214539   4.986302
    14  O    6.733729   5.424597   6.448636   7.587959   6.336931
    15  H    7.424376   5.941157   6.828690   8.011456   6.560679
                   11         12         13         14         15
    11  C    0.000000
    12  H    0.981994   0.000000
    13  N    1.279671   1.958777   0.000000
    14  O    2.180133   2.279520   1.378796   0.000000
    15  H    2.987472   3.207864   1.917793   0.964805   0.000000
 Stoichiometry    C5H4N2O4
 Framework group  C1[X(C5H4N2O4)]
 Deg. of freedom    39
 Full point group                 C1      NOp   1
 RotChk:  IX=0 Diff= 3.01D-03
 Largest Abelian subgroup         C1      NOp   1
 Largest concise Abelian subgroup C1      NOp   1
                         Standard orientation:                         
 ---------------------------------------------------------------------
 Center     Atomic      Atomic             Coordinates (Angstroms)
 Number     Number       Type             X           Y           Z
 ---------------------------------------------------------------------
      1          8           0        0.029876   -0.323765   -0.006419
      2          6           0       -0.841640    0.727005   -0.055380
      3          6           0       -0.155738    1.910935   -0.026026
      4          1           0       -0.557867    2.841745   -0.027206
      5          6           0        1.215207    1.587757    0.032514
      6          1           0        1.964583    2.230304    0.025179
      7          6           0        1.260151    0.231303    0.046332
      8          7           0        2.372320   -0.649515    0.009954
      9          8           0        3.486685   -0.123900    0.064132
     10          8           0        2.162591   -1.855369   -0.087746
     11          6           0       -2.258882    0.456461   -0.059171
     12          1           0       -2.897249    1.201811   -0.094555
     13          7           0       -2.696797   -0.743096    0.023619
     14          8           0       -4.075584   -0.746181    0.019754
     15          1           0       -4.381263   -1.612621    0.314185
 ---------------------------------------------------------------------
 Rotational constants (GHZ):      2.7989574      0.5913056      0.4885863
 Leave Link  202 at Fri Aug 20 15:37:06 2021, MaxMem= 24159191040 cpu:         0.2
 (Enter /public/home/users/caep010/software/Gaussian09/g09/l301.exe)
 Standard basis: 6-31G(d,p) (6D, 7F)
 Ernie: Thresh=  0.10000D-02 Tol=  0.10000D-05 Strict=F.
 There are   185 symmetry adapted cartesian basis functions of A   symmetry.
 There are   185 symmetry adapted basis functions of A   symmetry.
   185 basis functions,   336 primitive gaussians,   185 cartesian basis functions
    40 alpha electrons       40 beta electrons
       nuclear repulsion energy       584.3823693732 Hartrees.
 IExCor=  402 DFT=T Ex+Corr=B3LYP ExCW=0 ScaHFX=  0.200000
 ScaDFX=  0.800000  0.720000  1.000000  0.810000 ScalE2=  1.000000  1.000000
 IRadAn=      0 IRanWt=     -1 IRanGd=            0 ICorTp=0 IEmpDi=  4
 NAtoms=   15 NActive=   15 NUniq=   15 SFac= 1.00D+00 NAtFMM=   60 NAOKFM=F Big=F
 Integral buffers will be    131072 words long.
 Raffenetti 2 integral format.
 Two-electron integral symmetry is turned on.
 Leave Link  301 at Fri Aug 20 15:37:06 2021, MaxMem= 24159191040 cpu:         1.7
 (Enter /public/home/users/caep010/software/Gaussian09/g09/l302.exe)
 NPDir=0 NMtPBC=     1 NCelOv=     1 NCel=       1 NClECP=     1 NCelD=      1
         NCelK=      1 NCelE2=     1 NClLst=     1 CellRange=     0.0.
 One-electron integrals computed using PRISM.
 NBasis=   185 RedAO= T EigKep=  5.53D-04  NBF=   185
 NBsUse=   185 1.00D-06 EigRej= -1.00D+00 NBFU=   185
 Precomputing XC quadrature grid using
 IXCGrd= 4 IRadAn=           0 IRanWt=          -1 IRanGd=           0 AccXCQ= 0.00D+00.
 Generated NRdTot=       0 NPtTot=           0 NUsed=           0 NTot=          32
 NSgBfM=   184   184   184   184   184 MxSgAt=    15 MxSgA2=    15.
 Leave Link  302 at Fri Aug 20 15:37:06 2021, MaxMem= 24159191040 cpu:        12.9
 (Enter /public/home/users/caep010/software/Gaussian09/g09/l303.exe)
 DipDrv:  MaxL=1.
 Leave Link  303 at Fri Aug 20 15:37:06 2021, MaxMem= 24159191040 cpu:         0.7
 (Enter /public/home/users/caep010/software/Gaussian09/g09/l401.exe)
 Initial guess from the checkpoint file:  "/public/home/users/caep010/.cache/gau_scr/Gau-30702.chk"
 B after Tr=    -0.000000    0.000000   -0.000000
         Rot=    1.000000   -0.000026   -0.000092   -0.000437 Ang=  -0.05 deg.
 Guess basis will be translated and rotated to current coordinates.
 JPrj=2 DoOrth=T DoCkMO=T.
 Generating alternative initial guess.
 ExpMin= 1.61D-01 ExpMax= 5.48D+03 ExpMxC= 8.25D+02 IAcc=1 IRadAn=         1 AccDes= 0.00D+00
 Harris functional with IExCor=  402 and IRadAn=       1 diagonalized for initial guess.
 HarFok:  IExCor=  402 AccDes= 0.00D+00 IRadAn=         1 IDoV= 1 UseB2=F ITyADJ=14
 ICtDFT=  3500011 ScaDFX=  1.000000  1.000000  1.000000  1.000000
 FoFCou: FMM=F IPFlag=           0 FMFlag=      100000 FMFlg1=           0
         NFxFlg=           0 DoJE=T BraDBF=F KetDBF=T FulRan=T
         wScrn=  0.000000 ICntrl=     500 IOpCl=  0 I1Cent=   200000004 NGrid=           0
         NMat0=    1 NMatS0=      1 NMatT0=    0 NMatD0=    1 NMtDS0=    0 NMtDT0=    0
 Petite list used in FoFCou.
 Harris En= -603.157028207581    
 Leave Link  401 at Fri Aug 20 15:37:07 2021, MaxMem= 24159191040 cpu:        13.1
 (Enter /public/home/users/caep010/software/Gaussian09/g09/l502.exe)
 Closed shell SCF:
 Using DIIS extrapolation, IDIIS=  1040.
 Integral symmetry usage will be decided dynamically.
 Keep R1 ints in memory in canonical form, NReq=151360476.
 IVT=      128526 IEndB=      128526 NGot= 24159191040 MDV= 24011047900
 LenX= 24011047900 LenY= 24011013234
 Requested convergence on RMS density matrix=1.00D-08 within 128 cycles.
 Requested convergence on MAX density matrix=1.00D-06.
 Requested convergence on             energy=1.00D-06.
 No special actions if energy rises.
 FoFCou: FMM=F IPFlag=           0 FMFlag=           0 FMFlg1=           0
         NFxFlg=           0 DoJE=F BraDBF=F KetDBF=F FulRan=T
         wScrn=  0.000000 ICntrl=     600 IOpCl=  0 I1Cent=           0 NGrid=           0
         NMat0=    1 NMatS0=  17205 NMatT0=    0 NMatD0=    1 NMtDS0=    0 NMtDT0=    0
 Symmetry not used in FoFCou.
 Integral accuracy reduced to 1.0D-05 until final iterations.

 Cycle   1  Pass 0  IDiag  1:
 E= -603.122643716703    
 DIIS: error= 2.81D-03 at cycle   1 NSaved=   1.
 NSaved= 1 IEnMin= 1 EnMin= -603.122643716703     IErMin= 1 ErrMin= 2.81D-03
 ErrMax= 2.81D-03  0.00D+00 EMaxC= 1.00D-01 BMatC= 4.03D-03 BMatP= 4.03D-03
 IDIUse=3 WtCom= 9.72D-01 WtEn= 2.81D-02
 Coeff-Com:  0.100D+01
 Coeff-En:   0.100D+01
 Coeff:      0.100D+01
 Gap=     1.452 Goal=   None    Shift=    0.000
 GapD=    1.452 DampG=2.000 DampE=1.000 DampFc=2.0000 IDamp=-1.
 RMSDP=7.38D-04 MaxDP=1.61D-02              OVMax= 1.77D-02

 Cycle   2  Pass 0  IDiag  1:
 E= -603.126098661188     Delta-E=       -0.003454944485 Rises=F Damp=F
 DIIS: error= 1.80D-03 at cycle   2 NSaved=   2.
 NSaved= 2 IEnMin= 2 EnMin= -603.126098661188     IErMin= 2 ErrMin= 1.80D-03
 ErrMax= 1.80D-03  0.00D+00 EMaxC= 1.00D-01 BMatC= 1.38D-03 BMatP= 4.03D-03
 IDIUse=3 WtCom= 9.82D-01 WtEn= 1.80D-02
 Coeff-Com:  0.320D+00 0.680D+00
 Coeff-En:   0.000D+00 0.100D+01
 Coeff:      0.314D+00 0.686D+00
 Gap=     0.147 Goal=   None    Shift=    0.000
 RMSDP=3.86D-04 MaxDP=1.41D-02 DE=-3.45D-03 OVMax= 3.13D-02

 Cycle   3  Pass 0  IDiag  1:
 E= -603.125863576715     Delta-E=        0.000235084473 Rises=F Damp=F
 DIIS: error= 2.06D-03 at cycle   3 NSaved=   3.
 NSaved= 3 IEnMin= 2 EnMin= -603.126098661188     IErMin= 2 ErrMin= 1.80D-03
 ErrMax= 2.06D-03  0.00D+00 EMaxC= 1.00D-01 BMatC= 1.69D-03 BMatP= 1.38D-03
 IDIUse=3 WtCom= 1.81D-01 WtEn= 8.19D-01
 Coeff-Com:  0.667D-01 0.511D+00 0.423D+00
 Coeff-En:   0.000D+00 0.530D+00 0.470D+00
 Coeff:      0.121D-01 0.527D+00 0.461D+00
 Gap=     0.147 Goal=   None    Shift=    0.000
 RMSDP=2.28D-04 MaxDP=9.40D-03 DE= 2.35D-04 OVMax= 1.84D-02

 Cycle   4  Pass 0  IDiag  1:
 E= -603.127428714495     Delta-E=       -0.001565137780 Rises=F Damp=F
 DIIS: error= 8.78D-04 at cycle   4 NSaved=   4.
 NSaved= 4 IEnMin= 4 EnMin= -603.127428714495     IErMin= 4 ErrMin= 8.78D-04
 ErrMax= 8.78D-04  0.00D+00 EMaxC= 1.00D-01 BMatC= 9.59D-05 BMatP= 1.38D-03
 IDIUse=3 WtCom= 9.91D-01 WtEn= 8.78D-03
 Coeff-Com:  0.180D-01 0.278D+00 0.267D+00 0.437D+00
 Coeff-En:   0.000D+00 0.000D+00 0.000D+00 0.100D+01
 Coeff:      0.179D-01 0.276D+00 0.265D+00 0.442D+00
 Gap=     0.147 Goal=   None    Shift=    0.000
 RMSDP=5.88D-05 MaxDP=2.61D-03 DE=-1.57D-03 OVMax= 5.41D-03

 Cycle   5  Pass 0  IDiag  1:
 E= -603.127487360297     Delta-E=       -0.000058645802 Rises=F Damp=F
 DIIS: error= 6.98D-04 at cycle   5 NSaved=   5.
 NSaved= 5 IEnMin= 5 EnMin= -603.127487360297     IErMin= 5 ErrMin= 6.98D-04
 ErrMax= 6.98D-04  0.00D+00 EMaxC= 1.00D-01 BMatC= 2.66D-05 BMatP= 9.59D-05
 IDIUse=3 WtCom= 9.93D-01 WtEn= 6.98D-03
 Coeff-Com:  0.257D-02 0.124D+00 0.130D+00 0.335D+00 0.408D+00
 Coeff-En:   0.000D+00 0.000D+00 0.000D+00 0.230D+00 0.770D+00
 Coeff:      0.255D-02 0.123D+00 0.129D+00 0.334D+00 0.411D+00
 Gap=     0.147 Goal=   None    Shift=    0.000
 RMSDP=2.83D-05 MaxDP=1.53D-03 DE=-5.86D-05 OVMax= 3.23D-03

 Cycle   6  Pass 0  IDiag  1:
 E= -603.127505062738     Delta-E=       -0.000017702440 Rises=F Damp=F
 DIIS: error= 2.48D-04 at cycle   6 NSaved=   6.
 NSaved= 6 IEnMin= 6 EnMin= -603.127505062738     IErMin= 6 ErrMin= 2.48D-04
 ErrMax= 2.48D-04  0.00D+00 EMaxC= 1.00D-01 BMatC= 4.31D-06 BMatP= 2.66D-05
 IDIUse=3 WtCom= 9.98D-01 WtEn= 2.48D-03
 Coeff-Com: -0.195D-02 0.315D-01 0.395D-01 0.151D+00 0.311D+00 0.469D+00
 Coeff-En:   0.000D+00 0.000D+00 0.000D+00 0.000D+00 0.183D+00 0.817D+00
 Coeff:     -0.195D-02 0.314D-01 0.394D-01 0.151D+00 0.310D+00 0.470D+00
 Gap=     0.147 Goal=   None    Shift=    0.000
 RMSDP=9.65D-06 MaxDP=4.50D-04 DE=-1.77D-05 OVMax= 8.52D-04

 Initial convergence to 1.0D-05 achieved.  Increase integral accuracy.
 Cycle   7  Pass 1  IDiag  1:
 E= -603.127491785341     Delta-E=        0.000013277397 Rises=F Damp=F
 DIIS: error= 1.71D-05 at cycle   1 NSaved=   1.
 NSaved= 1 IEnMin= 1 EnMin= -603.127491785341     IErMin= 1 ErrMin= 1.71D-05
 ErrMax= 1.71D-05  0.00D+00 EMaxC= 1.00D-01 BMatC= 1.78D-07 BMatP= 1.78D-07
 IDIUse=1 WtCom= 1.00D+00 WtEn= 0.00D+00
 Coeff-Com:  0.100D+01
 Coeff:      0.100D+01
 Gap=     0.147 Goal=   None    Shift=    0.000
 RMSDP=9.65D-06 MaxDP=4.50D-04 DE= 1.33D-05 OVMax= 2.29D-04

 Cycle   8  Pass 1  IDiag  1:
 E= -603.127491544488     Delta-E=        0.000000240852 Rises=F Damp=F
 DIIS: error= 4.78D-05 at cycle   2 NSaved=   2.
 NSaved= 2 IEnMin= 1 EnMin= -603.127491785341     IErMin= 1 ErrMin= 1.71D-05
 ErrMax= 4.78D-05  0.00D+00 EMaxC= 1.00D-01 BMatC= 4.62D-07 BMatP= 1.78D-07
 IDIUse=1 WtCom= 1.00D+00 WtEn= 0.00D+00
 Coeff-Com:  0.629D+00 0.371D+00
 Coeff:      0.629D+00 0.371D+00
 Gap=     0.147 Goal=   None    Shift=    0.000
 RMSDP=3.57D-06 MaxDP=1.37D-04 DE= 2.41D-07 OVMax= 2.28D-04

 Cycle   9  Pass 1  IDiag  1:
 E= -603.127491914234     Delta-E=       -0.000000369745 Rises=F Damp=F
 DIIS: error= 2.68D-05 at cycle   3 NSaved=   3.
 NSaved= 3 IEnMin= 3 EnMin= -603.127491914234     IErMin= 1 ErrMin= 1.71D-05
 ErrMax= 2.68D-05  0.00D+00 EMaxC= 1.00D-01 BMatC= 4.26D-08 BMatP= 1.78D-07
 IDIUse=1 WtCom= 1.00D+00 WtEn= 0.00D+00
 Coeff-Com:  0.275D+00 0.244D+00 0.480D+00
 Coeff:      0.275D+00 0.244D+00 0.480D+00
 Gap=     0.147 Goal=   None    Shift=    0.000
 RMSDP=1.34D-06 MaxDP=6.83D-05 DE=-3.70D-07 OVMax= 1.45D-04

 Cycle  10  Pass 1  IDiag  1:
 E= -603.127491936006     Delta-E=       -0.000000021772 Rises=F Damp=F
 DIIS: error= 1.58D-05 at cycle   4 NSaved=   4.
 NSaved= 4 IEnMin= 4 EnMin= -603.127491936006     IErMin= 4 ErrMin= 1.58D-05
 ErrMax= 1.58D-05  0.00D+00 EMaxC= 1.00D-01 BMatC= 1.70D-08 BMatP= 4.26D-08
 IDIUse=1 WtCom= 1.00D+00 WtEn= 0.00D+00
 Coeff-Com:  0.410D-01 0.945D-01 0.399D+00 0.465D+00
 Coeff:      0.410D-01 0.945D-01 0.399D+00 0.465D+00
 Gap=     0.147 Goal=   None    Shift=    0.000
 RMSDP=6.25D-07 MaxDP=3.16D-05 DE=-2.18D-08 OVMax= 6.40D-05

 Cycle  11  Pass 1  IDiag  1:
 E= -603.127491948127     Delta-E=       -0.000000012122 Rises=F Damp=F
 DIIS: error= 2.70D-06 at cycle   5 NSaved=   5.
 NSaved= 5 IEnMin= 5 EnMin= -603.127491948127     IErMin= 5 ErrMin= 2.70D-06
 ErrMax= 2.70D-06  0.00D+00 EMaxC= 1.00D-01 BMatC= 1.58D-09 BMatP= 1.70D-08
 IDIUse=1 WtCom= 1.00D+00 WtEn= 0.00D+00
 Coeff-Com: -0.700D-02 0.337D-01 0.211D+00 0.308D+00 0.453D+00
 Coeff:     -0.700D-02 0.337D-01 0.211D+00 0.308D+00 0.453D+00
 Gap=     0.147 Goal=   None    Shift=    0.000
 RMSDP=2.20D-07 MaxDP=1.05D-05 DE=-1.21D-08 OVMax= 1.77D-05

 Cycle  12  Pass 1  IDiag  1:
 E= -603.127491949408     Delta-E=       -0.000000001281 Rises=F Damp=F
 DIIS: error= 6.05D-07 at cycle   6 NSaved=   6.
 NSaved= 6 IEnMin= 6 EnMin= -603.127491949408     IErMin= 6 ErrMin= 6.05D-07
 ErrMax= 6.05D-07  0.00D+00 EMaxC= 1.00D-01 BMatC= 9.57D-11 BMatP= 1.58D-09
 IDIUse=1 WtCom= 1.00D+00 WtEn= 0.00D+00
 Coeff-Com: -0.618D-02 0.137D-01 0.993D-01 0.146D+00 0.281D+00 0.466D+00
 Coeff:     -0.618D-02 0.137D-01 0.993D-01 0.146D+00 0.281D+00 0.466D+00
 Gap=     0.147 Goal=   None    Shift=    0.000
 RMSDP=5.87D-08 MaxDP=1.77D-06 DE=-1.28D-09 OVMax= 4.96D-06

 Cycle  13  Pass 1  IDiag  1:
 E= -603.127491949491     Delta-E=       -0.000000000083 Rises=F Damp=F
 DIIS: error= 1.37D-07 at cycle   7 NSaved=   7.
 NSaved= 7 IEnMin= 7 EnMin= -603.127491949491     IErMin= 7 ErrMin= 1.37D-07
 ErrMax= 1.37D-07  0.00D+00 EMaxC= 1.00D-01 BMatC= 4.79D-12 BMatP= 9.57D-11
 IDIUse=1 WtCom= 1.00D+00 WtEn= 0.00D+00
 Coeff-Com: -0.296D-02 0.544D-02 0.423D-01 0.600D-01 0.128D+00 0.243D+00
 Coeff-Com:  0.524D+00
 Coeff:     -0.296D-02 0.544D-02 0.423D-01 0.600D-01 0.128D+00 0.243D+00
 Coeff:      0.524D+00
 Gap=     0.147 Goal=   None    Shift=    0.000
 RMSDP=1.27D-08 MaxDP=5.16D-07 DE=-8.25D-11 OVMax= 6.82D-07

 Cycle  14  Pass 1  IDiag  1:
 E= -603.127491949497     Delta-E=       -0.000000000007 Rises=F Damp=F
 DIIS: error= 6.78D-08 at cycle   8 NSaved=   8.
 NSaved= 8 IEnMin= 8 EnMin= -603.127491949497     IErMin= 8 ErrMin= 6.78D-08
 ErrMax= 6.78D-08  0.00D+00 EMaxC= 1.00D-01 BMatC= 8.54D-13 BMatP= 4.79D-12
 IDIUse=1 WtCom= 1.00D+00 WtEn= 0.00D+00
 Coeff-Com: -0.485D-03 0.340D-03 0.454D-02 0.465D-02 0.193D-01 0.491D-01
 Coeff-Com:  0.313D+00 0.609D+00
 Coeff:     -0.485D-03 0.340D-03 0.454D-02 0.465D-02 0.193D-01 0.491D-01
 Coeff:      0.313D+00 0.609D+00
 Gap=     0.147 Goal=   None    Shift=    0.000
 RMSDP=5.65D-09 MaxDP=2.25D-07 DE=-6.59D-12 OVMax= 3.54D-07

 SCF Done:  E(RB3LYP) =  -603.127491949     A.U. after   14 cycles
            NFock= 14  Conv=0.57D-08     -V/T= 2.0077
 KE= 5.985046029483D+02 PE=-2.580159235808D+03 EE= 7.941447715370D+02
 Leave Link  502 at Fri Aug 20 15:37:12 2021, MaxMem= 24159191040 cpu:        68.3
 (Enter /public/home/users/caep010/software/Gaussian09/g09/l701.exe)
 Compute integral first derivatives.
 ... and contract with generalized density number  0.
 Leave Link  701 at Fri Aug 20 15:37:13 2021, MaxMem= 24159191040 cpu:        10.9
 (Enter /public/home/users/caep010/software/Gaussian09/g09/l702.exe)
 L702 exits ... SP integral derivatives will be done elsewhere.
 Leave Link  702 at Fri Aug 20 15:37:13 2021, MaxMem= 24159191040 cpu:         0.4
 (Enter /public/home/users/caep010/software/Gaussian09/g09/l703.exe)
 Compute integral first derivatives, UseDBF=F ICtDFT=           0.
 Integral derivatives from FoFJK, PRISM(SPDF).
 Calling FoFJK, ICntrl=      2127 FMM=F ISym2X=0 I1Cent= 0 IOpClX= 0 NMat=1 NMatS=1 NMatT=0.
 FoFJK:  IHMeth= 1 ICntrl=    2127 DoSepK=F KAlg= 0 I1Cent=   0 FoldK=F
 IRaf=         0 NMat=   1 IRICut=       1 DoRegI=T DoRafI=F ISym2E= 0.
 FoFCou: FMM=F IPFlag=           0 FMFlag=      100000 FMFlg1=         800
         NFxFlg=           0 DoJE=F BraDBF=F KetDBF=F FulRan=T
         wScrn=  0.000000 ICntrl=    2127 IOpCl=  0 I1Cent=           0 NGrid=           0
         NMat0=    1 NMatS0=      1 NMatT0=    0 NMatD0=    1 NMtDS0=    0 NMtDT0=    0
 Symmetry not used in FoFCou.
 Leave Link  703 at Fri Aug 20 15:37:13 2021, MaxMem= 24159191040 cpu:        16.6
 (Enter /public/home/users/caep010/software/Gaussian09/g09/l716.exe)
 Dipole        =-1.64340558D+00 1.35798522D+00 1.81506486D-01
 ***** Axes restored to original set *****
 -------------------------------------------------------------------
 Center     Atomic                   Forces (Hartrees/Bohr)
 Number     Number              X              Y              Z
 -------------------------------------------------------------------
      1        8          -0.003726717    0.000812191    0.001283707
      2        6           0.009681644    0.005649201    0.004371139
      3        6           0.043980042   -0.015153379   -0.001440091
      4        1          -0.054166307    0.018548951    0.003131614
      5        6           0.033300592    0.042598002    0.050397282
      6        1          -0.040610083   -0.048333607   -0.058648489
      7        6           0.006479712   -0.001773135    0.003667600
      8        7           0.006277635   -0.005326303   -0.001782880
      9        8          -0.004837183   -0.001194279   -0.004092160
     10        8           0.003052687    0.003188378    0.002834059
     11        6           0.075234548   -0.045632397   -0.024192981
     12        1          -0.086215754    0.044914844    0.022818651
     13        7           0.020181251    0.002002062   -0.000531122
     14        8          -0.015822302    0.008155665    0.005826224
     15        1           0.007190236   -0.008456193   -0.003642553
 -------------------------------------------------------------------
 Cartesian Forces:  Max     0.086215754 RMS     0.029020928
 Leave Link  716 at Fri Aug 20 15:37:13 2021, MaxMem= 24159191040 cpu:         0.6
 (Enter /public/home/users/caep010/software/Gaussian09/g09/l103.exe)

 GradGradGradGradGradGradGradGradGradGradGradGradGradGradGradGradGradGrad
 Berny optimization.
 Using GEDIIS/GDIIS optimizer.
 FormGI is forming the generalized inverse of G from B-inverse, IUseBI=4.
 Internal  Forces:  Max     0.099696725 RMS     0.018590117
 Search for a local minimum.
 Step number   2 out of a maximum of   73
 All quantities printed in internal units (Hartrees-Bohrs-Radians)
 RMS Force = .18590D-01 SwitMx=.10000D-02 MixMth= 1
 Mixed Optimization -- RFO/linear search
 Update second derivatives using D2CorX and points    1    2
 DE= -7.54D-02 DEPred=-8.26D-02 R= 9.13D-01
 TightC=F SS=  1.41D+00  RLast= 3.02D-01 DXNew= 5.0454D-01 9.0461D-01
 Trust test= 9.13D-01 RLast= 3.02D-01 DXMaxT set to 5.05D-01
 ITU=  1  0
 Use linear search instead of GDIIS.
     Eigenvalues ---    0.01521   0.01524   0.01527   0.01544   0.02096
     Eigenvalues ---    0.02161   0.02178   0.02334   0.02383   0.02513
     Eigenvalues ---    0.02595   0.03392   0.15964   0.15995   0.15996
     Eigenvalues ---    0.16099   0.22015   0.22869   0.24707   0.24917
     Eigenvalues ---    0.24956   0.24982   0.25000   0.25191   0.39429
     Eigenvalues ---    0.43369   0.43535   0.46621   0.48637   0.50567
     Eigenvalues ---    0.54369   0.54671   0.54698   0.58770   0.73292
     Eigenvalues ---    0.75662   0.83806   0.91323   0.93502
 RFO step:  Lambda=-1.74163698D-02 EMin= 1.52147142D-02
 Quartic linear search produced a step of  1.14510.
 Iteration  1 RMS(Cart)=  0.10111498 RMS(Int)=  0.03774417
 Iteration  2 RMS(Cart)=  0.04316662 RMS(Int)=  0.01109371
 Iteration  3 RMS(Cart)=  0.01569280 RMS(Int)=  0.00136740
 Iteration  4 RMS(Cart)=  0.00064674 RMS(Int)=  0.00118387
 Iteration  5 RMS(Cart)=  0.00000075 RMS(Int)=  0.00118387
 ITry= 1 IFail=0 DXMaxC= 7.68D-01 DCOld= 1.00D+10 DXMaxT= 5.05D-01 DXLimC= 3.00D+00 Rises=F
 Variable       Old X    -DE/DX   Delta X   Delta X   Delta X     New X
                                 (Linear)    (Quad)   (Total)
    R1        2.58143  -0.00044   0.00067  -0.00502  -0.00442   2.57701
    R2        2.55250   0.00273   0.00657  -0.00018   0.00648   2.55898
    R3        2.58624   0.01012   0.02263   0.01026   0.03277   2.61901
    R4        2.72657   0.00093   0.00365   0.00030   0.00395   2.73052
    R5        1.91611   0.05732   0.14175   0.01836   0.16011   2.07621
    R6        2.66402   0.00975   0.02891   0.00969   0.03858   2.70260
    R7        1.86546   0.08601   0.19599  -0.01427   0.18172   2.04718
    R8        2.56487   0.00957   0.02093   0.00933   0.03038   2.59525
    R9        2.68187   0.00628   0.01365   0.01243   0.02608   2.70795
   R10        2.33059   0.00506   0.00839   0.00003   0.00842   2.33901
   R11        2.32030   0.00408   0.00762  -0.00139   0.00623   2.32653
   R12        1.85570   0.09970   0.21638  -0.02095   0.19543   2.05113
   R13        2.41823   0.01120   0.01762   0.00696   0.02458   2.44281
   R14        2.60555   0.00242  -0.00786   0.02036   0.01250   2.61805
   R15        1.82322   0.00216   0.00252   0.00488   0.00740   1.83062
    A1        1.84045   0.00435   0.01298   0.00934   0.02246   1.86291
    A2        1.92294  -0.00064  -0.00360  -0.00309  -0.00732   1.91562
    A3        2.07434   0.00139   0.00504   0.00796   0.01248   2.08682
    A4        2.28439  -0.00070  -0.00122  -0.00191  -0.00364   2.28074
    A5        2.20850  -0.00033  -0.00123  -0.00827  -0.00949   2.19901
    A6        1.86498  -0.00109  -0.00194  -0.00076  -0.00275   1.86223
    A7        2.20952   0.00143   0.00316   0.00901   0.01220   2.22173
    A8        2.20026   0.00545   0.01548   0.04539   0.06054   2.26080
    A9        1.83561  -0.00158  -0.00414  -0.00100  -0.00522   1.83039
   A10        2.24651  -0.00385  -0.01122  -0.04296  -0.05452   2.19199
   A11        1.96074  -0.00103  -0.00325  -0.00413  -0.00773   1.95301
   A12        2.04624   0.00181   0.00643   0.00919   0.01490   2.06114
   A13        2.27309  -0.00070  -0.00284  -0.00068  -0.00425   2.26884
   A14        2.02913  -0.00370  -0.01529  -0.01214  -0.03124   1.99789
   A15        2.06885  -0.00175  -0.00719  -0.00542  -0.01642   2.05243
   A16        2.18510   0.00547   0.02271   0.01957   0.03842   2.22352
   A17        2.09014  -0.00463  -0.01347  -0.04524  -0.06037   2.02977
   A18        2.10800  -0.00108  -0.01029   0.00173  -0.01032   2.09768
   A19        2.08446   0.00576   0.02402   0.04676   0.06888   2.15334
   A20        1.92210  -0.00115  -0.03243   0.02628  -0.00615   1.91595
   A21        1.89440  -0.01992  -0.08220  -0.16682  -0.24902   1.64538
    D1       -0.00542   0.00060   0.00289   0.03500   0.03781   0.03240
    D2       -3.09420  -0.00021  -0.00080  -0.01631  -0.01725  -3.11145
    D3       -0.00067  -0.00033  -0.00148  -0.01763  -0.01903  -0.01970
    D4       -3.06618  -0.00119  -0.00529  -0.07085  -0.07614   3.14086
    D5       -3.11285  -0.00067  -0.00305  -0.03782  -0.04021   3.13013
    D6        0.00919  -0.00066  -0.00325  -0.03897  -0.04182  -0.03264
    D7       -0.03244   0.00035   0.00149   0.02203   0.02357  -0.00887
    D8        3.08959   0.00037   0.00129   0.02088   0.02196   3.11155
    D9       -3.14106   0.00118   0.00545   0.06840   0.07236  -3.06870
   D10        0.03746  -0.00057  -0.00275  -0.03522  -0.03646   0.00101
   D11        0.06611   0.00015   0.00088   0.00461   0.00397   0.07008
   D12       -3.03855  -0.00160  -0.00733  -0.09901  -0.10484   3.13979
   D13        3.09227   0.00093   0.00450   0.06083   0.06672  -3.12419
   D14       -0.00913   0.00044   0.00222   0.02674   0.02884   0.01971
   D15       -0.06890   0.00092   0.00423   0.05943   0.06476  -0.00413
   D16        3.11289   0.00043   0.00195   0.02534   0.02689   3.13978
   D17        0.00615  -0.00006  -0.00044  -0.00566  -0.00636  -0.00021
   D18        3.05911   0.00108   0.00454   0.05687   0.06043   3.11954
   D19       -3.09380  -0.00086  -0.00369  -0.04378  -0.04581  -3.13961
   D20       -0.04085   0.00027   0.00128   0.01874   0.02099  -0.01986
   D21       -3.13707   0.00121   0.00776   0.08688   0.09440  -3.04268
   D22        0.01956  -0.00056  -0.00464  -0.05183  -0.05618  -0.03662
   D23        0.09674   0.00016   0.00303   0.02241   0.02515   0.12189
   D24       -3.02981  -0.00162  -0.00937  -0.11630  -0.12542   3.12795
   D25        3.12666   0.00193   0.00987   0.10289   0.11545  -3.04108
   D26        0.02187   0.00040   0.00261   0.00154   0.00146   0.02333
   D27       -2.88287  -0.00610  -0.02654  -0.44684  -0.47338   2.92693
[...]
 ! R15   R(14,15)                0.9679         -DE/DX =    0.0                 !
 ! A1    A(2,1,7)              106.0702         -DE/DX =    0.0                 !
 ! A2    A(1,2,3)              110.0901         -DE/DX =    0.0                 !
 ! A3    A(1,2,11)             119.5313         -DE/DX =    0.0                 !
 ! A4    A(3,2,11)             130.3786         -DE/DX =    0.0                 !
 ! A5    A(2,3,4)              125.9673         -DE/DX =    0.0                 !
 ! A6    A(2,3,5)              106.6734         -DE/DX =    0.0                 !
 ! A7    A(4,3,5)              127.3593         -DE/DX =    0.0                 !
 ! A8    A(3,5,6)              129.0097         -DE/DX =    0.0                 !
 ! A9    A(3,5,7)              105.0599         -DE/DX =    0.0                 !
 ! A10   A(6,5,7)              125.9304         -DE/DX =    0.0                 !
 ! A11   A(1,7,5)              112.1063         -DE/DX =    0.0                 !
 ! A12   A(1,7,8)              117.6544         -DE/DX =    0.0                 !
 ! A13   A(5,7,8)              130.2393         -DE/DX =    0.0                 !
 ! A14   A(7,8,9)              115.6291         -DE/DX =    0.0                 !
 ! A15   A(7,8,10)             118.1631         -DE/DX =    0.0                 !
 ! A16   A(9,8,10)             126.2078         -DE/DX =    0.0                 !
 ! A17   A(2,11,12)            117.0705         -DE/DX =    0.0                 !
 ! A18   A(2,11,13)            121.2458         -DE/DX =    0.0                 !
 ! A19   A(12,11,13)           121.6837         -DE/DX =    0.0                 !
 ! A20   A(11,13,14)           110.6168         -DE/DX =    0.0                 !
 ! A21   A(13,14,15)           102.7139         -DE/DX =    0.0                 !
 ! D1    D(7,1,2,3)             -0.0035         -DE/DX =    0.0                 !
 ! D2    D(7,1,2,11)          -179.9931         -DE/DX =    0.0                 !
 ! D3    D(2,1,7,5)             -0.0041         -DE/DX =    0.0                 !
 ! D4    D(2,1,7,8)           -179.9942         -DE/DX =    0.0                 !
 ! D5    D(1,2,3,4)           -180.0094         -DE/DX =    0.0                 !
 ! D6    D(1,2,3,5)              0.0093         -DE/DX =    0.0                 !
 ! D7    D(11,2,3,4)            -0.0212         -DE/DX =    0.0                 !
 ! D8    D(11,2,3,5)           179.9975         -DE/DX =    0.0                 !
 ! D9    D(1,2,11,12)          180.0462         -DE/DX =    0.0                 !
 ! D10   D(1,2,11,13)            0.0506         -DE/DX =    0.0                 !
 ! D11   D(3,2,11,12)            0.059          -DE/DX =    0.0                 !
 ! D12   D(3,2,11,13)          180.0634         -DE/DX =    0.0                 !
 ! D13   D(2,3,5,6)            180.0128         -DE/DX =    0.0                 !
 ! D14   D(2,3,5,7)             -0.0112         -DE/DX =    0.0                 !
 ! D15   D(4,3,5,6)              0.0318         -DE/DX =    0.0                 !
 ! D16   D(4,3,5,7)            180.0078         -DE/DX =    0.0                 !
 ! D17   D(3,5,7,1)              0.0096         -DE/DX =    0.0                 !
 ! D18   D(3,5,7,8)            179.9981         -DE/DX =    0.0                 !
 ! D19   D(6,5,7,1)           -180.0134         -DE/DX =    0.0                 !
 ! D20   D(6,5,7,8)             -0.0249         -DE/DX =    0.0                 !
 ! D21   D(1,7,8,9)           -179.9667         -DE/DX =    0.0                 !
 ! D22   D(1,7,8,10)             0.0352         -DE/DX =    0.0                 !
 ! D23   D(5,7,8,9)              0.0453         -DE/DX =    0.0                 !
 ! D24   D(5,7,8,10)          -179.9527         -DE/DX =    0.0                 !
 ! D25   D(2,11,13,14)        -180.002          -DE/DX =    0.0                 !
 ! D26   D(12,11,13,14)          0.0026         -DE/DX =    0.0                 !
 ! D27   D(11,13,14,15)       -179.9911         -DE/DX =    0.0                 !
 --------------------------------------------------------------------------------
 GradGradGradGradGradGradGradGradGradGradGradGradGradGradGradGradGradGrad

 Leave Link  103 at Fri Aug 20 15:38:44 2021, MaxMem= 24159191040 cpu:         2.0
 (Enter /public/home/users/caep010/software/Gaussian09/g09/l9999.exe)
 1\1\GINC-B1414\Freq\RB3LYP\6-31G(d,p)\C5H4N2O4\ROOT\20-Aug-2021\0\\#P 
 Geom=AllCheck Guess=TCheck SCRF=Check GenChk RB3LYP/6-31G(d,p) Freq\\Y
 UYCOK\\0,1\O,5.2846370621,2.2693865971,2.449813414\C,4.1472076398,2.94
 6302076,2.774573564\C,3.080442197,2.4564073961,2.0488770435\H,2.060345
 8703,2.8069535908,2.1053410727\C,3.5889404795,1.4172249147,1.229301252
 4\H,3.0663130603,0.7933200398,0.5219524158\C,4.9242526246,1.3563863587
 ,1.5200481028\N,5.9436238848,0.5006828896,1.0010684597\O,5.5732050775,
 -0.3189278455,0.1533344253\O,7.089018298,0.6387779078,1.4259128007\C,4
 .2037668745,4.0022441325,3.7561912273\H,3.2694869138,4.5169877093,3.98
 62366162\N,5.3082698437,4.3190409692,4.3315074592\O,5.1103370122,5.357
 9437681,5.2317449029\H,5.9976531622,5.5003694958,5.5910972435\\Version
 =ES64L-G09RevE.01\State=1-A\HF=-603.1500835\RMSD=5.448e-09\RMSF=5.069e
 -05\ZeroPoint=0.0987156\Thermal=0.1080302\Dipole=-1.4889649,1.1794225,
 0.6933648\DipoleDeriv=-0.5680389,-0.0423346,-0.1639507,-0.0512188,-0.0
 812513,-0.0090301,-0.1721383,-0.0065063,-0.1364776,0.1902774,0.328588,
 0.3173999,0.037424,0.1979523,0.0742615,0.0505515,0.1494234,0.27732,0.0
 773698,-0.2172205,-0.1324386,0.0238972,-0.2911829,-0.0966487,0.0880916
 ,-0.1592621,-0.3018031,0.0336542,0.0490403,0.0147267,0.0584449,0.09692
 82,-0.0333487,0.0234616,-0.0357918,0.123209,0.1789376,-0.2061853,-0.12
 21114,-0.0847027,0.157058,0.1934671,-0.0104789,0.1619658,0.0674387,0.1
 318219,0.0037002,-0.0010836,-0.0110663,0.1028568,-0.0452288,-0.0147283
 ,-0.0414353,0.1073609,-0.2457242,0.6796889,0.5351041,0.2839759,-0.3477
 318,-0.3274279,0.1728973,-0.2249191,-0.070834,1.6978094,-0.7543867,-0.
 3335245,-0.4308072,1.4007082,0.8738537,-0.0374561,0.7898847,1.0391309,
 -0.5087985,0.0364551,-0.0276187,0.0721492,-0.8708623,-0.5276237,0.0050
 941,-0.5369022,-0.7654097,-1.0572794,0.2824088,0.0494999,0.0823006,-0.
 4144114,-0.1256064,-0.1336515,-0.0736467,-0.3563641,0.1917607,-0.40609
 21,-0.3212403,-0.0670917,0.1887982,0.1594648,-0.0106895,0.0720655,0.05
 90312,-0.0192439,0.0459935,-0.0023304,0.0500998,0.0567913,-0.0749451,0
 .0014368,-0.0759554,0.0835699,-0.27931,-0.0208978,-0.0524992,0.3402578
 ,0.6105643,0.7843958,0.2782193,0.6912478,0.5546381,-0.0591227,0.100735
 2,0.1598341,-0.3583212,-1.1571327,-0.8581684,-0.2605599,-0.7397575,-1.
 0656357,0.2358865,0.1205071,0.0802328,0.0546586,0.350915,0.0125848,0.0
 1995,0.029589,0.3848255\Polar=89.5537968,-6.6595606,97.5405774,9.26536
 41,59.8165535,87.5022044\PG=C01 [X(C5H4N2O4)]\NImag=0\\0.45466249,-0.0
 4704568,0.31637602,0.05161660,0.19526738,0.28205851,-0.21700889,0.0757
 5232,0.03037993,0.59091687,0.05004911,-0.11182138,-0.02827264,-0.00048
 155,0.48739718,0.00684092,-0.02159929,-0.08475178,0.11449024,0.3107128
 1,0.46222386,-0.07901840,0.02794464,0.00176569,-0.26920909,-0.07034249
 ,-0.11739937,0.83242316,-0.00301045,0.00140270,-0.01118552,-0.06218496
 ,-0.11328099,-0.06024611,-0.12362346,0.39409449,-0.02657763,-0.0031514
 0,0.00297969,-0.10994114,-0.06237356,-0.15079719,0.07227769,0.22112171
 ,0.33891361,-0.00200791,0.00066144,-0.00206741,-0.01075730,0.00899738,
 0.00594632,-0.32775275,0.09500628,0.00952624,0.34072941,-0.00296424,0.
 00411168,-0.00460130,-0.01036902,0.00569163,0.00427092,0.09625528,-0.0
 7719885,-0.01913510,-0.10317761,0.07162696,-0.00538932,-0.00366149,0.0
 0354159,-0.01180250,0.00929605,0.00354526,0.01068720,-0.01946568,-0.04
 409748,-0.01189861,0.01840090,0.03607848,-0.04839626,-0.02527260,-0.03
 842764,0.03256347,0.00286410,0.00846287,-0.14001527,0.04182680,0.01673
 478,-0.00031793,0.01900984,0.01736925,0.68708366,-0.00221851,-0.018279
 39,-0.02694804,-0.04235280,-0.02253540,-0.04088054,0.07016870,-0.18849
 073,-0.10226335,-0.00104655,-0.00146430,-0.00143832,0.03946410,0.45200
 986,-0.01733126,-0.03292294,-0.02413844,-0.03294613,-0.02915116,-0.025
 14532,0.04268795,-0.10962102,-0.14623861,-0.00099210,0.00376030,0.0030
 0163,0.18263212,0.31176244,0.45580956,-0.00440681,-0.00052967,-0.00362
 416,-0.00306894,0.00434704,0.00208902,0.01284919,0.00672231,0.00930984
 ,-0.00005293,-0.00093161,-0.00032726,-0.13019064,-0.08364738,-0.101803
 91,0.12636405,0.00324018,0.00450329,-0.00207566,0.00238469,-0.00090640
 ,-0.00407234,-0.01177009,-0.00449630,-0.00783653,-0.00009697,-0.000450
 73,0.00146653,-0.08656905,-0.14953871,-0.12898376,0.09186707,0.1482086
 6,-0.00016862,-0.00305473,0.00484375,0.00029013,-0.00356138,0.00102963
 ,-0.00762803,-0.00302602,-0.00403582,0.00043660,0.00124949,-0.00082060
 ,-0.10448939,-0.12823945,-0.17790350,0.11067240,0.13737706,0.17889648,
 -0.11229702,-0.06684641,-0.07593764,-0.02962478,0.02277732,0.01009812,
 -0.03002029,0.06782689,0.05167163,-0.00021214,0.00087695,-0.00022989,-
 0.37334426,-0.00884735,-0.08980940,-0.00378701,0.00205362,0.00063663,0
 .75265303,-0.03278319,-0.14249949,-0.08801917,0.05307984,-0.05800893,-
 0.05019740,0.01350418,-0.00984108,-0.01484916,-0.00031993,-0.00224795,
 -0.00559698,0.00005172,-0.06962385,-0.01025213,-0.01698791,0.00438807,
 -0.00132222,-0.08877992,0.40267391,-0.04473357,-0.09686199,-0.15600257
 ,0.03786358,-0.05804826,-0.03152324,0.00192189,-0.00074961,0.01000726,
 -0.00132731,-0.00528793,-0.00141091,-0.08167936,-0.01255439,-0.0911250
 5,-0.01681120,0.00361500,-0.00002575,0.08440696,0.24099684,0.35704574,
 0.00491650,0.00043112,0.00498459,0.01136708,-0.00655178,-0.00348900,-0
 .00981025,-0.00709323,-0.01050208,0.00017426,0.00061208,0.00014108,-0.
 02656495,0.02474219,0.01663634,-0.00023188,-0.00113289,-0.00029746,-0.
 13004987,0.05024012,0.02837327,0.80568376,0.01735840,-0.03213389,-0.01
 325080,-0.01430997,0.00074108,-0.00455739,0.00158898,0.01105015,0.0053
 6899,0.00007797,0.00135756,-0.00037448,0.01758678,-0.00765940,0.000670
 66,-0.00263186,-0.00110604,0.00111797,0.03332929,-0.10253281,-0.028409
 40,0.02748171,0.52414714,0.02047859,-0.01764276,-0.02358917,-0.0105841
 7,-0.00255336,-0.00341718,-0.00255492,0.00312165,0.00783008,-0.0003474
 8,-0.00023609,0.00148227,0.01010471,0.00251193,0.00153015,-0.00167351,
 0.00150984,-0.00212787,0.01287324,-0.02400595,-0.08070047,0.17798483,0
 .28705203,0.52822394,-0.00178198,0.00419795,0.00205985,0.00151093,0.00
 220216,0.00236510,0.00079689,-0.00158749,-0.00132733,-0.00003654,0.000
 05554,0.00008930,-0.00557053,0.00353058,0.00164191,0.00090089,0.000915
 12,0.00114057,0.01852746,0.00998988,0.00994350,-0.15187287,-0.05166187
 ,-0.06743474,0.16195346,0.00749104,-0.00064196,-0.00331550,0.00091519,
 0.00023037,0.00028936,-0.00102127,-0.00283711,-0.00314616,0.00008941,-
 0.00011171,0.00008962,-0.00613254,0.00279581,0.00044864,0.00123363,-0.
 00086863,-0.00023644,0.01134668,-0.03716694,-0.04531291,-0.07185961,-0
 .28781385,-0.21400625,0.09114501,0.31757929,0.00508069,-0.00416996,0.0
 0259385,0.00118327,0.00062674,0.00105435,-0.00080928,-0.00329701,-0.00
 291888,0.00012032,0.00008095,-0.00007892,-0.00721537,0.00296449,0.0014
 0411,0.00143239,-0.00031979,-0.00018093,0.01118550,-0.04566366,-0.0234
 5524,-0.08594467,-0.20875231,-0.28847288,0.11818788,0.28833215,0.32398
 102,0.00420493,-0.00317237,-0.00212633,-0.00811805,0.00096357,-0.00130
 233,0.00020642,0.00427434,0.00422039,-0.00009680,0.00056408,0.00065575
 ,0.00838890,0.00124770,0.00241120,0.00056355,-0.00013563,-0.00003771,-
 0.08519390,0.01549612,-0.01257731,-0.50208487,-0.03146838,-0.14014316,
 -0.02437992,-0.03309476,-0.04333991,0.60510650,0.00360179,0.00066516,0
 .00045070,0.00061910,0.00074002,0.00055867,0.00192412,-0.00091080,0.00
 054442,0.00009732,-0.00052769,0.00011833,0.00114047,-0.00081950,-0.003
 64900,0.00045878,0.00006779,-0.00002433,0.02154663,0.01276508,0.001080
 98,-0.01581540,-0.10800110,-0.03468768,-0.05832101,0.01032641,-0.02913
 880,0.04478027,0.08559994,0.00408404,-0.00131123,0.00105667,-0.0016228
 4,0.00064798,0.00047839,0.00206471,0.00115538,0.00063412,0.00022730,0.
 00024027,-0.00035073,0.00231905,-0.00361878,0.00077540,0.00050868,-0.0
 0017886,0.00019250,-0.00703635,-0.00049852,0.01542168,-0.12579791,-0.0
 3875834,-0.14293397,-0.06646042,-0.02257455,-0.01245070,0.19130646,0.0
 6441611,0.13690593,0.00138682,0.03344443,0.03190525,-0.09400401,0.0132
 3942,0.00001492,0.00328106,-0.02424128,-0.02226974,0.00010560,-0.00025
 080,0.00046992,-0.00654470,0.00089893,-0.00217375,0.00107197,-0.000719
 88,-0.00055810,-0.00407426,-0.00542688,-0.00653738,-0.00364758,0.00477
 108,0.00264835,-0.00052896,-0.00131377,-0.00109343,0.00248760,0.000067
 80,0.00078518,0.80948895,0.00935885,-0.02295633,-0.01537207,0.01052071
 ,-0.16956984,-0.10931392,-0.00872897,-0.00939614,-0.01412526,0.0003405
 1,-0.00081422,0.00171909,-0.00397425,0.00562048,-0.00046622,-0.0001178
 2,0.00050469,-0.00019414,0.00532195,0.00312285,0.00245408,0.00060938,0
 .00104096,-0.00160707,-0.00090391,-0.00090871,-0.00019727,-0.00012615,
 0.00035242,0.00055642,-0.03384446,0.44254327,0.00984534,-0.00912748,-0
 .00933235,-0.00247388,-0.10861520,-0.14733613,-0.00806627,-0.01815771,
 -0.01514663,0.00101188,0.00156593,-0.00089824,-0.00663568,0.00079882,0
 .00400975,-0.00000756,-0.00035004,0.00036043,0.00330931,-0.00032689,0.
 00250799,-0.00115311,-0.00053442,0.00218153,-0.00071829,-0.00029910,-0
 .00141223,0.00060215,0.00060667,0.00042192,0.14583932,0.28205786,0.420
 93309,0.00108898,-0.00163930,-0.00195386,0.00333761,-0.00103611,-0.000
 46299,0.00012944,-0.00039660,-0.00002954,0.00017049,0.00007456,0.00003
 189,-0.00025263,0.00018584,0.00011806,-0.00000830,0.00000718,-0.000003
 30,0.00036698,0.00033611,0.00029727,0.00016878,-0.00026348,-0.00016433
 ,0.00000690,0.00003590,0.00003862,-0.00007313,0.00001095,-0.00000322,-
 0.24560715,0.10861310,0.04741449,0.26946462,-0.00073958,-0.00186382,-0
 .00450628,0.01853972,-0.00600760,-0.00204490,-0.00030276,-0.00010655,0
 .00088769,-0.00036562,-0.00003005,-0.00041041,-0.00015753,-0.00016949,
 -0.00014443,-0.00003088,0.00003063,-0.00000743,0.00115232,0.00051845,0
 .00039859,-0.00034055,-0.00004450,-0.00001347,0.00008953,-0.00023948,-
 0.00018185,0.00002816,-0.00006594,-0.00003227,0.11055289,-0.11565726,-
 0.03694374,-0.12128643,0.10850487,-0.00113356,-0.00473213,-0.00178780,
 0.01746583,-0.00709828,-0.00051996,0.00005525,0.00086054,-0.00035637,-
 0.00037237,-0.00029625,-0.00005357,-0.00019639,-0.00005484,-0.00015755
 ,-0.00003820,0.00000258,0.00002227,0.00104407,0.00018698,0.00085255,-0
 .00023547,0.00000595,-0.00017965,0.00008750,-0.00019566,-0.00017286,0.
 00001274,-0.00003652,-0.00005309,0.04918867,-0.03745274,-0.06572739,-0
 .04782740,0.04546379,0.05391990,-0.00211537,0.00266355,0.00159721,-0.0
 0221879,-0.02961140,-0.02506366,0.00562385,0.00750251,0.00774665,0.000
 11731,0.00024142,0.00024248,0.00366366,-0.00202131,-0.00101572,-0.0000
 8738,0.00003027,0.00001736,-0.00281537,0.00110099,0.00052507,0.0009302
 8,-0.00089858,-0.00067838,0.00061642,0.00071472,0.00081918,-0.00050337
 ,-0.00030732,-0.00040518,-0.47180655,-0.03514239,-0.14188476,-0.034262
 49,-0.00544772,-0.02092146,0.59621884,-0.00169544,0.00084451,-0.000704
 08,-0.03203532,-0.02357800,-0.02051569,0.00486226,0.00179533,0.0008474
 8,-0.00037984,0.00002240,-0.00011242,0.00058178,-0.00211130,-0.0021956
 5,0.00009618,-0.00018796,-0.00010383,-0.00440672,0.00391378,0.00330851
 ,0.00500406,-0.00327129,-0.00204096,-0.00035170,0.00180173,0.00157351,
 -0.00249718,0.00027773,-0.00036803,-0.09041142,-0.09880850,-0.07079663
 ,0.01478225,0.01896233,-0.00396111,0.06931234,0.26587229,-0.00239149,0
 .00042448,0.00090421,-0.02727507,-0.01989234,-0.03547234,0.00532452,0.
 00151759,0.00502039,-0.00032730,0.00004791,-0.00000257,0.00135893,-0.0
 0286310,-0.00182591,0.00007797,-0.00012123,-0.00013807,-0.00451444,0.0
 0473702,0.00222082,0.00472549,-0.00357317,-0.00166873,-0.00015846,0.00
 184946,0.00163802,-0.00240916,0.00020166,-0.00047081,-0.19249350,-0.05
 651847,-0.14846313,-0.00240417,-0.00918566,0.01842981,0.20388340,0.213
 32560,0.30045220,0.00078760,-0.00008930,0.00031960,-0.00635302,0.00264
 101,-0.00205631,0.00035973,-0.00137259,-0.00123907,-0.00004003,-0.0000
 0787,-0.00001711,-0.00058337,0.00007151,0.00001948,0.00010450,-0.00008
 874,-0.00002017,0.00034437,-0.00043547,-0.00042954,-0.00016352,-0.0001
 9143,-0.00011592,-0.00000128,0.00008472,0.00006091,0.00011213,0.000125
 86,0.00011605,0.00685654,-0.05434171,-0.04859560,0.00460679,-0.0014636
 0,0.00272433,-0.10245664,0.03119630,0.00660919,0.55084488,-0.00084604,
 0.00215729,0.00246035,0.00144900,0.00978072,-0.00072212,-0.00065296,-0
 .00153385,-0.00184256,0.00012122,-0.00000881,0.00002499,-0.00033782,0.
 00041969,0.00067466,0.00013390,-0.00013200,0.00003390,0.00279754,-0.00
 545109,-0.00469140,-0.00647784,0.00449493,0.00279524,0.00069469,-0.002
 31175,-0.00199553,0.00320266,-0.00051868,0.00025706,-0.00827558,-0.029
 64605,-0.03141253,0.00010286,-0.00352306,0.00699888,0.02932956,-0.1485
 3493,-0.11254797,0.04352030,0.20436371,-0.00037357,0.00265289,0.001570
 59,-0.00314752,-0.00041531,0.00977714,-0.00058170,-0.00202153,-0.00171
 051,0.00010123,-0.00000855,0.00001710,-0.00034950,0.00077728,0.0002121
 7,0.00018358,-0.00002352,-0.00010520,0.00252928,-0.00553050,-0.0039469
 5,-0.00587314,0.00442916,0.00213479,0.00061956,-0.00215368,-0.00174822
 ,0.00293376,-0.00054300,0.00037535,-0.00640803,-0.04330847,-0.03897997
 ,0.00416014,0.00659282,-0.00402501,0.00488916,-0.11205191,-0.11871339,
 0.17660324,0.17926833,0.23057678,-0.00001469,-0.00050013,-0.00049167,0
 .00066691,-0.00005779,-0.00053385,0.00015631,0.00035091,0.00039931,-0.
 00002274,0.00001142,-0.00002219,0.00008083,-0.00017565,-0.00007481,-0.
 00002026,0.00001511,0.00000908,-0.00047295,0.00093434,0.00076412,0.001
 18511,-0.00076863,-0.00039311,-0.00014086,0.00036565,0.00029390,-0.000
 61998,0.00007065,-0.00008555,0.00153469,0.00241517,0.00151265,0.000863
 12,-0.00022795,0.00014648,0.00909559,0.00594244,0.00999409,-0.45441868
 ,-0.06476151,-0.17528649,0.44212759,0.00020376,0.00013561,0.00007262,-
 0.00152693,0.00112753,-0.00168207,0.00019383,-0.00025029,-0.00004721,-
 0.00000501,0.00004407,-0.00005570,-0.00008180,-0.00015378,0.00006961,0
 .00001821,-0.00001637,-0.00000844,-0.00014880,-0.00000998,0.00006189,0
 .00015065,-0.00026895,-0.00019711,0.00000552,0.00016653,0.00013833,-0.
 00006243,0.00004916,0.00006738,0.00150950,-0.00542762,-0.00846555,0.00
 047317,-0.00030854,0.00030882,-0.03746664,-0.01699812,-0.01740179,-0.0
 1964901,-0.02955613,-0.02766403,0.05638597,0.05146687,0.00015285,-0.00
 010934,0.00005324,-0.00187973,-0.00130210,0.00085450,0.00025464,-0.000
 00667,-0.00008367,-0.00003732,-0.00005146,0.00004669,0.00001162,0.0000
 4584,-0.00020838,0.00001193,-0.00000927,-0.00000732,-0.00022702,0.0003
 4174,0.00013414,0.00044724,-0.00043446,-0.00029284,-0.00003594,0.00023
 102,0.00021951,-0.00020654,0.00010180,-0.00000265,0.00068232,-0.008231
 81,-0.00311864,0.00078836,0.00012755,-0.00019130,-0.02975134,-0.006204
 80,-0.02191051,-0.13397909,-0.03930131,-0.07543468,0.16376802,0.054803
 26,0.09994191\\-0.00000663,0.00002450,0.00001552,0.00002715,0.00003256
 ,0.00005770,-0.00014109,0.00006572,-0.00002930,0.00010065,-0.00003559,
 0.00000288,-0.00004992,-0.00007019,-0.00002276,0.00002787,0.00002283,0
 .00001402,0.00003520,-0.00002379,-0.00002653,-0.00000568,-0.00000401,-
 0.00000707,-0.00001879,-0.00001025,-0.00001865,0.00002974,0.00001114,0
 .00002469,0.00009702,-0.00006929,-0.00003738,-0.00013542,0.00005087,0.
 00001797,0.00004943,0.00007415,0.00007689,-0.00002769,-0.00005632,-0.0
 0005850,0.00001815,-0.00001234,-0.00000948\\\@


 We make a living by what we get,
 we make a life by what we give.
                   -- Sir Winston Churchill
 Job cpu time:       0 days  0 hours  8 minutes 36.8 seconds.
 File lengths (MBytes):  RWF=     67 Int=      0 D2E=      0 Chk=      4 Scr=      1
 Normal termination of Gaussian 09 at Fri Aug 20 15:38:44 2021.
