 Entering Gaussian System, Link 0=g09
 Input=B3LYP6-31G.HABMAZ.gjf
 Output=B3LYP6-31G.HABMAZ.log
 Initial command:
 /public/home/users/caep010/software/Gaussian09/g09/l1.exe "/public/home/users/caep010/.cache/gau_scr/Gau-83074.inp" -scrdir="/public/home/users/caep010/.cache/gau_scr/"
 Entering Link 1 = /public/home/users/caep010/software/Gaussian09/g09/l1.exe PID=     83075.
  
 Copyright (c) 1988,1990,1992,1993,1995,1998,2003,2009,2015,
            Gaussian, Inc.  All Rights Reserved.
  
 This is part of the Gaussian(R) 09 program.  It is based on
 the Gaussian(R) 03 system (copyright 2003, Gaussian, Inc.),
 the Gaussian(R) 98 system (copyright 1998, Gaussian, Inc.),
 the Gaussian(R) 94 system (copyright 1995, Gaussian, Inc.),
 the Gaussian 92(TM) system (copyright 1992, Gaussian, Inc.),
 the Gaussian 90(TM) system (copyright 1990, Gaussian, Inc.),
 the Gaussian 88(TM) system (copyright 1988, Gaussian, Inc.),
 the Gaussian 86(TM) system (copyright 1986, Carnegie Mellon
 University), and the Gaussian 82(TM) system (copyright 1983,
 Carnegie Mellon University). Gaussian is a federally registered
 trademark of Gaussian, Inc.
  
 This software contains proprietary and confidential information,
 including trade secrets, belonging to Gaussian, Inc.
  
 This software is provided under written license and may be
 used, copied, transmitted, or stored only in accord with that
 written license.
  
 The following legend is applicable only to US Government
 contracts under FAR:
  
                    RESTRICTED RIGHTS LEGEND
  
 Use, reproduction and disclosure by the US Government is
 subject to restrictions as set forth in subparagraphs (a)
 and (c) of the Commercial Computer Software - Restricted
 Rights clause in FAR 52.227-19.
  
 Gaussian, Inc.
 340 Quinnipiac St., Bldg. 40, Wallingford CT 06492
  
  
 ---------------------------------------------------------------
 Warning -- This program may not be used in any manner that
 competes with the business of Gaussian, Inc. or will provide
 assistance to any competitor of Gaussian, Inc.  The licensee
 of this program is prohibited from giving any competitor of
 Gaussian, Inc. access to this program.  By using this program,
 the user acknowledges that Gaussian, Inc. is engaged in the
 business of creating and licensing software in the field of
 computational chemistry and represents and warrants to the
 licensee that it is not a competitor of Gaussian, Inc. and that
 it will not use this program in any manner prohibited above.
 ---------------------------------------------------------------
  

 Cite this work as:
 Gaussian 09, Revision E.01,
 M. J. Frisch, G. W. Trucks, H. B. Schlegel, G. E. Scuseria, 
 M. A. Robb, J. R. Cheeseman, G. Scalmani, V. Barone, B. Mennucci, 
 G. A. Petersson, H. Nakatsuji, M. Caricato, X. Li, H. P. Hratchian, 
 A. F. Izmaylov, J. Bloino, G. Zheng, J. L. Sonnenberg, M. Hada, 
 M. Ehara, K. Toyota, R. Fukuda, J. Hasegawa, M. Ishida, T. Nakajima, 
 Y. Honda, O. Kitao, H. Nakai, T. Vreven, J. A. Montgomery, Jr., 
 J. E. Peralta, F. Ogliaro, M. Bearpark, J. J. Heyd, E. Brothers, 
 K. N. Kudin, V. N. Staroverov, T. Keith, R. Kobayashi, J. Normand, 
 K. Raghavachari, A. Rendell, J. C. Burant, S. S. Iyengar, J. Tomasi, 
 M. Cossi, N. Rega, J. M. Millam, M. Klene, J. E. Knox, J. B. Cross, 
 V. Bakken, C. Adamo, J. Jaramillo, R. Gomperts, R. E. Stratmann, 
 O. Yazyev, A. J. Austin, R. Cammi, C. Pomelli, J. W. Ochterski, 
 R. L. Martin, K. Morokuma, V. G. Zakrzewski, G. A. Voth, 
 P. Salvador, J. J. Dannenberg, S. Dapprich, A. D. Daniels, 
 O. Farkas, J. B. Foresman, J. V. Ortiz, J. Cioslowski, 
 and D. J. Fox, Gaussian, Inc., Wallingford CT, 2013.
 
 ******************************************
 Gaussian 09:  ES64L-G09RevE.01 30-Nov-2015
                20-Aug-2021 
 ******************************************
 %nproc=32
 Will use up to   32 processors via shared memory.
 %mem=180GB
 -------------------------
 #P OPT Freq B3LYP/6-31G**
 -------------------------
 1/14=-1,18=20,19=15,26=3,38=1/1,3;
 2/9=110,12=2,17=6,18=5,40=1/2;
 3/5=1,6=6,7=101,11=2,16=1,25=1,30=1,71=1,74=-5/1,2,3;
 4//1;
 5/5=2,38=5/2;
 6/7=2,8=2,9=2,10=2,28=1/1;
 7//1,2,3,16;
 1/14=-1,18=20,19=15,26=3/3(2);
 2/9=110/2;
 99//99;
 2/9=110/2;
 3/5=1,6=6,7=101,11=2,16=1,25=1,30=1,71=1,74=-5/1,2,3;
 4/5=5,16=3,69=1/1;
 5/5=2,38=5/2;
 7//1,2,3,16;
 1/14=-1,18=20,19=15,26=3/3(-5);
 2/9=110/2;
 6/7=2,8=2,9=2,10=2,19=2,28=1/1;
 99/9=1/99;
 Leave Link    1 at Fri Aug 20 15:50:42 2021, MaxMem= 24159191040 cpu:         2.1
 (Enter /public/home/users/caep010/software/Gaussian09/g09/l101.exe)
 ------
 HABMAZ
 ------
 Symbolic Z-matrix:
 Charge =  0 Multiplicity = 1
 O                     4.2304    2.7456    8.5582 
 N                     5.3685    2.0191    8.2841 
 C                     5.3549    1.0953    7.2851 
 C                     6.4509    2.2977    9.0328 
 H                     6.3151    2.9632    9.6917 
 N                     4.1109    0.9261    6.7459 
 N                     3.9547    0.0276    5.7663 
 O                     4.8891   -0.5203    5.2236 
 H                     3.7483    1.9996    8.7616 
 O                     2.7936   -0.1828    5.4197 
 C                     6.5881    0.4868    7.0146 
 C                     7.7098    0.7637    7.7626 
 H                     6.6003   -0.0995    6.3322 
 C                     7.6175    1.6811    8.807 
 H                     8.393     1.8186    9.3366 
 C                     9.0041    0.0973    7.4506 
 H                     9.3979    0.5881    6.8275 
 H                     9.0041   -0.6786    6.8102 
 H                     9.4115   -0.1402    8.2013 
 
 Add atom      7 valence  3 ND=      2 dihedral       6      7      8     10
 NAtoms=     19 NQM=       19 NQMF=       0 NMMI=      0 NMMIF=      0
                NMic=       0 NMicF=      0.
                    Isotopes and Nuclear Properties:
 (Nuclear quadrupole moments (NQMom) in fm**2, nuclear magnetic moments (NMagM)
  in nuclear magnetons)

  Atom         1           2           3           4           5           6           7           8           9          10
 IAtWgt=          16          14          12          12           1          14          14          16           1          16
 AtmWgt=  15.9949146  14.0030740  12.0000000  12.0000000   1.0078250  14.0030740  14.0030740  15.9949146   1.0078250  15.9949146
 NucSpn=           0           2           0           0           1           2           2           0           1           0
 AtZEff=   0.0000000   0.0000000   0.0000000   0.0000000   0.0000000   0.0000000   0.0000000   0.0000000   0.0000000   0.0000000
 NQMom=    0.0000000   2.0440000   0.0000000   0.0000000   0.0000000   2.0440000   2.0440000   0.0000000   0.0000000   0.0000000
 NMagM=    0.0000000   0.4037610   0.0000000   0.0000000   2.7928460   0.4037610   0.4037610   0.0000000   2.7928460   0.0000000
 AtZNuc=   8.0000000   7.0000000   6.0000000   6.0000000   1.0000000   7.0000000   7.0000000   8.0000000   1.0000000   8.0000000

  Atom        11          12          13          14          15          16          17          18          19
 IAtWgt=          12          12           1          12           1          12           1           1           1
 AtmWgt=  12.0000000  12.0000000   1.0078250  12.0000000   1.0078250  12.0000000   1.0078250   1.0078250   1.0078250
 NucSpn=           0           0           1           0           1           0           1           1           1
 AtZEff=   0.0000000   0.0000000   0.0000000   0.0000000   0.0000000   0.0000000   0.0000000   0.0000000   0.0000000
 NQMom=    0.0000000   0.0000000   0.0000000   0.0000000   0.0000000   0.0000000   0.0000000   0.0000000   0.0000000
 NMagM=    0.0000000   0.0000000   2.7928460   0.0000000   2.7928460   0.0000000   2.7928460   2.7928460   2.7928460
 AtZNuc=   6.0000000   6.0000000   1.0000000   6.0000000   1.0000000   6.0000000   1.0000000   1.0000000   1.0000000
 Leave Link  101 at Fri Aug 20 15:50:42 2021, MaxMem= 24159191040 cpu:        10.5
 (Enter /public/home/users/caep010/software/Gaussian09/g09/l103.exe)

 GradGradGradGradGradGradGradGradGradGradGradGradGradGradGradGradGradGrad
 Berny optimization.
 Initialization pass.
                           ----------------------------
                           !    Initial Parameters    !
                           ! (Angstroms and Degrees)  !
 --------------------------                            --------------------------
 ! Name  Definition              Value          Derivative Info.                !
 --------------------------------------------------------------------------------
 ! R1    R(1,2)                  1.3778         estimate D2E/DX2                !
 ! R2    R(1,9)                  0.9112         estimate D2E/DX2                !
 ! R3    R(2,3)                  1.3607         estimate D2E/DX2                !
 ! R4    R(2,4)                  1.3453         estimate D2E/DX2                !
 ! R5    R(3,6)                  1.3663         estimate D2E/DX2                !
 ! R6    R(3,11)                 1.4015         estimate D2E/DX2                !
 ! R7    R(4,5)                  0.9463         estimate D2E/DX2                !
 ! R8    R(4,14)                 1.3387         estimate D2E/DX2                !
 ! R9    R(6,7)                  1.3384         estimate D2E/DX2                !
 ! R10   R(7,8)                  1.2115         estimate D2E/DX2                !
 ! R11   R(7,10)                 1.2299         estimate D2E/DX2                !
 ! R12   R(11,12)                1.3764         estimate D2E/DX2                !
 ! R13   R(11,13)                0.8998         estimate D2E/DX2                !
 ! R14   R(12,14)                1.3932         estimate D2E/DX2                !
 ! R15   R(12,16)                1.4888         estimate D2E/DX2                !
 ! R16   R(14,15)                0.9491         estimate D2E/DX2                !
 ! R17   R(16,17)                0.8856         estimate D2E/DX2                !
 ! R18   R(16,18)                1.006          estimate D2E/DX2                !
 ! R19   R(16,19)                0.8865         estimate D2E/DX2                !
 ! A1    A(2,1,9)               92.8518         estimate D2E/DX2                !
 ! A2    A(1,2,3)              119.722          estimate D2E/DX2                !
 ! A3    A(1,2,4)              116.4051         estimate D2E/DX2                !
 ! A4    A(3,2,4)              123.8645         estimate D2E/DX2                !
 ! A5    A(2,3,6)              112.513          estimate D2E/DX2                !
 ! A6    A(2,3,11)             115.3195         estimate D2E/DX2                !
 ! A7    A(6,3,11)             132.1589         estimate D2E/DX2                !
 ! A8    A(2,4,5)              114.6891         estimate D2E/DX2                !
 ! A9    A(2,4,14)             120.7902         estimate D2E/DX2                !
 ! A10   A(5,4,14)             124.501          estimate D2E/DX2                !
 ! A11   A(3,6,7)              118.5696         estimate D2E/DX2                !
 ! A12   A(6,7,8)              122.782          estimate D2E/DX2                !
 ! A13   A(6,7,10)             115.55           estimate D2E/DX2                !
 ! A14   A(8,7,10)             121.6363         estimate D2E/DX2                !
 ! A15   A(3,11,12)            121.6589         estimate D2E/DX2                !
 ! A16   A(3,11,13)            116.1823         estimate D2E/DX2                !
 ! A17   A(12,11,13)           122.1554         estimate D2E/DX2                !
 ! A18   A(11,12,14)           119.0711         estimate D2E/DX2                !
 ! A19   A(11,12,16)           120.3013         estimate D2E/DX2                !
 ! A20   A(14,12,16)           120.6262         estimate D2E/DX2                !
 ! A21   A(4,14,12)            119.1751         estimate D2E/DX2                !
 ! A22   A(4,14,15)            123.4493         estimate D2E/DX2                !
 ! A23   A(12,14,15)           117.36           estimate D2E/DX2                !
 ! A24   A(12,16,17)           106.6166         estimate D2E/DX2                !
 ! A25   A(12,16,18)           118.5938         estimate D2E/DX2                !
 ! A26   A(12,16,19)           109.9962         estimate D2E/DX2                !
 ! A27   A(17,16,18)            88.8281         estimate D2E/DX2                !
 ! A28   A(17,16,19)           122.6795         estimate D2E/DX2                !
 ! A29   A(18,16,19)           109.415          estimate D2E/DX2                !
 ! D1    D(9,1,2,3)             60.896          estimate D2E/DX2                !
 ! D2    D(9,1,2,4)           -120.1184         estimate D2E/DX2                !
 ! D3    D(1,2,3,6)             -5.827          estimate D2E/DX2                !
 ! D4    D(1,2,3,11)           175.1129         estimate D2E/DX2                !
 ! D5    D(4,2,3,6)            175.2672         estimate D2E/DX2                !
 ! D6    D(4,2,3,11)            -3.7929         estimate D2E/DX2                !
 ! D7    D(1,2,4,5)              1.0452         estimate D2E/DX2                !
 ! D8    D(1,2,4,14)          -177.4097         estimate D2E/DX2                !
 ! D9    D(3,2,4,5)            179.9843         estimate D2E/DX2                !
 ! D10   D(3,2,4,14)             1.5293         estimate D2E/DX2                !
 ! D11   D(2,3,6,7)           -178.9237         estimate D2E/DX2                !
 ! D12   D(11,3,6,7)            -0.0699         estimate D2E/DX2                !
 ! D13   D(2,3,11,12)            3.2532         estimate D2E/DX2                !
 ! D14   D(2,3,11,13)         -177.4072         estimate D2E/DX2                !
 ! D15   D(6,3,11,12)         -175.5754         estimate D2E/DX2                !
 ! D16   D(6,3,11,13)            3.7641         estimate D2E/DX2                !
 ! D17   D(2,4,14,12)            1.455          estimate D2E/DX2                !
 ! D18   D(2,4,14,15)         -177.0683         estimate D2E/DX2                !
 ! D19   D(5,4,14,12)         -176.8415         estimate D2E/DX2                !
 ! D20   D(5,4,14,15)            4.6352         estimate D2E/DX2                !
 ! D21   D(3,6,7,8)             -9.4477         estimate D2E/DX2                !
 ! D22   D(3,6,7,10)           172.5682         estimate D2E/DX2                !
 ! D23   D(6,7,8,10)          -177.8637         estimate D2E/DX2                !
 ! D24   D(3,11,12,14)          -0.5733         estimate D2E/DX2                !
 ! D25   D(3,11,12,16)         179.8576         estimate D2E/DX2                !
 ! D26   D(13,11,12,14)       -179.8732         estimate D2E/DX2                !
 ! D27   D(13,11,12,16)          0.5577         estimate D2E/DX2                !
 ! D28   D(11,12,14,4)          -1.8612         estimate D2E/DX2                !
 ! D29   D(11,12,14,15)        176.7514         estimate D2E/DX2                !
 ! D30   D(16,12,14,4)         177.7064         estimate D2E/DX2                !
 ! D31   D(16,12,14,15)         -3.6809         estimate D2E/DX2                !
 ! D32   D(11,12,16,17)         86.3434         estimate D2E/DX2                !
 ! D33   D(11,12,16,18)        -11.6094         estimate D2E/DX2                !
 ! D34   D(11,12,16,19)       -138.5668         estimate D2E/DX2                !
 ! D35   D(14,12,16,17)        -93.2189         estimate D2E/DX2                !
 ! D36   D(14,12,16,18)        168.8283         estimate D2E/DX2                !
 ! D37   D(14,12,16,19)         41.8709         estimate D2E/DX2                !
 --------------------------------------------------------------------------------
 Trust Radius=3.00D-01 FncErr=1.00D-07 GrdErr=1.00D-06
 Number of steps in this run=     95 maximum allowed number of steps=    114.
 GradGradGradGradGradGradGradGradGradGradGradGradGradGradGradGradGradGrad

 Leave Link  103 at Fri Aug 20 15:50:42 2021, MaxMem= 24159191040 cpu:         0.6
 (Enter /public/home/users/caep010/software/Gaussian09/g09/l202.exe)
                          Input orientation:                          
 ---------------------------------------------------------------------
 Center     Atomic      Atomic             Coordinates (Angstroms)
 Number     Number       Type             X           Y           Z
 ---------------------------------------------------------------------
      1          8           0        4.230400    2.745600    8.558200
      2          7           0        5.368500    2.019100    8.284100
      3          6           0        5.354900    1.095300    7.285100
      4          6           0        6.450900    2.297700    9.032800
      5          1           0        6.315100    2.963200    9.691700
      6          7           0        4.110900    0.926100    6.745900
      7          7           0        3.954700    0.027600    5.766300
      8          8           0        4.889100   -0.520300    5.223600
      9          1           0        3.748300    1.999600    8.761600
     10          8           0        2.793600   -0.182800    5.419700
     11          6           0        6.588100    0.486800    7.014600
     12          6           0        7.709800    0.763700    7.762600
     13          1           0        6.600300   -0.099500    6.332200
     14          6           0        7.617500    1.681100    8.807000
     15          1           0        8.393000    1.818600    9.336600
     16          6           0        9.004100    0.097300    7.450600
     17          1           0        9.397900    0.588100    6.827500
     18          1           0        9.004100   -0.678600    6.810200
     19          1           0        9.411500   -0.140200    8.201300
 ---------------------------------------------------------------------
                    Distance matrix (angstroms):
                    1          2          3          4          5
     1  O    0.000000
     2  N    1.377753   0.000000
     3  C    2.368285   1.360732   0.000000
     4  C    2.314407   1.345273   2.387768   0.000000
     5  H    2.382886   1.941318   3.194176   0.946299   0.000000
     6  N    2.570854   2.267656   1.366346   3.547788   4.205474
     7  N    3.906180   3.507737   2.325359   4.696210   5.440404
     8  O    4.713761   4.005626   2.660247   4.989023   5.842274
     9  H    0.911212   1.689211   2.361985   2.732482   2.895181
    10  O    4.526600   4.436582   3.416653   5.708171   6.367752
    11  C    3.611596   2.333880   1.401508   2.715016   3.657041
    12  C    4.082540   2.707338   2.425597   2.356139   3.241052
    13  H    4.320428   3.133003   1.971443   3.614157   4.554965
    14  C    3.559144   2.333596   2.789032   1.338707   2.030448
    15  H    4.335029   3.208669   3.736558   2.023261   2.398723
    16  C    5.570322   4.195906   3.786826   3.723432   4.524006
    17  H    5.861159   4.517246   4.100305   4.058434   4.832018
    18  H    6.129344   4.761045   4.085206   4.507454   5.366234
    19  H    5.941298   4.584243   4.338420   3.924271   4.630343
                    6          7          8          9         10
     6  N    0.000000
     7  N    1.338401   0.000000
     8  O    2.239434   1.211537   0.000000
     9  H    2.312342   3.592103   4.490965   0.000000
    10  O    2.173418   1.229859   2.131544   4.103976   0.000000
    11  C    2.530159   2.950239   2.666183   3.661289   4.170168
    12  C    3.743278   4.315997   4.006436   4.268364   5.527573
    13  H    2.723989   2.708431   2.081891   4.294428   3.915426
    14  C    4.136956   5.039447   5.013091   3.882552   6.182066
    15  H    5.083765   5.971033   5.887660   4.683655   7.120463
    16  C    5.012676   5.323360   4.719553   5.741158   6.540132
    17  H    5.298422   5.573933   4.912263   6.136046   6.796541
    18  H    5.150010   5.204314   4.413115   6.213224   6.383543
    19  H    5.599245   5.977796   5.428008   6.079845   7.178838
                   11         12         13         14         15
    11  C    0.000000
    12  C    1.376368   0.000000
    13  H    0.899759   2.005530   0.000000
    14  C    2.387198   1.393167   3.214011   0.000000
    15  H    3.228473   2.014213   3.989900   0.949096   0.000000
    16  C    2.485732   1.488840   2.658534   2.504177   2.625512
    17  H    2.817844   1.937764   2.923129   2.878002   2.969771
    18  H    2.690166   2.159284   2.518352   3.387928   3.604462
    19  H    3.126176   1.976177   3.376098   2.627250   2.482568
                   16         17         18         19
    16  C    0.000000
    17  H    0.885560   0.000000
    18  H    1.006048   1.326615   0.000000
    19  H    0.886528   1.554970   1.546289   0.000000
 Stoichiometry    C6H7N3O3
 Framework group  C1[X(C6H7N3O3)]
 Deg. of freedom    51
 Full point group                 C1      NOp   1
 Largest Abelian subgroup         C1      NOp   1
 Largest concise Abelian subgroup C1      NOp   1
                         Standard orientation:                         
 ---------------------------------------------------------------------
 Center     Atomic      Atomic             Coordinates (Angstroms)
 Number     Number       Type             X           Y           Z
 ---------------------------------------------------------------------
      1          8           0        0.152874    2.640742    0.145115
      2          7           0       -0.501919    1.432952    0.041709
      3          6           0        0.213809    0.275665    0.038016
      4          6           0       -1.844305    1.484385   -0.029794
      5          1           0       -2.207620    2.358068   -0.017089
      6          7           0        1.562314    0.494590    0.015488
      7          7           0        2.382069   -0.563016   -0.012561
      8          8           0        1.992943   -1.699037    0.148244
      9          1           0        0.618901    2.505842   -0.626201
     10          8           0        3.573776   -0.306272   -0.175262
     11          6           0       -0.548393   -0.900461    0.036794
     12          6           0       -1.922940   -0.870440   -0.027291
     13          1           0       -0.087340   -1.672364    0.070885
     14          6           0       -2.571389    0.361474   -0.080353
     15          1           0       -3.516046    0.353575   -0.171687
     16          6           0       -2.702705   -2.138748   -0.029868
     17          1           0       -2.828243   -2.360563    0.818221
     18          1           0       -2.210675   -3.006196   -0.162428
     19          1           0       -3.367425   -2.084754   -0.613961
 ---------------------------------------------------------------------
 Rotational constants (GHZ):      1.5108079      0.7363170      0.4978253
 Leave Link  202 at Fri Aug 20 15:50:42 2021, MaxMem= 24159191040 cpu:         0.6
 (Enter /public/home/users/caep010/software/Gaussian09/g09/l301.exe)
 Standard basis: 6-31G(d,p) (6D, 7F)
 Ernie: Thresh=  0.10000D-02 Tol=  0.10000D-05 Strict=F.
 There are   215 symmetry adapted cartesian basis functions of A   symmetry.
 There are   215 symmetry adapted basis functions of A   symmetry.
   215 basis functions,   385 primitive gaussians,   215 cartesian basis functions
    44 alpha electrons       44 beta electrons
       nuclear repulsion energy       711.4280944474 Hartrees.
 IExCor=  402 DFT=T Ex+Corr=B3LYP ExCW=0 ScaHFX=  0.200000
 ScaDFX=  0.800000  0.720000  1.000000  0.810000 ScalE2=  1.000000  1.000000
 IRadAn=      0 IRanWt=     -1 IRanGd=            0 ICorTp=0 IEmpDi=  4
 NAtoms=   19 NActive=   19 NUniq=   19 SFac= 1.00D+00 NAtFMM=   60 NAOKFM=F Big=F
 Integral buffers will be    131072 words long.
 Raffenetti 2 integral format.
 Two-electron integral symmetry is turned on.
 Leave Link  301 at Fri Aug 20 15:50:42 2021, MaxMem= 24159191040 cpu:         2.0
 (Enter /public/home/users/caep010/software/Gaussian09/g09/l302.exe)
 NPDir=0 NMtPBC=     1 NCelOv=     1 NCel=       1 NClECP=     1 NCelD=      1
         NCelK=      1 NCelE2=     1 NClLst=     1 CellRange=     0.0.
 One-electron integrals computed using PRISM.
 NBasis=   215 RedAO= T EigKep=  4.92D-04  NBF=   215
 NBsUse=   215 1.00D-06 EigRej= -1.00D+00 NBFU=   215
 Precomputing XC quadrature grid using
 IXCGrd= 4 IRadAn=           0 IRanWt=          -1 IRanGd=           0 AccXCQ= 0.00D+00.
 Generated NRdTot=       0 NPtTot=           0 NUsed=           0 NTot=          32
 NSgBfM=   214   214   214   214   214 MxSgAt=    19 MxSgA2=    19.
 Leave Link  302 at Fri Aug 20 15:50:43 2021, MaxMem= 24159191040 cpu:        12.0
 (Enter /public/home/users/caep010/software/Gaussian09/g09/l303.exe)
 DipDrv:  MaxL=1.
 Leave Link  303 at Fri Aug 20 15:50:43 2021, MaxMem= 24159191040 cpu:         1.2
 (Enter /public/home/users/caep010/software/Gaussian09/g09/l401.exe)
 ExpMin= 1.61D-01 ExpMax= 5.48D+03 ExpMxC= 8.25D+02 IAcc=1 IRadAn=         1 AccDes= 0.00D+00
 Harris functional with IExCor=  402 and IRadAn=       1 diagonalized for initial guess.
 HarFok:  IExCor=  402 AccDes= 0.00D+00 IRadAn=         1 IDoV= 1 UseB2=F ITyADJ=14
 ICtDFT=  3500011 ScaDFX=  1.000000  1.000000  1.000000  1.000000
 FoFCou: FMM=F IPFlag=           0 FMFlag=      100000 FMFlg1=           0
         NFxFlg=           0 DoJE=T BraDBF=F KetDBF=T FulRan=T
         wScrn=  0.000000 ICntrl=     500 IOpCl=  0 I1Cent=   200000004 NGrid=           0
         NMat0=    1 NMatS0=      1 NMatT0=    0 NMatD0=    1 NMtDS0=    0 NMtDT0=    0
 Petite list used in FoFCou.
 Harris En= -622.566423823312    
 JPrj=0 DoOrth=F DoCkMO=F.
 Leave Link  401 at Fri Aug 20 15:50:43 2021, MaxMem= 24159191040 cpu:        11.6
 (Enter /public/home/users/caep010/software/Gaussian09/g09/l502.exe)
 Closed shell SCF:
 Using DIIS extrapolation, IDIIS=  1040.
 Integral symmetry usage will be decided dynamically.
 Keep R1 ints in memory in canonical form, NReq=274800267.
 IVT=      165717 IEndB=      165717 NGot= 24159191040 MDV= 23889429514
 LenX= 23889429514 LenY= 23889382848
 Requested convergence on RMS density matrix=1.00D-08 within 128 cycles.
 Requested convergence on MAX density matrix=1.00D-06.
 Requested convergence on             energy=1.00D-06.
 No special actions if energy rises.
 FoFCou: FMM=F IPFlag=           0 FMFlag=           0 FMFlg1=           0
         NFxFlg=           0 DoJE=F BraDBF=F KetDBF=F FulRan=T
         wScrn=  0.000000 ICntrl=     600 IOpCl=  0 I1Cent=           0 NGrid=           0
         NMat0=    1 NMatS0=  23220 NMatT0=    0 NMatD0=    1 NMtDS0=    0 NMtDT0=    0
 Symmetry not used in FoFCou.
 Integral accuracy reduced to 1.0D-05 until final iterations.

 Cycle   1  Pass 0  IDiag  1:
 E= -621.938084040431    
 DIIS: error= 3.57D-02 at cycle   1 NSaved=   1.
 NSaved= 1 IEnMin= 1 EnMin= -621.938084040431     IErMin= 1 ErrMin= 3.57D-02
 ErrMax= 3.57D-02  0.00D+00 EMaxC= 1.00D-01 BMatC= 5.66D-01 BMatP= 5.66D-01
 IDIUse=3 WtCom= 6.43D-01 WtEn= 3.57D-01
 Coeff-Com:  0.100D+01
 Coeff-En:   0.100D+01
 Coeff:      0.100D+01
 Gap=     0.189 Goal=   None    Shift=    0.000
 GapD=    0.189 DampG=1.000 DampE=0.500 DampFc=0.5000 IDamp=-1.
 Damping current iteration by 5.00D-01
 RMSDP=7.30D-03 MaxDP=2.53D-01              OVMax= 2.89D-01

 Cycle   2  Pass 0  IDiag  1:
 E= -622.045067390181     Delta-E=       -0.106983349749 Rises=F Damp=T
 DIIS: error= 1.52D-02 at cycle   2 NSaved=   2.
 NSaved= 2 IEnMin= 2 EnMin= -622.045067390181     IErMin= 2 ErrMin= 1.52D-02
 ErrMax= 1.52D-02  0.00D+00 EMaxC= 1.00D-01 BMatC= 1.04D-01 BMatP= 5.66D-01
 IDIUse=3 WtCom= 8.48D-01 WtEn= 1.52D-01
 Coeff-Com:  0.248D+00 0.752D+00
 Coeff-En:   0.387D+00 0.613D+00
 Coeff:      0.269D+00 0.731D+00
 Gap=     0.174 Goal=   None    Shift=    0.000
 RMSDP=2.79D-03 MaxDP=1.15D-01 DE=-1.07D-01 OVMax= 3.05D-01

 Cycle   3  Pass 0  IDiag  1:
 E= -622.364772060200     Delta-E=       -0.319704670020 Rises=F Damp=F
 DIIS: error= 1.11D-02 at cycle   3 NSaved=   3.
 NSaved= 3 IEnMin= 3 EnMin= -622.364772060200     IErMin= 3 ErrMin= 1.11D-02
 ErrMax= 1.11D-02  0.00D+00 EMaxC= 1.00D-01 BMatC= 5.78D-02 BMatP= 1.04D-01
 IDIUse=3 WtCom= 8.89D-01 WtEn= 1.11D-01
 Coeff-Com:  0.965D-01 0.420D+00 0.483D+00
 Coeff-En:   0.000D+00 0.000D+00 0.100D+01
 Coeff:      0.858D-01 0.374D+00 0.540D+00
 Gap=     0.172 Goal=   None    Shift=    0.000
 RMSDP=1.70D-03 MaxDP=6.30D-02 DE=-3.20D-01 OVMax= 1.25D-01

 Cycle   4  Pass 0  IDiag  1:
 E= -622.401709422156     Delta-E=       -0.036937361956 Rises=F Damp=F
 DIIS: error= 9.19D-03 at cycle   4 NSaved=   4.
 NSaved= 4 IEnMin= 4 EnMin= -622.401709422156     IErMin= 4 ErrMin= 9.19D-03
 ErrMax= 9.19D-03  0.00D+00 EMaxC= 1.00D-01 BMatC= 1.94D-02 BMatP= 5.78D-02
 IDIUse=3 WtCom= 9.08D-01 WtEn= 9.19D-02
 Coeff-Com:  0.357D-01 0.143D+00 0.362D+00 0.459D+00
 Coeff-En:   0.000D+00 0.000D+00 0.268D+00 0.732D+00
 Coeff:      0.324D-01 0.130D+00 0.354D+00 0.484D+00
 Gap=     0.167 Goal=   None    Shift=    0.000
 RMSDP=7.43D-04 MaxDP=3.92D-02 DE=-3.69D-02 OVMax= 7.43D-02

 Cycle   5  Pass 0  IDiag  1:
 E= -622.415374766176     Delta-E=       -0.013665344020 Rises=F Damp=F
 DIIS: error= 4.70D-03 at cycle   5 NSaved=   5.
 NSaved= 5 IEnMin= 5 EnMin= -622.415374766176     IErMin= 5 ErrMin= 4.70D-03
 ErrMax= 4.70D-03  0.00D+00 EMaxC= 1.00D-01 BMatC= 3.49D-03 BMatP= 1.94D-02
 IDIUse=3 WtCom= 9.53D-01 WtEn= 4.70D-02
 Coeff-Com:  0.109D-01 0.256D-01 0.170D+00 0.353D+00 0.440D+00
 Coeff-En:   0.000D+00 0.000D+00 0.000D+00 0.154D+00 0.846D+00
 Coeff:      0.104D-01 0.244D-01 0.162D+00 0.344D+00 0.459D+00
 Gap=     0.161 Goal=   None    Shift=    0.000
 RMSDP=2.86D-04 MaxDP=1.55D-02 DE=-1.37D-02 OVMax= 3.31D-02

 Cycle   6  Pass 0  IDiag  1:
 E= -622.417795082415     Delta-E=       -0.002420316239 Rises=F Damp=F
 DIIS: error= 1.54D-03 at cycle   6 NSaved=   6.
 NSaved= 6 IEnMin= 6 EnMin= -622.417795082415     IErMin= 6 ErrMin= 1.54D-03
 ErrMax= 1.54D-03  0.00D+00 EMaxC= 1.00D-01 BMatC= 4.66D-04 BMatP= 3.49D-03
 IDIUse=3 WtCom= 9.85D-01 WtEn= 1.54D-02
 Coeff-Com:  0.261D-02-0.268D-02 0.635D-01 0.173D+00 0.321D+00 0.443D+00
 Coeff-En:   0.000D+00 0.000D+00 0.000D+00 0.000D+00 0.130D+00 0.870D+00
 Coeff:      0.257D-02-0.264D-02 0.625D-01 0.170D+00 0.318D+00 0.449D+00
 Gap=     0.160 Goal=   None    Shift=    0.000
 RMSDP=1.06D-04 MaxDP=4.10D-03 DE=-2.42D-03 OVMax= 8.37D-03

 Cycle   7  Pass 0  IDiag  1:
 E= -622.418168019717     Delta-E=       -0.000372937302 Rises=F Damp=F
 DIIS: error= 1.84D-04 at cycle   7 NSaved=   7.
 NSaved= 7 IEnMin= 7 EnMin= -622.418168019717     IErMin= 7 ErrMin= 1.84D-04
 ErrMax= 1.84D-04  0.00D+00 EMaxC= 1.00D-01 BMatC= 1.98D-05 BMatP= 4.66D-04
 IDIUse=3 WtCom= 9.98D-01 WtEn= 1.84D-03
 Coeff-Com:  0.510D-03-0.305D-02 0.159D-01 0.490D-01 0.114D+00 0.242D+00
 Coeff-Com:  0.581D+00
 Coeff-En:   0.000D+00 0.000D+00 0.000D+00 0.000D+00 0.000D+00 0.000D+00
 Coeff-En:   0.100D+01
 Coeff:      0.509D-03-0.304D-02 0.159D-01 0.489D-01 0.114D+00 0.242D+00
 Coeff:      0.581D+00
 Gap=     0.159 Goal=   None    Shift=    0.000
 RMSDP=2.89D-05 MaxDP=1.14D-03 DE=-3.73D-04 OVMax= 2.52D-03

 Cycle   8  Pass 0  IDiag  1:
 E= -622.418185638539     Delta-E=       -0.000017618822 Rises=F Damp=F
 DIIS: error= 6.22D-05 at cycle   8 NSaved=   8.
 NSaved= 8 IEnMin= 8 EnMin= -622.418185638539     IErMin= 8 ErrMin= 6.22D-05
 ErrMax= 6.22D-05  0.00D+00 EMaxC= 1.00D-01 BMatC= 1.95D-06 BMatP= 1.98D-05
 IDIUse=1 WtCom= 1.00D+00 WtEn= 0.00D+00
 Coeff-Com:  0.440D-04-0.181D-02 0.334D-02 0.124D-01 0.380D-01 0.102D+00
 Coeff-Com:  0.329D+00 0.518D+00
 Coeff:      0.440D-04-0.181D-02 0.334D-02 0.124D-01 0.380D-01 0.102D+00
 Coeff:      0.329D+00 0.518D+00
 Gap=     0.160 Goal=   None    Shift=    0.000
 RMSDP=8.21D-06 MaxDP=2.55D-04 DE=-1.76D-05 OVMax= 5.67D-04

 Initial convergence to 1.0D-05 achieved.  Increase integral accuracy.
 Cycle   9  Pass 1  IDiag  1:
 E= -622.418181968830     Delta-E=        0.000003669709 Rises=F Damp=F
 DIIS: error= 4.15D-05 at cycle   1 NSaved=   1.
 NSaved= 1 IEnMin= 1 EnMin= -622.418181968830     IErMin= 1 ErrMin= 4.15D-05
 ErrMax= 4.15D-05  0.00D+00 EMaxC= 1.00D-01 BMatC= 3.14D-07 BMatP= 3.14D-07
 IDIUse=1 WtCom= 1.00D+00 WtEn= 0.00D+00
 Coeff-Com:  0.100D+01
 Coeff:      0.100D+01
 Gap=     0.160 Goal=   None    Shift=    0.000
 RMSDP=8.21D-06 MaxDP=2.55D-04 DE= 3.67D-06 OVMax= 4.58D-04

 Cycle  10  Pass 1  IDiag  1:
 E= -622.418181568268     Delta-E=        0.000000400562 Rises=F Damp=F
 DIIS: error= 4.91D-05 at cycle   2 NSaved=   2.
 NSaved= 2 IEnMin= 1 EnMin= -622.418181968830     IErMin= 1 ErrMin= 4.15D-05
 ErrMax= 4.91D-05  0.00D+00 EMaxC= 1.00D-01 BMatC= 8.82D-07 BMatP= 3.14D-07
 IDIUse=1 WtCom= 1.00D+00 WtEn= 0.00D+00
 Coeff-Com:  0.640D+00 0.360D+00
 Coeff:      0.640D+00 0.360D+00
 Gap=     0.160 Goal=   None    Shift=    0.000
 RMSDP=4.13D-06 MaxDP=1.58D-04 DE= 4.01D-07 OVMax= 2.86D-04

 Cycle  11  Pass 1  IDiag  1:
 E= -622.418182264490     Delta-E=       -0.000000696223 Rises=F Damp=F
 DIIS: error= 7.99D-06 at cycle   3 NSaved=   3.
 NSaved= 3 IEnMin= 3 EnMin= -622.418182264490     IErMin= 3 ErrMin= 7.99D-06
 ErrMax= 7.99D-06  0.00D+00 EMaxC= 1.00D-01 BMatC= 1.63D-08 BMatP= 3.14D-07
 IDIUse=1 WtCom= 1.00D+00 WtEn= 0.00D+00
 Coeff-Com:  0.503D-01 0.123D+00 0.827D+00
 Coeff:      0.503D-01 0.123D+00 0.827D+00
 Gap=     0.160 Goal=   None    Shift=    0.000
 RMSDP=9.20D-07 MaxDP=3.82D-05 DE=-6.96D-07 OVMax= 5.98D-05

 Cycle  12  Pass 1  IDiag  1:
 E= -622.418182273309     Delta-E=       -0.000000008818 Rises=F Damp=F
 DIIS: error= 3.89D-06 at cycle   4 NSaved=   4.
 NSaved= 4 IEnMin= 4 EnMin= -622.418182273309     IErMin= 4 ErrMin= 3.89D-06
 ErrMax= 3.89D-06  0.00D+00 EMaxC= 1.00D-01 BMatC= 6.53D-09 BMatP= 1.63D-08
 IDIUse=1 WtCom= 1.00D+00 WtEn= 0.00D+00
 Coeff-Com: -0.110D-01 0.502D-01 0.519D+00 0.442D+00
 Coeff:     -0.110D-01 0.502D-01 0.519D+00 0.442D+00
 Gap=     0.160 Goal=   None    Shift=    0.000
 RMSDP=4.21D-07 MaxDP=1.77D-05 DE=-8.82D-09 OVMax= 2.86D-05

 Cycle  13  Pass 1  IDiag  1:
 E= -622.418182278290     Delta-E=       -0.000000004981 Rises=F Damp=F
 DIIS: error= 1.85D-06 at cycle   5 NSaved=   5.
 NSaved= 5 IEnMin= 5 EnMin= -622.418182278290     IErMin= 5 ErrMin= 1.85D-06
 ErrMax= 1.85D-06  0.00D+00 EMaxC= 1.00D-01 BMatC= 7.31D-10 BMatP= 6.53D-09
 IDIUse=1 WtCom= 1.00D+00 WtEn= 0.00D+00
 Coeff-Com: -0.113D-01 0.243D-01 0.295D+00 0.301D+00 0.390D+00
 Coeff:     -0.113D-01 0.243D-01 0.295D+00 0.301D+00 0.390D+00
 Gap=     0.160 Goal=   None    Shift=    0.000
 RMSDP=1.22D-07 MaxDP=6.95D-06 DE=-4.98D-09 OVMax= 1.34D-05

 Cycle  14  Pass 1  IDiag  1:
 E= -622.418182278834     Delta-E=       -0.000000000544 Rises=F Damp=F
 DIIS: error= 5.56D-07 at cycle   6 NSaved=   6.
 NSaved= 6 IEnMin= 6 EnMin= -622.418182278834     IErMin= 6 ErrMin= 5.56D-07
 ErrMax= 5.56D-07  0.00D+00 EMaxC= 1.00D-01 BMatC= 6.66D-11 BMatP= 7.31D-10
 IDIUse=1 WtCom= 1.00D+00 WtEn= 0.00D+00
 Coeff-Com: -0.542D-02 0.734D-02 0.112D+00 0.128D+00 0.252D+00 0.506D+00
 Coeff:     -0.542D-02 0.734D-02 0.112D+00 0.128D+00 0.252D+00 0.506D+00
 Gap=     0.160 Goal=   None    Shift=    0.000
 RMSDP=4.44D-08 MaxDP=1.66D-06 DE=-5.44D-10 OVMax= 3.85D-06

 Cycle  15  Pass 1  IDiag  1:
 E= -622.418182278884     Delta-E=       -0.000000000050 Rises=F Damp=F
 DIIS: error= 1.70D-07 at cycle   7 NSaved=   7.
 NSaved= 7 IEnMin= 7 EnMin= -622.418182278884     IErMin= 7 ErrMin= 1.70D-07
 ErrMax= 1.70D-07  0.00D+00 EMaxC= 1.00D-01 BMatC= 9.19D-12 BMatP= 6.66D-11
 IDIUse=1 WtCom= 1.00D+00 WtEn= 0.00D+00
 Coeff-Com: -0.117D-02-0.149D-03 0.165D-01 0.244D-01 0.756D-01 0.305D+00
 Coeff-Com:  0.579D+00
 Coeff:     -0.117D-02-0.149D-03 0.165D-01 0.244D-01 0.756D-01 0.305D+00
 Coeff:      0.579D+00
 Gap=     0.160 Goal=   None    Shift=    0.000
 RMSDP=1.77D-08 MaxDP=6.21D-07 DE=-4.98D-11 OVMax= 1.15D-06

 Cycle  16  Pass 1  IDiag  1:
 E= -622.418182278885     Delta-E=       -0.000000000001 Rises=F Damp=F
 DIIS: error= 4.64D-08 at cycle   8 NSaved=   8.
 NSaved= 8 IEnMin= 8 EnMin= -622.418182278885     IErMin= 8 ErrMin= 4.64D-08
 ErrMax= 4.64D-08  0.00D+00 EMaxC= 1.00D-01 BMatC= 1.14D-12 BMatP= 9.19D-12
 IDIUse=1 WtCom= 1.00D+00 WtEn= 0.00D+00
 Coeff-Com:  0.103D-03-0.144D-02-0.824D-02-0.590D-02 0.274D-02 0.104D+00
 Coeff-Com:  0.326D+00 0.583D+00
 Coeff:      0.103D-03-0.144D-02-0.824D-02-0.590D-02 0.274D-02 0.104D+00
 Coeff:      0.326D+00 0.583D+00
 Gap=     0.160 Goal=   None    Shift=    0.000
 RMSDP=6.92D-09 MaxDP=2.50D-07 DE=-1.14D-12 OVMax= 4.77D-07

 SCF Done:  E(RB3LYP) =  -622.418182279     A.U. after   16 cycles
            NFock= 16  Conv=0.69D-08     -V/T= 2.0049
 KE= 6.193762754226D+02 PE=-2.877387491031D+03 EE= 9.241649388822D+02
 Leave Link  502 at Fri Aug 20 15:50:53 2021, MaxMem= 24159191040 cpu:       101.3
 (Enter /public/home/users/caep010/software/Gaussian09/g09/l601.exe)
 Copying SCF densities to generalized density rwf, IOpCl= 0 IROHF=0.

 **********************************************************************

            Population analysis using the SCF density.

 **********************************************************************

 Orbital symmetries:
       Occupied  (A) (A) (A) (A) (A) (A) (A) (A) (A) (A) (A) (A)
                 (A) (A) (A) (A) (A) (A) (A) (A) (A) (A) (A) (A)
                 (A) (A) (A) (A) (A) (A) (A) (A) (A) (A) (A) (A)
                 (A) (A) (A) (A) (A) (A) (A) (A)
       Virtual   (A) (A) (A) (A) (A) (A) (A) (A) (A) (A) (A) (A)
                 (A) (A) (A) (A) (A) (A) (A) (A) (A) (A) (A) (A)
                 (A) (A) (A) (A) (A) (A) (A) (A) (A) (A) (A) (A)
                 (A) (A) (A) (A) (A) (A) (A) (A) (A) (A) (A) (A)
                 (A) (A) (A) (A) (A) (A) (A) (A) (A) (A) (A) (A)
                 (A) (A) (A) (A) (A) (A) (A) (A) (A) (A) (A) (A)
                 (A) (A) (A) (A) (A) (A) (A) (A) (A) (A) (A) (A)
                 (A) (A) (A) (A) (A) (A) (A) (A) (A) (A) (A) (A)
                 (A) (A) (A) (A) (A) (A) (A) (A) (A) (A) (A) (A)
                 (A) (A) (A) (A) (A) (A) (A) (A) (A) (A) (A) (A)
                 (A) (A) (A) (A) (A) (A) (A) (A) (A) (A) (A) (A)
                 (A) (A) (A) (A) (A) (A) (A) (A) (A) (A) (A) (A)
                 (A) (A) (A) (A) (A) (A) (A) (A) (A) (A) (A) (A)
                 (A) (A) (A) (A) (A) (A) (A) (A) (A) (A) (A) (A)
                 (A) (A) (A)
 The electronic state is 1-A.
 Alpha  occ. eigenvalues --  -19.24186 -19.13557 -19.12575 -14.55677 -14.49086
 Alpha  occ. eigenvalues --  -14.34464 -10.30163 -10.26812 -10.24494 -10.21452
 Alpha  occ. eigenvalues --  -10.19888 -10.16634  -1.21196  -1.18301  -1.01484
 Alpha  occ. eigenvalues --   -0.99058  -0.93239  -0.86950  -0.82539  -0.78349
 Alpha  occ. eigenvalues --   -0.72771  -0.67663  -0.63703  -0.59252  -0.56777
 Alpha  occ. eigenvalues --   -0.55496  -0.54031  -0.52183  -0.51470  -0.50879
 Alpha  occ. eigenvalues --   -0.49963  -0.47178  -0.45845  -0.43651  -0.41338
 Alpha  occ. eigenvalues --   -0.39999  -0.37384  -0.34312  -0.31758  -0.31102
 Alpha  occ. eigenvalues --   -0.27736  -0.26974  -0.23799  -0.23196
 Alpha virt. eigenvalues --   -0.07222  -0.04532   0.02543   0.04877   0.09559
 Alpha virt. eigenvalues --    0.11117   0.11862   0.13317   0.15247   0.16516
 Alpha virt. eigenvalues --    0.18110   0.19480   0.20887   0.22856   0.25106
 Alpha virt. eigenvalues --    0.28928   0.29447   0.31419   0.35145   0.37428
 Alpha virt. eigenvalues --    0.39825   0.42792   0.44718   0.46773   0.48205
 Alpha virt. eigenvalues --    0.49227   0.51907   0.54216   0.54827   0.56236
 Alpha virt. eigenvalues --    0.58596   0.59627   0.60547   0.61393   0.63785
 Alpha virt. eigenvalues --    0.65153   0.66770   0.68351   0.70685   0.72578
 Alpha virt. eigenvalues --    0.76113   0.76959   0.78198   0.80251   0.82318
 Alpha virt. eigenvalues --    0.83327   0.84084   0.85468   0.86440   0.89178
 Alpha virt. eigenvalues --    0.90227   0.91752   0.93697   0.96456   0.96898
 Alpha virt. eigenvalues --    0.98830   1.00571   1.01290   1.02712   1.03263
 Alpha virt. eigenvalues --    1.04670   1.05094   1.08447   1.10876   1.11191
 Alpha virt. eigenvalues --    1.12525   1.17696   1.19276   1.22605   1.24583
 Alpha virt. eigenvalues --    1.26053   1.27023   1.31024   1.33222   1.34362
 Alpha virt. eigenvalues --    1.36960   1.38847   1.40952   1.43106   1.46178
 Alpha virt. eigenvalues --    1.47554   1.49198   1.56192   1.63586   1.66415
 Alpha virt. eigenvalues --    1.67426   1.68401   1.70867   1.74741   1.76245
 Alpha virt. eigenvalues --    1.79756   1.82226   1.82740   1.85877   1.86805
 Alpha virt. eigenvalues --    1.87178   1.88245   1.90500   1.91545   1.94049
 Alpha virt. eigenvalues --    1.96181   2.01741   2.04152   2.04983   2.05557
 Alpha virt. eigenvalues --    2.06167   2.08166   2.11804   2.14866   2.16437
 Alpha virt. eigenvalues --    2.19018   2.23383   2.24330   2.26574   2.27140
 Alpha virt. eigenvalues --    2.29460   2.33235   2.36732   2.37461   2.41385
 Alpha virt. eigenvalues --    2.44258   2.47836   2.50531   2.51757   2.54014
 Alpha virt. eigenvalues --    2.55389   2.57093   2.59108   2.60596   2.66168
 Alpha virt. eigenvalues --    2.67014   2.69646   2.70646   2.72873   2.75978
 Alpha virt. eigenvalues --    2.76596   2.80512   2.84060   2.87224   2.87739
 Alpha virt. eigenvalues --    2.91009   2.91903   2.95421   2.97644   3.05967
 Alpha virt. eigenvalues --    3.12799   3.16653   3.17725   3.26548   3.32149
 Alpha virt. eigenvalues --    3.35330   3.47950   3.51544   3.62341   3.65025
 Alpha virt. eigenvalues --    3.70411   3.78444   3.87901   3.94981   4.00496
 Alpha virt. eigenvalues --    4.05879   4.07848   4.12009   4.14312   4.17292
 Alpha virt. eigenvalues --    4.24915   4.29729   4.35437   4.48171   4.52148
 Alpha virt. eigenvalues --    4.82835
          Condensed to atoms (all electrons):
               1          2          3          4          5          6
     1  O    7.995954   0.108689  -0.020016  -0.035567   0.003617  -0.009499
     2  N    0.108689   6.814941   0.263942   0.386740  -0.049262  -0.088013
     3  C   -0.020016   0.263942   4.620279  -0.051668   0.004260   0.327652
     4  C   -0.035567   0.386740  -0.051668   4.667054   0.381720   0.002971
     5  H    0.003617  -0.049262   0.004260   0.381720   0.562394  -0.000239
     6  N   -0.009499  -0.088013   0.327652   0.002971  -0.000239   7.290481
     7  N    0.000459   0.002390  -0.043176  -0.000012   0.000002   0.238835
     8  O   -0.000007   0.000110   0.003757  -0.000007  -0.000000  -0.121027
     9  H    0.298571  -0.050590  -0.003994   0.001108  -0.000109   0.025934
    10  O    0.000003  -0.000067   0.007055   0.000001  -0.000000  -0.117265
    11  C    0.003800  -0.038204   0.394547  -0.051555   0.001051  -0.064094
    12  C    0.000527  -0.045918  -0.008901  -0.017440   0.003121   0.004069
    13  H   -0.000088   0.007303  -0.051563   0.000056   0.000042  -0.011155
    14  C    0.003876  -0.015610  -0.033002   0.534740  -0.030536   0.000592
    15  H   -0.000103   0.005283   0.000324  -0.050467  -0.005518   0.000009
    16  C    0.000002   0.000046   0.006596   0.007799  -0.000243  -0.000108
    17  H   -0.000000   0.000032  -0.000391  -0.000217   0.000002   0.000004
    18  H   -0.000000  -0.000001   0.000241  -0.000191   0.000003  -0.000002
    19  H   -0.000000   0.000007  -0.000334  -0.000004  -0.000002   0.000002
               7          8          9         10         11         12
     1  O    0.000459  -0.000007   0.298571   0.000003   0.003800   0.000527
     2  N    0.002390   0.000110  -0.050590  -0.000067  -0.038204  -0.045918
     3  C   -0.043176   0.003757  -0.003994   0.007055   0.394547  -0.008901
     4  C   -0.000012  -0.000007   0.001108   0.000001  -0.051555  -0.017440
     5  H    0.000002  -0.000000  -0.000109  -0.000000   0.001051   0.003121
     6  N    0.238835  -0.121027   0.025934  -0.117265  -0.064094   0.004069
     7  N    5.541970   0.328454  -0.000422   0.335250  -0.010845   0.000584
     8  O    0.328454   8.328174   0.000051  -0.110222  -0.014903   0.001377
     9  H   -0.000422   0.000051   0.384279  -0.000082   0.001104  -0.000140
    10  O    0.335250  -0.110222  -0.000082   8.316229   0.000281   0.000008
    11  C   -0.010845  -0.014903   0.001104   0.000281   5.071990   0.463905
    12  C    0.000584   0.001377  -0.000140   0.000008   0.463905   4.763832
    13  H   -0.005943   0.043556   0.000035   0.000271   0.387028  -0.047814
    14  C   -0.000044  -0.000001  -0.000045  -0.000000  -0.013750   0.486393
    15  H    0.000000   0.000000   0.000012   0.000000   0.009376  -0.043368
    16  C   -0.000002  -0.000004   0.000000  -0.000000  -0.055617   0.394818
    17  H    0.000000  -0.000001   0.000000   0.000000  -0.003986  -0.021580
    18  H   -0.000000  -0.000016  -0.000000  -0.000000  -0.004886  -0.018207
    19  H    0.000000  -0.000000  -0.000000  -0.000000   0.004264  -0.019170
              13         14         15         16         17         18
     1  O   -0.000088   0.003876  -0.000103   0.000002  -0.000000  -0.000000
     2  N    0.007303  -0.015610   0.005283   0.000046   0.000032  -0.000001
     3  C   -0.051563  -0.033002   0.000324   0.006596  -0.000391   0.000241
     4  C    0.000056   0.534740  -0.050467   0.007799  -0.000217  -0.000191
     5  H    0.000042  -0.030536  -0.005518  -0.000243   0.000002   0.000003
     6  N   -0.011155   0.000592   0.000009  -0.000108   0.000004  -0.000002
     7  N   -0.005943  -0.000044   0.000000  -0.000002   0.000000  -0.000000
     8  O    0.043556  -0.000001   0.000000  -0.000004  -0.000001  -0.000016
     9  H    0.000035  -0.000045   0.000012   0.000000   0.000000  -0.000000
    10  O    0.000271  -0.000000   0.000000  -0.000000   0.000000  -0.000000
    11  C    0.387028  -0.013750   0.009376  -0.055617  -0.003986  -0.004886
    12  C   -0.047814   0.486393  -0.043368   0.394818  -0.021580  -0.018207
    13  H    0.597859   0.010058  -0.000277  -0.014448   0.000800   0.003461
    14  C    0.010058   4.885257   0.386410  -0.068430  -0.000483   0.003764
    15  H   -0.000277   0.386410   0.626885  -0.011142   0.001094  -0.000164
    16  C   -0.014448  -0.068430  -0.011142   4.865551   0.390803   0.388486
    17  H    0.000800  -0.000483   0.001094   0.390803   0.568053  -0.057069
    18  H    0.003461   0.003764  -0.000164   0.388486  -0.057069   0.587148
    19  H    0.000307  -0.005672   0.005002   0.401427  -0.023620  -0.032976
              19
     1  O   -0.000000
     2  N    0.000007
     3  C   -0.000334
     4  C   -0.000004
     5  H   -0.000002
     6  N    0.000002
     7  N    0.000000
     8  O   -0.000000
     9  H   -0.000000
    10  O   -0.000000
    11  C    0.004264
    12  C   -0.019170
    13  H    0.000307
    14  C   -0.005672
    15  H    0.005002
    16  C    0.401427
    17  H   -0.023620
    18  H   -0.032976
    19  H    0.554119
 Mulliken charges:
               1
     1  O   -0.350218
     2  N   -0.301819
     3  C    0.584394
     4  C    0.224939
     5  H    0.129696
     6  N   -0.479147
     7  N    0.612500
     8  O   -0.459289
     9  H    0.344288
    10  O   -0.431462
    11  C   -0.079505
    12  C    0.103903
    13  H    0.080512
    14  C   -0.143518
    15  H    0.076643
    16  C   -0.305537
    17  H    0.146559
    18  H    0.130410
    19  H    0.116651
 Sum of Mulliken charges =  -0.00000
 Mulliken charges with hydrogens summed into heavy atoms:
               1
     1  O   -0.005930
     2  N   -0.301819
     3  C    0.584394
     4  C    0.354635
     6  N   -0.479147
     7  N    0.612500
     8  O   -0.459289
    10  O   -0.431462
    11  C    0.001006
    12  C    0.103903
    14  C   -0.066875
    16  C    0.088083
 Electronic spatial extent (au):  <R**2>=           2109.6182
 Charge=             -0.0000 electrons
 Dipole moment (field-independent basis, Debye):
    X=             -9.0488    Y=              1.4654    Z=             -1.0556  Tot=              9.2273
 Quadrupole moment (field-independent basis, Debye-Ang):
   XX=            -76.8213   YY=            -63.2216   ZZ=            -65.8956
   XY=              4.6070   XZ=             -0.0254   YZ=             -3.5688
 Traceless Quadrupole moment (field-independent basis, Debye-Ang):
   XX=             -8.1751   YY=              5.4246   ZZ=              2.7506
   XY=              4.6070   XZ=             -0.0254   YZ=             -3.5688
 Octapole moment (field-independent basis, Debye-Ang**2):
  XXX=            -75.9078  YYY=              5.7377  ZZZ=             -0.1861  XYY=            -17.3086
  XXY=              9.3454  XXZ=              0.6558  XZZ=              9.9336  YZZ=              2.0886
  YYZ=             -7.8289  XYZ=             -1.1101
 Hexadecapole moment (field-independent basis, Debye-Ang**3):
 XXXX=          -1824.1781 YYYY=           -804.5135 ZZZZ=            -65.4934 XXXY=             17.2203
 XXXZ=             24.0244 YYYX=             28.8389 YYYZ=            -28.8635 ZZZX=             -2.6716
 ZZZY=             -3.3283 XXYY=           -398.5432 XXZZ=           -286.4238 YYZZ=           -144.8050
 XXYZ=             -0.3816 YYXZ=            -11.6910 ZZXY=             -0.7119
 N-N= 7.114280944474D+02 E-N=-2.877387483962D+03  KE= 6.193762754226D+02
 No NMR shielding tensors so no spin-rotation constants.
 Leave Link  601 at Fri Aug 20 15:50:53 2021, MaxMem= 24159191040 cpu:        11.2
 (Enter /public/home/users/caep010/software/Gaussian09/g09/l701.exe)
 Compute integral first derivatives.
 ... and contract with generalized density number  0.
 Leave Link  701 at Fri Aug 20 15:50:54 2021, MaxMem= 24159191040 cpu:        11.4
 (Enter /public/home/users/caep010/software/Gaussian09/g09/l702.exe)
 L702 exits ... SP integral derivatives will be done elsewhere.
 Leave Link  702 at Fri Aug 20 15:50:54 2021, MaxMem= 24159191040 cpu:         0.5
 (Enter /public/home/users/caep010/software/Gaussian09/g09/l703.exe)
 Compute integral first derivatives, UseDBF=F ICtDFT=           0.
 Integral derivatives from FoFJK, PRISM(SPDF).
 Calling FoFJK, ICntrl=      2127 FMM=F ISym2X=0 I1Cent= 0 IOpClX= 0 NMat=1 NMatS=1 NMatT=0.
 FoFJK:  IHMeth= 1 ICntrl=    2127 DoSepK=F KAlg= 0 I1Cent=   0 FoldK=F
 IRaf=         0 NMat=   1 IRICut=       1 DoRegI=T DoRafI=F ISym2E= 0.
 FoFCou: FMM=F IPFlag=           0 FMFlag=      100000 FMFlg1=         800
         NFxFlg=           0 DoJE=F BraDBF=F KetDBF=F FulRan=T
         wScrn=  0.000000 ICntrl=    2127 IOpCl=  0 I1Cent=           0 NGrid=           0
         NMat0=    1 NMatS0=      1 NMatT0=    0 NMatD0=    1 NMtDS0=    0 NMtDT0=    0
 Symmetry not used in FoFCou.
 Leave Link  703 at Fri Aug 20 15:50:55 2021, MaxMem= 24159191040 cpu:        23.7
 (Enter /public/home/users/caep010/software/Gaussian09/g09/l716.exe)
 Dipole        =-3.56006987D+00 5.76545277D-01-4.15302493D-01
 ***** Axes restored to original set *****
 -------------------------------------------------------------------
 Center     Atomic                   Forces (Hartrees/Bohr)
 Number     Number              X              Y              Z
 -------------------------------------------------------------------
      1        8           0.040653196    0.039629184   -0.008443036
      2        7           0.023976950    0.014749413    0.000023919
      3        6          -0.042152779   -0.007394372   -0.028832668
      4        6           0.003841151   -0.076786408   -0.084148253
      5        1          -0.021325530    0.099798367    0.101203053
      6        7           0.021613890    0.022114028    0.037808917
      7        7          -0.030755159   -0.000074637   -0.007718321
      8        8           0.042704871   -0.021451165   -0.019189994
      9        1          -0.071398586   -0.045520174    0.015951608
     10        8          -0.013768535    0.002671026    0.003702037
     11        6           0.006285915    0.132864177    0.157567887
     12        6          -0.017981709   -0.021913800   -0.019265041
     13        1           0.006047651   -0.144033596   -0.164638451
     14        6          -0.077078527   -0.029397842   -0.069500120
     15        1           0.109841858    0.028901856    0.081964999
     16        6          -0.220094495   -0.027437678   -0.018194395
     17        1           0.136519257    0.167377136   -0.151575546
     18        1          -0.027951590   -0.077655889   -0.032739608
     19        1           0.131022171   -0.056439626    0.206023013
 -------------------------------------------------------------------
 Cartesian Forces:  Max     0.220094495 RMS     0.080213298
 Leave Link  716 at Fri Aug 20 15:50:55 2021, MaxMem= 24159191040 cpu:         0.7
 (Enter /public/home/users/caep010/software/Gaussian09/g09/l103.exe)

 GradGradGradGradGradGradGradGradGradGradGradGradGradGradGradGradGradGrad
 Berny optimization.
 FormGI is forming the generalized inverse of G from B-inverse, IUseBI=4.
 Internal  Forces:  Max     0.260124322 RMS     0.053848163
 Search for a local minimum.
 Step number   1 out of a maximum of   95
 All quantities printed in internal units (Hartrees-Bohrs-Radians)
 RMS Force = .53848D-01 SwitMx=.10000D-02 MixMth= 1
 Mixed Optimization -- RFO/linear search
 Second derivative matrix not updated -- first step.
 ITU=  0
     Eigenvalues ---    0.00914   0.01589   0.01733   0.02110   0.02122
     Eigenvalues ---    0.02137   0.02169   0.02233   0.02247   0.02308
     Eigenvalues ---    0.02532   0.02573   0.02713   0.03275   0.06320
     Eigenvalues ---    0.07635   0.15993   0.15996   0.15999   0.16000
     Eigenvalues ---    0.16000   0.16000   0.16000   0.22363   0.23474
     Eigenvalues ---    0.24588   0.24994   0.24994   0.24997   0.24999
     Eigenvalues ---    0.25000   0.25000   0.33577   0.43131   0.44623
     Eigenvalues ---    0.46641   0.48068   0.49515   0.51506   0.51685
     Eigenvalues ---    0.54317   0.56387   0.57565   0.57886   0.58528
     Eigenvalues ---    0.67444   0.70744   0.74831   0.75142   0.91145
     Eigenvalues ---    0.99234
 RFO step:  Lambda=-2.67334969D-01 EMin= 9.13568826D-03
 Linear search not attempted -- first point.
 Maximum step size (   0.300) exceeded in Quadratic search.
    -- Step size scaled by   0.548
 Iteration  1 RMS(Cart)=  0.04088805 RMS(Int)=  0.00078784
 Iteration  2 RMS(Cart)=  0.00075033 RMS(Int)=  0.00006260
 Iteration  3 RMS(Cart)=  0.00000120 RMS(Int)=  0.00006259
 Iteration  4 RMS(Cart)=  0.00000000 RMS(Int)=  0.00006259
 ITry= 1 IFail=0 DXMaxC= 1.59D-01 DCOld= 1.00D+10 DXMaxT= 3.00D-01 DXLimC= 3.00D+00 Rises=F
 Variable       Old X    -DE/DX   Delta X   Delta X   Delta X     New X
                                 (Linear)    (Quad)   (Total)
    R1        2.60358   0.02379   0.00000   0.01710   0.01710   2.62068
    R2        1.72194   0.07860   0.00000   0.04575   0.04575   1.76769
    R3        2.57141   0.02186   0.00000   0.01499   0.01499   2.58640
    R4        2.54220   0.01233   0.00000   0.00837   0.00838   2.55057
    R5        2.58202  -0.02419   0.00000  -0.01691  -0.01691   2.56511
    R6        2.64847   0.02362   0.00000   0.01761   0.01761   2.66607
    R7        1.78825   0.14371   0.00000   0.09240   0.09240   1.88064
    R8        2.52979   0.03143   0.00000   0.02075   0.02075   2.55054
    R9        2.52921   0.02986   0.00000   0.01941   0.01941   2.54863
   R10        2.28947   0.05123   0.00000   0.02230   0.02230   2.31177
   R11        2.32410   0.01150   0.00000   0.00535   0.00535   2.32944
   R12        2.60096   0.01019   0.00000   0.00707   0.00707   2.60803
   R13        1.70030   0.21880   0.00000   0.12305   0.12305   1.82334
   R14        2.63270   0.02619   0.00000   0.01964   0.01964   2.65234
   R15        2.81350   0.01360   0.00000   0.01236   0.01236   2.82586
   R16        1.79353   0.13968   0.00000   0.09048   0.09048   1.88401
   R17        1.67347   0.26012   0.00000   0.13997   0.13997   1.81343
   R18        1.90116   0.08073   0.00000   0.06031   0.06031   1.96147
   R19        1.67529   0.24979   0.00000   0.13482   0.13482   1.81011
    A1        1.62057   0.05903   0.00000   0.07572   0.07572   1.69629
    A2        2.08954  -0.00407   0.00000  -0.00445  -0.00445   2.08509
    A3        2.03165  -0.00053   0.00000  -0.00070  -0.00070   2.03095
    A4        2.16184   0.00459   0.00000   0.00513   0.00513   2.16697
    A5        1.96372  -0.00749   0.00000  -0.00767  -0.00767   1.95605
    A6        2.01270  -0.00064   0.00000  -0.00124  -0.00125   2.01145
    A7        2.30661   0.00810   0.00000   0.00885   0.00885   2.31546
    A8        2.00170   0.00182   0.00000   0.00154   0.00154   2.00324
    A9        2.10819  -0.00410   0.00000  -0.00368  -0.00367   2.10451
   A10        2.17295   0.00227   0.00000   0.00211   0.00211   2.17506
   A11        2.06943   0.00488   0.00000   0.00517   0.00517   2.07460
   A12        2.14295  -0.00101   0.00000  -0.00106  -0.00106   2.14189
   A13        2.01673  -0.00962   0.00000  -0.01018  -0.01019   2.00654
   A14        2.12295   0.01068   0.00000   0.01133   0.01133   2.13428
   A15        2.12335  -0.00051   0.00000  -0.00135  -0.00136   2.12199
   A16        2.02776   0.00319   0.00000   0.00445   0.00445   2.03221
   A17        2.13201  -0.00269   0.00000  -0.00310  -0.00310   2.12892
   A18        2.07818   0.00326   0.00000   0.00334   0.00334   2.08152
   A19        2.09965   0.00478   0.00000   0.00512   0.00512   2.10477
   A20        2.10532  -0.00804   0.00000  -0.00846  -0.00846   2.09686
   A21        2.08000  -0.00255   0.00000  -0.00210  -0.00209   2.07790
   A22        2.15460  -0.00777   0.00000  -0.01055  -0.01055   2.14404
   A23        2.04832   0.01033   0.00000   0.01268   0.01267   2.06099
   A24        1.86081   0.00397   0.00000   0.00624   0.00644   1.86725
   A25        2.06985  -0.03270   0.00000  -0.04077  -0.04069   2.02916
   A26        1.91980   0.01016   0.00000   0.01037   0.01032   1.93012
   A27        1.55034   0.03088   0.00000   0.04578   0.04616   1.59650
   A28        2.14116  -0.02155   0.00000  -0.03072  -0.03070   2.11046
   A29        1.90965   0.00618   0.00000   0.00668   0.00659   1.91625
    D1        1.06284  -0.00689   0.00000  -0.01332  -0.01333   1.04951
    D2       -2.09646  -0.00757   0.00000  -0.01466  -0.01466  -2.11112
    D3       -0.10170  -0.00218   0.00000  -0.00417  -0.00415  -0.10585
    D4        3.05630  -0.00040   0.00000  -0.00070  -0.00070   3.05559
    D5        3.05899  -0.00138   0.00000  -0.00266  -0.00263   3.05636
    D6       -0.06620   0.00040   0.00000   0.00082   0.00081  -0.06538
    D7        0.01824   0.00090   0.00000   0.00170   0.00171   0.01995
    D8       -3.09638   0.00126   0.00000   0.00236   0.00237  -3.09402
    D9        3.14132   0.00009   0.00000   0.00019   0.00020   3.14151
   D10        0.02669   0.00044   0.00000   0.00085   0.00085   0.02754
   D11       -3.12281   0.00023   0.00000   0.00043   0.00043  -3.12237
   D12       -0.00122  -0.00209   0.00000  -0.00398  -0.00398  -0.00520
   D13        0.05678  -0.00102   0.00000  -0.00193  -0.00193   0.05485
   D14       -3.09634  -0.00112   0.00000  -0.00209  -0.00210  -3.09844
   D15       -3.06437   0.00141   0.00000   0.00263   0.00265  -3.06172
   D16        0.06570   0.00131   0.00000   0.00247   0.00248   0.06818
   D17        0.02539  -0.00089   0.00000  -0.00164  -0.00164   0.02376
   D18       -3.09042  -0.00169   0.00000  -0.00308  -0.00307  -3.09349
   D19       -3.08647  -0.00048   0.00000  -0.00089  -0.00089  -3.08736
   D20        0.08090  -0.00127   0.00000  -0.00233  -0.00232   0.07858
   D21       -0.16489   0.00039   0.00000   0.00058   0.00057  -0.16433
   D22        3.01188  -0.00137   0.00000  -0.00244  -0.00243   3.00946
   D23       -3.10431  -0.00145   0.00000  -0.00276  -0.00277  -3.10707
   D24       -0.01001   0.00059   0.00000   0.00110   0.00111  -0.00890
   D25        3.13911   0.00118   0.00000   0.00222   0.00223   3.14134
   D26       -3.13938   0.00065   0.00000   0.00123   0.00123  -3.13815
   D27        0.00973   0.00125   0.00000   0.00235   0.00236   0.01209
   D28       -0.03248   0.00036   0.00000   0.00067   0.00067  -0.03181
   D29        3.08489   0.00086   0.00000   0.00170   0.00170   3.08660
   D30        3.10156  -0.00018   0.00000  -0.00039  -0.00039   3.10117
   D31       -0.06424   0.00032   0.00000   0.00063   0.00064  -0.06360
   D32        1.50698   0.01422   0.00000   0.02244   0.02229   1.52927
   D33       -0.20262  -0.01283   0.00000  -0.02079  -0.02059  -0.22321
   D34       -2.41845  -0.00308   0.00000  -0.00497  -0.00501  -2.42346
   D35       -1.62698   0.01478   0.00000   0.02353   0.02337  -1.60361
   D36        2.94661  -0.01228   0.00000  -0.01970  -0.01951   2.92710
   D37        0.73079  -0.00252   0.00000  -0.00389  -0.00393   0.72686
         Item               Value     Threshold  Converged?
 Maximum Force            0.260124     0.000450     NO 
 RMS     Force            0.053848     0.000300     NO 
 Maximum Displacement     0.158813     0.001800     NO 
 RMS     Displacement     0.041011     0.001200     NO 
 Predicted change in Energy=-1.187287D-01
 Lowest energy point so far.  Saving SCF results.
 GradGradGradGradGradGradGradGradGradGradGradGradGradGradGradGradGradGrad

 Leave Link  103 at Fri Aug 20 15:50:55 2021, MaxMem= 24159191040 cpu:         3.8
 (Enter /public/home/users/caep010/software/Gaussian09/g09/l202.exe)
                          Input orientation:                          
 ---------------------------------------------------------------------
 Center     Atomic      Atomic             Coordinates (Angstroms)
 Number     Number       Type             X           Y           Z
 ---------------------------------------------------------------------
      1          8           0        4.217630    2.746975    8.554957
      2          7           0        5.365336    2.017466    8.283279
      3          6           0        5.351129    1.090023    7.276853
      4          6           0        6.447886    2.299996    9.038239
      5          1           0        6.302012    2.998945    9.731491
      6          7           0        4.110701    0.928010    6.749957
      7          7           0        3.935802    0.027606    5.761218
      8          8           0        4.869946   -0.530053    5.201809
      9          1           0        3.664260    2.021804    8.762138
     10          8           0        2.762739   -0.167215    5.436428
     11          6           0        6.592795    0.477734    7.005206
     12          6           0        7.716172    0.757039    7.756684
     13          1           0        6.610488   -0.151966    6.274356
     14          6           0        7.624892    1.680118    8.810047
     15          1           0        8.434378    1.833098    9.371556
     16          6           0        9.021311    0.094915    7.449495
     17          1           0        9.462158    0.636234    6.791077
     18          1           0        8.984475   -0.713291    6.799251
     19          1           0        9.468590   -0.159039    8.257558
 ---------------------------------------------------------------------
                    Distance matrix (angstroms):
                    1          2          3          4          5
     1  O    0.000000
     2  N    1.386802   0.000000
     3  C    2.379886   1.368665   0.000000
     4  C    2.325381   1.349705   2.401955   0.000000
     5  H    2.406735   1.984435   3.251678   0.995193   0.000000
     6  N    2.564778   2.260995   1.357398   3.546972   4.240302
     7  N    3.908883   3.516233   2.330028   4.713086   5.494622
     8  O    4.733713   4.028737   2.676191   5.021680   5.917995
     9  H    0.935423   1.767197   2.433067   2.811085   2.975263
    10  O    4.509372   4.432934   3.415784   5.713185   6.403015
    11  C    3.632161   2.347531   1.410824   2.734018   3.724740
    12  C    4.103277   2.718899   2.436092   2.373109   3.305428
    13  H    4.396677   3.208210   2.033107   3.698324   4.687769
    14  C    3.579482   2.344544   2.805155   1.349690   2.082877
    15  H    4.391238   3.261497   3.800837   2.067666   2.456774
    16  C    5.597394   4.213971   3.806610   3.742860   4.586446
    17  H    5.922126   4.573666   4.164428   4.111407   4.920870
    18  H    6.146443   4.770487   4.084268   4.530700   5.438229
    19  H    6.008822   4.644839   4.413096   3.972526   4.708774
                    6          7          8          9         10
     6  N    0.000000
     7  N    1.348674   0.000000
     8  O    2.258134   1.223335   0.000000
     9  H    2.333359   3.613320   4.543303   0.000000
    10  O    2.177586   1.232689   2.151051   4.082266   0.000000
    11  C    2.535487   2.968120   2.689998   3.747970   4.188837
    12  C    3.747286   4.336491   4.035468   4.362174   5.547462
    13  H    2.764323   2.729377   2.079133   4.426578   3.937959
    14  C    4.142364   5.063155   5.049156   3.975633   6.199555
    15  H    5.136745   6.044132   5.972977   4.812591   7.187070
    16  C    5.029661   5.358844   4.761986   5.842425   6.579580
    17  H    5.359563   5.654347   4.997440   6.278575   6.882065
    18  H    5.142954   5.207258   4.417550   6.295900   6.392612
    19  H    5.671112   6.072750   5.533786   6.221006   7.275114
                   11         12         13         14         15
    11  C    0.000000
    12  C    1.380111   0.000000
    13  H    0.964872   2.060613   0.000000
    14  C    2.401750   1.403560   3.288659   0.000000
    15  H    3.290600   2.069187   4.106057   0.996977   0.000000
    16  C    2.498326   1.495380   2.693320   2.512759   2.657083
    17  H    2.881703   1.998863   3.003378   2.922580   3.024514
    18  H    2.679755   2.164980   2.495279   3.408837   3.661073
    19  H    3.200634   2.039863   3.478777   2.662135   2.505832
                   16         17         18         19
    16  C    0.000000
    17  H    0.959628   0.000000
    18  H    1.037965   1.431595   0.000000
    19  H    0.957871   1.668253   1.633470   0.000000
 Stoichiometry    C6H7N3O3
 Framework group  C1[X(C6H7N3O3)]
 Deg. of freedom    51
 Full point group                 C1      NOp   1
 RotChk:  IX=0 Diff= 1.20D-02
 Largest Abelian subgroup         C1      NOp   1
 Largest concise Abelian subgroup C1      NOp   1
                         Standard orientation:                         
 ---------------------------------------------------------------------
 Center     Atomic      Atomic             Coordinates (Angstroms)
 Number     Number       Type             X           Y           Z
 ---------------------------------------------------------------------
      1          8           0        0.181928    2.643596    0.149661
      2          7           0       -0.491564    1.436053    0.042559
      3          6           0        0.219412    0.266546    0.039722
      4          6           0       -1.837523    1.504871   -0.030677
      5          1           0       -2.209274    2.427932   -0.017706
      6          7           0        1.559058    0.484042    0.015762
      7          7           0        2.390598   -0.577400   -0.012613
      8          8           0        2.002502   -1.726021    0.150484
      9          1           0        0.700695    2.557339   -0.623938
     10          8           0        3.580366   -0.301947   -0.180236
     11          6           0       -0.558363   -0.910519    0.036376
     12          6           0       -1.936238   -0.866183   -0.028420
     13          1           0       -0.075049   -1.744871    0.071619
     14          6           0       -2.580839    0.379464   -0.081678
     15          1           0       -3.573244    0.390741   -0.176370
     16          6           0       -2.739036   -2.127796   -0.030913
     17          1           0       -2.899687   -2.359659    0.886321
     18          1           0       -2.211423   -3.007604   -0.188818
     19          1           0       -3.461512   -2.066065   -0.656800
 ---------------------------------------------------------------------
 Rotational constants (GHZ):      1.4958898      0.7288175      0.4930154
 Leave Link  202 at Fri Aug 20 15:50:55 2021, MaxMem= 24159191040 cpu:         0.3
 (Enter /public/home/users/caep010/software/Gaussian09/g09/l301.exe)
 Standard basis: 6-31G(d,p) (6D, 7F)
 Ernie: Thresh=  0.10000D-02 Tol=  0.10000D-05 Strict=F.
 There are   215 symmetry adapted cartesian basis functions of A   symmetry.
 There are   215 symmetry adapted basis functions of A   symmetry.
   215 basis functions,   385 primitive gaussians,   215 cartesian basis functions
    44 alpha electrons       44 beta electrons
       nuclear repulsion energy       706.0957273169 Hartrees.
 IExCor=  402 DFT=T Ex+Corr=B3LYP ExCW=0 ScaHFX=  0.200000
 ScaDFX=  0.800000  0.720000  1.000000  0.810000 ScalE2=  1.000000  1.000000
 IRadAn=      0 IRanWt=     -1 IRanGd=            0 ICorTp=0 IEmpDi=  4
 NAtoms=   19 NActive=   19 NUniq=   19 SFac= 1.00D+00 NAtFMM=   60 NAOKFM=F Big=F
 Integral buffers will be    131072 words long.
 Raffenetti 2 integral format.
 Two-electron integral symmetry is turned on.
 Leave Link  301 at Fri Aug 20 15:50:55 2021, MaxMem= 24159191040 cpu:         1.7
 (Enter /public/home/users/caep010/software/Gaussian09/g09/l302.exe)
 NPDir=0 NMtPBC=     1 NCelOv=     1 NCel=       1 NClECP=     1 NCelD=      1
         NCelK=      1 NCelE2=     1 NClLst=     1 CellRange=     0.0.
 One-electron integrals computed using PRISM.
 NBasis=   215 RedAO= T EigKep=  5.21D-04  NBF=   215
 NBsUse=   215 1.00D-06 EigRej= -1.00D+00 NBFU=   215
 Precomputing XC quadrature grid using
 IXCGrd= 4 IRadAn=           0 IRanWt=          -1 IRanGd=           0 AccXCQ= 0.00D+00.
 Generated NRdTot=       0 NPtTot=           0 NUsed=           0 NTot=          32
 NSgBfM=   214   214   214   214   214 MxSgAt=    19 MxSgA2=    19.
 Leave Link  302 at Fri Aug 20 15:50:56 2021, MaxMem= 24159191040 cpu:        17.0
 (Enter /public/home/users/caep010/software/Gaussian09/g09/l303.exe)
 DipDrv:  MaxL=1.
 Leave Link  303 at Fri Aug 20 15:50:56 2021, MaxMem= 24159191040 cpu:         0.8
 (Enter /public/home/users/caep010/software/Gaussian09/g09/l401.exe)
 Initial guess from the checkpoint file:  "/public/home/users/caep010/.cache/gau_scr/Gau-83075.chk"
 B after Tr=    -0.000000   -0.000000    0.000000
         Rot=    0.999995   -0.000588   -0.000023    0.003080 Ang=  -0.36 deg.
 Guess basis will be translated and rotated to current coordinates.
 JPrj=2 DoOrth=T DoCkMO=T.
 Generating alternative initial guess.
 ExpMin= 1.61D-01 ExpMax= 5.48D+03 ExpMxC= 8.25D+02 IAcc=1 IRadAn=         1 AccDes= 0.00D+00
 Harris functional with IExCor=  402 and IRadAn=       1 diagonalized for initial guess.
 HarFok:  IExCor=  402 AccDes= 0.00D+00 IRadAn=         1 IDoV= 1 UseB2=F ITyADJ=14
 ICtDFT=  3500011 ScaDFX=  1.000000  1.000000  1.000000  1.000000
 FoFCou: FMM=F IPFlag=           0 FMFlag=      100000 FMFlg1=           0
         NFxFlg=           0 DoJE=T BraDBF=F KetDBF=T FulRan=T
         wScrn=  0.000000 ICntrl=     500 IOpCl=  0 I1Cent=   200000004 NGrid=           0
         NMat0=    1 NMatS0=      1 NMatT0=    0 NMatD0=    1 NMtDS0=    0 NMtDT0=    0
 Petite list used in FoFCou.
 Harris En= -622.631009678461    
 Leave Link  401 at Fri Aug 20 15:50:56 2021, MaxMem= 24159191040 cpu:        18.5
 (Enter /public/home/users/caep010/software/Gaussian09/g09/l502.exe)
 Closed shell SCF:
 Using DIIS extrapolation, IDIIS=  1040.
 Integral symmetry usage will be decided dynamically.
 Keep R1 ints in memory in canonical form, NReq=274800267.
 IVT=      165717 IEndB=      165717 NGot= 24159191040 MDV= 23889429514
 LenX= 23889429514 LenY= 23889382848
 Requested convergence on RMS density matrix=1.00D-08 within 128 cycles.
 Requested convergence on MAX density matrix=1.00D-06.
 Requested convergence on             energy=1.00D-06.
 No special actions if energy rises.
 FoFCou: FMM=F IPFlag=           0 FMFlag=           0 FMFlg1=           0
         NFxFlg=           0 DoJE=F BraDBF=F KetDBF=F FulRan=T
         wScrn=  0.000000 ICntrl=     600 IOpCl=  0 I1Cent=           0 NGrid=           0
         NMat0=    1 NMatS0=  23220 NMatT0=    0 NMatD0=    1 NMtDS0=    0 NMtDT0=    0
 Symmetry not used in FoFCou.
 Integral accuracy reduced to 1.0D-05 until final iterations.

 Cycle   1  Pass 0  IDiag  1:
 E= -622.523970289422    
 DIIS: error= 3.24D-03 at cycle   1 NSaved=   1.
 NSaved= 1 IEnMin= 1 EnMin= -622.523970289422     IErMin= 1 ErrMin= 3.24D-03
 ErrMax= 3.24D-03  0.00D+00 EMaxC= 1.00D-01 BMatC= 4.65D-03 BMatP= 4.65D-03
 IDIUse=3 WtCom= 9.68D-01 WtEn= 3.24D-02
 Coeff-Com:  0.100D+01
 Coeff-En:   0.100D+01
 Coeff:      0.100D+01
 Gap=     1.736 Goal=   None    Shift=    0.000
 GapD=    1.736 DampG=2.000 DampE=1.000 DampFc=2.0000 IDamp=-1.
 RMSDP=5.98D-04 MaxDP=1.95D-02              OVMax= 2.13D-02

 Cycle   2  Pass 0  IDiag  1:
 E= -622.528487125463     Delta-E=       -0.004516836042 Rises=F Damp=F
 DIIS: error= 1.97D-03 at cycle   2 NSaved=   2.
 NSaved= 2 IEnMin= 2 EnMin= -622.528487125463     IErMin= 2 ErrMin= 1.97D-03
 ErrMax= 1.97D-03  0.00D+00 EMaxC= 1.00D-01 BMatC= 9.73D-04 BMatP= 4.65D-03
 IDIUse=3 WtCom= 9.80D-01 WtEn= 1.97D-02
 Coeff-Com:  0.253D+00 0.747D+00
 Coeff-En:   0.000D+00 0.100D+01
 Coeff:      0.248D+00 0.752D+00
 Gap=     0.161 Goal=   None    Shift=    0.000
 RMSDP=2.09D-04 MaxDP=1.01D-02 DE=-4.52D-03 OVMax= 1.09D-02

 Cycle   3  Pass 0  IDiag  1:
 E= -622.529115894205     Delta-E=       -0.000628768742 Rises=F Damp=F
 DIIS: error= 1.06D-03 at cycle   3 NSaved=   3.
 NSaved= 3 IEnMin= 3 EnMin= -622.529115894205     IErMin= 3 ErrMin= 1.06D-03
 ErrMax= 1.06D-03  0.00D+00 EMaxC= 1.00D-01 BMatC= 3.61D-04 BMatP= 9.73D-04
 IDIUse=3 WtCom= 9.89D-01 WtEn= 1.06D-02
 Coeff-Com:  0.219D-01 0.376D+00 0.602D+00
 Coeff-En:   0.000D+00 0.242D+00 0.758D+00
 Coeff:      0.217D-01 0.375D+00 0.604D+00
 Gap=     0.163 Goal=   None    Shift=    0.000
 RMSDP=1.04D-04 MaxDP=3.53D-03 DE=-6.29D-04 OVMax= 6.21D-03

 Cycle   4  Pass 0  IDiag  1:
 E= -622.529411410690     Delta-E=       -0.000295516485 Rises=F Damp=F
 DIIS: error= 5.75D-04 at cycle   4 NSaved=   4.
 NSaved= 4 IEnMin= 4 EnMin= -622.529411410690     IErMin= 4 ErrMin= 5.75D-04
 ErrMax= 5.75D-04  0.00D+00 EMaxC= 1.00D-01 BMatC= 5.13D-05 BMatP= 3.61D-04
 IDIUse=3 WtCom= 9.94D-01 WtEn= 5.75D-03
 Coeff-Com:  0.372D-02 0.201D+00 0.370D+00 0.425D+00
 Coeff-En:   0.000D+00 0.000D+00 0.000D+00 0.100D+01
 Coeff:      0.369D-02 0.200D+00 0.368D+00 0.428D+00
 Gap=     0.162 Goal=   None    Shift=    0.000
 RMSDP=4.21D-05 MaxDP=1.62D-03 DE=-2.96D-04 OVMax= 3.43D-03

 Cycle   5  Pass 0  IDiag  1:
 E= -622.529448547174     Delta-E=       -0.000037136484 Rises=F Damp=F
 DIIS: error= 3.41D-04 at cycle   5 NSaved=   5.
 NSaved= 5 IEnMin= 5 EnMin= -622.529448547174     IErMin= 5 ErrMin= 3.41D-04
 ErrMax= 3.41D-04  0.00D+00 EMaxC= 1.00D-01 BMatC= 9.78D-06 BMatP= 5.13D-05
 IDIUse=3 WtCom= 9.97D-01 WtEn= 3.41D-03
 Coeff-Com: -0.230D-02 0.670D-01 0.140D+00 0.304D+00 0.492D+00
 Coeff-En:   0.000D+00 0.000D+00 0.000D+00 0.180D+00 0.820D+00
 Coeff:     -0.229D-02 0.668D-01 0.140D+00 0.303D+00 0.493D+00
 Gap=     0.162 Goal=   None    Shift=    0.000
 RMSDP=1.50D-05 MaxDP=9.05D-04 DE=-3.71D-05 OVMax= 1.80D-03

 Cycle   6  Pass 0  IDiag  1:
 E= -622.529455187178     Delta-E=       -0.000006640005 Rises=F Damp=F
 DIIS: error= 1.23D-04 at cycle   6 NSaved=   6.
 NSaved= 6 IEnMin= 6 EnMin= -622.529455187178     IErMin= 6 ErrMin= 1.23D-04
 ErrMax= 1.23D-04  0.00D+00 EMaxC= 1.00D-01 BMatC= 1.67D-06 BMatP= 9.78D-06
 IDIUse=3 WtCom= 9.99D-01 WtEn= 1.23D-03
 Coeff-Com: -0.209D-02 0.207D-01 0.490D-01 0.157D+00 0.349D+00 0.426D+00
 Coeff-En:   0.000D+00 0.000D+00 0.000D+00 0.000D+00 0.142D+00 0.858D+00
 Coeff:     -0.209D-02 0.206D-01 0.490D-01 0.157D+00 0.349D+00 0.427D+00
 Gap=     0.162 Goal=   None    Shift=    0.000
 RMSDP=6.00D-06 MaxDP=2.53D-04 DE=-6.64D-06 OVMax= 5.34D-04

 Initial convergence to 1.0D-05 achieved.  Increase integral accuracy.
 Cycle   7  Pass 1  IDiag  1:
 E= -622.529429878397     Delta-E=        0.000025308781 Rises=F Damp=F
 DIIS: error= 2.05D-05 at cycle   1 NSaved=   1.
 NSaved= 1 IEnMin= 1 EnMin= -622.529429878397     IErMin= 1 ErrMin= 2.05D-05
 ErrMax= 2.05D-05  0.00D+00 EMaxC= 1.00D-01 BMatC= 1.65D-07 BMatP= 1.65D-07
 IDIUse=1 WtCom= 1.00D+00 WtEn= 0.00D+00
 Coeff-Com:  0.100D+01
 Coeff:      0.100D+01
 Gap=     0.162 Goal=   None    Shift=    0.000
 RMSDP=6.00D-06 MaxDP=2.53D-04 DE= 2.53D-05 OVMax= 2.52D-04

 Cycle   8  Pass 1  IDiag  1:
 E= -622.529429651048     Delta-E=        0.000000227350 Rises=F Damp=F
 DIIS: error= 4.71D-05 at cycle   2 NSaved=   2.
 NSaved= 2 IEnMin= 1 EnMin= -622.529429878397     IErMin= 1 ErrMin= 2.05D-05
 ErrMax= 4.71D-05  0.00D+00 EMaxC= 1.00D-01 BMatC= 4.53D-07 BMatP= 1.65D-07
 IDIUse=1 WtCom= 1.00D+00 WtEn= 0.00D+00
 Coeff-Com:  0.643D+00 0.357D+00
 Coeff:      0.643D+00 0.357D+00
 Gap=     0.162 Goal=   None    Shift=    0.000
 RMSDP=3.52D-06 MaxDP=1.72D-04 DE= 2.27D-07 OVMax= 2.60D-04

 Cycle   9  Pass 1  IDiag  1:
 E= -622.529430023771     Delta-E=       -0.000000372724 Rises=F Damp=F
 DIIS: error= 1.81D-05 at cycle   3 NSaved=   3.
 NSaved= 3 IEnMin= 3 EnMin= -622.529430023771     IErMin= 3 ErrMin= 1.81D-05
 ErrMax= 1.81D-05  0.00D+00 EMaxC= 1.00D-01 BMatC= 3.15D-08 BMatP= 1.65D-07
 IDIUse=1 WtCom= 1.00D+00 WtEn= 0.00D+00
 Coeff-Com:  0.109D+00 0.209D+00 0.682D+00
 Coeff:      0.109D+00 0.209D+00 0.682D+00
 Gap=     0.162 Goal=   None    Shift=    0.000
 RMSDP=1.09D-06 MaxDP=5.41D-05 DE=-3.73D-07 OVMax= 1.18D-04

 Cycle  10  Pass 1  IDiag  1:
 E= -622.529430036214     Delta-E=       -0.000000012442 Rises=F Damp=F
 DIIS: error= 1.23D-05 at cycle   4 NSaved=   4.
 NSaved= 4 IEnMin= 4 EnMin= -622.529430036214     IErMin= 4 ErrMin= 1.23D-05
 ErrMax= 1.23D-05  0.00D+00 EMaxC= 1.00D-01 BMatC= 1.61D-08 BMatP= 3.15D-08
 IDIUse=1 WtCom= 1.00D+00 WtEn= 0.00D+00
 Coeff-Com:  0.764D-03 0.110D+00 0.513D+00 0.376D+00
 Coeff:      0.764D-03 0.110D+00 0.513D+00 0.376D+00
 Gap=     0.162 Goal=   None    Shift=    0.000
 RMSDP=5.89D-07 MaxDP=2.58D-05 DE=-1.24D-08 OVMax= 5.26D-05

 Cycle  11  Pass 1  IDiag  1:
 E= -622.529430049529     Delta-E=       -0.000000013315 Rises=F Damp=F
 DIIS: error= 1.52D-06 at cycle   5 NSaved=   5.
 NSaved= 5 IEnMin= 5 EnMin= -622.529430049529     IErMin= 5 ErrMin= 1.52D-06
 ErrMax= 1.52D-06  0.00D+00 EMaxC= 1.00D-01 BMatC= 6.03D-10 BMatP= 1.61D-08
 IDIUse=1 WtCom= 1.00D+00 WtEn= 0.00D+00
 Coeff-Com: -0.104D-01 0.467D-01 0.249D+00 0.225D+00 0.490D+00
 Coeff:     -0.104D-01 0.467D-01 0.249D+00 0.225D+00 0.490D+00
 Gap=     0.162 Goal=   None    Shift=    0.000
 RMSDP=1.34D-07 MaxDP=3.59D-06 DE=-1.33D-08 OVMax= 6.90D-06

 Cycle  12  Pass 1  IDiag  1:
 E= -622.529430050065     Delta-E=       -0.000000000536 Rises=F Damp=F
 DIIS: error= 3.40D-07 at cycle   6 NSaved=   6.
 NSaved= 6 IEnMin= 6 EnMin= -622.529430050065     IErMin= 6 ErrMin= 3.40D-07
 ErrMax= 3.40D-07  0.00D+00 EMaxC= 1.00D-01 BMatC= 3.43D-11 BMatP= 6.03D-10
 IDIUse=1 WtCom= 1.00D+00 WtEn= 0.00D+00
 Coeff-Com: -0.561D-02 0.197D-01 0.109D+00 0.100D+00 0.274D+00 0.502D+00
 Coeff:     -0.561D-02 0.197D-01 0.109D+00 0.100D+00 0.274D+00 0.502D+00
 Gap=     0.162 Goal=   None    Shift=    0.000
 RMSDP=2.37D-08 MaxDP=1.14D-06 DE=-5.36D-10 OVMax= 1.24D-06

 Cycle  13  Pass 1  IDiag  1:
 E= -622.529430050073     Delta-E=       -0.000000000007 Rises=F Damp=F
 DIIS: error= 9.73D-08 at cycle   7 NSaved=   7.
 NSaved= 7 IEnMin= 7 EnMin= -622.529430050073     IErMin= 7 ErrMin= 9.73D-08
 ErrMax= 9.73D-08  0.00D+00 EMaxC= 1.00D-01 BMatC= 2.70D-12 BMatP= 3.43D-11
 IDIUse=1 WtCom= 1.00D+00 WtEn= 0.00D+00
 Coeff-Com: -0.140D-02 0.402D-02 0.227D-01 0.206D-01 0.784D-01 0.256D+00
 Coeff-Com:  0.620D+00
 Coeff:     -0.140D-02 0.402D-02 0.227D-01 0.206D-01 0.784D-01 0.256D+00
 Coeff:      0.620D+00
 Gap=     0.162 Goal=   None    Shift=    0.000
 RMSDP=9.21D-09 MaxDP=2.70D-07 DE=-7.28D-12 OVMax= 5.79D-07

 SCF Done:  E(RB3LYP) =  -622.529430050     A.U. after   13 cycles
            NFock= 13  Conv=0.92D-08     -V/T= 2.0066
[...]
 ,-0.05264409,-0.04713075,0.72063799,0.02088238,0.00940452,0.01658035,-
 0.05750924,-0.10997531,-0.09038746,-0.02074202,-0.00802096,-0.01180815
 ,-0.13120108,0.44702033,0.01183459,0.00821540,0.01215488,-0.12621016,-
 0.07646075,-0.16304595,-0.01181026,-0.02078429,-0.02893614,0.02299697,
 0.32406081,0.48631880,0.00285747,-0.00107878,0.00039750,0.00291378,-0.
 02343088,-0.02589355,-0.00390795,0.00194861,-0.00030420,-0.06569114,0.
 04064800,0.03623191,0.06478061,0.00077460,-0.00098048,0.00225018,0.000
 41672,-0.00466396,-0.00806625,-0.00042234,0.00390061,-0.00120267,0.033
 12210,-0.18415173,-0.15642916,-0.03567467,0.18685879,0.00245145,0.0017
 3119,-0.00021248,0.00050760,-0.01476285,-0.01348063,-0.00294143,-0.000
 53885,0.00346647,0.02790767,-0.15431156,-0.19743231,-0.02798763,0.1705
 0403,0.20468536,0.00959980,0.00006064,0.00254914,-0.01823244,-0.028311
 39,-0.03860354,-0.32294178,0.01001018,-0.06576362,-0.00576630,0.003519
 00,0.00150508,-0.00068649,0.00014993,-0.00007209,0.53257770,-0.0127486
 2,-0.01152551,-0.01720820,-0.03515375,-0.01503364,-0.03474718,-0.00814
 632,-0.08327601,-0.03990372,0.00483931,0.00066093,-0.00098870,-0.00091
 825,-0.00006236,-0.00051518,0.03256473,0.23393645,-0.01164994,-0.01360
 019,-0.01758908,-0.04616555,-0.03282565,-0.04195053,-0.08588589,-0.034
 81104,-0.11202513,0.00296366,-0.00135895,0.00211139,-0.00125809,-0.000
 21548,-0.00042070,0.17062410,0.20872031,0.33308262,0.00539779,0.007471
 84,0.00952800,-0.00915539,0.00197257,-0.00161026,-0.02148625,-0.035908
 02,-0.04167366,0.00212669,-0.00006103,-0.00037713,-0.00019463,-0.00007
 276,-0.00029160,-0.11929235,0.02056303,0.00764692,0.94551094,-0.004227
 89,0.00031338,-0.00191493,0.00997258,0.00672345,0.00542184,-0.03326363
 ,-0.01068097,-0.00480605,0.00290552,-0.00043258,-0.00324107,0.00022208
 ,0.00043646,-0.00007048,0.00185719,-0.11489489,-0.05427127,-0.13451522
 ,0.44735227,-0.00343606,0.00137062,0.00152757,0.00724323,0.00316280,0.
 00992417,-0.03873391,-0.00553428,-0.03181199,0.00291564,-0.00407457,-0
 .00047518,0.00003384,-0.00015203,0.00039439,-0.01308590,-0.04902063,-0
 .12343951,0.04700262,0.18284979,0.46405469,0.00012205,-0.00072503,-0.0
 0062247,0.00188044,0.00179144,0.00263161,-0.01066107,-0.00004607,-0.00
 300744,0.00139584,-0.00106331,-0.00071688,0.00011688,0.00002342,0.0000
 6994,0.02073266,0.02213357,0.02357575,-0.30352766,0.13620904,0.0892252
 5,0.38725355,-0.00255293,-0.00216190,-0.00253845,-0.00082416,-0.003214
 78,-0.00334442,0.01568634,0.00158511,0.00632586,0.00051812,0.00056296,
 0.00104921,-0.00010186,-0.00001961,-0.00000457,0.01952568,-0.02928299,
 -0.05368529,0.15173879,-0.21734603,-0.10506226,-0.20585648,0.22624072,
 -0.00264973,-0.00202261,-0.00350796,-0.00026939,-0.00260745,-0.0033747
 6,0.01442475,0.00190234,0.00601773,0.00103676,0.00060453,0.00070974,-0
 .00006822,0.00003046,-0.00002649,0.02068510,-0.05295224,-0.02874171,0.
 10644608,-0.10943462,-0.17537626,-0.12759358,0.15989543,0.17103521,-0.
 15527139,-0.06034655,-0.10750434,-0.05584487,-0.01181870,-0.02868605,0
 .00020785,0.00522301,0.00456891,-0.00566080,0.00325783,0.00229572,-0.0
 0028383,-0.00005900,0.00001931,-0.01255560,0.00015220,-0.00170832,0.00
 261701,-0.00054870,0.00110947,-0.00020142,-0.00019293,-0.00062979,0.23
 050672,-0.08782980,-0.09304395,-0.11562456,0.01149012,0.01004367,0.014
 87394,0.01922647,0.00404336,0.00485814,0.00144255,-0.00382995,-0.00272
 476,-0.00043415,-0.00045755,0.00002017,0.00054558,-0.00036405,0.006259
 03,-0.00924805,-0.00278356,-0.00181401,-0.00059202,0.00464247,0.003560
 57,0.06592068,0.08071392,-0.13800052,-0.10789965,-0.16958450,-0.002828
 49,0.00832006,0.00796755,0.02009112,0.00092190,0.01120475,0.00029816,-
 0.00222033,-0.00337851,-0.00039729,0.00012369,-0.00055808,-0.00127599,
 0.00615577,0.00058773,-0.00853039,0.00063180,-0.00519735,-0.00107302,0
 .00367183,0.00504872,0.13366017,0.09109283,0.15398841,0.00244291,-0.00
 096460,-0.00049039,-0.00375177,0.00177677,0.00096058,0.00978463,-0.002
 05839,-0.00170498,-0.00285832,-0.00005195,-0.00062408,-0.00019163,-0.0
 0002811,-0.00002859,-0.04187342,-0.03085310,-0.05119140,-0.49910996,0.
 00690863,-0.10800377,-0.09098872,0.03184883,0.00147941,-0.00186713,0.0
 0060404,0.00018851,0.62772880,0.00044650,0.00014271,-0.00013875,-0.002
 44985,-0.00090819,-0.00150234,0.00353044,0.00198704,-0.00536775,0.0002
 2967,-0.00031987,0.00063645,-0.00012731,-0.00013675,0.00003186,-0.0435
 3351,0.00599663,-0.02619045,-0.00318415,-0.10673400,-0.02186083,0.0536
 3763,0.01909088,0.00383132,0.00002779,0.00037156,0.00058847,-0.0057632
 7,0.08029785,0.00107420,-0.00053518,0.00008913,-0.00371905,-0.00031273
 ,-0.00156791,0.00448826,-0.00693909,0.00129663,-0.00031570,0.00055738,
 -0.00030557,-0.00013920,0.00005955,-0.00017029,-0.06523835,-0.02262422
 ,-0.02482831,-0.11920076,-0.01902256,-0.14241591,0.02563251,-0.0022972
 3,0.03390515,-0.00045145,0.00075064,0.00055291,0.16073463,0.05029159,0
 .13438393,0.01007812,-0.00261157,-0.00168687,0.02307536,0.04198970,0.0
 5299344,-0.22789719,0.05443356,0.01249067,-0.05261782,0.00243228,-0.01
 209503,-0.00046930,0.00015251,0.00030160,-0.04957340,0.00751942,-0.008
 61053,0.00416890,0.01209799,0.01462639,-0.00531937,-0.00428207,-0.0065
 1159,-0.00278399,-0.00658434,-0.00805420,-0.00516893,-0.00171520,-0.00
 316113,0.64324173,-0.00175494,0.00191994,-0.00476113,0.02243611,-0.021
 21506,-0.01717557,0.07368694,-0.11947078,-0.04766997,0.00482282,-0.001
 15494,0.00000851,-0.00023334,-0.00030931,0.00060780,0.00386543,0.01531
 947,0.00623840,-0.00033810,-0.00051830,-0.00048249,0.00089172,0.000981
 47,0.00027213,-0.00074854,0.00005314,-0.00005336,0.00001459,-0.0005064
 7,0.00020014,-0.04744475,0.40853670,-0.00073525,-0.00500247,0.00002241
 ,0.03134461,-0.01169360,-0.00416899,0.03379295,-0.05306318,-0.10702221
 ,-0.00944888,-0.00066188,-0.00333297,-0.00013257,0.00071672,-0.0001605
 7,-0.01264043,0.00725979,0.01515952,0.00084485,0.00301123,0.00340590,-
 0.00078105,-0.00118238,-0.00056632,-0.00158641,-0.00169218,-0.00241167
 ,-0.00124493,-0.00028460,-0.00135045,0.09583094,0.31140006,0.48724749,
 -0.00462596,0.00063698,-0.00033061,-0.00754630,-0.01418347,-0.01690895
 ,-0.05889827,0.01337397,-0.00027363,0.02187585,0.02083305,0.02824859,-
 0.00478586,0.00280177,-0.00053569,0.01028045,0.00597668,0.00731374,-0.
 00172474,-0.00542297,-0.00648132,-0.00060846,0.00089305,0.00061431,0.0
 0048615,0.00207504,0.00243928,0.00329550,0.00051736,0.00176249,-0.2831
 6161,-0.05983047,-0.12983748,0.65357405,-0.00456888,0.00023832,0.00001
 941,-0.01928388,-0.02123084,-0.02528431,-0.00811828,0.02545973,0.03168
 473,0.05015330,-0.01713322,-0.00868262,0.00253584,0.00441113,-0.003467
 41,0.00978821,0.00143286,-0.00432365,0.00033388,-0.00525068,-0.0056716
 3,-0.00366241,0.00125260,-0.00044612,0.00092979,0.00264814,0.00321133,
 0.00040530,0.00048253,0.00168379,-0.02252347,-0.10535227,-0.05984660,-
 0.04521452,0.39147177,-0.00608881,0.00147991,-0.00101300,-0.02255573,-
 0.02386035,-0.03603862,-0.02409889,0.03771910,0.02980619,0.06073406,-0
 .01691255,0.00174521,-0.00083312,-0.00338542,0.00419174,0.01153926,-0.
 00539497,0.00509203,-0.00010333,-0.00729157,-0.00815731,-0.00443315,0.
 00083591,0.00040582,0.00116896,0.00353105,0.00422724,0.00163979,0.0017
 1595,0.00142782,-0.08850838,-0.07032140,-0.15983672,0.08437856,0.22659
 946,0.45003660,-0.00067909,0.00105793,0.00110028,-0.00538745,0.0030224
 1,-0.00005523,0.00777873,0.01899482,0.02287748,-0.00186480,0.00011312,
 -0.00016419,0.00005080,-0.00009499,0.00013409,-0.00150509,-0.00371657,
 -0.00384994,-0.00591783,0.00697073,0.00635882,0.00039016,-0.00526567,-
 0.00560988,0.00048781,0.00055157,0.00072047,0.00227402,-0.00127768,-0.
 00105812,-0.05317510,0.00823476,0.00379684,0.00388175,-0.01632708,-0.0
 1792584,0.05610336,-0.00023701,-0.00043477,-0.00008314,0.00276145,0.00
 314337,-0.00317693,0.00054719,-0.00609083,-0.00797062,0.00044765,-0.00
 010354,0.00093145,-0.00011266,-0.00046451,0.00033962,-0.00142875,-0.00
 155318,0.00059459,0.00047907,-0.00008830,0.00121407,-0.00388792,-0.001
 78017,-0.00261144,-0.00010092,0.00000437,-0.00013526,0.00026856,0.0004
 8492,-0.00049794,0.01038273,-0.18315200,-0.16202031,0.00037033,-0.0001
 8296,-0.00377072,-0.00973374,0.18696205,-0.00033476,0.00028072,-0.0002
 0269,-0.00033691,-0.00310225,0.00318219,0.00245440,-0.00279035,-0.0011
 5844,0.00020030,0.00083893,0.00015532,0.00011402,0.00034451,-0.0003861
 8,-0.00132269,-0.00004839,-0.00287924,-0.00083343,0.00304114,0.0020741
 5,-0.00408266,-0.00299894,-0.00488212,-0.00000312,0.00004765,0.0001527
 0,0.00065475,-0.00093337,0.00015280,0.00616725,-0.16262359,-0.21264433
 ,0.00057920,-0.00846220,-0.00589574,-0.00201837,0.17674583,0.22013573,
 -0.00380169,-0.00043144,-0.00260963,-0.06943693,-0.01376405,-0.0359806
 4,-0.01350046,0.02407329,0.02302143,-0.32695458,0.13001448,0.06664677,
 0.00469625,-0.00025251,-0.00017759,0.00000830,-0.00267807,-0.00267152,
 0.00007324,0.00004599,0.00027479,-0.00087462,-0.00070752,-0.00098381,0
 .00012974,0.00227119,0.00219051,0.00047072,-0.00011949,-0.00006146,0.0
 3162815,-0.02217206,-0.01745602,-0.12096528,-0.00874618,-0.02620160,-0
 .00354980,0.00022228,-0.00276231,0.75583380,0.00484288,-0.00130701,-0.
 00426582,0.01347040,0.03167251,0.03390360,0.02026132,-0.02257885,-0.01
 873328,0.09337891,-0.13814513,-0.06975968,0.01688677,-0.00184652,-0.00
 206321,-0.00792369,-0.00095163,-0.00212999,0.00042615,0.00401756,0.005
 36840,0.00161318,-0.00062083,-0.00005276,-0.00176551,-0.00165064,-0.00
 375871,-0.00199367,-0.00039438,-0.00123845,-0.04210701,-0.00225888,-0.
 02132842,0.03007075,-0.16695179,-0.10761555,-0.00043507,0.00454490,-0.
 00300499,-0.07654150,0.36759524,0.00323552,-0.00574639,-0.00167833,-0.
 00581867,0.02626258,0.03190526,0.01880525,-0.01766382,-0.01481134,0.02
 608288,-0.05948405,-0.11000639,0.01880706,-0.00687905,0.00196706,-0.00
 848855,-0.00065644,-0.00415453,0.00069485,0.00526404,0.00531210,0.0015
 8962,-0.00070598,-0.00050013,-0.00228093,-0.00262763,-0.00225522,-0.00
 213892,-0.00071211,-0.00117329,-0.03954648,-0.01573317,-0.02220070,0.0
 1679829,-0.11850323,-0.18865889,-0.00348853,-0.00282047,0.00304206,0.0
 9643966,0.26375496,0.42902932,-0.00099159,-0.00059353,-0.00133087,-0.0
 0192305,0.00428875,0.00219595,-0.00006728,0.00027282,0.00057639,-0.017
 91662,-0.00990491,-0.01563198,0.00060566,-0.00064041,0.00066967,0.0001
 2354,-0.00013667,-0.00002404,0.00006401,-0.00002651,0.00004503,-0.0000
 0549,-0.00005165,-0.00002357,-0.00018266,0.00044883,0.00036889,-0.0000
 1637,0.00000738,-0.00004658,0.00115623,0.00144963,0.00049612,0.0054798
 1,0.00089921,0.00232310,0.00032449,0.00011653,0.00005937,-0.24832182,-
 0.05734801,-0.12506283,0.26070519,0.00095511,0.00115028,-0.00001442,0.
 00365241,0.00264707,-0.00399493,0.00044242,-0.00120928,-0.00005743,0.0
 1114065,0.00470363,0.00975121,-0.00095476,-0.00199794,0.00229395,-0.00
 008539,0.00004518,0.00039163,0.00018911,-0.00030962,-0.00006658,-0.000
 32984,0.00001396,0.00006179,0.00018557,-0.00009258,-0.00035758,-0.0000
 9072,0.00013817,-0.00007059,0.00201329,-0.00013522,-0.00525177,-0.0185
 9716,-0.00232325,-0.00861660,-0.00075411,0.00033480,-0.00047848,-0.058
 86944,-0.06299191,-0.05450465,0.06165425,0.06071485,0.00038200,-0.0004
 4956,0.00101617,0.00149015,-0.00381765,0.00337434,0.00076000,-0.000101
 55,-0.00094500,0.00766511,0.00384668,0.00512566,0.00032330,0.00238207,
 -0.00158454,0.00003539,0.00037778,0.00009843,0.00028387,-0.00012876,-0
 .00026466,-0.00033196,0.00014036,-0.00006331,0.00007696,-0.00028272,-0
 .00001449,-0.00015466,-0.00004279,0.00008810,0.00112242,-0.00541205,-0
 .00055695,-0.01926707,-0.00316221,-0.00815736,-0.00090545,-0.00023287,
 0.00006092,-0.12673714,-0.05406428,-0.12404170,0.13487467,0.05897784,0
 .12615351,-0.00090998,0.00047932,0.00042674,-0.00143011,-0.00002645,-0
 .00017524,0.00020453,-0.00037479,-0.00349170,0.00349305,-0.00227840,-0
 .00280528,0.00062358,-0.00032821,-0.00010492,-0.00010382,0.00042879,0.
 00095782,0.00024214,0.00008591,0.00003615,0.00009832,-0.00004910,-0.00
 005953,0.00009372,0.00008564,0.00012806,0.00004400,-0.00005602,-0.0000
 4926,-0.02998321,0.01223162,0.00295085,-0.18268079,0.04709507,0.021516
 69,0.00118721,0.00001299,0.00191243,-0.00227711,0.00741017,0.00650554,
 0.00045339,-0.00097122,-0.00047360,0.50221612,-0.00021275,-0.00001278,
 0.00052643,0.00026378,-0.00027334,0.00076283,-0.00016012,0.00472134,-0
 .00714506,-0.00102827,0.00013419,-0.00512885,0.00070423,-0.00036035,0.
 00013259,-0.00082707,-0.00056246,0.00115868,0.00020075,0.00061758,0.00
 024163,0.00005866,-0.00013356,-0.00026091,0.00002843,-0.00009752,-0.00
 007197,-0.00007292,-0.00010142,-0.00013129,-0.00358138,0.00876896,0.00
 022796,0.05246571,-0.10566988,-0.02054805,-0.00213510,-0.00248191,0.00
 281143,0.02318301,-0.00916007,-0.00781003,0.00002606,-0.00001160,0.001
 88163,0.02838915,0.55353062,-0.00034570,0.00072375,0.00016398,0.000144
 71,0.00068239,-0.00009833,-0.00322735,-0.00721017,0.00222771,-0.001418
 63,-0.00548966,-0.00196572,0.00104132,-0.00015686,-0.00018506,-0.00043
 712,0.00150934,-0.00026737,0.00016465,0.00021299,0.00073270,0.00006099
 ,-0.00029244,-0.00019045,0.00006625,-0.00005497,-0.00006819,-0.0000691
 6,-0.00012731,-0.00016203,-0.01456075,0.00467666,0.00872824,0.02749217
 ,-0.02206916,-0.09048934,-0.00047052,0.00341222,-0.00190828,0.02397344
 ,-0.01225545,-0.00303544,0.00063338,0.00160577,0.00024743,0.02025196,0
 .02132946,0.57094193,-0.00033837,0.00015617,0.00023102,0.00056008,0.00
 004201,0.00037337,0.00008512,0.00079378,-0.00182666,-0.00072787,0.0006
 5803,-0.00077681,-0.00003786,-0.00006304,0.00008067,-0.00042710,-0.000
 02342,0.00026516,0.00024584,0.00026966,0.00029748,-0.00004137,-0.00007
 361,-0.00015014,0.00004966,-0.00005617,-0.00000175,-0.00016344,-0.0000
 5209,-0.00012633,-0.00207699,0.00223374,0.00170167,-0.02260878,-0.0187
 4332,0.00701965,-0.00008426,-0.00049368,0.00067859,0.00140812,-0.00051
 330,-0.00180368,0.00014635,-0.00016308,0.00077028,-0.16095884,-0.12447
 166,0.04807350,0.17789990,0.00036305,-0.00018538,-0.00003553,0.0002631
 5,0.00029488,0.00016792,0.00000400,-0.00059676,0.00077179,-0.00076175,
 0.00035920,0.00049647,-0.00003349,0.00005704,-0.00005465,0.00003875,0.
 00007194,-0.00016344,-0.00000565,-0.00009996,-0.00004975,-0.00004152,0
 .00008081,0.00003655,-0.00004910,-0.00008961,-0.00009341,-0.00001996,0
 .00002057,0.00002564,0.00098353,-0.00078893,-0.00021434,0.01111892,0.0
 1259858,-0.00451621,0.00017474,0.00020263,0.00000940,0.00071312,-0.000
 25206,-0.00059042,-0.00026438,-0.00004760,0.00004025,-0.12284596,-0.17
 650206,0.04683071,0.13311196,0.18983584,0.00033964,-0.00022430,-0.0000
 5350,-0.00002388,0.00015344,0.00000221,-0.00028677,0.00025489,0.000106
 98,-0.00048621,0.00011310,0.00024445,-0.00000383,0.00002596,-0.0000261
 7,-0.00008416,-0.00003176,-0.00004287,-0.00005195,-0.00002049,-0.00002
 885,0.00000729,0.00004461,0.00000175,-0.00005783,-0.00005621,-0.000079
 21,0.00000544,0.00000992,0.00001779,-0.00007694,-0.00011986,-0.0005026
 4,0.00285868,0.00476518,-0.00204389,0.00001884,-0.00012492,0.00029898,
 0.00085720,-0.00082172,0.00054276,0.00001545,-0.00019637,-0.00042668,0
 .04845683,0.04718040,-0.06488396,-0.05235256,-0.05298417,0.06554953,-0
 .00018205,-0.00005383,-0.00011122,0.00021832,-0.00017315,-0.00012878,0
 .00040049,-0.00001521,0.00014846,0.00052121,0.00109620,0.00117971,-0.0
 0040947,0.00010283,0.00005825,-0.00004668,-0.00019102,-0.00021587,-0.0
 0023560,0.00026273,0.00021798,0.00027640,-0.00012096,-0.00003455,0.000
 01817,0.00008787,0.00010462,0.00010008,-0.00004510,-0.00002339,0.00118
 088,0.00074924,0.00126982,0.00335772,0.02043030,0.02406654,-0.00051991
 ,-0.00035741,-0.00066354,-0.00562564,0.00191718,0.00011671,-0.00002669
 ,0.00005114,0.00013490,-0.05219348,-0.02045159,-0.02382010,-0.00180779
 ,-0.01246925,-0.01743648,0.05678620,0.00017737,0.00001366,0.00006481,-
 0.00004468,0.00026234,0.00028304,-0.00028990,-0.00008090,0.00003868,-0
 .00041931,-0.00004217,-0.00085890,0.00016716,-0.00016608,0.00009428,0.
 00017252,0.00014792,0.00024666,0.00006840,-0.00025848,-0.00029409,-0.0
 0016816,0.00008005,0.00012750,-0.00002580,-0.00006380,-0.00007012,0.00
 001661,0.00005584,0.00006030,-0.00149336,0.00024458,0.00028612,-0.0022
 1151,-0.00967484,-0.00963626,0.00056844,0.00056486,0.00030209,0.002959
 90,0.00033990,-0.00046661,-0.00007648,-0.00004343,0.00026485,-0.016962
 75,-0.16446801,-0.13383835,-0.00134076,-0.01369710,-0.01702058,0.01764
 829,0.17453157,0.00014672,-0.00000055,0.00004016,0.00001421,0.00024835
 ,0.00027527,-0.00015665,0.00011445,-0.00010323,-0.00049964,-0.00043121
 ,0.00000977,0.00012815,0.00007653,-0.00008800,0.00018717,0.00014510,0.
 00018220,0.00000297,-0.00024045,-0.00024137,-0.00008743,0.00014115,0.0
 0005443,-0.00002173,-0.00003841,-0.00005577,0.00004485,0.00004318,0.00
 006608,-0.00121170,0.00091322,0.00028364,-0.00107570,-0.00323063,-0.00
 543915,0.00036390,0.00004406,0.00058291,0.00127030,-0.00075684,0.00102
 612,-0.00000788,0.00030002,0.00002773,-0.01994337,-0.13483220,-0.20361
 884,0.00038830,0.00705650,0.00826306,0.02264199,0.14769577,0.21640465,
 -0.00029584,0.00028376,0.00008297,0.00049052,0.00017261,0.00014661,-0.
 00070587,-0.00187717,0.00068028,-0.00089429,-0.00064241,0.00027246,0.0
 0001313,0.00009215,-0.00006070,-0.00031798,0.00038806,-0.00011606,0.00
 019782,0.00019687,0.00035427,-0.00003812,-0.00013185,-0.00010263,0.000
 05485,-0.00000505,-0.00002815,-0.00015096,-0.00007309,-0.00010131,-0.0
 0230244,0.00190557,0.00183436,-0.01462524,0.01461712,-0.02363776,0.000
 20498,0.00074332,-0.00046251,0.00105959,-0.00164996,-0.00044678,0.0003
 9290,0.00053178,-0.00004917,-0.07811873,0.04762107,-0.07755301,0.00887
 757,-0.01028015,0.01830124,-0.00181215,0.00125400,-0.00218445,0.087970
 25,0.00040726,-0.00019819,-0.00015449,-0.00023612,-0.00005879,0.000053
 25,-0.00015977,0.00059658,0.00006268,-0.00008041,0.00046364,-0.0000907
 0,-0.00001253,-0.00004687,0.00003329,0.00001197,-0.00010466,-0.0000338
 9,-0.00011062,-0.00006332,-0.00012416,0.00001409,0.00002883,0.00006553
 ,-0.00006953,-0.00004741,-0.00005727,0.00005338,0.00003239,0.00004024,
 0.00033814,-0.00096210,-0.00066015,0.00432649,-0.00622593,0.00998826,0
 .00005151,0.00009028,0.00002085,0.00079899,0.00093960,-0.00037753,-0.0
 0012092,-0.00058553,-0.00021704,0.04767424,-0.10793773,0.10051108,0.00
 872876,-0.01126203,0.01905288,-0.00846827,0.01225410,-0.01724805,-0.05
 314664,0.11308714,0.00034097,-0.00005956,-0.00008564,0.00033712,0.0001
 1993,0.00042951,0.00015319,0.00032249,-0.00029463,-0.00097273,0.000538
 60,0.00030352,-0.00005940,-0.00002676,0.00002648,-0.00011281,-0.000076
 47,0.00002507,0.00005768,0.00000940,-0.00001728,-0.00006332,0.00000759
 ,0.00005096,-0.00003578,-0.00007856,-0.00012703,-0.00005707,0.00001156
 ,-0.00000658,0.00049092,0.00003566,-0.00009265,0.00222514,-0.00481414,
 0.00879735,0.00017535,0.00016280,0.00011925,0.00096764,-0.00117780,-0.
 00030871,-0.00013026,0.00022719,-0.00013760,-0.07604019,0.09967534,-0.
 21616898,-0.00284173,0.00326668,-0.00693973,-0.00750506,0.01272081,-0.
 01766966,0.08307035,-0.11086478,0.23209636\\-0.00007707,-0.00001119,-0
 .00001756,0.00000081,-0.00011703,-0.00008564,-0.00002090,0.00010237,0.
 00003956,0.00004989,0.00002394,0.00004660,0.00000263,-0.00001674,-0.00
 003504,-0.00004154,0.00003983,0.00004322,0.00003826,-0.00012658,-0.000
 09327,-0.00003649,0.00003611,0.00001880,0.00007616,0.00004087,0.000049
 81,0.00002088,0.00003508,0.00003144,0.00005578,-0.00003564,-0.00001762
 ,-0.00002081,-0.00003439,-0.00006816,-0.00000187,0.00002737,0.00003140
 ,-0.00002496,0.00004615,0.00007297,-0.00001738,-0.00000728,-0.00003441
 ,-0.00002427,0.00000800,0.00002317,-0.00000615,-0.00001122,-0.00002307
 ,0.00001396,0.00001846,-0.00001534,0.00001306,-0.00001811,0.00003313\\
 \@


 A COMPUTER IS LIKE A HORSE, IT WILL SENSE WEAKNESS.
     -- GREG WETTSTEIN
 Job cpu time:       0 days  0 hours 13 minutes 33.4 seconds.
 File lengths (MBytes):  RWF=    106 Int=      0 D2E=      0 Chk=      5 Scr=      1
 Normal termination of Gaussian 09 at Fri Aug 20 15:54:22 2021.
