 Entering Gaussian System, Link 0=g09
 Input=B3LYP6-31G.DELPEQ.gjf
 Output=B3LYP6-31G.DELPEQ.log
 Initial command:
 /public/home/users/caep010/software/Gaussian09/g09/l1.exe "/public/home/users/caep010/.cache/gau_scr/Gau-186081.inp" -scrdir="/public/home/users/caep010/.cache/gau_scr/"
 Entering Link 1 = /public/home/users/caep010/software/Gaussian09/g09/l1.exe PID=    186082.
  
 Copyright (c) 1988,1990,1992,1993,1995,1998,2003,2009,2015,
            Gaussian, Inc.  All Rights Reserved.
  
 This is part of the Gaussian(R) 09 program.  It is based on
 the Gaussian(R) 03 system (copyright 2003, Gaussian, Inc.),
 the Gaussian(R) 98 system (copyright 1998, Gaussian, Inc.),
 the Gaussian(R) 94 system (copyright 1995, Gaussian, Inc.),
 the Gaussian 92(TM) system (copyright 1992, Gaussian, Inc.),
 the Gaussian 90(TM) system (copyright 1990, Gaussian, Inc.),
 the Gaussian 88(TM) system (copyright 1988, Gaussian, Inc.),
 the Gaussian 86(TM) system (copyright 1986, Carnegie Mellon
 University), and the Gaussian 82(TM) system (copyright 1983,
 Carnegie Mellon University). Gaussian is a federally registered
 trademark of Gaussian, Inc.
  
 This software contains proprietary and confidential information,
 including trade secrets, belonging to Gaussian, Inc.
  
 This software is provided under written license and may be
 used, copied, transmitted, or stored only in accord with that
 written license.
  
 The following legend is applicable only to US Government
 contracts under FAR:
  
                    RESTRICTED RIGHTS LEGEND
  
 Use, reproduction and disclosure by the US Government is
 subject to restrictions as set forth in subparagraphs (a)
 and (c) of the Commercial Computer Software - Restricted
 Rights clause in FAR 52.227-19.
  
 Gaussian, Inc.
 340 Quinnipiac St., Bldg. 40, Wallingford CT 06492
  
  
 ---------------------------------------------------------------
 Warning -- This program may not be used in any manner that
 competes with the business of Gaussian, Inc. or will provide
 assistance to any competitor of Gaussian, Inc.  The licensee
 of this program is prohibited from giving any competitor of
 Gaussian, Inc. access to this program.  By using this program,
 the user acknowledges that Gaussian, Inc. is engaged in the
 business of creating and licensing software in the field of
 computational chemistry and represents and warrants to the
 licensee that it is not a competitor of Gaussian, Inc. and that
 it will not use this program in any manner prohibited above.
 ---------------------------------------------------------------
  

 Cite this work as:
 Gaussian 09, Revision E.01,
 M. J. Frisch, G. W. Trucks, H. B. Schlegel, G. E. Scuseria, 
 M. A. Robb, J. R. Cheeseman, G. Scalmani, V. Barone, B. Mennucci, 
 G. A. Petersson, H. Nakatsuji, M. Caricato, X. Li, H. P. Hratchian, 
 A. F. Izmaylov, J. Bloino, G. Zheng, J. L. Sonnenberg, M. Hada, 
 M. Ehara, K. Toyota, R. Fukuda, J. Hasegawa, M. Ishida, T. Nakajima, 
 Y. Honda, O. Kitao, H. Nakai, T. Vreven, J. A. Montgomery, Jr., 
 J. E. Peralta, F. Ogliaro, M. Bearpark, J. J. Heyd, E. Brothers, 
 K. N. Kudin, V. N. Staroverov, T. Keith, R. Kobayashi, J. Normand, 
 K. Raghavachari, A. Rendell, J. C. Burant, S. S. Iyengar, J. Tomasi, 
 M. Cossi, N. Rega, J. M. Millam, M. Klene, J. E. Knox, J. B. Cross, 
 V. Bakken, C. Adamo, J. Jaramillo, R. Gomperts, R. E. Stratmann, 
 O. Yazyev, A. J. Austin, R. Cammi, C. Pomelli, J. W. Ochterski, 
 R. L. Martin, K. Morokuma, V. G. Zakrzewski, G. A. Voth, 
 P. Salvador, J. J. Dannenberg, S. Dapprich, A. D. Daniels, 
 O. Farkas, J. B. Foresman, J. V. Ortiz, J. Cioslowski, 
 and D. J. Fox, Gaussian, Inc., Wallingford CT, 2013.
 
 ******************************************
 Gaussian 09:  ES64L-G09RevE.01 30-Nov-2015
                20-Aug-2021 
 ******************************************
 %nproc=32
 Will use up to   32 processors via shared memory.
 %mem=180GB
 -------------------------
 #P OPT Freq B3LYP/6-31G**
 -------------------------
 1/14=-1,18=20,19=15,26=3,38=1/1,3;
 2/9=110,12=2,17=6,18=5,40=1/2;
 3/5=1,6=6,7=101,11=2,16=1,25=1,30=1,71=1,74=-5/1,2,3;
 4//1;
 5/5=2,38=5/2;
 6/7=2,8=2,9=2,10=2,28=1/1;
 7//1,2,3,16;
 1/14=-1,18=20,19=15,26=3/3(2);
 2/9=110/2;
 99//99;
 2/9=110/2;
 3/5=1,6=6,7=101,11=2,16=1,25=1,30=1,71=1,74=-5/1,2,3;
 4/5=5,16=3,69=1/1;
 5/5=2,38=5/2;
 7//1,2,3,16;
 1/14=-1,18=20,19=15,26=3/3(-5);
 2/9=110/2;
 6/7=2,8=2,9=2,10=2,19=2,28=1/1;
 99/9=1/99;
 Leave Link    1 at Fri Aug 20 15:57:22 2021, MaxMem= 24159191040 cpu:         2.8
 (Enter /public/home/users/caep010/software/Gaussian09/g09/l101.exe)
 ------
 DELPEQ
 ------
 Symbolic Z-matrix:
 Charge =  0 Multiplicity = 1
 O                     3.0153    2.7551    0.0204 
 N                     3.9632    1.9609    0.0316 
 O                     4.3322    1.3991    1.0754 
 C                     4.6495    1.6785   -1.2117 
 C                     5.6138    0.647    -1.3084 
 N                     5.9961   -0.1299   -0.2548 
 H                     5.6937    0.0341    0.5336 
 N                     6.8735   -1.1857   -0.4572 
 C                     6.1724    0.4319   -2.5889 
 C                     7.0843   -1.9592    0.5421 
 H                     6.7944   -0.2492   -2.7083 
 C                     5.8128    1.2114   -3.6578 
 H                     6.2053    1.0541   -4.4861 
 C                     4.879     2.2276   -3.535 
 H                     4.6542    2.7522   -4.2702 
 C                     4.2946    2.45     -2.325 
 H                     3.6545    3.119    -2.2379 
 C                     6.4701   -1.823     1.8983 
 H                     6.5617   -2.65      2.3756 
 H                     5.5386   -1.6067    1.8076 
 H                     6.915    -1.1238    2.3823 
 C                     8.0345   -3.0987    0.3415 
 H                     7.5856   -3.927     0.526 
 H                     8.7827   -2.9998    0.9348 
 H                     8.3463   -3.1004   -0.5674 
 
 NAtoms=     25 NQM=       25 NQMF=       0 NMMI=      0 NMMIF=      0
                NMic=       0 NMicF=      0.
                    Isotopes and Nuclear Properties:
 (Nuclear quadrupole moments (NQMom) in fm**2, nuclear magnetic moments (NMagM)
  in nuclear magnetons)

  Atom         1           2           3           4           5           6           7           8           9          10
 IAtWgt=          16          14          16          12          12          14           1          14          12          12
 AtmWgt=  15.9949146  14.0030740  15.9949146  12.0000000  12.0000000  14.0030740   1.0078250  14.0030740  12.0000000  12.0000000
 NucSpn=           0           2           0           0           0           2           1           2           0           0
 AtZEff=   0.0000000   0.0000000   0.0000000   0.0000000   0.0000000   0.0000000   0.0000000   0.0000000   0.0000000   0.0000000
 NQMom=    0.0000000   2.0440000   0.0000000   0.0000000   0.0000000   2.0440000   0.0000000   2.0440000   0.0000000   0.0000000
 NMagM=    0.0000000   0.4037610   0.0000000   0.0000000   0.0000000   0.4037610   2.7928460   0.4037610   0.0000000   0.0000000
 AtZNuc=   8.0000000   7.0000000   8.0000000   6.0000000   6.0000000   7.0000000   1.0000000   7.0000000   6.0000000   6.0000000

  Atom        11          12          13          14          15          16          17          18          19          20
 IAtWgt=           1          12           1          12           1          12           1          12           1           1
 AtmWgt=   1.0078250  12.0000000   1.0078250  12.0000000   1.0078250  12.0000000   1.0078250  12.0000000   1.0078250   1.0078250
 NucSpn=           1           0           1           0           1           0           1           0           1           1
 AtZEff=   0.0000000   0.0000000   0.0000000   0.0000000   0.0000000   0.0000000   0.0000000   0.0000000   0.0000000   0.0000000
 NQMom=    0.0000000   0.0000000   0.0000000   0.0000000   0.0000000   0.0000000   0.0000000   0.0000000   0.0000000   0.0000000
 NMagM=    2.7928460   0.0000000   2.7928460   0.0000000   2.7928460   0.0000000   2.7928460   0.0000000   2.7928460   2.7928460
 AtZNuc=   1.0000000   6.0000000   1.0000000   6.0000000   1.0000000   6.0000000   1.0000000   6.0000000   1.0000000   1.0000000

  Atom        21          22          23          24          25
 IAtWgt=           1          12           1           1           1
 AtmWgt=   1.0078250  12.0000000   1.0078250   1.0078250   1.0078250
 NucSpn=           1           0           1           1           1
 AtZEff=   0.0000000   0.0000000   0.0000000   0.0000000   0.0000000
 NQMom=    0.0000000   0.0000000   0.0000000   0.0000000   0.0000000
 NMagM=    2.7928460   0.0000000   2.7928460   2.7928460   2.7928460
 AtZNuc=   1.0000000   6.0000000   1.0000000   1.0000000   1.0000000
 Leave Link  101 at Fri Aug 20 15:57:23 2021, MaxMem= 24159191040 cpu:        10.1
 (Enter /public/home/users/caep010/software/Gaussian09/g09/l103.exe)

 GradGradGradGradGradGradGradGradGradGradGradGradGradGradGradGradGradGrad
 Berny optimization.
 Initialization pass.
                           ----------------------------
                           !    Initial Parameters    !
                           ! (Angstroms and Degrees)  !
 --------------------------                            --------------------------
 ! Name  Definition              Value          Derivative Info.                !
 --------------------------------------------------------------------------------
 ! R1    R(1,2)                  1.2367         estimate D2E/DX2                !
 ! R2    R(2,3)                  1.2415         estimate D2E/DX2                !
 ! R3    R(2,4)                  1.4479         estimate D2E/DX2                !
 ! R4    R(4,5)                  1.4154         estimate D2E/DX2                !
 ! R5    R(4,16)                 1.4002         estimate D2E/DX2                !
 ! R6    R(5,6)                  1.3637         estimate D2E/DX2                !
 ! R7    R(5,9)                  1.4135         estimate D2E/DX2                !
 ! R8    R(6,7)                  0.8602         estimate D2E/DX2                !
 ! R9    R(6,8)                  1.3876         estimate D2E/DX2                !
 ! R10   R(8,10)                 1.2811         estimate D2E/DX2                !
 ! R11   R(9,11)                 0.9301         estimate D2E/DX2                !
 ! R12   R(9,12)                 1.3709         estimate D2E/DX2                !
 ! R13   R(10,18)                1.495          estimate D2E/DX2                !
 ! R14   R(10,22)                1.4972         estimate D2E/DX2                !
 ! R15   R(12,13)                0.93           estimate D2E/DX2                !
 ! R16   R(12,14)                1.3855         estimate D2E/DX2                !
 ! R17   R(14,15)                0.9307         estimate D2E/DX2                !
 ! R18   R(14,16)                1.362          estimate D2E/DX2                !
 ! R19   R(16,17)                0.93           estimate D2E/DX2                !
 ! R20   R(18,19)                0.9592         estimate D2E/DX2                !
 ! R21   R(18,20)                0.9606         estimate D2E/DX2                !
 ! R22   R(18,21)                0.9597         estimate D2E/DX2                !
 ! R23   R(22,23)                0.96           estimate D2E/DX2                !
 ! R24   R(22,24)                0.96           estimate D2E/DX2                !
 ! R25   R(22,25)                0.9609         estimate D2E/DX2                !
 ! A1    A(1,2,3)              121.7383         estimate D2E/DX2                !
 ! A2    A(1,2,4)              118.7359         estimate D2E/DX2                !
 ! A3    A(3,2,4)              119.5246         estimate D2E/DX2                !
 ! A4    A(2,4,5)              121.5832         estimate D2E/DX2                !
 ! A5    A(2,4,16)             117.0726         estimate D2E/DX2                !
 ! A6    A(5,4,16)             121.3269         estimate D2E/DX2                !
 ! A7    A(4,5,6)              123.5999         estimate D2E/DX2                !
 ! A8    A(4,5,9)              116.2345         estimate D2E/DX2                !
 ! A9    A(6,5,9)              120.1595         estimate D2E/DX2                !
 ! A10   A(5,6,7)              120.0623         estimate D2E/DX2                !
 ! A11   A(5,6,8)              119.8689         estimate D2E/DX2                !
 ! A12   A(7,6,8)              120.0688         estimate D2E/DX2                !
 ! A13   A(6,8,10)             116.7209         estimate D2E/DX2                !
 ! A14   A(5,9,11)             119.4738         estimate D2E/DX2                !
 ! A15   A(5,9,12)             121.0735         estimate D2E/DX2                !
 ! A16   A(11,9,12)            119.4527         estimate D2E/DX2                !
 ! A17   A(8,10,18)            125.8013         estimate D2E/DX2                !
 ! A18   A(8,10,22)            117.3504         estimate D2E/DX2                !
 ! A19   A(18,10,22)           116.8475         estimate D2E/DX2                !
 ! A20   A(9,12,13)            119.1799         estimate D2E/DX2                !
 ! A21   A(9,12,14)            121.6479         estimate D2E/DX2                !
 ! A22   A(13,12,14)           119.1722         estimate D2E/DX2                !
 ! A23   A(12,14,15)           120.4088         estimate D2E/DX2                !
 ! A24   A(12,14,16)           119.1878         estimate D2E/DX2                !
 ! A25   A(15,14,16)           120.4034         estimate D2E/DX2                !
 ! A26   A(4,16,14)            120.5061         estimate D2E/DX2                !
 ! A27   A(4,16,17)            119.7587         estimate D2E/DX2                !
 ! A28   A(14,16,17)           119.7352         estimate D2E/DX2                !
 ! A29   A(10,18,19)           109.4878         estimate D2E/DX2                !
 ! A30   A(10,18,20)           109.4665         estimate D2E/DX2                !
 ! A31   A(10,18,21)           109.4757         estimate D2E/DX2                !
 ! A32   A(19,18,20)           109.4948         estimate D2E/DX2                !
 ! A33   A(19,18,21)           109.4451         estimate D2E/DX2                !
 ! A34   A(20,18,21)           109.4574         estimate D2E/DX2                !
 ! A35   A(10,22,23)           109.5212         estimate D2E/DX2                !
 ! A36   A(10,22,24)           109.4767         estimate D2E/DX2                !
 ! A37   A(10,22,25)           109.5129         estimate D2E/DX2                !
 ! A38   A(23,22,24)           109.545          estimate D2E/DX2                !
 ! A39   A(23,22,25)           109.3895         estimate D2E/DX2                !
 ! A40   A(24,22,25)           109.382          estimate D2E/DX2                !
 ! D1    D(1,2,4,5)           -171.03           estimate D2E/DX2                !
 ! D2    D(1,2,4,16)             7.4787         estimate D2E/DX2                !
 ! D3    D(3,2,4,5)              8.5862         estimate D2E/DX2                !
 ! D4    D(3,2,4,16)          -172.9051         estimate D2E/DX2                !
 ! D5    D(2,4,5,6)             -1.7025         estimate D2E/DX2                !
 ! D6    D(2,4,5,9)            177.4037         estimate D2E/DX2                !
 ! D7    D(16,4,5,6)           179.852          estimate D2E/DX2                !
 ! D8    D(16,4,5,9)            -1.0418         estimate D2E/DX2                !
 ! D9    D(2,4,16,14)         -178.8324         estimate D2E/DX2                !
 ! D10   D(2,4,16,17)            1.1206         estimate D2E/DX2                !
 ! D11   D(5,4,16,14)           -0.3196         estimate D2E/DX2                !
 ! D12   D(5,4,16,17)          179.6334         estimate D2E/DX2                !
 ! D13   D(4,5,6,7)             -4.8438         estimate D2E/DX2                !
 ! D14   D(4,5,6,8)            175.1351         estimate D2E/DX2                !
 ! D15   D(9,5,6,7)            176.0834         estimate D2E/DX2                !
 ! D16   D(9,5,6,8)             -3.9377         estimate D2E/DX2                !
 ! D17   D(4,5,9,11)          -178.4371         estimate D2E/DX2                !
 ! D18   D(4,5,9,12)             1.5972         estimate D2E/DX2                !
 ! D19   D(6,5,9,11)             0.702          estimate D2E/DX2                !
 ! D20   D(6,5,9,12)          -179.2637         estimate D2E/DX2                !
 ! D21   D(5,6,8,10)          -172.9821         estimate D2E/DX2                !
 ! D22   D(7,6,8,10)             6.9967         estimate D2E/DX2                !
 ! D23   D(6,8,10,18)            0.0112         estimate D2E/DX2                !
 ! D24   D(6,8,10,22)         -179.6725         estimate D2E/DX2                !
 ! D25   D(5,9,12,13)          179.1893         estimate D2E/DX2                !
 ! D26   D(5,9,12,14)           -0.8228         estimate D2E/DX2                !
 ! D27   D(11,9,12,13)          -0.7764         estimate D2E/DX2                !
 ! D28   D(11,9,12,14)         179.2115         estimate D2E/DX2                !
 ! D29   D(8,10,18,19)         162.5004         estimate D2E/DX2                !
 ! D30   D(8,10,18,20)          42.4643         estimate D2E/DX2                !
 ! D31   D(8,10,18,21)         -77.5186         estimate D2E/DX2                !
 ! D32   D(22,10,18,19)        -17.8145         estimate D2E/DX2                !
 ! D33   D(22,10,18,20)       -137.8506         estimate D2E/DX2                !
 ! D34   D(22,10,18,21)        102.1665         estimate D2E/DX2                !
 ! D35   D(8,10,22,23)        -121.7371         estimate D2E/DX2                !
 ! D36   D(8,10,22,24)         118.1385         estimate D2E/DX2                !
 ! D37   D(8,10,22,25)          -1.781          estimate D2E/DX2                !
 ! D38   D(18,10,22,23)         58.5505         estimate D2E/DX2                !
 ! D39   D(18,10,22,24)        -61.574          estimate D2E/DX2                !
 ! D40   D(18,10,22,25)        178.5065         estimate D2E/DX2                !
 ! D41   D(9,12,14,15)         179.3555         estimate D2E/DX2                !
 ! D42   D(9,12,14,16)          -0.6057         estimate D2E/DX2                !
 ! D43   D(13,12,14,15)         -0.6566         estimate D2E/DX2                !
 ! D44   D(13,12,14,16)        179.3821         estimate D2E/DX2                !
 ! D45   D(12,14,16,4)           1.1615         estimate D2E/DX2                !
 ! D46   D(12,14,16,17)       -178.7916         estimate D2E/DX2                !
 ! D47   D(15,14,16,4)        -178.7997         estimate D2E/DX2                !
 ! D48   D(15,14,16,17)          1.2472         estimate D2E/DX2                !
 --------------------------------------------------------------------------------
 Trust Radius=3.00D-01 FncErr=1.00D-07 GrdErr=1.00D-06
 Number of steps in this run=    123 maximum allowed number of steps=    150.
 GradGradGradGradGradGradGradGradGradGradGradGradGradGradGradGradGradGrad

 Leave Link  103 at Fri Aug 20 15:57:23 2021, MaxMem= 24159191040 cpu:         0.5
 (Enter /public/home/users/caep010/software/Gaussian09/g09/l202.exe)
                          Input orientation:                          
 ---------------------------------------------------------------------
 Center     Atomic      Atomic             Coordinates (Angstroms)
 Number     Number       Type             X           Y           Z
 ---------------------------------------------------------------------
      1          8           0        3.015300    2.755100    0.020400
      2          7           0        3.963200    1.960900    0.031600
      3          8           0        4.332200    1.399100    1.075400
      4          6           0        4.649500    1.678500   -1.211700
      5          6           0        5.613800    0.647000   -1.308400
      6          7           0        5.996100   -0.129900   -0.254800
      7          1           0        5.693700    0.034100    0.533600
      8          7           0        6.873500   -1.185700   -0.457200
      9          6           0        6.172400    0.431900   -2.588900
     10          6           0        7.084300   -1.959200    0.542100
     11          1           0        6.794400   -0.249200   -2.708300
     12          6           0        5.812800    1.211400   -3.657800
     13          1           0        6.205300    1.054100   -4.486100
     14          6           0        4.879000    2.227600   -3.535000
     15          1           0        4.654200    2.752200   -4.270200
     16          6           0        4.294600    2.450000   -2.325000
     17          1           0        3.654500    3.119000   -2.237900
     18          6           0        6.470100   -1.823000    1.898300
     19          1           0        6.561700   -2.650000    2.375600
     20          1           0        5.538600   -1.606700    1.807600
     21          1           0        6.915000   -1.123800    2.382300
     22          6           0        8.034500   -3.098700    0.341500
     23          1           0        7.585600   -3.927000    0.526000
     24          1           0        8.782700   -2.999800    0.934800
     25          1           0        8.346300   -3.100400   -0.567400
 ---------------------------------------------------------------------
                    Distance matrix (angstroms):
                    1          2          3          4          5
     1  O    0.000000
     2  N    1.236686   0.000000
     3  O    2.164714   1.241491   0.000000
     4  C    2.312520   1.447948   2.325848   0.000000
     5  C    3.600277   2.499283   2.809031   1.415351   0.000000
     6  N    4.157419   2.930214   2.622182   2.449347   1.363745
     7  H    3.852407   2.638028   2.002612   2.615431   1.942934
     8  N    5.535676   4.313915   3.935513   3.703929   2.381213
     9  C    4.708820   3.753056   4.212945   2.402065   1.413500
    10  C    6.249284   5.036771   4.374545   4.715605   3.518380
    11  H    5.545558   4.517443   4.805799   3.249067   2.038801
    12  C    4.872183   4.194573   4.962922   2.748610   2.424423
    13  H    5.777373   5.124345   5.878589   3.678598   3.257818
    14  C    4.048766   3.691944   4.716057   2.398313   2.827716
    15  H    4.592957   4.428219   5.523586   3.241493   3.758319
    16  C    2.688977   2.429528   3.559287   1.400215   2.454501
    17  H    2.375062   2.566539   3.794113   2.029323   3.288406
    18  C    6.034994   4.907852   3.953443   5.024658   4.137279
    19  H    6.880336   5.788518   4.801708   5.938109   5.033943
    20  H    5.346628   4.285304   3.320595   4.549638   3.846333
    21  H    5.985992   4.873837   3.839774   5.089422   4.295360
    22  C    7.717671   6.501621   5.871613   6.057417   4.755232
    23  H    8.111334   6.930626   6.265285   6.562158   5.307965
    24  H    8.198653   6.975091   6.259156   6.601310   5.326633
    25  H    7.940526   6.722137   6.249583   6.076129   4.696663
                    6          7          8          9         10
     6  N    0.000000
     7  H    0.860184   0.000000
     8  N    1.387628   1.965076   0.000000
     9  C    2.407223   3.183929   2.766282   0.000000
    10  C    2.272788   2.430450   1.281148   4.043771   0.000000
    11  H    2.582862   3.435362   2.439414   0.930074   3.684188
    12  C    3.662389   4.355233   4.137030   1.370941   5.413740
    13  H    4.398809   5.147769   4.657814   1.996893   5.927513
    14  C    4.191113   4.693473   5.010140   2.406767   6.246230
    15  H    5.121585   5.616504   5.913655   3.242760   7.159672
    16  C    3.719773   3.995704   4.832982   2.769206   5.953464
    17  H    4.468907   4.621272   5.662446   3.699125   6.729045
    18  C    2.779767   2.431877   2.473310   5.030722   1.495015
    19  H    3.686436   3.369092   3.204083   5.856272   2.027816
    20  H    2.577545   2.083112   2.662427   4.887413   2.028530
    21  H    2.964205   2.500000   2.840478   5.261605   2.028027
    22  C    3.650263   3.915442   2.376008   4.951747   1.497191
    23  H    4.189765   4.389722   2.998082   5.540735   2.030714
    24  H    4.173322   4.348268   2.978870   5.568365   2.030178
    25  H    3.800662   4.251303   2.418132   4.614049   2.031249
                   11         12         13         14         15
    11  H    0.000000
    12  C    1.999610   0.000000
    13  H    2.281710   0.929989   0.000000
    14  C    3.238322   1.385541   2.010165   0.000000
    15  H    4.003547   2.022734   2.309993   0.930730   0.000000
    16  C    3.698865   2.369687   3.204632   1.362015   2.001110
    17  H    4.628717   3.211435   3.978039   1.994107   2.294381
    18  C    4.878809   6.364737   7.007738   6.961301   7.891789
    19  H    5.627080   7.202304   7.805787   7.845869   8.774336
    20  H    4.879876   6.155280   6.865494   6.609108   7.531389
    21  H    5.166592   6.568928   7.240293   7.098705   8.024360
    22  C    4.354168   6.285484   6.625514   7.304376   8.180907
    23  H    4.961140   6.859312   7.199842   7.854712   8.729740
    24  H    4.979088   6.902643   7.243152   7.908457   8.787607
    25  H    3.888597   5.878845   6.099177   7.015440   7.848265
                   16         17         18         19         20
    16  C    0.000000
    17  H    0.929987   0.000000
    18  C    6.389647   7.032718   0.000000
    19  H    7.296943   7.938360   0.959237   0.000000
    20  H    5.923068   6.499857   0.960575   1.567748   0.000000
    21  H    6.465077   7.069545   0.959725   1.566573   1.567785
    22  C    7.203134   8.031033   2.549193   2.551085   3.256537
    23  H    7.721723   8.528705   2.748520   2.469842   3.349104
    24  H    7.776224   8.590936   2.767907   2.670413   3.636852
    25  H    7.093121   7.967716   3.351351   3.471153   3.969250
                   21         22         23         24         25
    21  H    0.000000
    22  C    3.052601   0.000000
    23  H    3.428335   0.960017   0.000000
    24  H    3.017107   0.959994   1.568396   0.000000
    25  H    3.828354   0.960896   1.567627   1.567536   0.000000
 Stoichiometry    C9H11N3O2
 Framework group  C1[X(C9H11N3O2)]
 Deg. of freedom    69
 Full point group                 C1      NOp   1
 Largest Abelian subgroup         C1      NOp   1
 Largest concise Abelian subgroup C1      NOp   1
                         Standard orientation:                         
 ---------------------------------------------------------------------
 Center     Atomic      Atomic             Coordinates (Angstroms)
 Number     Number       Type             X           Y           Z
 ---------------------------------------------------------------------
      1          8           0       -2.710493    2.267724    0.198715
      2          7           0       -1.639492    1.683890   -0.004968
      3          8           0       -0.579895    2.306110   -0.182160
      4          6           0       -1.629121    0.236152   -0.027331
      5          6           0       -0.418478   -0.495934   -0.067478
      6          7           0        0.813778    0.085778   -0.121833
      7          1           0        0.884199    0.939843   -0.196201
      8          7           0        1.953710   -0.702763   -0.056494
      9          6           0       -0.538072   -1.903831   -0.028667
     10          6           0        3.074971   -0.088644    0.026999
     11          1           0        0.229845   -2.428556   -0.030595
     12          6           0       -1.767724   -2.508692    0.011078
     13          1           0       -1.816013   -3.437328    0.024584
     14          6           0       -2.940412   -1.771064    0.031879
     15          1           0       -3.766348   -2.199742    0.049833
     16          6           0       -2.869764   -0.410900    0.024926
     17          1           0       -3.651593    0.091760    0.055784
     18          6           0        3.259394    1.394583    0.060087
     19          1           0        4.134664    1.600855    0.393988
     20          1           0        2.596630    1.786845    0.634176
     21          1           0        3.164119    1.748737   -0.826801
     22          6           0        4.314646   -0.925738    0.090721
     23          1           0        4.796162   -0.725060    0.896639
     24          1           0        4.868520   -0.735892   -0.670050
     25          1           0        4.074305   -1.856079    0.085975
 ---------------------------------------------------------------------
 Rotational constants (GHZ):      1.1210503      0.4601411      0.3280249
 Leave Link  202 at Fri Aug 20 15:57:23 2021, MaxMem= 24159191040 cpu:         1.2
 (Enter /public/home/users/caep010/software/Gaussian09/g09/l301.exe)
 Standard basis: 6-31G(d,p) (6D, 7F)
 Ernie: Thresh=  0.10000D-02 Tol=  0.10000D-05 Strict=F.
 There are   265 symmetry adapted cartesian basis functions of A   symmetry.
 There are   265 symmetry adapted basis functions of A   symmetry.
   265 basis functions,   469 primitive gaussians,   265 cartesian basis functions
    51 alpha electrons       51 beta electrons
       nuclear repulsion energy       877.0327444633 Hartrees.
 IExCor=  402 DFT=T Ex+Corr=B3LYP ExCW=0 ScaHFX=  0.200000
 ScaDFX=  0.800000  0.720000  1.000000  0.810000 ScalE2=  1.000000  1.000000
 IRadAn=      0 IRanWt=     -1 IRanGd=            0 ICorTp=0 IEmpDi=  4
 NAtoms=   25 NActive=   25 NUniq=   25 SFac= 1.00D+00 NAtFMM=   60 NAOKFM=F Big=F
 Integral buffers will be    131072 words long.
 Raffenetti 2 integral format.
 Two-electron integral symmetry is turned on.
 Leave Link  301 at Fri Aug 20 15:57:23 2021, MaxMem= 24159191040 cpu:         1.8
 (Enter /public/home/users/caep010/software/Gaussian09/g09/l302.exe)
 NPDir=0 NMtPBC=     1 NCelOv=     1 NCel=       1 NClECP=     1 NCelD=      1
         NCelK=      1 NCelE2=     1 NClLst=     1 CellRange=     0.0.
 One-electron integrals computed using PRISM.
 NBasis=   265 RedAO= T EigKep=  3.19D-04  NBF=   265
 NBsUse=   265 1.00D-06 EigRej= -1.00D+00 NBFU=   265
 Precomputing XC quadrature grid using
 IXCGrd= 4 IRadAn=           0 IRanWt=          -1 IRanGd=           0 AccXCQ= 0.00D+00.
 Generated NRdTot=       0 NPtTot=           0 NUsed=           0 NTot=          32
 NSgBfM=   264   264   264   264   264 MxSgAt=    25 MxSgA2=    25.
 Leave Link  302 at Fri Aug 20 15:57:24 2021, MaxMem= 24159191040 cpu:        13.9
 (Enter /public/home/users/caep010/software/Gaussian09/g09/l303.exe)
 DipDrv:  MaxL=1.
 Leave Link  303 at Fri Aug 20 15:57:24 2021, MaxMem= 24159191040 cpu:         1.0
 (Enter /public/home/users/caep010/software/Gaussian09/g09/l401.exe)
 ExpMin= 1.61D-01 ExpMax= 5.48D+03 ExpMxC= 8.25D+02 IAcc=1 IRadAn=         1 AccDes= 0.00D+00
 Harris functional with IExCor=  402 and IRadAn=       1 diagonalized for initial guess.
 HarFok:  IExCor=  402 AccDes= 0.00D+00 IRadAn=         1 IDoV= 1 UseB2=F ITyADJ=14
 ICtDFT=  3500011 ScaDFX=  1.000000  1.000000  1.000000  1.000000
 FoFCou: FMM=F IPFlag=           0 FMFlag=      100000 FMFlg1=           0
         NFxFlg=           0 DoJE=T BraDBF=F KetDBF=T FulRan=T
         wScrn=  0.000000 ICntrl=     500 IOpCl=  0 I1Cent=   200000004 NGrid=           0
         NMat0=    1 NMatS0=      1 NMatT0=    0 NMatD0=    1 NMtDS0=    0 NMtDT0=    0
 Petite list used in FoFCou.
 Harris En= -664.166355805385    
 JPrj=0 DoOrth=F DoCkMO=F.
 Leave Link  401 at Fri Aug 20 15:57:24 2021, MaxMem= 24159191040 cpu:        12.5
 (Enter /public/home/users/caep010/software/Gaussian09/g09/l502.exe)
 Closed shell SCF:
 Using DIIS extrapolation, IDIIS=  1040.
 Integral symmetry usage will be decided dynamically.
 Keep R1 ints in memory in canonical form, NReq=630772749.
 IVT=      239699 IEndB=      239699 NGot= 24159191040 MDV= 23537828707
 LenX= 23537828707 LenY= 23537758041
 Requested convergence on RMS density matrix=1.00D-08 within 128 cycles.
 Requested convergence on MAX density matrix=1.00D-06.
 Requested convergence on             energy=1.00D-06.
 No special actions if energy rises.
 FoFCou: FMM=F IPFlag=           0 FMFlag=           0 FMFlg1=           0
         NFxFlg=           0 DoJE=F BraDBF=F KetDBF=F FulRan=T
         wScrn=  0.000000 ICntrl=     600 IOpCl=  0 I1Cent=           0 NGrid=           0
         NMat0=    1 NMatS0=  35245 NMatT0=    0 NMatD0=    1 NMtDS0=    0 NMtDT0=    0
 Symmetry not used in FoFCou.
 Integral accuracy reduced to 1.0D-05 until final iterations.

 Cycle   1  Pass 0  IDiag  1:
 E= -663.436621493214    
 DIIS: error= 5.40D-02 at cycle   1 NSaved=   1.
 NSaved= 1 IEnMin= 1 EnMin= -663.436621493214     IErMin= 1 ErrMin= 5.40D-02
 ErrMax= 5.40D-02  0.00D+00 EMaxC= 1.00D-01 BMatC= 5.96D-01 BMatP= 5.96D-01
 IDIUse=3 WtCom= 4.60D-01 WtEn= 5.40D-01
 Coeff-Com:  0.100D+01
 Coeff-En:   0.100D+01
 Coeff:      0.100D+01
 Gap=     0.160 Goal=   None    Shift=    0.000
 GapD=    0.160 DampG=1.000 DampE=0.500 DampFc=0.5000 IDamp=-1.
 Damping current iteration by 5.00D-01
 RMSDP=6.34D-03 MaxDP=2.75D-01              OVMax= 3.41D-01

 Cycle   2  Pass 0  IDiag  1:
 E= -663.580602960798     Delta-E=       -0.143981467584 Rises=F Damp=T
 DIIS: error= 2.24D-02 at cycle   2 NSaved=   2.
 NSaved= 2 IEnMin= 2 EnMin= -663.580602960798     IErMin= 2 ErrMin= 2.24D-02
 ErrMax= 2.24D-02  0.00D+00 EMaxC= 1.00D-01 BMatC= 1.01D-01 BMatP= 5.96D-01
 IDIUse=3 WtCom= 7.76D-01 WtEn= 2.24D-01
 Coeff-Com:  0.221D+00 0.779D+00
 Coeff-En:   0.350D+00 0.650D+00
 Coeff:      0.250D+00 0.750D+00
 Gap=     0.134 Goal=   None    Shift=    0.000
 RMSDP=2.30D-03 MaxDP=9.44D-02 DE=-1.44D-01 OVMax= 3.04D-01

 Cycle   3  Pass 0  IDiag  1:
 E= -663.915556475729     Delta-E=       -0.334953514931 Rises=F Damp=F
 DIIS: error= 1.87D-02 at cycle   3 NSaved=   3.
 NSaved= 3 IEnMin= 3 EnMin= -663.915556475729     IErMin= 3 ErrMin= 1.87D-02
 ErrMax= 1.87D-02  0.00D+00 EMaxC= 1.00D-01 BMatC= 7.22D-02 BMatP= 1.01D-01
 IDIUse=3 WtCom= 8.13D-01 WtEn= 1.87D-01
 Coeff-Com:  0.751D-01 0.445D+00 0.479D+00
 Coeff-En:   0.000D+00 0.000D+00 0.100D+01
 Coeff:      0.611D-01 0.362D+00 0.577D+00
 Gap=     0.137 Goal=   None    Shift=    0.000
 RMSDP=1.59D-03 MaxDP=7.68D-02 DE=-3.35D-01 OVMax= 1.40D-01

 Cycle   4  Pass 0  IDiag  1:
 E= -663.946152966753     Delta-E=       -0.030596491024 Rises=F Damp=F
 DIIS: error= 2.42D-02 at cycle   4 NSaved=   4.
 NSaved= 4 IEnMin= 4 EnMin= -663.946152966753     IErMin= 3 ErrMin= 1.87D-02
 ErrMax= 2.42D-02  0.00D+00 EMaxC= 1.00D-01 BMatC= 4.37D-02 BMatP= 7.22D-02
 IDIUse=3 WtCom= 7.58D-01 WtEn= 2.42D-01
 Coeff-Com:  0.381D-01 0.184D+00 0.413D+00 0.365D+00
 Coeff-En:   0.000D+00 0.000D+00 0.382D+00 0.618D+00
 Coeff:      0.289D-01 0.139D+00 0.405D+00 0.427D+00
 Gap=     0.127 Goal=   None    Shift=    0.000
 RMSDP=8.92D-04 MaxDP=6.20D-02 DE=-3.06D-02 OVMax= 1.20D-01

 Cycle   5  Pass 0  IDiag  1:
 E= -663.975750231881     Delta-E=       -0.029597265128 Rises=F Damp=F
 DIIS: error= 1.13D-02 at cycle   5 NSaved=   5.
 NSaved= 5 IEnMin= 5 EnMin= -663.975750231881     IErMin= 5 ErrMin= 1.13D-02
 ErrMax= 1.13D-02  0.00D+00 EMaxC= 1.00D-01 BMatC= 9.19D-03 BMatP= 4.37D-02
 IDIUse=3 WtCom= 8.87D-01 WtEn= 1.13D-01
 Coeff-Com:  0.137D-01 0.202D-01 0.211D+00 0.348D+00 0.407D+00
 Coeff-En:   0.000D+00 0.000D+00 0.000D+00 0.201D+00 0.799D+00
 Coeff:      0.121D-01 0.179D-01 0.187D+00 0.332D+00 0.451D+00
 Gap=     0.133 Goal=   None    Shift=    0.000
 RMSDP=3.72D-04 MaxDP=2.40D-02 DE=-2.96D-02 OVMax= 4.88D-02

 Cycle   6  Pass 0  IDiag  1:
 E= -663.982635775702     Delta-E=       -0.006885543821 Rises=F Damp=F
 DIIS: error= 2.18D-03 at cycle   6 NSaved=   6.
 NSaved= 6 IEnMin= 6 EnMin= -663.982635775702     IErMin= 6 ErrMin= 2.18D-03
 ErrMax= 2.18D-03  0.00D+00 EMaxC= 1.00D-01 BMatC= 7.20D-04 BMatP= 9.19D-03
 IDIUse=3 WtCom= 9.78D-01 WtEn= 2.18D-02
 Coeff-Com:  0.281D-02-0.227D-02 0.733D-01 0.156D+00 0.293D+00 0.477D+00
 Coeff-En:   0.000D+00 0.000D+00 0.000D+00 0.000D+00 0.911D-01 0.909D+00
 Coeff:      0.275D-02-0.222D-02 0.717D-01 0.153D+00 0.288D+00 0.487D+00
 Gap=     0.135 Goal=   None    Shift=    0.000
 RMSDP=1.05D-04 MaxDP=5.83D-03 DE=-6.89D-03 OVMax= 9.09D-03

 Cycle   7  Pass 0  IDiag  1:
 E= -663.983243233323     Delta-E=       -0.000607457622 Rises=F Damp=F
 DIIS: error= 2.09D-04 at cycle   7 NSaved=   7.
 NSaved= 7 IEnMin= 7 EnMin= -663.983243233323     IErMin= 7 ErrMin= 2.09D-04
 ErrMax= 2.09D-04  0.00D+00 EMaxC= 1.00D-01 BMatC= 2.88D-05 BMatP= 7.20D-04
 IDIUse=3 WtCom= 9.98D-01 WtEn= 2.09D-03
 Coeff-Com: -0.263D-04-0.273D-02 0.128D-01 0.357D-01 0.984D-01 0.262D+00
 Coeff-Com:  0.594D+00
 Coeff-En:   0.000D+00 0.000D+00 0.000D+00 0.000D+00 0.000D+00 0.000D+00
 Coeff-En:   0.100D+01
 Coeff:     -0.263D-04-0.272D-02 0.128D-01 0.356D-01 0.982D-01 0.261D+00
 Coeff:      0.595D+00
 Gap=     0.134 Goal=   None    Shift=    0.000
 RMSDP=2.47D-05 MaxDP=9.42D-04 DE=-6.07D-04 OVMax= 2.23D-03

 Cycle   8  Pass 0  IDiag  1:
 E= -663.983267163104     Delta-E=       -0.000023929781 Rises=F Damp=F
 DIIS: error= 1.20D-04 at cycle   8 NSaved=   8.
 NSaved= 8 IEnMin= 8 EnMin= -663.983267163104     IErMin= 8 ErrMin= 1.20D-04
 ErrMax= 1.20D-04  0.00D+00 EMaxC= 1.00D-01 BMatC= 4.18D-06 BMatP= 2.88D-05
 IDIUse=3 WtCom= 9.99D-01 WtEn= 1.20D-03
 Coeff-Com: -0.209D-03-0.143D-02 0.264D-02 0.104D-01 0.386D-01 0.123D+00
 Coeff-Com:  0.366D+00 0.460D+00
 Coeff-En:   0.000D+00 0.000D+00 0.000D+00 0.000D+00 0.000D+00 0.000D+00
 Coeff-En:   0.703D-01 0.930D+00
 Coeff:     -0.209D-03-0.143D-02 0.263D-02 0.103D-01 0.385D-01 0.123D+00
 Coeff:      0.366D+00 0.461D+00
 Gap=     0.134 Goal=   None    Shift=    0.000
 RMSDP=9.81D-06 MaxDP=5.26D-04 DE=-2.39D-05 OVMax= 8.53D-04

 Initial convergence to 1.0D-05 achieved.  Increase integral accuracy.
 Cycle   9  Pass 1  IDiag  1:
 E= -663.983281288859     Delta-E=       -0.000014125756 Rises=F Damp=F
 DIIS: error= 3.67D-05 at cycle   1 NSaved=   1.
 NSaved= 1 IEnMin= 1 EnMin= -663.983281288859     IErMin= 1 ErrMin= 3.67D-05
 ErrMax= 3.67D-05  0.00D+00 EMaxC= 1.00D-01 BMatC= 4.63D-07 BMatP= 4.63D-07
 IDIUse=1 WtCom= 1.00D+00 WtEn= 0.00D+00
 Coeff-Com:  0.100D+01
 Coeff:      0.100D+01
 Gap=     0.134 Goal=   None    Shift=    0.000
 RMSDP=9.81D-06 MaxDP=5.26D-04 DE=-1.41D-05 OVMax= 7.61D-04

 Cycle  10  Pass 1  IDiag  1:
 E= -663.983280134877     Delta-E=        0.000001153983 Rises=F Damp=F
 DIIS: error= 7.95D-05 at cycle   2 NSaved=   2.
 NSaved= 2 IEnMin= 1 EnMin= -663.983281288859     IErMin= 1 ErrMin= 3.67D-05
 ErrMax= 7.95D-05  0.00D+00 EMaxC= 1.00D-01 BMatC= 1.70D-06 BMatP= 4.63D-07
 IDIUse=1 WtCom= 1.00D+00 WtEn= 0.00D+00
 Coeff-Com:  0.664D+00 0.336D+00
 Coeff:      0.664D+00 0.336D+00
 Gap=     0.134 Goal=   None    Shift=    0.000
 RMSDP=5.21D-06 MaxDP=2.71D-04 DE= 1.15D-06 OVMax= 5.27D-04

 Cycle  11  Pass 1  IDiag  1:
 E= -663.983281741786     Delta-E=       -0.000001606909 Rises=F Damp=F
 DIIS: error= 1.30D-05 at cycle   3 NSaved=   3.
 NSaved= 3 IEnMin= 3 EnMin= -663.983281741786     IErMin= 3 ErrMin= 1.30D-05
 ErrMax= 1.30D-05  0.00D+00 EMaxC= 1.00D-01 BMatC= 2.72D-08 BMatP= 4.63D-07
 IDIUse=1 WtCom= 1.00D+00 WtEn= 0.00D+00
 Coeff-Com:  0.236D+00 0.157D+00 0.608D+00
 Coeff:      0.236D+00 0.157D+00 0.608D+00
 Gap=     0.134 Goal=   None    Shift=    0.000
 RMSDP=1.00D-06 MaxDP=5.46D-05 DE=-1.61D-06 OVMax= 9.75D-05

 Cycle  12  Pass 1  IDiag  1:
 E= -663.983281751474     Delta-E=       -0.000000009688 Rises=F Damp=F
 DIIS: error= 1.65D-05 at cycle   4 NSaved=   4.
 NSaved= 4 IEnMin= 4 EnMin= -663.983281751474     IErMin= 3 ErrMin= 1.30D-05
 ErrMax= 1.65D-05  0.00D+00 EMaxC= 1.00D-01 BMatC= 1.92D-08 BMatP= 2.72D-08
 IDIUse=1 WtCom= 1.00D+00 WtEn= 0.00D+00
 Coeff-Com:  0.481D-01 0.532D-01 0.468D+00 0.431D+00
 Coeff:      0.481D-01 0.532D-01 0.468D+00 0.431D+00
 Gap=     0.134 Goal=   None    Shift=    0.000
 RMSDP=5.75D-07 MaxDP=4.07D-05 DE=-9.69D-09 OVMax= 7.38D-05

 Cycle  13  Pass 1  IDiag  1:
 E= -663.983281764823     Delta-E=       -0.000000013348 Rises=F Damp=F
 DIIS: error= 6.16D-06 at cycle   5 NSaved=   5.
 NSaved= 5 IEnMin= 5 EnMin= -663.983281764823     IErMin= 5 ErrMin= 6.16D-06
 ErrMax= 6.16D-06  0.00D+00 EMaxC= 1.00D-01 BMatC= 3.33D-09 BMatP= 1.92D-08
 IDIUse=1 WtCom= 1.00D+00 WtEn= 0.00D+00
 Coeff-Com: -0.431D-02 0.123D-01 0.244D+00 0.325D+00 0.424D+00
 Coeff:     -0.431D-02 0.123D-01 0.244D+00 0.325D+00 0.424D+00
 Gap=     0.134 Goal=   None    Shift=    0.000
 RMSDP=2.13D-07 MaxDP=1.26D-05 DE=-1.33D-08 OVMax= 2.40D-05

 Cycle  14  Pass 1  IDiag  1:
 E= -663.983281767509     Delta-E=       -0.000000002686 Rises=F Damp=F
 DIIS: error= 5.57D-07 at cycle   6 NSaved=   6.
 NSaved= 6 IEnMin= 6 EnMin= -663.983281767509     IErMin= 6 ErrMin= 5.57D-07
 ErrMax= 5.57D-07  0.00D+00 EMaxC= 1.00D-01 BMatC= 1.27D-10 BMatP= 3.33D-09
 IDIUse=1 WtCom= 1.00D+00 WtEn= 0.00D+00
 Coeff-Com: -0.698D-02 0.167D-02 0.915D-01 0.140D+00 0.234D+00 0.539D+00
 Coeff:     -0.698D-02 0.167D-02 0.915D-01 0.140D+00 0.234D+00 0.539D+00
 Gap=     0.134 Goal=   None    Shift=    0.000
 RMSDP=5.36D-08 MaxDP=1.89D-06 DE=-2.69D-09 OVMax= 3.94D-06

 Cycle  15  Pass 1  IDiag  1:
 E= -663.983281767620     Delta-E=       -0.000000000111 Rises=F Damp=F
 DIIS: error= 1.61D-07 at cycle   7 NSaved=   7.
 NSaved= 7 IEnMin= 7 EnMin= -663.983281767620     IErMin= 7 ErrMin= 1.61D-07
 ErrMax= 1.61D-07  0.00D+00 EMaxC= 1.00D-01 BMatC= 1.29D-11 BMatP= 1.27D-10
 IDIUse=1 WtCom= 1.00D+00 WtEn= 0.00D+00
 Coeff-Com: -0.343D-02-0.801D-04 0.318D-01 0.521D-01 0.970D-01 0.304D+00
 Coeff-Com:  0.519D+00
 Coeff:     -0.343D-02-0.801D-04 0.318D-01 0.521D-01 0.970D-01 0.304D+00
 Coeff:      0.519D+00
 Gap=     0.134 Goal=   None    Shift=    0.000
 RMSDP=1.84D-08 MaxDP=7.25D-07 DE=-1.11D-10 OVMax= 2.01D-06

 Cycle  16  Pass 1  IDiag  1:
 E= -663.983281767650     Delta-E=       -0.000000000030 Rises=F Damp=F
 DIIS: error= 1.25D-07 at cycle   8 NSaved=   8.
 NSaved= 8 IEnMin= 8 EnMin= -663.983281767650     IErMin= 8 ErrMin= 1.25D-07
 ErrMax= 1.25D-07  0.00D+00 EMaxC= 1.00D-01 BMatC= 2.09D-12 BMatP= 1.29D-11
 IDIUse=1 WtCom= 1.00D+00 WtEn= 0.00D+00
 Coeff-Com: -0.890D-03-0.418D-03 0.371D-02 0.703D-02 0.182D-01 0.911D-01
 Coeff-Com:  0.312D+00 0.569D+00
 Coeff:     -0.890D-03-0.418D-03 0.371D-02 0.703D-02 0.182D-01 0.911D-01
 Coeff:      0.312D+00 0.569D+00
 Gap=     0.134 Goal=   None    Shift=    0.000
 RMSDP=6.75D-09 MaxDP=3.14D-07 DE=-2.96D-11 OVMax= 6.42D-07

 SCF Done:  E(RB3LYP) =  -663.983281768     A.U. after   16 cycles
            NFock= 16  Conv=0.67D-08     -V/T= 2.0046
 KE= 6.609392341549D+02 PE=-3.301947758297D+03 EE= 1.099992497912D+03
 Leave Link  502 at Fri Aug 20 15:57:43 2021, MaxMem= 24159191040 cpu:       154.5
 (Enter /public/home/users/caep010/software/Gaussian09/g09/l601.exe)
 Copying SCF densities to generalized density rwf, IOpCl= 0 IROHF=0.

 **********************************************************************

            Population analysis using the SCF density.

 **********************************************************************

 Orbital symmetries:
       Occupied  (A) (A) (A) (A) (A) (A) (A) (A) (A) (A) (A) (A)
                 (A) (A) (A) (A) (A) (A) (A) (A) (A) (A) (A) (A)
                 (A) (A) (A) (A) (A) (A) (A) (A) (A) (A) (A) (A)
                 (A) (A) (A) (A) (A) (A) (A) (A) (A) (A) (A) (A)
                 (A) (A) (A)
       Virtual   (A) (A) (A) (A) (A) (A) (A) (A) (A) (A) (A) (A)
                 (A) (A) (A) (A) (A) (A) (A) (A) (A) (A) (A) (A)
                 (A) (A) (A) (A) (A) (A) (A) (A) (A) (A) (A) (A)
                 (A) (A) (A) (A) (A) (A) (A) (A) (A) (A) (A) (A)
                 (A) (A) (A) (A) (A) (A) (A) (A) (A) (A) (A) (A)
                 (A) (A) (A) (A) (A) (A) (A) (A) (A) (A) (A) (A)
                 (A) (A) (A) (A) (A) (A) (A) (A) (A) (A) (A) (A)
                 (A) (A) (A) (A) (A) (A) (A) (A) (A) (A) (A) (A)
                 (A) (A) (A) (A) (A) (A) (A) (A) (A) (A) (A) (A)
                 (A) (A) (A) (A) (A) (A) (A) (A) (A) (A) (A) (A)
                 (A) (A) (A) (A) (A) (A) (A) (A) (A) (A) (A) (A)
                 (A) (A) (A) (A) (A) (A) (A) (A) (A) (A) (A) (A)
                 (A) (A) (A) (A) (A) (A) (A) (A) (A) (A) (A) (A)
                 (A) (A) (A) (A) (A) (A) (A) (A) (A) (A) (A) (A)
                 (A) (A) (A) (A) (A) (A) (A) (A) (A) (A) (A) (A)
                 (A) (A) (A) (A) (A) (A) (A) (A) (A) (A) (A) (A)
                 (A) (A) (A) (A) (A) (A) (A) (A) (A) (A) (A) (A)
                 (A) (A) (A) (A) (A) (A) (A) (A) (A) (A)
 The electronic state is 1-A.
 Alpha  occ. eigenvalues --  -19.16979 -19.16526 -14.56013 -14.38384 -14.36817
 Alpha  occ. eigenvalues --  -10.25868 -10.24114 -10.23756 -10.18910 -10.18587
 Alpha  occ. eigenvalues --  -10.17900 -10.17363 -10.16245 -10.15344  -1.20980
 Alpha  occ. eigenvalues --   -1.03676  -1.02636  -0.90220  -0.86265  -0.80861
 Alpha  occ. eigenvalues --   -0.78716  -0.76493  -0.74893  -0.70307  -0.64406
 Alpha  occ. eigenvalues --   -0.63804  -0.58915  -0.56793  -0.54286  -0.52031
 Alpha  occ. eigenvalues --   -0.51496  -0.50440  -0.49285  -0.48689  -0.47130
 Alpha  occ. eigenvalues --   -0.46070  -0.45298  -0.44267  -0.42301  -0.42229
 Alpha  occ. eigenvalues --   -0.39957  -0.38984  -0.37955  -0.36592  -0.30543
 Alpha  occ. eigenvalues --   -0.30024  -0.29063  -0.28704  -0.27553  -0.26840
 Alpha  occ. eigenvalues --   -0.21189
 Alpha virt. eigenvalues --   -0.07746  -0.01531   0.01454   0.02795   0.10621
 Alpha virt. eigenvalues --    0.12118   0.14642   0.15888   0.16133   0.17000
 Alpha virt. eigenvalues --    0.17767   0.18100   0.19102   0.20042   0.20741
 Alpha virt. eigenvalues --    0.21566   0.22252   0.22958   0.23545   0.26679
 Alpha virt. eigenvalues --    0.27692   0.29153   0.31099   0.32838   0.33891
 Alpha virt. eigenvalues --    0.35707   0.38058   0.41389   0.48926   0.49794
 Alpha virt. eigenvalues --    0.50000   0.50606   0.51791   0.52659   0.53512
 Alpha virt. eigenvalues --    0.54489   0.56926   0.57683   0.57999   0.58375
 Alpha virt. eigenvalues --    0.59035   0.59282   0.61200   0.61795   0.62932
 Alpha virt. eigenvalues --    0.64673   0.65413   0.65702   0.67126   0.69300
 Alpha virt. eigenvalues --    0.71620   0.73920   0.74947   0.77049   0.78470
 Alpha virt. eigenvalues --    0.80876   0.82567   0.84031   0.85240   0.85935
 Alpha virt. eigenvalues --    0.87541   0.87986   0.89722   0.92576   0.93224
 Alpha virt. eigenvalues --    0.93870   0.94908   0.95696   0.96083   0.96563
 Alpha virt. eigenvalues --    0.97667   0.98694   1.00245   1.00814   1.02301
 Alpha virt. eigenvalues --    1.04121   1.05832   1.07473   1.08420   1.09719
 Alpha virt. eigenvalues --    1.14740   1.15294   1.20421   1.21782   1.23798
 Alpha virt. eigenvalues --    1.25432   1.27445   1.28401   1.30882   1.31811
 Alpha virt. eigenvalues --    1.32951   1.33339   1.34618   1.37553   1.38933
 Alpha virt. eigenvalues --    1.40525   1.40719   1.41483   1.44882   1.46374
 Alpha virt. eigenvalues --    1.48558   1.52201   1.54900   1.58400   1.63768
 Alpha virt. eigenvalues --    1.66158   1.70551   1.71389   1.73972   1.74589
 Alpha virt. eigenvalues --    1.75482   1.78774   1.80345   1.81052   1.82259
 Alpha virt. eigenvalues --    1.84186   1.85584   1.87191   1.90601   1.92179
 Alpha virt. eigenvalues --    1.92753   1.94859   1.98294   1.99970   2.00753
 Alpha virt. eigenvalues --    2.03906   2.05955   2.06209   2.07449   2.10383
 Alpha virt. eigenvalues --    2.10632   2.11024   2.11840   2.14042   2.15542
 Alpha virt. eigenvalues --    2.16904   2.17511   2.22895   2.23475   2.24360
 Alpha virt. eigenvalues --    2.26191   2.27283   2.28809   2.29555   2.34656
 Alpha virt. eigenvalues --    2.37670   2.41300   2.42034   2.43397   2.44250
 Alpha virt. eigenvalues --    2.46951   2.49244   2.50448   2.51853   2.52404
 Alpha virt. eigenvalues --    2.54639   2.57051   2.58617   2.59001   2.60371
 Alpha virt. eigenvalues --    2.62157   2.63730   2.67710   2.68625   2.69308
 Alpha virt. eigenvalues --    2.73795   2.75758   2.77632   2.79997   2.81828
 Alpha virt. eigenvalues --    2.84682   2.87325   2.88636   2.90258   2.91871
 Alpha virt. eigenvalues --    2.93957   2.98312   3.00246   3.04180   3.07235
 Alpha virt. eigenvalues --    3.12384   3.13536   3.14698   3.24883   3.27746
 Alpha virt. eigenvalues --    3.29114   3.33409   3.41874   3.64371   3.66622
 Alpha virt. eigenvalues --    3.69572   3.72720   3.75602   3.75859   3.76102
 Alpha virt. eigenvalues --    3.77524   3.78793   3.79226   3.85429   3.94197
 Alpha virt. eigenvalues --    3.96941   4.02164   4.07536   4.12202   4.14765
 Alpha virt. eigenvalues --    4.18562   4.19289   4.22424   4.42279   4.47164
 Alpha virt. eigenvalues --    4.50668   4.53118   4.61561   4.92835
          Condensed to atoms (all electrons):
               1          2          3          4          5          6
     1  O    8.274584   0.301931  -0.102771  -0.092301   0.004476  -0.000032
     2  N    0.301931   6.049782   0.253878   0.157134  -0.040866  -0.012629
     3  O   -0.102771   0.253878   8.341279  -0.066224  -0.014238  -0.020534
     4  C   -0.092301   0.157134  -0.066224   5.140378   0.366203  -0.081399
     5  C    0.004476  -0.040866  -0.014238   0.366203   4.809973   0.280591
     6  N   -0.000032  -0.012629  -0.020534  -0.081399   0.280591   6.925963
     7  H    0.000470  -0.001289   0.045241  -0.012979  -0.026999   0.345567
     8  N    0.000001   0.000025   0.000859   0.004756  -0.054785   0.160945
     9  C   -0.000066   0.005593   0.000100  -0.022691   0.472670  -0.070088
    10  C   -0.000000  -0.000006  -0.000127  -0.000176   0.006957  -0.075478
    11  H    0.000001  -0.000096   0.000003   0.010413  -0.040948  -0.023935
    12  C   -0.000006  -0.000231  -0.000016  -0.057311  -0.002543   0.006896
    13  H    0.000000   0.000006  -0.000000   0.001401   0.006863  -0.000188
    14  C    0.001158   0.005243  -0.000026  -0.010721  -0.047541  -0.000076
    15  H   -0.000008  -0.000140   0.000001   0.006548   0.001173   0.000009
    16  C   -0.003553  -0.053542   0.007667   0.465733  -0.047603   0.006997
    17  H    0.024055  -0.018319   0.000335  -0.040882   0.009300  -0.000092
    18  C   -0.000000   0.000026  -0.000736  -0.000005   0.001510  -0.019226
    19  H   -0.000000  -0.000000   0.000002  -0.000000  -0.000027   0.000667
    20  H    0.000000  -0.000003   0.001202  -0.000042   0.000061   0.005293
    21  H    0.000000   0.000001   0.000055  -0.000006  -0.000108   0.000611
    22  C    0.000000  -0.000000  -0.000000   0.000003  -0.000382   0.008016
    23  H    0.000000   0.000000   0.000000  -0.000000   0.000010  -0.000109
    24  H   -0.000000   0.000000  -0.000000  -0.000000   0.000007  -0.000122
    25  H   -0.000000  -0.000000  -0.000000   0.000001   0.000016  -0.000473
               7          8          9         10         11         12
     1  O    0.000470   0.000001  -0.000066  -0.000000   0.000001  -0.000006
     2  N   -0.001289   0.000025   0.005593  -0.000006  -0.000096  -0.000231
     3  O    0.045241   0.000859   0.000100  -0.000127   0.000003  -0.000016
     4  C   -0.012979   0.004756  -0.022691  -0.000176   0.010413  -0.057311
     5  C   -0.026999  -0.054785   0.472670   0.006957  -0.040948  -0.002543
     6  N    0.345567   0.160945  -0.070088  -0.075478  -0.023935   0.006896
     7  H    0.427108  -0.024982   0.009904  -0.010833   0.000386  -0.000089
     8  N   -0.024982   6.725170  -0.011978   0.574827   0.030173   0.000387
     9  C    0.009904  -0.011978   4.878086   0.000733   0.374681   0.534322
    10  C   -0.010833   0.574827   0.000733   4.689365   0.000139  -0.000023
    11  H    0.000386   0.030173   0.374681   0.000139   0.632897  -0.056942
    12  C   -0.000089   0.000387   0.534322  -0.000023  -0.056942   4.781634
    13  H    0.000002  -0.000021  -0.047741   0.000000  -0.011020   0.381779
    14  C   -0.000002   0.000022  -0.019940   0.000000   0.007639   0.511002
    15  H    0.000000   0.000000   0.007125  -0.000000  -0.000345  -0.055592
    16  C   -0.000598  -0.000105  -0.057283   0.000003   0.000362  -0.015243
    17  H   -0.000029   0.000001   0.000275  -0.000000   0.000018   0.007980
    18  C    0.010951  -0.065477   0.000055   0.357113   0.000113   0.000000
    19  H   -0.000790   0.005220   0.000000  -0.024238  -0.000001  -0.000000
    20  H    0.003285  -0.007720  -0.000018  -0.029576  -0.000002  -0.000000
    21  H    0.001876  -0.002919  -0.000004  -0.027433  -0.000002  -0.000000
    22  C   -0.000081  -0.071402   0.000046   0.408666  -0.000237  -0.000000
    23  H   -0.000002   0.001048  -0.000002  -0.029870   0.000002   0.000000
    24  H    0.000006   0.000023  -0.000002  -0.033247   0.000001  -0.000000
    25  H    0.000051   0.005198  -0.000066  -0.025500   0.000290   0.000001
              13         14         15         16         17         18
     1  O    0.000000   0.001158  -0.000008  -0.003553   0.024055  -0.000000
     2  N    0.000006   0.005243  -0.000140  -0.053542  -0.018319   0.000026
     3  O   -0.000000  -0.000026   0.000001   0.007667   0.000335  -0.000736
     4  C    0.001401  -0.010721   0.006548   0.465733  -0.040882  -0.000005
     5  C    0.006863  -0.047541   0.001173  -0.047603   0.009300   0.001510
     6  N   -0.000188  -0.000076   0.000009   0.006997  -0.000092  -0.019226
     7  H    0.000002  -0.000002   0.000000  -0.000598  -0.000029   0.010951
     8  N   -0.000021   0.000022   0.000000  -0.000105   0.000001  -0.065477
     9  C   -0.047741  -0.019940   0.007125  -0.057283   0.000275   0.000055
    10  C    0.000000   0.000000  -0.000000   0.000003  -0.000000   0.357113
    11  H   -0.011020   0.007639  -0.000345   0.000362   0.000018   0.000113
    12  C    0.381779   0.511002  -0.055592  -0.015243   0.007980   0.000000
    13  H    0.666416  -0.055852  -0.010156   0.007384  -0.000402  -0.000000
    14  C   -0.055852   4.808253   0.385312   0.519022  -0.049348   0.000000
    15  H   -0.010156   0.385312   0.666786  -0.046977  -0.010512   0.000000
    16  C    0.007384   0.519022  -0.046977   4.888818   0.370674  -0.000001
    17  H   -0.000402  -0.049348  -0.010512   0.370674   0.621552  -0.000000
    18  C   -0.000000   0.000000   0.000000  -0.000001  -0.000000   4.973501
    19  H    0.000000  -0.000000  -0.000000   0.000000   0.000000   0.391080
    20  H    0.000000   0.000000  -0.000000  -0.000000  -0.000000   0.389161
    21  H    0.000000   0.000000   0.000000  -0.000000   0.000000   0.398820
    22  C    0.000000  -0.000000  -0.000000   0.000000   0.000000  -0.091349
    23  H   -0.000000   0.000000   0.000000  -0.000000  -0.000000  -0.001502
    24  H   -0.000000   0.000000   0.000000  -0.000000  -0.000000   0.001208
    25  H   -0.000000   0.000000   0.000000  -0.000000  -0.000000   0.008669
              19         20         21         22         23         24
     1  O   -0.000000   0.000000   0.000000   0.000000   0.000000  -0.000000
     2  N   -0.000000  -0.000003   0.000001  -0.000000   0.000000   0.000000
     3  O    0.000002   0.001202   0.000055  -0.000000   0.000000  -0.000000
     4  C   -0.000000  -0.000042  -0.000006   0.000003  -0.000000  -0.000000
     5  C   -0.000027   0.000061  -0.000108  -0.000382   0.000010   0.000007
     6  N    0.000667   0.005293   0.000611   0.008016  -0.000109  -0.000122
     7  H   -0.000790   0.003285   0.001876  -0.000081  -0.000002   0.000006
     8  N    0.005220  -0.007720  -0.002919  -0.071402   0.001048   0.000023
     9  C    0.000000  -0.000018  -0.000004   0.000046  -0.000002  -0.000002
    10  C   -0.024238  -0.029576  -0.027433   0.408666  -0.029870  -0.033247
    11  H   -0.000001  -0.000002  -0.000002  -0.000237   0.000002   0.000001
    12  C   -0.000000  -0.000000  -0.000000  -0.000000   0.000000  -0.000000
    13  H    0.000000   0.000000   0.000000   0.000000  -0.000000  -0.000000
    14  C   -0.000000   0.000000   0.000000  -0.000000   0.000000   0.000000
    15  H   -0.000000  -0.000000   0.000000  -0.000000   0.000000   0.000000
    16  C    0.000000  -0.000000  -0.000000   0.000000  -0.000000  -0.000000
    17  H    0.000000  -0.000000   0.000000   0.000000  -0.000000  -0.000000
    18  C    0.391080   0.389161   0.398820  -0.091349  -0.001502   0.001208
    19  H    0.570616  -0.027531  -0.031652  -0.005122   0.003167  -0.000408
    20  H   -0.027531   0.553960  -0.035398   0.004560   0.000417  -0.000156
    21  H   -0.031652  -0.035398   0.542459   0.002249  -0.000317   0.001018
    22  C   -0.005122   0.004560   0.002249   4.909985   0.391137   0.395678
    23  H    0.003167   0.000417  -0.000317   0.391137   0.578302  -0.040706
    24  H   -0.000408  -0.000156   0.001018   0.395678  -0.040706   0.576556
    25  H   -0.000039  -0.000301  -0.000262   0.380152  -0.027408  -0.027924
              25
     1  O   -0.000000
     2  N   -0.000000
     3  O   -0.000000
     4  C    0.000001
     5  C    0.000016
     6  N   -0.000473
     7  H    0.000051
     8  N    0.005198
     9  C   -0.000066
    10  C   -0.025500
    11  H    0.000290
    12  C    0.000001
    13  H   -0.000000
    14  C    0.000000
    15  H    0.000000
    16  C   -0.000000
    17  H   -0.000000
    18  C    0.008669
    19  H   -0.000039
    20  H   -0.000301
    21  H   -0.000262
    22  C    0.380152
    23  H   -0.027408
    24  H   -0.027924
    25  H    0.557132
 Mulliken charges:
               1
     1  O   -0.407940
     2  N    0.353501
     3  O   -0.445948
     4  C    0.232166
     5  C    0.316229
     6  N   -0.437173
     7  H    0.233826
     8  N   -0.269267
     9  C   -0.053710
    10  C    0.218704
    11  H    0.076409
    12  C   -0.036004
    13  H    0.061529
    14  C   -0.054146
    15  H    0.056775
    16  C   -0.041755
    17  H    0.085393
    18  C   -0.353911
    19  H    0.119057
    20  H    0.142806
    21  H    0.151012
    22  C   -0.331919
    23  H    0.125833
    24  H    0.128067
    25  H    0.130466
 Sum of Mulliken charges =  -0.00000
 Mulliken charges with hydrogens summed into heavy atoms:
               1
     1  O   -0.407940
     2  N    0.353501
     3  O   -0.445948
     4  C    0.232166
     5  C    0.316229
     6  N   -0.203347
     8  N   -0.269267
     9  C    0.022698
    10  C    0.218704
    12  C    0.025524
    14  C    0.002629
    16  C    0.043638
    18  C    0.058963
    22  C    0.052447
 Electronic spatial extent (au):  <R**2>=           3231.7562
 Charge=             -0.0000 electrons
 Dipole moment (field-independent basis, Debye):
    X=              3.2190    Y=             -2.7463    Z=             -0.0257  Tot=              4.2314
 Quadrupole moment (field-independent basis, Debye-Ang):
   XX=            -67.3629   YY=            -84.6368   ZZ=            -80.5710
   XY=             11.8433   XZ=              0.8150   YZ=             -0.4373
 Traceless Quadrupole moment (field-independent basis, Debye-Ang):
   XX=             10.1607   YY=             -7.1132   ZZ=             -3.0474
   XY=             11.8433   XZ=              0.8150   YZ=             -0.4373
 Octapole moment (field-independent basis, Debye-Ang**2):
  XXX=             45.8289  YYY=            -25.1147  ZZZ=             -0.0675  XYY=             12.0569
  XXY=            -12.1745  XXZ=             -0.9335  XZZ=              3.7812  YZZ=             11.6894
  YYZ=              0.0320  XYZ=              1.4451
 Hexadecapole moment (field-independent basis, Debye-Ang**3):
 XXXX=          -2644.1138 YYYY=          -1164.2857 ZZZZ=            -87.8805 XXXY=             63.6033
 XXXZ=              8.8041 YYYX=             52.6627 YYYZ=             -1.5001 ZZZX=             -1.6830
 ZZZY=             -0.6327 XXYY=           -684.4709 XXZZ=           -501.0842 YYZZ=           -210.0997
 XXYZ=             -7.5726 YYXZ=              2.6153 ZZXY=            -15.1350
 N-N= 8.770327444633D+02 E-N=-3.301947751910D+03  KE= 6.609392341549D+02
 No NMR shielding tensors so no spin-rotation constants.
 Leave Link  601 at Fri Aug 20 15:57:44 2021, MaxMem= 24159191040 cpu:        11.4
 (Enter /public/home/users/caep010/software/Gaussian09/g09/l701.exe)
 Compute integral first derivatives.
 ... and contract with generalized density number  0.
 Leave Link  701 at Fri Aug 20 15:57:44 2021, MaxMem= 24159191040 cpu:        12.8
 (Enter /public/home/users/caep010/software/Gaussian09/g09/l702.exe)
 L702 exits ... SP integral derivatives will be done elsewhere.
 Leave Link  702 at Fri Aug 20 15:57:44 2021, MaxMem= 24159191040 cpu:         0.5
 (Enter /public/home/users/caep010/software/Gaussian09/g09/l703.exe)
 Compute integral first derivatives, UseDBF=F ICtDFT=           0.
 Integral derivatives from FoFJK, PRISM(SPDF).
 Calling FoFJK, ICntrl=      2127 FMM=F ISym2X=0 I1Cent= 0 IOpClX= 0 NMat=1 NMatS=1 NMatT=0.
 FoFJK:  IHMeth= 1 ICntrl=    2127 DoSepK=F KAlg= 0 I1Cent=   0 FoldK=F
 IRaf=         0 NMat=   1 IRICut=       1 DoRegI=T DoRafI=F ISym2E= 0.
 FoFCou: FMM=F IPFlag=           0 FMFlag=      100000 FMFlg1=         800
         NFxFlg=           0 DoJE=F BraDBF=F KetDBF=F FulRan=T
         wScrn=  0.000000 ICntrl=    2127 IOpCl=  0 I1Cent=           0 NGrid=           0
         NMat0=    1 NMatS0=      1 NMatT0=    0 NMatD0=    1 NMtDS0=    0 NMtDT0=    0
 Symmetry not used in FoFCou.
 Leave Link  703 at Fri Aug 20 15:57:46 2021, MaxMem= 24159191040 cpu:        33.9
 (Enter /public/home/users/caep010/software/Gaussian09/g09/l716.exe)
 Dipole        = 1.26646018D+00-1.08048300D+00-1.01045526D-02
 ***** Axes restored to original set *****
 -------------------------------------------------------------------
 Center     Atomic                   Forces (Hartrees/Bohr)
 Number     Number              X              Y              Z
 -------------------------------------------------------------------
      1        8           0.003633936   -0.000548407   -0.004235541
      2        7          -0.008156315    0.006297448   -0.000127551
      3        8           0.005703495   -0.005747049    0.001573072
      4        6          -0.002763816   -0.000040416    0.007321243
      5        6           0.001780230   -0.000392759   -0.002987283
      6        7           0.083505342   -0.051049626   -0.197501506
      7        1          -0.080491869    0.044787255    0.201772577
      8        7          -0.005703013    0.008613700   -0.005829841
      9        6          -0.105164760    0.113414319    0.024433756
     10        6           0.003491121   -0.001590907   -0.005332532
     11        1           0.112365410   -0.123549994   -0.017341277
     12        6          -0.062983576    0.023071387    0.139291951
     13        1           0.073135259   -0.030431313   -0.151590358
     14        6           0.037553318   -0.084590237    0.116505399
     15        1          -0.041707003    0.095093020   -0.132700921
     16        6           0.104224054   -0.112250359   -0.004228436
     17        1          -0.116546975    0.120421963    0.020979738
     18        6           0.045124205   -0.010574674   -0.111496339
     19        1           0.012155403   -0.110456627    0.065584525
     20        1          -0.126239261    0.030009485   -0.008466300
     21        1           0.059514015    0.096074814    0.068406963
     22        6          -0.075974102    0.095320663    0.007121829
     23        1          -0.059986554   -0.113220966    0.027020469
     24        1           0.101813751    0.011373810    0.082215122
     25        1           0.041717705   -0.000034530   -0.120388760
 -------------------------------------------------------------------
 Cartesian Forces:  Max     0.201772577 RMS     0.076401017
 Leave Link  716 at Fri Aug 20 15:57:46 2021, MaxMem= 24159191040 cpu:         0.7
 (Enter /public/home/users/caep010/software/Gaussian09/g09/l103.exe)

 GradGradGradGradGradGradGradGradGradGradGradGradGradGradGradGradGradGrad
 Berny optimization.
 FormGI is forming the generalized inverse of G from B-inverse, IUseBI=4.
 Internal  Forces:  Max     0.221770502 RMS     0.048634996
 Search for a local minimum.
 Step number   1 out of a maximum of  123
 All quantities printed in internal units (Hartrees-Bohrs-Radians)
 RMS Force = .48635D-01 SwitMx=.10000D-02 MixMth= 1
 Mixed Optimization -- RFO/linear search
 Second derivative matrix not updated -- first step.
 ITU=  0
     Eigenvalues ---    0.00803   0.00832   0.01058   0.01058   0.01198
     Eigenvalues ---    0.01458   0.01718   0.01929   0.01934   0.02017
     Eigenvalues ---    0.02171   0.02177   0.02222   0.02316   0.02378
     Eigenvalues ---    0.02407   0.02471   0.03264   0.07547   0.07555
     Eigenvalues ---    0.07571   0.07574   0.16000   0.16000   0.16000
     Eigenvalues ---    0.16000   0.16000   0.16000   0.16000   0.16000
     Eigenvalues ---    0.16000   0.16000   0.16000   0.21998   0.22000
     Eigenvalues ---    0.22470   0.24465   0.24991   0.24997   0.25000
     Eigenvalues ---    0.25000   0.25000   0.25000   0.25000   0.32674
     Eigenvalues ---    0.32906   0.38515   0.40976   0.41552   0.44425
     Eigenvalues ---    0.47044   0.47734   0.49500   0.51509   0.52198
     Eigenvalues ---    0.55281   0.55350   0.55470   0.55475   0.55533
     Eigenvalues ---    0.55638   0.62277   0.62442   0.62463   0.62464
     Eigenvalues ---    0.72713   0.83954   0.86462   0.88356
 RFO step:  Lambda=-2.91590021D-01 EMin= 8.03106186D-03
 Linear search not attempted -- first point.
 Maximum step size (   0.300) exceeded in Quadratic search.
    -- Step size scaled by   0.529
 Iteration  1 RMS(Cart)=  0.03133613 RMS(Int)=  0.00010602
 Iteration  2 RMS(Cart)=  0.00014525 RMS(Int)=  0.00000134
 Iteration  3 RMS(Cart)=  0.00000003 RMS(Int)=  0.00000134
 ITry= 1 IFail=0 DXMaxC= 1.05D-01 DCOld= 1.00D+10 DXMaxT= 3.00D-01 DXLimC= 3.00D+00 Rises=F
 Variable       Old X    -DE/DX   Delta X   Delta X   Delta X     New X
                                 (Linear)    (Quad)   (Total)
    R1        2.33700  -0.00310   0.00000  -0.00140  -0.00140   2.33560
    R2        2.34608   0.00562   0.00000   0.00257   0.00257   2.34865
    R3        2.73622  -0.00295   0.00000  -0.00231  -0.00231   2.73392
    R4        2.67463   0.00432   0.00000   0.00267   0.00266   2.67729
    R5        2.64602   0.00336   0.00000   0.00223   0.00223   2.64826
    R6        2.57710   0.00252   0.00000   0.00164   0.00164   2.57874
    R7        2.67113   0.00377   0.00000   0.00241   0.00241   2.67354
    R8        1.62551   0.22177   0.00000   0.10374   0.10374   1.72925
    R9        2.62224  -0.00660   0.00000  -0.00454  -0.00454   2.61769
   R10        2.42102   0.00577   0.00000   0.00300   0.00300   2.42402
   R11        1.75759   0.16785   0.00000   0.09696   0.09696   1.85454
   R12        2.59070   0.01385   0.00000   0.00931   0.00931   2.60002
   R13        2.82517   0.01706   0.00000   0.01455   0.01455   2.83972
   R14        2.82928   0.01034   0.00000   0.00885   0.00885   2.83813
   R15        1.75743   0.17103   0.00000   0.09877   0.09877   1.85620
   R16        2.61829   0.02193   0.00000   0.01549   0.01549   2.63378
   R17        1.75883   0.16849   0.00000   0.09751   0.09751   1.85633
   R18        2.57384   0.02199   0.00000   0.01455   0.01455   2.58838
   R19        1.75742   0.16881   0.00000   0.09749   0.09749   1.85491
   R20        1.81269   0.12903   0.00000   0.08051   0.08051   1.89321
   R21        1.81522   0.12998   0.00000   0.08138   0.08138   1.89661
   R22        1.81362   0.13208   0.00000   0.08252   0.08252   1.89614
   R23        1.81417   0.13093   0.00000   0.08186   0.08186   1.89603
   R24        1.81413   0.13133   0.00000   0.08211   0.08211   1.89624
   R25        1.81583   0.12741   0.00000   0.07984   0.07984   1.89567
    A1        2.12473   0.00824   0.00000   0.00806   0.00806   2.13279
    A2        2.07233  -0.00235   0.00000  -0.00230  -0.00230   2.07004
    A3        2.08610  -0.00589   0.00000  -0.00575  -0.00575   2.08035
    A4        2.12203  -0.00246   0.00000  -0.00200  -0.00200   2.12003
    A5        2.04330  -0.00085   0.00000  -0.00043  -0.00043   2.04288
    A6        2.11755   0.00332   0.00000   0.00244   0.00244   2.12000
    A7        2.15723  -0.00658   0.00000  -0.00587  -0.00587   2.15135
    A8        2.02868   0.00591   0.00000   0.00468   0.00467   2.03335
    A9        2.09718   0.00067   0.00000   0.00120   0.00121   2.09838
   A10        2.09548  -0.00270   0.00000  -0.00322  -0.00322   2.09226
   A11        2.09211  -0.00077   0.00000  -0.00079  -0.00079   2.09132
   A12        2.09560   0.00347   0.00000   0.00401   0.00401   2.09961
   A13        2.03716  -0.00123   0.00000  -0.00120  -0.00120   2.03597
   A14        2.08521  -0.00289   0.00000  -0.00340  -0.00340   2.08181
   A15        2.11313  -0.00163   0.00000  -0.00187  -0.00187   2.11126
   A16        2.08484   0.00452   0.00000   0.00528   0.00528   2.09012
   A17        2.19565  -0.00369   0.00000  -0.00361  -0.00361   2.19204
   A18        2.04815  -0.00216   0.00000  -0.00211  -0.00211   2.04604
   A19        2.03937   0.00585   0.00000   0.00572   0.00572   2.04509
   A20        2.08008  -0.00043   0.00000  -0.00118  -0.00118   2.07890
   A21        2.12316  -0.00251   0.00000  -0.00160  -0.00160   2.12155
   A22        2.07995   0.00294   0.00000   0.00278   0.00278   2.08273
   A23        2.10153   0.00196   0.00000   0.00150   0.00150   2.10303
   A24        2.08022  -0.00226   0.00000  -0.00107  -0.00106   2.07916
   A25        2.10144   0.00031   0.00000  -0.00043  -0.00043   2.10100
   A26        2.10323  -0.00283   0.00000  -0.00256  -0.00256   2.10067
   A27        2.09018  -0.00322   0.00000  -0.00415  -0.00415   2.08603
   A28        2.08977   0.00605   0.00000   0.00671   0.00671   2.09648
   A29        1.91092   0.00072   0.00000   0.00084   0.00083   1.91176
   A30        1.91055   0.00437   0.00000   0.00519   0.00518   1.91573
   A31        1.91071   0.00195   0.00000   0.00222   0.00222   1.91293
   A32        1.91104  -0.00200   0.00000  -0.00222  -0.00222   1.90882
   A33        1.91018  -0.00192   0.00000  -0.00238  -0.00238   1.90780
   A34        1.91039  -0.00312   0.00000  -0.00365  -0.00366   1.90674
   A35        1.91151   0.00050   0.00000   0.00052   0.00052   1.91202
   A36        1.91073   0.00109   0.00000   0.00119   0.00119   1.91192
   A37        1.91136   0.00030   0.00000   0.00050   0.00050   1.91186
   A38        1.91192  -0.00219   0.00000  -0.00287  -0.00287   1.90905
   A39        1.90921   0.00037   0.00000   0.00060   0.00060   1.90981
   A40        1.90908  -0.00007   0.00000   0.00005   0.00005   1.90913
    D1       -2.98504  -0.00135   0.00000  -0.00232  -0.00232  -2.98736
    D2        0.13053  -0.00091   0.00000  -0.00163  -0.00163   0.12890
    D3        0.14986  -0.00067   0.00000  -0.00113  -0.00113   0.14872
    D4       -3.01776  -0.00023   0.00000  -0.00045  -0.00045  -3.01821
    D5       -0.02971   0.00004   0.00000   0.00009   0.00010  -0.02962
    D6        3.09628   0.00043   0.00000   0.00078   0.00078   3.09706
    D7        3.13901  -0.00034   0.00000  -0.00058  -0.00058   3.13843
    D8       -0.01818   0.00005   0.00000   0.00011   0.00011  -0.01807
    D9       -3.12121  -0.00015   0.00000  -0.00024  -0.00024  -3.12145
   D10        0.01956  -0.00024   0.00000  -0.00040  -0.00040   0.01916
   D11       -0.00558   0.00019   0.00000   0.00038   0.00038  -0.00520
   D12        3.13519   0.00010   0.00000   0.00021   0.00021   3.13541
   D13       -0.08454   0.00037   0.00000   0.00061   0.00061  -0.08393
   D14        3.05668   0.00108   0.00000   0.00182   0.00182   3.05851
   D15        3.07324  -0.00008   0.00000  -0.00012  -0.00012   3.07312
   D16       -0.06873   0.00064   0.00000   0.00109   0.00109  -0.06764
   D17       -3.11431  -0.00031   0.00000  -0.00059  -0.00059  -3.11490
   D18        0.02788  -0.00029   0.00000  -0.00053  -0.00053   0.02735
   D19        0.01225  -0.00001   0.00000   0.00000   0.00001   0.01226
   D20       -3.12874   0.00002   0.00000   0.00006   0.00006  -3.12868
   D21       -3.01911  -0.00137   0.00000  -0.00236  -0.00236  -3.02147
   D22        0.12212  -0.00066   0.00000  -0.00115  -0.00115   0.12097
   D23        0.00019   0.00052   0.00000   0.00083   0.00083   0.00102
   D24       -3.13588   0.00085   0.00000   0.00141   0.00141  -3.13447
   D25        3.12744   0.00023   0.00000   0.00036   0.00036   3.12781
   D26       -0.01436   0.00030   0.00000   0.00046   0.00046  -0.01390
   D27       -0.01355   0.00026   0.00000   0.00042   0.00042  -0.01313
   D28        3.12783   0.00032   0.00000   0.00052   0.00052   3.12835
   D29        2.83617   0.00072   0.00000   0.00111   0.00111   2.83728
   D30        0.74114   0.00004   0.00000   0.00014   0.00014   0.74128
   D31       -1.35296  -0.00000   0.00000   0.00007   0.00007  -1.35289
   D32       -0.31092   0.00037   0.00000   0.00051   0.00051  -0.31041
   D33       -2.40595  -0.00030   0.00000  -0.00046  -0.00046  -2.40641
   D34        1.78314  -0.00035   0.00000  -0.00053  -0.00053   1.78261
   D35       -2.12471  -0.00092   0.00000  -0.00132  -0.00132  -2.12604
   D36        2.06191   0.00080   0.00000   0.00114   0.00114   2.06305
   D37       -0.03108   0.00003   0.00000   0.00004   0.00004  -0.03104
   D38        1.02190  -0.00059   0.00000  -0.00077  -0.00077   1.02113
   D39       -1.07467   0.00112   0.00000   0.00170   0.00170  -1.07297
   D40        3.11553   0.00035   0.00000   0.00060   0.00060   3.11612
   D41        3.13034   0.00010   0.00000   0.00017   0.00017   3.13051
   D42       -0.01057   0.00012   0.00000   0.00016   0.00016  -0.01041
   D43       -0.01146   0.00016   0.00000   0.00027   0.00027  -0.01119
   D44        3.13081   0.00018   0.00000   0.00026   0.00026   3.13107
   D45        0.02027  -0.00036   0.00000  -0.00058  -0.00058   0.01970
   D46       -3.12050  -0.00026   0.00000  -0.00040  -0.00040  -3.12091
   D47       -3.12064  -0.00034   0.00000  -0.00058  -0.00058  -3.12123
   D48        0.02177  -0.00025   0.00000  -0.00041  -0.00041   0.02136
         Item               Value     Threshold  Converged?
 Maximum Force            0.221771     0.000450     NO 
 RMS     Force            0.048635     0.000300     NO 
 Maximum Displacement     0.104508     0.001800     NO 
 RMS     Displacement     0.031349     0.001200     NO 
 Predicted change in Energy=-1.265969D-01
 Lowest energy point so far.  Saving SCF results.
 GradGradGradGradGradGradGradGradGradGradGradGradGradGradGradGradGradGrad

 Leave Link  103 at Fri Aug 20 15:57:46 2021, MaxMem= 24159191040 cpu:         3.9
 (Enter /public/home/users/caep010/software/Gaussian09/g09/l202.exe)
                          Input orientation:                          
 ---------------------------------------------------------------------
 Center     Atomic      Atomic             Coordinates (Angstroms)
 Number     Number       Type             X           Y           Z
 ---------------------------------------------------------------------
      1          8           0        3.023909    2.746642    0.031534
      2          7           0        3.969859    1.951204    0.036666
      3          8           0        4.348554    1.379190    1.073039
      4          6           0        4.650228    1.676056   -1.210094
      5          6           0        5.615316    0.644049   -1.313900
      6          7           0        5.996147   -0.133439   -0.259080
      7          1           0        5.672084    0.043649    0.578176
      8          7           0        6.872694   -1.186919   -0.460805
      9          6           0        6.174864    0.429533   -2.595494
     10          6           0        7.083830   -1.959678    0.541029
     11          1           0        6.830718   -0.290069   -2.718528
     12          6           0        5.813130    1.214157   -3.666256
     13          1           0        6.227400    1.048853   -4.541404
     14          6           0        4.874063    2.235957   -3.537490
     15          1           0        4.634147    2.792802   -4.310363
     16          6           0        4.289805    2.454723   -2.318105
     17          1           0        3.613893    3.159003   -2.215027
     18          6           0        6.462642   -1.817005    1.901880
     19          1           0        6.557419   -2.677955    2.405338
     20          1           0        5.489140   -1.591425    1.808598
     21          1           0        6.924991   -1.084168    2.407825
     22          6           0        8.039357   -3.100703    0.339399
     23          1           0        7.572827   -3.967578    0.533204
     24          1           0        8.821260   -2.997405    0.959770
     25          1           0        8.365023   -3.101973   -0.609412
 ---------------------------------------------------------------------
                    Distance matrix (angstroms):
                    1          2          3          4          5
     1  O    0.000000
     2  N    1.235948   0.000000
     3  O    2.170101   1.242851   0.000000
     4  C    2.309265   1.446726   2.322032   0.000000
     5  C    3.598121   2.498041   2.800463   1.416760   0.000000
     6  N    4.148918   2.922165   2.603296   2.447489   1.364612
     7  H    3.823325   2.613344   1.944296   2.628089   1.985864
     8  N    5.525255   4.303690   3.912656   3.701002   2.379331
     9  C    4.711558   3.755768   4.206589   2.407835   1.414777
    10  C    6.236344   5.024559   4.348886   4.712475   3.518052
    11  H    5.592517   4.560583   4.829446   3.300843   2.079125
    12  C    4.878720   4.201490   4.963178   2.756524   2.428525
    13  H    5.835803   5.183575   5.929683   3.738781   3.309878
    14  C    4.052381   3.697737   4.718811   2.404238   2.833369
    15  H    4.631098   4.477301   5.573229   3.295307   3.815577
    16  C    2.684867   2.429165   3.558100   1.401397   2.458444
    17  H    2.359059   2.579847   3.810360   2.069544   3.338071
    18  C    6.012483   4.887985   3.920715   5.017042   4.137148
    19  H    6.895425   5.808200   4.807757   5.972114   5.075037
    20  H    5.296616   4.242426   3.265966   4.526888   3.842299
    21  H    5.961569   4.854760   3.806286   5.087507   4.307345
    22  C    7.709795   6.494169   5.850615   6.058429   4.757368
    23  H    8.125581   6.946935   6.266999   6.590242   5.339546
    24  H    8.213707   6.991205   6.258795   6.629259   5.357970
    25  H    7.946358   6.728260   6.248479   6.081948   4.699987
                    6          7          8          9         10
     6  N    0.000000
     7  H    0.915082   0.000000
     8  N    1.385224   2.008792   0.000000
     9  C    2.409919   3.236337   2.767089   0.000000
    10  C    2.271206   2.451067   1.282734   4.046273   0.000000
    11  H    2.601909   3.510280   2.429695   0.981381   3.671018
    12  C    3.668564   4.405132   4.142796   1.375870   5.421176
    13  H    4.448549   5.246800   4.697485   2.042763   5.967902
    14  C    4.197747   4.730936   5.017628   2.417149   6.254657
    15  H    5.179849   5.703768   5.972300   3.301458   7.219627
    16  C    3.721528   4.014027   4.835539   2.780609   5.955515
    17  H    4.510105   4.662999   5.708250   3.762092   6.770318
    18  C    2.778805   2.416446   2.479402   5.035486   1.502713
    19  H    3.726756   3.395507   3.246130   5.900097   2.066078
    20  H    2.580324   2.054477   2.688501   4.893926   2.070116
    21  H    2.979768   2.487844   2.870947   5.280832   2.068013
    22  C    3.652060   3.943089   2.379916   4.955048   1.501874
    23  H    4.220693   4.439008   3.034849   5.574732   2.066602
    24  H    4.203470   4.394422   3.015428   5.602430   2.066612
    25  H    3.813987   4.307811   2.432399   4.605741   2.066352
                   11         12         13         14         15
    11  H    0.000000
    12  C    2.048504   0.000000
    13  H    2.340850   0.982257   0.000000
    14  C    3.298485   1.393737   2.061208   0.000000
[...]
 13647,-0.00042964,-0.00032152,0.00038681,-0.00086390,-0.00011802,0.000
 11133,0.00004185,-0.00011470,-0.00014551,0.00010308,0.00318265,0.00107
 296,-0.00440185,0.00081050,-0.00104549,-0.00006289,0.01826372,-0.02086
 668,0.00144845,-0.00133797,-0.00058400,0.00078196,0.03166514,-0.029297
 16,-0.06100871,-0.03650192,0.03007524,0.06214452,-0.00006422,-0.000026
 79,0.00002193,0.00017994,0.00003611,-0.00015022,-0.00026955,-0.0001520
 2,-0.00013281,0.00004392,0.00023219,0.00009260,0.00069080,-0.00042831,
 0.00060196,-0.00520988,-0.00360545,-0.00655656,0.00064259,0.00004281,0
 .00012271,0.01991782,0.00699857,0.00069775,-0.00024321,0.00005618,-0.0
 0058926,-0.10397020,0.01496877,0.03904637,-0.00006407,0.00004756,0.000
 04913,0.00012035,0.00000005,0.00015185,0.00004149,0.00002878,-0.000005
 76,-0.00013479,0.00012261,-0.00001084,-0.00004016,-0.00002251,-0.00001
 341,0.00006524,0.00002475,-0.00014914,0.00001508,0.00001476,-0.0000012
 3,0.53168642,-0.00002528,-0.00005348,0.00001383,0.00005683,0.00017987,
 -0.00022401,-0.00006247,-0.00044322,0.00019980,-0.00000463,0.00022908,
 0.00010821,-0.00023951,0.00061698,0.00052603,-0.00792131,-0.00206187,0
 .00333670,0.00018580,0.00047727,0.00004344,0.00413135,0.01084235,0.025
 32543,-0.00009605,-0.00046385,0.00047687,0.01302165,-0.09021326,-0.011
 04477,0.00012061,-0.00007356,-0.00020464,0.00011161,0.00005278,-0.0000
 4531,0.00002674,0.00001797,0.00003261,0.00004018,-0.00008437,-0.000004
 08,-0.00001637,-0.00004042,-0.00000722,0.00001831,-0.00002876,0.000108
 77,0.00001191,0.00000687,0.00001392,-0.01918024,0.56396745,0.00001565,
 0.00002154,-0.00018154,-0.00020189,-0.00016009,0.00118128,-0.00035611,
 0.00047139,-0.00054239,0.00068645,-0.00061284,-0.00028746,0.00013349,0
 .00109478,-0.00262287,0.00428017,-0.00979424,0.00124442,-0.00022973,0.
 00045647,0.00027319,0.00792147,0.01656833,-0.03987040,-0.00020885,0.00
 001522,0.00020719,0.04392109,-0.01696394,-0.17003777,-0.00013415,0.000
 01742,0.00035612,-0.00012794,0.00029437,-0.00017919,-0.00000056,0.0000
 2642,-0.00000130,0.00019640,-0.00025523,0.00000550,-0.00002887,0.00001
 151,-0.00000423,-0.00013228,0.00008837,0.00021848,0.00000591,0.0000051
 8,-0.00000406,0.03615930,-0.03268205,0.49969366,-0.00009095,0.00009727
 ,-0.00005713,0.00007480,-0.00016032,0.00026812,0.00006209,0.00018686,-
 0.00022311,-0.00002283,-0.00001860,-0.00003770,0.00028361,-0.00016942,
 -0.00002672,-0.00044037,0.00117530,-0.00028869,-0.00037634,-0.00090680
 ,-0.00010013,-0.00043560,0.00114432,0.00418944,-0.00006865,0.00006627,
 -0.00000126,0.00434312,-0.01230030,0.00888527,0.00003328,-0.00000242,-
 0.00005448,0.00002805,-0.00002768,-0.00003145,-0.00000069,0.00000582,-
 0.00000871,0.00001365,-0.00001322,-0.00001932,0.00000283,-0.00000094,-
 0.00000433,0.00001597,-0.00002574,0.00003563,-0.00000200,-0.00000204,0
 .00000660,-0.08207658,0.06807924,-0.06348554,0.08589561,0.00012310,-0.
 00019120,0.00003229,-0.00012027,0.00024651,-0.00017821,0.00012029,-0.0
 0009753,0.00023834,0.00001759,-0.00006236,-0.00002375,-0.00017806,0.00
 040759,-0.00014109,0.00040491,-0.00024981,0.00047638,-0.00086695,0.000
 06080,-0.00040939,0.00150871,0.00072886,-0.00170029,0.00003190,-0.0001
 1087,0.00014537,-0.00340031,0.00316085,-0.00483243,0.00000129,0.000006
 97,0.00001216,-0.00005319,0.00006625,-0.00001706,-0.00000012,-0.000004
 62,0.00001514,0.00001723,-0.00002759,0.00000779,0.00000103,-0.00000344
 ,0.00000704,-0.00000871,0.00001899,-0.00000505,0.00000064,0.00000014,-
 0.00000608,0.06702456,-0.17640264,0.12155753,-0.07430874,0.18759936,-0
 .00012112,0.00010955,0.00006433,0.00016668,-0.00005428,-0.00034147,-0.
 00005511,0.00003396,0.00022598,-0.00012891,0.00008669,0.00012470,-0.00
 000480,-0.00016831,0.00057310,0.00164308,-0.00186713,0.00011705,-0.000
 19857,-0.00028588,0.00017083,0.00327321,-0.00059028,-0.00661329,0.0000
 8540,0.00004024,-0.00037609,-0.01348146,0.02228849,-0.01781626,-0.0000
 6383,0.00002353,0.00014893,0.00003280,-0.00009508,0.00013386,0.0000062
 4,-0.00000299,-0.00001022,-0.00009606,0.00010078,0.00003589,-0.0000093
 0,0.00001307,-0.00000383,-0.00000722,0.00004694,-0.00008970,-0.0000001
 1,0.00000208,-0.00000638,-0.06083374,0.11834010,-0.15878459,0.06511942
 ,-0.12945378,0.17287797,-0.00001928,0.00001514,-0.00015433,-0.00017589
 ,-0.00011495,0.00066736,0.00011606,0.00026296,-0.00040330,0.00024524,-
 0.00020410,-0.00018626,-0.00008144,0.00020005,-0.00104082,0.00140810,-
 0.00199368,0.00003535,0.00000557,-0.00109565,0.00038752,-0.00061658,0.
 00436939,-0.00140427,-0.00010675,0.00010695,0.00019918,-0.01086584,-0.
 00009437,0.00478185,-0.00000970,-0.00001378,-0.00000941,-0.00000735,0.
 00010686,-0.00012601,-0.00001141,0.00000744,-0.00000480,0.00011683,-0.
 00012841,-0.00002461,-0.00000445,-0.00000645,-0.00000350,-0.00001862,-
 0.00000844,0.00014288,-0.00000242,-0.00000248,0.00000945,-0.30349620,-
 0.02323872,-0.01255978,-0.00982045,-0.00164232,-0.00042564,0.33016850,
 -0.00016553,0.00025423,-0.00016619,0.00013762,-0.00035715,0.00079862,-
 0.00008304,0.00053359,-0.00072438,0.00003175,0.00007671,-0.00018580,0.
 00042046,-0.00024812,0.00019801,-0.00061395,0.00096221,-0.00070073,-0.
 00068111,-0.00168587,0.00126614,-0.00015717,0.00015412,0.00180856,-0.0
 0005977,0.00009799,-0.00012675,0.00624396,-0.00139451,-0.00173899,0.00
 001976,0.00000729,-0.00003715,-0.00000952,-0.00002271,-0.00001363,0.00
 000632,0.00000711,-0.00001826,0.00002381,0.00000693,-0.00007949,0.0000
 0567,0.00000476,-0.00000963,0.00001765,-0.00008803,0.00005819,-0.00000
 477,-0.00000263,0.00001532,-0.02231680,-0.04590643,0.00192910,0.023223
 58,0.00285691,-0.00022760,0.02474074,0.04765372,0.00000512,0.00005533,
 0.00005196,0.00000830,0.00003796,-0.00029564,0.00000480,-0.00030324,0.
 00011291,-0.00008695,0.00005361,0.00004463,-0.00048291,-0.00019311,-0.
 00002526,-0.00118224,0.00224692,0.00194365,0.00081727,0.00223398,-0.00
 089183,-0.00095230,-0.00533978,-0.00103381,0.00014793,-0.00003035,0.00
 008971,0.03211006,0.00410793,0.00109128,0.00000161,-0.00003550,0.00005
 229,-0.00000186,0.00000901,0.00001176,-0.00001052,-0.00000957,-0.00000
 602,0.00000132,0.00000711,0.00000565,0.00000312,0.00000747,0.00000020,
 -0.00001224,0.00001524,-0.00000443,-0.00000066,0.00000203,0.00000073,-
 0.00736317,0.00137071,-0.04661713,-0.02058616,-0.00367602,-0.00058446,
 0.00930968,0.00050850,0.04976568,0.00016341,-0.00024877,0.00015592,-0.
 00003211,0.00039263,-0.00068184,0.00012408,-0.00035874,0.00069566,-0.0
 0000049,-0.00004494,0.00018537,-0.00021214,0.00026670,-0.00005333,0.00
 128736,-0.00110256,0.00007682,-0.00050718,0.00017618,-0.00116294,-0.00
 085417,0.00012677,-0.00158887,0.00006108,-0.00005277,0.00007590,0.0018
 9061,0.01475677,0.00658889,-0.00001119,0.00001331,0.00001833,-0.000014
 36,-0.00001534,0.00001515,-0.00000350,-0.00000631,0.00001868,-0.000028
 67,0.00001258,0.00007665,0.00000319,0.00000108,0.00001220,-0.00004432,
 0.00004803,-0.00008037,0.00000332,0.00000066,-0.00001609,-0.05437109,-
 0.04914259,-0.02048068,0.00233987,0.01131383,0.00541107,-0.00660735,-0
 .03074812,-0.01182948,0.05849065,-0.00005677,0.00000215,0.00007604,0.0
 0009134,-0.00007417,-0.00036894,-0.00002260,0.00006310,0.00020009,-0.0
 0019441,0.00018848,0.00011320,-0.00024098,-0.00064772,0.00083110,-0.00
 086253,0.00157312,-0.00070880,0.00003311,0.00030425,0.00035748,0.00134
 649,-0.00194360,0.00221275,0.00014512,0.00002063,-0.00020633,0.0030550
 1,-0.00045042,-0.00474225,-0.00001896,-0.00000126,-0.00002650,0.000057
 58,-0.00006324,0.00012671,-0.00000041,-0.00001519,-0.00000321,-0.00009
 735,0.00012213,0.00000373,-0.00000530,-0.00000326,-0.00000235,0.000056
 19,0.00000784,-0.00010639,0.00000082,0.00000065,-0.00000544,-0.0517298
 1,-0.26094080,-0.08167585,-0.00571883,-0.01860000,-0.00820365,-0.00041
 036,-0.00235686,-0.00027470,0.05510557,0.28248972,-0.00003199,-0.00011
 100,0.00012249,0.00010095,0.00024183,-0.00072598,0.00031513,-0.0002557
 1,0.00057505,-0.00013095,0.00013718,0.00017978,0.00010850,0.00034952,0
 .00050841,-0.00277081,0.00126424,0.00144383,-0.00228462,0.00023715,-0.
 00236246,0.00627059,-0.00071040,0.00130041,0.00004967,-0.00020902,-0.0
 0000177,-0.00726005,-0.02693445,-0.01260331,0.00000410,-0.00002421,0.0
 0006235,0.00000002,-0.00002839,0.00005963,0.00001240,0.00000266,0.0000
 0833,-0.00005582,0.00004624,0.00003610,-0.00000884,-0.00000197,0.00000
 061,-0.00001153,0.00004126,-0.00007511,-0.00000067,0.00000149,-0.00000
 826,-0.02148816,-0.08620040,-0.08068610,0.00588546,0.01911592,0.008708
 76,-0.00070437,-0.00105647,-0.00074375,0.02082685,0.09348829,0.0865868
 3,0.00012934,0.00005025,-0.00000906,-0.00008081,0.00008239,0.00018190,
 -0.00010263,-0.00006052,-0.00010618,-0.00031725,-0.00039887,-0.0001572
 3,0.00130382,0.00149515,0.00006891,0.01045859,0.00343616,0.00313606,0.
 00008379,0.00034087,0.00031890,-0.01561835,0.01151805,-0.01093429,0.00
 017449,0.00000234,0.00018519,-0.13382151,0.07117416,0.02139704,0.00012
 052,0.00003675,0.00003053,-0.00017724,-0.00007160,-0.00010058,-0.00002
 559,-0.00002223,0.00000595,0.00011228,-0.00002768,0.00000549,0.0000347
 2,0.00003097,0.00001436,-0.00020445,-0.00015738,0.00004040,-0.00002162
 ,-0.00002439,-0.00000254,-0.00447121,0.01011177,0.00507450,0.00046611,
 0.00061873,-0.00076898,-0.00030099,0.00027832,-0.00012947,-0.00084343,
 -0.00065265,0.00063436,0.51717923,0.00020747,-0.00006959,-0.00003537,-
 0.00012225,0.00003693,0.00039751,-0.00006486,0.00000355,-0.00028314,-0
 .00015672,-0.00043667,-0.00017813,0.00151366,0.00088164,-0.00039173,0.
 00535986,0.00661360,0.00301402,0.00054488,-0.00026591,0.00019252,0.015
 88567,-0.03238584,0.00860796,-0.00001570,0.00018151,0.00018780,0.06974
 508,-0.14591957,-0.01696182,0.00006354,0.00006801,0.00003978,-0.000208
 55,0.00002186,-0.00009620,-0.00002086,-0.00001569,-0.00000251,0.000087
 17,-0.00000985,-0.00001160,0.00003313,0.00001964,0.00001298,-0.0001053
 3,-0.00015512,-0.00009597,-0.00001982,-0.00001960,0.00000265,0.0045225
 7,0.00094588,-0.00227134,0.00005508,0.00038959,0.00067444,-0.00120390,
 0.00002883,0.00004045,-0.00045000,0.00025059,0.00106417,0.02347974,0.5
 1184703,-0.00040295,0.00044237,0.00028369,0.00069537,-0.00022759,-0.00
 150171,-0.00009934,-0.00029148,0.00084896,-0.00076183,0.00055760,0.000
 22531,0.00001792,-0.00032950,0.00333022,-0.00171414,0.00889079,-0.0028
 1454,-0.00019828,0.00082135,-0.00098907,-0.02189440,0.02189544,0.00199
 760,0.00023075,0.00013200,-0.00079885,0.02502011,-0.02134553,-0.090703
 79,-0.00003691,0.00012174,-0.00003243,0.00024310,-0.00051316,0.0002790
 1,0.00000251,0.00000173,-0.00005379,-0.00028293,0.00033818,0.00010365,
 0.00000896,0.00001958,-0.00001139,-0.00009159,0.00006371,-0.00020221,-
 0.00001396,0.00001669,-0.00004191,0.01912319,-0.01930198,-0.00422822,0
 .00064795,-0.00104633,0.00137705,0.00184686,-0.00133463,-0.00296298,0.
 00187988,-0.00146633,-0.00264283,-0.00841033,-0.01631241,0.60039367,-0
 .00014814,0.00012429,0.00005636,0.00018314,-0.00010365,-0.00037389,0.0
 0000261,-0.00004700,0.00017557,-0.00010621,0.00027341,0.00014010,-0.00
 035200,-0.00068081,0.00076093,-0.00288355,0.00062314,-0.00138563,0.000
 05147,0.00009106,-0.00010878,0.00079454,0.00212179,0.00112712,0.000046
 93,0.00003388,-0.00028608,0.01056279,0.02214027,-0.00635335,-0.0000391
 5,-0.00000470,-0.00000538,0.00010838,-0.00010632,0.00010163,0.00000626
 ,0.00000324,-0.00001495,-0.00009856,0.00009755,0.00001441,-0.00000856,
 -0.00000312,-0.00000714,0.00004572,0.00004536,-0.00005471,0.00000332,0
 .00000892,-0.00000397,0.00005928,-0.00090390,-0.00030610,0.00005950,-0
 .00019613,0.00004363,-0.00001929,0.00002967,0.00007310,0.00012599,-0.0
 0013281,-0.00035938,-0.09183315,-0.09619517,0.02682828,0.09985319,0.00
 028278,-0.00025754,-0.00011804,-0.00040469,0.00021379,0.00066383,0.000
 05184,0.00005571,-0.00031539,0.00027250,-0.00034148,-0.00026929,0.0001
 5847,0.00101864,-0.00137838,0.00323396,-0.00166404,0.00109006,0.000031
 37,-0.00011551,0.00033830,-0.00134729,-0.00137167,-0.00250507,-0.00009
 909,-0.00004180,0.00052182,-0.00710252,-0.02168617,0.00799463,0.000021
 89,0.00000429,-0.00004648,-0.00014911,0.00021624,-0.00019840,-0.000015
 59,-0.00000308,0.00002375,0.00018797,-0.00018576,-0.00004861,0.0000107
 2,-0.00000747,0.00001196,-0.00005371,-0.00006910,0.00015233,-0.0000059
 7,-0.00001137,0.00000523,0.00083573,0.00130624,0.00099527,-0.00010205,
 0.00008762,-0.00074985,0.00006845,-0.00020462,-0.00030542,-0.00031678,
 0.00021678,0.00004502,-0.09837348,-0.24622474,0.04816210,0.10393687,0.
 27024214,0.00005218,-0.00006443,-0.00005336,-0.00007932,0.00000713,0.0
 0031448,-0.00006305,0.00013398,-0.00013026,0.00013600,-0.00012188,-0.0
 0014532,0.00007116,0.00035974,-0.00034514,-0.00006835,-0.00059015,0.00
 061503,-0.00014509,-0.00010098,-0.00000674,-0.00014518,0.00109855,0.00
 031544,-0.00004675,-0.00003211,0.00010761,-0.00362122,-0.00238801,0.00
 008056,0.00003631,-0.00000756,0.00002583,-0.00005942,0.00006987,-0.000
 04869,0.00000389,0.00000494,0.00000444,0.00004558,-0.00005772,-0.00001
 387,0.00000145,0.00000352,0.00000164,-0.00002535,0.00000499,0.00004133
 ,-0.00000009,0.00000126,-0.00000243,0.00018260,-0.00014808,0.00014303,
 0.00000362,-0.00008451,-0.00034415,-0.00013597,0.00006667,0.00003588,-
 0.00014944,0.00031378,0.00017836,0.02723263,0.04723520,-0.05977433,-0.
 02682246,-0.05441898,0.05890165,-0.00024092,0.00026410,0.00012878,0.00
 037847,-0.00018940,-0.00068378,-0.00002621,-0.00009561,0.00031753,-0.0
 0037180,0.00025838,0.00025756,0.00044925,-0.00051233,0.00149797,-0.000
 84758,0.00313840,-0.00048547,-0.00001535,0.00010583,-0.00030773,-0.001
 45880,-0.00159106,0.00118994,0.00012368,0.00006337,-0.00048011,-0.0151
 9794,0.00026390,-0.01380091,-0.00000843,0.00001622,0.00004073,0.000109
 17,-0.00024320,0.00017660,0.00000596,-0.00000451,-0.00002382,-0.000163
 42,0.00019332,0.00005315,-0.00000039,0.00001341,-0.00000783,-0.0000039
 1,0.00000935,-0.00016799,-0.00000762,-0.00000156,-0.00000767,0.0014062
 4,0.00081341,-0.00019471,-0.00028368,-0.00033160,0.00069093,0.00025991
 ,-0.00035834,-0.00008803,-0.00024263,-0.00002990,0.00018398,-0.2056900
 5,-0.02397972,-0.12314032,-0.01151322,-0.00228572,-0.00879069,0.223070
 23,0.00014576,-0.00019187,-0.00007805,-0.00025460,0.00013402,0.0004040
 8,0.00005447,0.00003670,-0.00018983,0.00031412,-0.00013832,-0.00008640
 ,-0.00040365,0.00014797,-0.00117151,-0.00017397,-0.00378712,0.00016215
 ,0.00000750,-0.00007941,0.00018434,0.00316857,0.00083653,-0.00036331,-
 0.00009532,-0.00006651,0.00034228,0.02135841,0.00125811,0.01813733,-0.
 00000556,-0.00002201,-0.00002573,-0.00005822,0.00017770,-0.00010700,-0
 .00000058,0.00000311,0.00002145,0.00010100,-0.00013438,-0.00002765,-0.
 00000453,-0.00001196,0.00000417,0.00003370,0.00000685,0.00010095,0.000
 00891,-0.00000030,0.00001007,-0.00128473,0.00005714,0.00002545,-0.0001
 5809,0.00016310,-0.00014113,-0.00016148,0.00006692,0.00028370,0.000135
 45,-0.00004644,-0.00013159,-0.02252014,-0.04663375,-0.01992131,-0.0232
 8518,-0.00342180,-0.01858336,0.02300464,0.05290860,0.00003247,-0.00000
 984,-0.00002617,-0.00005763,-0.00005576,0.00019911,-0.00006992,0.00012
 021,-0.00008291,0.00012296,-0.00006563,-0.00008251,-0.00019433,-0.0000
 2047,-0.00027662,-0.00003972,-0.00029345,0.00070041,0.00012387,0.00014
 340,0.00002264,-0.00078368,-0.00003275,0.00036923,0.00001388,0.0000068
 0,0.00005571,0.00396739,0.00366394,0.00289384,-0.00001324,-0.00004985,
 0.00002139,-0.00001938,0.00005783,-0.00001110,-0.00000528,-0.00000508,
 -0.00000144,0.00002678,-0.00002437,-0.00000042,-0.00000630,0.00000033,
 -0.00000201,-0.00000903,0.00001998,0.00001495,-0.00000041,0.00000052,-
 0.00000256,0.00021312,0.00007680,0.00004457,0.00005809,0.00001018,-0.0
 0007653,-0.00033062,0.00005473,0.00019366,-0.00012088,0.00011985,0.000
 10099,-0.12171675,-0.02120616,-0.14547278,0.00621749,0.00067421,0.0039
 9198,0.13696763,0.02087486,0.15298589,-0.00000617,0.00000392,-0.000023
 34,-0.00000307,-0.00000438,0.00004548,0.00006339,-0.00004321,-0.000089
 51,-0.00003835,0.00006003,0.00000768,0.00008322,-0.00016538,0.00013182
 ,-0.00012476,0.00007992,-0.00082785,0.00015879,-0.00021409,0.00015266,
 0.00119089,-0.00227972,0.00040368,-0.00005789,0.00003926,-0.00002405,-
 0.00813036,-0.00085944,0.02228940,0.00000507,0.00008048,-0.00005413,0.
 00000233,-0.00000766,-0.00002770,0.00000358,0.00000624,-0.00000143,0.0
 0001072,-0.00000557,-0.00002946,0.00000701,-0.00000467,0.00000067,0.00
 002806,-0.00003901,0.00002904,0.00000024,-0.00000077,0.00000659,-0.000
 45802,0.00410167,0.00005276,-0.00000033,-0.00007741,-0.00027760,-0.000
 15620,0.00001879,0.00024370,-0.00071690,0.00028246,0.00071517,-0.07655
 460,0.00104504,0.08050210,-0.00490130,0.00116346,0.01238693,0.01026902
 ,0.00007351,-0.02437652,0.07932565,-0.00002437,0.00000905,0.00002472,0
 .00003807,-0.00001205,-0.00006494,-0.00006810,0.00004349,0.00009472,0.
 00003771,-0.00003339,0.00000306,-0.00009850,0.00013202,-0.00005498,-0.
 00023536,-0.00027924,0.00059515,-0.00010862,0.00022344,-0.00015250,-0.
 00140192,0.00149211,-0.00087684,0.00003334,-0.00006649,-0.00001888,0.0
 0756998,-0.00041893,-0.02591269,0.00005542,-0.00004720,0.00008453,-0.0
 0000982,-0.00001643,0.00003843,0.00000583,0.00000061,0.00000149,-0.000
 02471,0.00001431,0.00003043,-0.00000474,0.00000944,-0.00000075,-0.0000
 2382,0.00004807,-0.00003456,0.00000124,0.00000277,-0.00000629,0.003790
 66,-0.00198723,0.00083721,-0.00011853,-0.00004349,0.00008010,0.0004411
 1,-0.00044438,-0.00081225,0.00013736,-0.00009647,-0.00037137,-0.000346
 73,-0.04915233,0.00062696,-0.00787064,0.00224471,0.02729814,0.00147860
 ,-0.00126289,-0.00406030,-0.00325345,0.04964049,0.00004777,-0.00006143
 ,-0.00000171,-0.00006140,0.00006434,0.00003352,-0.00002664,0.00001870,
 0.00003283,0.00006391,-0.00006511,-0.00001768,-0.00003566,0.00014862,-
 0.00027470,-0.00003113,-0.00037036,0.00070002,-0.00011350,0.00017034,-
 0.00005004,-0.00180514,0.00179993,0.00041867,-0.00000943,-0.00003674,0
 .00008767,0.00106539,-0.00017961,-0.00433064,0.00000888,0.00000809,0.0
 0000619,-0.00002233,0.00003200,-0.00002535,-0.00000038,0.00000020,0.00
 000889,0.00001877,-0.00002806,0.00000976,0.00000086,-0.00000099,0.0000
 0322,-0.00000915,0.00001175,0.00000382,0.00000155,-0.00000017,-0.00000
 249,0.00083178,-0.00011068,0.00067978,-0.00017485,-0.00004415,0.000488
 52,0.00013355,-0.00028413,-0.00023469,0.00012653,-0.00005229,-0.000022
 36,0.08400920,-0.00362310,-0.29660836,0.00054319,-0.00032460,-0.003892
 98,0.00667429,0.00027602,-0.01555934,-0.09123608,0.00265142,0.31854744
 \\0.00000709,-0.00001343,0.00000131,-0.00000898,0.00002398,-0.00002290
 ,0.00000910,-0.00001079,0.00001402,-0.00000350,-0.00001397,0.00000597,
 -0.00000113,0.00002251,-0.00000322,-0.00000995,-0.00003350,0.00000579,
 0.00002327,-0.00000284,-0.00000498,-0.00002532,0.00004104,-0.00000769,
 0.00000822,-0.00000998,0.00001701,0.00001696,-0.00002251,0.00002821,-0
 .00000140,0.00000304,-0.00000291,0.00000522,-0.00000214,-0.00001296,-0
 .00000338,0.00000220,0.00000363,-0.00000670,0.00000770,-0.00001319,0.0
 0000209,-0.00000156,0.00000798,-0.00001240,0.00001279,0.00001698,0.000
 00175,-0.00000348,-0.00000101,0.00000182,-0.00000192,-0.00002755,0.000
 00649,-0.00001103,0.00000714,-0.00000384,-0.00000204,-0.00000201,0.000
 00241,0.00000885,0.00000007,-0.00002010,0.00000991,-0.00001482,-0.0000
 0409,-0.00000794,0.00000029,0.00001474,0.00000564,0.00000691,0.0000016
 6,-0.00000050,-0.00000206\\\@


 IT WAS A GAME, A VERY INTERESTING GAME ONE COULD
 PLAY.  WHENEVER ONE SOLVED ONE OF THE LITTLE PROBLEMS,
 ONE COULD WRITE A PAPER ABOUT IT.  IT WAS VERY EASY IN
 THOSE DAYS FOR ANY SECOND-RATE PHYSICIST TO DO
 FIRST-RATE WORK.  THERE HAS NOT BEEN SUCH A GLORIOUS
 TIME SINCE.  IT IS VERY DIFFICULT NOW FOR A FIRST-RATE
 PHYSICIST TO DO SECOND-RATE WORK.
     P.A.M. DIRAC, ON THE EARLY DAYS OF QUANTUM MECHANICS
                   DIRECTIONS IN PHYSICS, 1978, P. 7
 Job cpu time:       0 days  0 hours 23 minutes  8.7 seconds.
 File lengths (MBytes):  RWF=    199 Int=      0 D2E=      0 Chk=      7 Scr=      1
 Normal termination of Gaussian 09 at Fri Aug 20 16:03:48 2021.
