 Entering Gaussian System, Link 0=g09
 Input=B3LYP6-31G.KOBXOO.gjf
 Output=B3LYP6-31G.KOBXOO.log
 Initial command:
 /public/home/users/caep010/software/Gaussian09/g09/l1.exe "/public/home/users/caep010/.cache/gau_scr/Gau-7002.inp" -scrdir="/public/home/users/caep010/.cache/gau_scr/"
 Entering Link 1 = /public/home/users/caep010/software/Gaussian09/g09/l1.exe PID=      7003.
  
 Copyright (c) 1988,1990,1992,1993,1995,1998,2003,2009,2015,
            Gaussian, Inc.  All Rights Reserved.
  
 This is part of the Gaussian(R) 09 program.  It is based on
 the Gaussian(R) 03 system (copyright 2003, Gaussian, Inc.),
 the Gaussian(R) 98 system (copyright 1998, Gaussian, Inc.),
 the Gaussian(R) 94 system (copyright 1995, Gaussian, Inc.),
 the Gaussian 92(TM) system (copyright 1992, Gaussian, Inc.),
 the Gaussian 90(TM) system (copyright 1990, Gaussian, Inc.),
 the Gaussian 88(TM) system (copyright 1988, Gaussian, Inc.),
 the Gaussian 86(TM) system (copyright 1986, Carnegie Mellon
 University), and the Gaussian 82(TM) system (copyright 1983,
 Carnegie Mellon University). Gaussian is a federally registered
 trademark of Gaussian, Inc.
  
 This software contains proprietary and confidential information,
 including trade secrets, belonging to Gaussian, Inc.
  
 This software is provided under written license and may be
 used, copied, transmitted, or stored only in accord with that
 written license.
  
 The following legend is applicable only to US Government
 contracts under FAR:
  
                    RESTRICTED RIGHTS LEGEND
  
 Use, reproduction and disclosure by the US Government is
 subject to restrictions as set forth in subparagraphs (a)
 and (c) of the Commercial Computer Software - Restricted
 Rights clause in FAR 52.227-19.
  
 Gaussian, Inc.
 340 Quinnipiac St., Bldg. 40, Wallingford CT 06492
  
  
 ---------------------------------------------------------------
 Warning -- This program may not be used in any manner that
 competes with the business of Gaussian, Inc. or will provide
 assistance to any competitor of Gaussian, Inc.  The licensee
 of this program is prohibited from giving any competitor of
 Gaussian, Inc. access to this program.  By using this program,
 the user acknowledges that Gaussian, Inc. is engaged in the
 business of creating and licensing software in the field of
 computational chemistry and represents and warrants to the
 licensee that it is not a competitor of Gaussian, Inc. and that
 it will not use this program in any manner prohibited above.
 ---------------------------------------------------------------
  

 Cite this work as:
 Gaussian 09, Revision E.01,
 M. J. Frisch, G. W. Trucks, H. B. Schlegel, G. E. Scuseria, 
 M. A. Robb, J. R. Cheeseman, G. Scalmani, V. Barone, B. Mennucci, 
 G. A. Petersson, H. Nakatsuji, M. Caricato, X. Li, H. P. Hratchian, 
 A. F. Izmaylov, J. Bloino, G. Zheng, J. L. Sonnenberg, M. Hada, 
 M. Ehara, K. Toyota, R. Fukuda, J. Hasegawa, M. Ishida, T. Nakajima, 
 Y. Honda, O. Kitao, H. Nakai, T. Vreven, J. A. Montgomery, Jr., 
 J. E. Peralta, F. Ogliaro, M. Bearpark, J. J. Heyd, E. Brothers, 
 K. N. Kudin, V. N. Staroverov, T. Keith, R. Kobayashi, J. Normand, 
 K. Raghavachari, A. Rendell, J. C. Burant, S. S. Iyengar, J. Tomasi, 
 M. Cossi, N. Rega, J. M. Millam, M. Klene, J. E. Knox, J. B. Cross, 
 V. Bakken, C. Adamo, J. Jaramillo, R. Gomperts, R. E. Stratmann, 
 O. Yazyev, A. J. Austin, R. Cammi, C. Pomelli, J. W. Ochterski, 
 R. L. Martin, K. Morokuma, V. G. Zakrzewski, G. A. Voth, 
 P. Salvador, J. J. Dannenberg, S. Dapprich, A. D. Daniels, 
 O. Farkas, J. B. Foresman, J. V. Ortiz, J. Cioslowski, 
 and D. J. Fox, Gaussian, Inc., Wallingford CT, 2013.
 
 ******************************************
 Gaussian 09:  ES64L-G09RevE.01 30-Nov-2015
                20-Aug-2021 
 ******************************************
 %nproc=32
 Will use up to   32 processors via shared memory.
 %mem=180GB
 -------------------------
 #P OPT Freq B3LYP/6-31G**
 -------------------------
 1/14=-1,18=20,19=15,26=3,38=1/1,3;
 2/9=110,12=2,17=6,18=5,40=1/2;
 3/5=1,6=6,7=101,11=2,16=1,25=1,30=1,71=1,74=-5/1,2,3;
 4//1;
 5/5=2,38=5/2;
 6/7=2,8=2,9=2,10=2,28=1/1;
 7//1,2,3,16;
 1/14=-1,18=20,19=15,26=3/3(2);
 2/9=110/2;
 99//99;
 2/9=110/2;
 3/5=1,6=6,7=101,11=2,16=1,25=1,30=1,71=1,74=-5/1,2,3;
 4/5=5,16=3,69=1/1;
 5/5=2,38=5/2;
 7//1,2,3,16;
 1/14=-1,18=20,19=15,26=3/3(-5);
 2/9=110/2;
 6/7=2,8=2,9=2,10=2,19=2,28=1/1;
 99/9=1/99;
 Leave Link    1 at Fri Aug 20 15:56:05 2021, MaxMem= 24159191040 cpu:         2.1
 (Enter /public/home/users/caep010/software/Gaussian09/g09/l101.exe)
 ------
 KOBXOO
 ------
 Symbolic Z-matrix:
 Charge =  0 Multiplicity = 1
 O                    -1.7211    0.6561    5.0341 
 C                    -1.1184    1.1987    5.9848 
 N                    -1.4685    1.0624    7.2918 
 H                    -2.135     0.3536    7.6594 
 C                     0.0329    2.064     6.0158 
 N                     0.776     2.4784    4.9324 
 O                     1.7018    3.291     5.1032 
 C                     0.3095    2.42      7.3682 
 N                     1.2029    3.2448    7.8695 
 H                     1.2734    3.3438    8.7828 
 H                     1.7759    3.6617    7.4555 
 O                     0.4968    2.0234    3.8061 
 N                    -0.5714    1.7445    8.1219 
 H                    -0.7875    1.9091    9.0215 
 
 NAtoms=     14 NQM=       14 NQMF=       0 NMMI=      0 NMMIF=      0
                NMic=       0 NMicF=      0.
                    Isotopes and Nuclear Properties:
 (Nuclear quadrupole moments (NQMom) in fm**2, nuclear magnetic moments (NMagM)
  in nuclear magnetons)

  Atom         1           2           3           4           5           6           7           8           9          10
 IAtWgt=          16          12          14           1          12          14          16          12          14           1
 AtmWgt=  15.9949146  12.0000000  14.0030740   1.0078250  12.0000000  14.0030740  15.9949146  12.0000000  14.0030740   1.0078250
 NucSpn=           0           0           2           1           0           2           0           0           2           1
 AtZEff=   0.0000000   0.0000000   0.0000000   0.0000000   0.0000000   0.0000000   0.0000000   0.0000000   0.0000000   0.0000000
 NQMom=    0.0000000   0.0000000   2.0440000   0.0000000   0.0000000   2.0440000   0.0000000   0.0000000   2.0440000   0.0000000
 NMagM=    0.0000000   0.0000000   0.4037610   2.7928460   0.0000000   0.4037610   0.0000000   0.0000000   0.4037610   2.7928460
 AtZNuc=   8.0000000   6.0000000   7.0000000   1.0000000   6.0000000   7.0000000   8.0000000   6.0000000   7.0000000   1.0000000

  Atom        11          12          13          14
 IAtWgt=           1          16          14           1
 AtmWgt=   1.0078250  15.9949146  14.0030740   1.0078250
 NucSpn=           1           0           2           1
 AtZEff=   0.0000000   0.0000000   0.0000000   0.0000000
 NQMom=    0.0000000   0.0000000   2.0440000   0.0000000
 NMagM=    2.7928460   0.0000000   0.4037610   2.7928460
 AtZNuc=   1.0000000   8.0000000   7.0000000   1.0000000
 Leave Link  101 at Fri Aug 20 15:56:06 2021, MaxMem= 24159191040 cpu:        10.1
 (Enter /public/home/users/caep010/software/Gaussian09/g09/l103.exe)

 GradGradGradGradGradGradGradGradGradGradGradGradGradGradGradGradGradGrad
 Berny optimization.
 Initialization pass.
                           ----------------------------
                           !    Initial Parameters    !
                           ! (Angstroms and Degrees)  !
 --------------------------                            --------------------------
 ! Name  Definition              Value          Derivative Info.                !
 --------------------------------------------------------------------------------
 ! R1    R(1,2)                  1.2496         estimate D2E/DX2                !
 ! R2    R(2,3)                  1.3599         estimate D2E/DX2                !
 ! R3    R(2,5)                  1.4406         estimate D2E/DX2                !
 ! R4    R(3,4)                  1.0401         estimate D2E/DX2                !
 ! R5    R(3,13)                 1.3997         estimate D2E/DX2                !
 ! R6    R(5,6)                  1.3776         estimate D2E/DX2                !
 ! R7    R(5,8)                  1.4256         estimate D2E/DX2                !
 ! R8    R(6,7)                  1.2436         estimate D2E/DX2                !
 ! R9    R(6,12)                 1.2464         estimate D2E/DX2                !
 ! R10   R(8,9)                  1.3152         estimate D2E/DX2                !
 ! R11   R(8,13)                 1.3418         estimate D2E/DX2                !
 ! R12   R(9,10)                 0.9214         estimate D2E/DX2                !
 ! R13   R(9,11)                 0.8207         estimate D2E/DX2                !
 ! R14   R(13,14)                0.9397         estimate D2E/DX2                !
 ! A1    A(1,2,3)              124.2988         estimate D2E/DX2                !
 ! A2    A(1,2,5)              131.5035         estimate D2E/DX2                !
 ! A3    A(3,2,5)              104.1977         estimate D2E/DX2                !
 ! A4    A(2,3,4)              124.9568         estimate D2E/DX2                !
 ! A5    A(2,3,13)             110.8632         estimate D2E/DX2                !
 ! A6    A(4,3,13)             122.2232         estimate D2E/DX2                !
 ! A7    A(2,5,6)              126.5046         estimate D2E/DX2                !
 ! A8    A(2,5,8)              108.9951         estimate D2E/DX2                !
 ! A9    A(6,5,8)              124.4933         estimate D2E/DX2                !
 ! A10   A(5,6,7)              119.3485         estimate D2E/DX2                !
 ! A11   A(5,6,12)             118.6872         estimate D2E/DX2                !
 ! A12   A(7,6,12)             121.9644         estimate D2E/DX2                !
 ! A13   A(5,8,9)              130.5421         estimate D2E/DX2                !
 ! A14   A(5,8,13)             106.2474         estimate D2E/DX2                !
 ! A15   A(9,8,13)             123.2013         estimate D2E/DX2                !
 ! A16   A(8,9,10)             119.8143         estimate D2E/DX2                !
 ! A17   A(8,9,11)             126.9107         estimate D2E/DX2                !
 ! A18   A(10,9,11)            113.0814         estimate D2E/DX2                !
 ! A19   A(3,13,8)             109.4502         estimate D2E/DX2                !
 ! A20   A(3,13,14)            120.3786         estimate D2E/DX2                !
 ! A21   A(8,13,14)            126.908          estimate D2E/DX2                !
 ! D1    D(1,2,3,4)             13.2785         estimate D2E/DX2                !
 ! D2    D(1,2,3,13)           177.5775         estimate D2E/DX2                !
 ! D3    D(5,2,3,4)           -166.7397         estimate D2E/DX2                !
 ! D4    D(5,2,3,13)            -2.4407         estimate D2E/DX2                !
 ! D5    D(1,2,5,6)             -1.581          estimate D2E/DX2                !
 ! D6    D(1,2,5,8)            179.3512         estimate D2E/DX2                !
 ! D7    D(3,2,5,6)            178.4391         estimate D2E/DX2                !
 ! D8    D(3,2,5,8)             -0.6287         estimate D2E/DX2                !
 ! D9    D(2,3,13,8)             4.8734         estimate D2E/DX2                !
 ! D10   D(2,3,13,14)          165.8253         estimate D2E/DX2                !
 ! D11   D(4,3,13,8)           169.6743         estimate D2E/DX2                !
 ! D12   D(4,3,13,14)          -29.3738         estimate D2E/DX2                !
 ! D13   D(2,5,6,7)            175.8825         estimate D2E/DX2                !
 ! D14   D(2,5,6,12)            -4.137          estimate D2E/DX2                !
 ! D15   D(8,5,6,7)             -5.1869         estimate D2E/DX2                !
 ! D16   D(8,5,6,12)           174.7935         estimate D2E/DX2                !
 ! D17   D(2,5,8,9)           -175.388          estimate D2E/DX2                !
 ! D18   D(2,5,8,13)             3.515          estimate D2E/DX2                !
 ! D19   D(6,5,8,9)              5.5211         estimate D2E/DX2                !
 ! D20   D(6,5,8,13)          -175.5758         estimate D2E/DX2                !
 ! D21   D(5,8,9,10)          -177.8724         estimate D2E/DX2                !
 ! D22   D(5,8,9,11)            -3.297          estimate D2E/DX2                !
 ! D23   D(13,8,9,10)            3.3863         estimate D2E/DX2                !
 ! D24   D(13,8,9,11)          177.9616         estimate D2E/DX2                !
 ! D25   D(5,8,13,3)            -4.9864         estimate D2E/DX2                !
 ! D26   D(5,8,13,14)         -164.3696         estimate D2E/DX2                !
 ! D27   D(9,8,13,3)           174.0173         estimate D2E/DX2                !
 ! D28   D(9,8,13,14)           14.6342         estimate D2E/DX2                !
 --------------------------------------------------------------------------------
 Trust Radius=3.00D-01 FncErr=1.00D-07 GrdErr=1.00D-06
 Number of steps in this run=     73 maximum allowed number of steps=    100.
 GradGradGradGradGradGradGradGradGradGradGradGradGradGradGradGradGradGrad

 Leave Link  103 at Fri Aug 20 15:56:06 2021, MaxMem= 24159191040 cpu:         0.4
 (Enter /public/home/users/caep010/software/Gaussian09/g09/l202.exe)
                          Input orientation:                          
 ---------------------------------------------------------------------
 Center     Atomic      Atomic             Coordinates (Angstroms)
 Number     Number       Type             X           Y           Z
 ---------------------------------------------------------------------
      1          8           0       -1.721100    0.656100    5.034100
      2          6           0       -1.118400    1.198700    5.984800
      3          7           0       -1.468500    1.062400    7.291800
      4          1           0       -2.135000    0.353600    7.659400
      5          6           0        0.032900    2.064000    6.015800
      6          7           0        0.776000    2.478400    4.932400
      7          8           0        1.701800    3.291000    5.103200
      8          6           0        0.309500    2.420000    7.368200
      9          7           0        1.202900    3.244800    7.869500
     10          1           0        1.273400    3.343800    8.782800
     11          1           0        1.775900    3.661700    7.455500
     12          8           0        0.496800    2.023400    3.806100
     13          7           0       -0.571400    1.744500    8.121900
     14          1           0       -0.787500    1.909100    9.021500
 ---------------------------------------------------------------------
                    Distance matrix (angstroms):
                    1          2          3          4          5
     1  O    0.000000
     2  C    1.249597   0.000000
     3  N    2.307834   1.359925   0.000000
     4  H    2.674887   2.133531   1.040072   0.000000
     5  C    2.454065   1.440554   2.210335   3.213515   0.000000
     6  N    3.092997   2.516730   3.551001   4.519428   1.377563
     7  O    4.320152   3.620562   4.450554   5.466581   2.263536
     8  C    3.561278   2.333295   2.238347   3.214092   1.425563
     9  N    4.826037   3.623128   3.497568   4.420945   2.489858
    10  H    5.499410   4.260395   3.865991   4.671243   3.291355
    11  H    5.208245   4.075083   4.160443   5.126426   2.768290
    12  O    2.880377   2.834737   4.115341   4.956059   2.258235
    13  N    3.470005   2.272510   1.399684   2.143211   2.214253
    14  H    4.282637   3.136194   2.042676   2.467925   3.119500
                    6          7          8          9         10
     6  N    0.000000
     7  O    1.243623   0.000000
     8  C    2.480757   2.797743   0.000000
     9  N    3.065317   2.811308   1.315204   0.000000
    10  H    3.977676   3.704831   1.945149   0.921351   0.000000
    11  H    2.960749   2.382483   1.923478   0.820689   1.454404
    12  O    1.246407   2.177453   3.589001   4.301350   5.207121
    13  N    3.539351   4.083093   1.341771   2.337252   2.529394
    14  H    4.414677   4.843484   2.048860   2.659491   2.522430
                   11         12         13         14
    11  H    0.000000
    12  O    4.199791   0.000000
    13  N    3.103154   4.454769   0.000000
    14  H    3.477784   5.372419   0.939719   0.000000
 Stoichiometry    C3H4N4O3
 Framework group  C1[X(C3H4N4O3)]
 Deg. of freedom    36
 Full point group                 C1      NOp   1
 Largest Abelian subgroup         C1      NOp   1
 Largest concise Abelian subgroup C1      NOp   1
                         Standard orientation:                         
 ---------------------------------------------------------------------
 Center     Atomic      Atomic             Coordinates (Angstroms)
 Number     Number       Type             X           Y           Z
 ---------------------------------------------------------------------
      1          8           0       -0.446553   -2.440476   -0.070812
      2          6           0       -0.695431   -1.216453   -0.034473
      3          7           0       -1.948973   -0.689686   -0.011120
      4          1           0       -2.818585   -1.228907    0.175331
      5          6           0        0.171655   -0.066381   -0.008180
      6          7           0        1.549011   -0.078812    0.012210
      7          8           0        2.169174    0.997687   -0.043881
      8          6           0       -0.625465    1.115255    0.015604
      9          7           0       -0.277407    2.382477   -0.036970
     10          1           0       -0.922888    3.037527    0.019179
     11          1           0        0.485804    2.683614   -0.055805
     12          8           0        2.136402   -1.175576    0.087115
     13          7           0       -1.901498    0.705996    0.083393
     14          1           0       -2.668986    1.220324   -0.088367
 ---------------------------------------------------------------------
 Rotational constants (GHZ):      1.8117249      1.5926426      0.8487406
 Leave Link  202 at Fri Aug 20 15:56:06 2021, MaxMem= 24159191040 cpu:         0.4
 (Enter /public/home/users/caep010/software/Gaussian09/g09/l301.exe)
 Standard basis: 6-31G(d,p) (6D, 7F)
 Ernie: Thresh=  0.10000D-02 Tol=  0.10000D-05 Strict=F.
 There are   170 symmetry adapted cartesian basis functions of A   symmetry.
 There are   170 symmetry adapted basis functions of A   symmetry.
   170 basis functions,   308 primitive gaussians,   170 cartesian basis functions
    37 alpha electrons       37 beta electrons
       nuclear repulsion energy       548.3967470881 Hartrees.
 IExCor=  402 DFT=T Ex+Corr=B3LYP ExCW=0 ScaHFX=  0.200000
 ScaDFX=  0.800000  0.720000  1.000000  0.810000 ScalE2=  1.000000  1.000000
 IRadAn=      0 IRanWt=     -1 IRanGd=            0 ICorTp=0 IEmpDi=  4
 NAtoms=   14 NActive=   14 NUniq=   14 SFac= 1.00D+00 NAtFMM=   60 NAOKFM=F Big=F
 Integral buffers will be    131072 words long.
 Raffenetti 2 integral format.
 Two-electron integral symmetry is turned on.
 Leave Link  301 at Fri Aug 20 15:56:06 2021, MaxMem= 24159191040 cpu:         1.8
 (Enter /public/home/users/caep010/software/Gaussian09/g09/l302.exe)
 NPDir=0 NMtPBC=     1 NCelOv=     1 NCel=       1 NClECP=     1 NCelD=      1
         NCelK=      1 NCelE2=     1 NClLst=     1 CellRange=     0.0.
 One-electron integrals computed using PRISM.
 NBasis=   170 RedAO= T EigKep=  7.14D-04  NBF=   170
 NBsUse=   170 1.00D-06 EigRej= -1.00D+00 NBFU=   170
 Precomputing XC quadrature grid using
 IXCGrd= 4 IRadAn=           0 IRanWt=          -1 IRanGd=           0 AccXCQ= 0.00D+00.
 Generated NRdTot=       0 NPtTot=           0 NUsed=           0 NTot=          32
 NSgBfM=   170   170   170   170   170 MxSgAt=    14 MxSgA2=    14.
 Leave Link  302 at Fri Aug 20 15:56:06 2021, MaxMem= 24159191040 cpu:        11.5
 (Enter /public/home/users/caep010/software/Gaussian09/g09/l303.exe)
 DipDrv:  MaxL=1.
 Leave Link  303 at Fri Aug 20 15:56:06 2021, MaxMem= 24159191040 cpu:         0.7
 (Enter /public/home/users/caep010/software/Gaussian09/g09/l401.exe)
 ExpMin= 1.61D-01 ExpMax= 5.48D+03 ExpMxC= 8.25D+02 IAcc=1 IRadAn=         1 AccDes= 0.00D+00
 Harris functional with IExCor=  402 and IRadAn=       1 diagonalized for initial guess.
 HarFok:  IExCor=  402 AccDes= 0.00D+00 IRadAn=         1 IDoV= 1 UseB2=F ITyADJ=14
 ICtDFT=  3500011 ScaDFX=  1.000000  1.000000  1.000000  1.000000
 FoFCou: FMM=F IPFlag=           0 FMFlag=      100000 FMFlg1=           0
         NFxFlg=           0 DoJE=T BraDBF=F KetDBF=T FulRan=T
         wScrn=  0.000000 ICntrl=     500 IOpCl=  0 I1Cent=   200000004 NGrid=           0
         NMat0=    1 NMatS0=      1 NMatT0=    0 NMatD0=    1 NMtDS0=    0 NMtDT0=    0
 Petite list used in FoFCou.
 Harris En= -561.258576241634    
 JPrj=0 DoOrth=F DoCkMO=F.
 Leave Link  401 at Fri Aug 20 15:56:07 2021, MaxMem= 24159191040 cpu:        11.9
 (Enter /public/home/users/caep010/software/Gaussian09/g09/l502.exe)
 Closed shell SCF:
 Using DIIS extrapolation, IDIIS=  1040.
 Integral symmetry usage will be decided dynamically.
 Keep R1 ints in memory in canonical form, NReq=108252360.
 IVT=      111960 IEndB=      111960 NGot= 24159191040 MDV= 24053438701
 LenX= 24053438701 LenY= 24053409360
 Requested convergence on RMS density matrix=1.00D-08 within 128 cycles.
 Requested convergence on MAX density matrix=1.00D-06.
 Requested convergence on             energy=1.00D-06.
 No special actions if energy rises.
 FoFCou: FMM=F IPFlag=           0 FMFlag=           0 FMFlg1=           0
         NFxFlg=           0 DoJE=F BraDBF=F KetDBF=F FulRan=T
         wScrn=  0.000000 ICntrl=     600 IOpCl=  0 I1Cent=           0 NGrid=           0
         NMat0=    1 NMatS0=  14535 NMatT0=    0 NMatD0=    1 NMtDS0=    0 NMtDT0=    0
 Symmetry not used in FoFCou.
 Integral accuracy reduced to 1.0D-05 until final iterations.

 Cycle   1  Pass 0  IDiag  1:
 E= -560.857779117352    
 DIIS: error= 3.86D-02 at cycle   1 NSaved=   1.
 NSaved= 1 IEnMin= 1 EnMin= -560.857779117352     IErMin= 1 ErrMin= 3.86D-02
 ErrMax= 3.86D-02  0.00D+00 EMaxC= 1.00D-01 BMatC= 4.48D-01 BMatP= 4.48D-01
 IDIUse=3 WtCom= 6.14D-01 WtEn= 3.86D-01
 Coeff-Com:  0.100D+01
 Coeff-En:   0.100D+01
 Coeff:      0.100D+01
 Gap=     0.182 Goal=   None    Shift=    0.000
 GapD=    0.182 DampG=1.000 DampE=0.500 DampFc=0.5000 IDamp=-1.
 Damping current iteration by 5.00D-01
 RMSDP=1.74D-02 MaxDP=9.93D-01              OVMax= 5.24D-01

 Cycle   2  Pass 0  IDiag  1:
 E= -560.731193097966     Delta-E=        0.126586019386 Rises=F Damp=T
 DIIS: error= 2.45D-02 at cycle   2 NSaved=   2.
 NSaved= 2 IEnMin= 1 EnMin= -560.857779117352     IErMin= 2 ErrMin= 2.45D-02
 ErrMax= 2.45D-02  0.00D+00 EMaxC= 1.00D-01 BMatC= 2.12D-01 BMatP= 4.48D-01
 IDIUse=3 WtCom= 7.55D-01 WtEn= 2.45D-01
 Coeff-Com:  0.386D+00 0.614D+00
 Coeff-En:   0.602D+00 0.398D+00
 Coeff:      0.439D+00 0.561D+00
 Gap=     0.155 Goal=   None    Shift=    0.000
 RMSDP=7.26D-03 MaxDP=4.78D-01 DE= 1.27D-01 OVMax= 3.43D-01

 Cycle   3  Pass 0  IDiag  1:
 E= -561.110244614788     Delta-E=       -0.379051516822 Rises=F Damp=F
 DIIS: error= 2.15D-02 at cycle   3 NSaved=   3.
 NSaved= 3 IEnMin= 3 EnMin= -561.110244614788     IErMin= 3 ErrMin= 2.15D-02
 ErrMax= 2.15D-02  0.00D+00 EMaxC= 1.00D-01 BMatC= 1.20D-01 BMatP= 2.12D-01
 IDIUse=3 WtCom= 7.85D-01 WtEn= 2.15D-01
 Coeff-Com:  0.220D+00 0.386D+00 0.394D+00
 Coeff-En:   0.275D-01 0.000D+00 0.973D+00
 Coeff:      0.178D+00 0.303D+00 0.519D+00
 Gap=     0.207 Goal=   None    Shift=    0.000
 RMSDP=3.07D-03 MaxDP=9.40D-02 DE=-3.79D-01 OVMax= 1.43D-01

 Cycle   4  Pass 0  IDiag  1:
 E= -561.167574460882     Delta-E=       -0.057329846094 Rises=F Damp=F
 DIIS: error= 1.89D-02 at cycle   4 NSaved=   4.
 NSaved= 4 IEnMin= 4 EnMin= -561.167574460882     IErMin= 4 ErrMin= 1.89D-02
 ErrMax= 1.89D-02  0.00D+00 EMaxC= 1.00D-01 BMatC= 5.40D-02 BMatP= 1.20D-01
 IDIUse=3 WtCom= 8.11D-01 WtEn= 1.89D-01
 Coeff-Com:  0.792D-01 0.122D+00 0.368D+00 0.430D+00
 Coeff-En:   0.000D+00 0.000D+00 0.339D+00 0.661D+00
 Coeff:      0.642D-01 0.991D-01 0.363D+00 0.474D+00
 Gap=     0.182 Goal=   None    Shift=    0.000
 RMSDP=1.53D-03 MaxDP=6.41D-02 DE=-5.73D-02 OVMax= 1.28D-01

 Cycle   5  Pass 0  IDiag  1:
 E= -561.202582842933     Delta-E=       -0.035008382051 Rises=F Damp=F
 DIIS: error= 9.76D-03 at cycle   5 NSaved=   5.
 NSaved= 5 IEnMin= 5 EnMin= -561.202582842933     IErMin= 5 ErrMin= 9.76D-03
 ErrMax= 9.76D-03  0.00D+00 EMaxC= 1.00D-01 BMatC= 9.49D-03 BMatP= 5.40D-02
 IDIUse=3 WtCom= 9.02D-01 WtEn= 9.76D-02
 Coeff-Com:  0.185D-01 0.198D-01 0.202D+00 0.363D+00 0.396D+00
 Coeff-En:   0.000D+00 0.000D+00 0.000D+00 0.177D+00 0.823D+00
 Coeff:      0.167D-01 0.179D-01 0.183D+00 0.345D+00 0.438D+00
 Gap=     0.179 Goal=   None    Shift=    0.000
 RMSDP=6.10D-04 MaxDP=2.66D-02 DE=-3.50D-02 OVMax= 5.56D-02

 Cycle   6  Pass 0  IDiag  1:
 E= -561.209158911230     Delta-E=       -0.006576068297 Rises=F Damp=F
 DIIS: error= 2.87D-03 at cycle   6 NSaved=   6.
 NSaved= 6 IEnMin= 6 EnMin= -561.209158911230     IErMin= 6 ErrMin= 2.87D-03
 ErrMax= 2.87D-03  0.00D+00 EMaxC= 1.00D-01 BMatC= 1.28D-03 BMatP= 9.49D-03
 IDIUse=3 WtCom= 9.71D-01 WtEn= 2.87D-02
 Coeff-Com: -0.500D-03-0.877D-02 0.685D-01 0.165D+00 0.317D+00 0.459D+00
 Coeff-En:   0.000D+00 0.000D+00 0.000D+00 0.000D+00 0.153D+00 0.847D+00
 Coeff:     -0.485D-03-0.852D-02 0.665D-01 0.160D+00 0.313D+00 0.470D+00
 Gap=     0.179 Goal=   None    Shift=    0.000
 RMSDP=2.14D-04 MaxDP=8.11D-03 DE=-6.58D-03 OVMax= 1.42D-02

 Cycle   7  Pass 0  IDiag  1:
 E= -561.210097654302     Delta-E=       -0.000938743072 Rises=F Damp=F
 DIIS: error= 4.81D-04 at cycle   7 NSaved=   7.
 NSaved= 7 IEnMin= 7 EnMin= -561.210097654302     IErMin= 7 ErrMin= 4.81D-04
 ErrMax= 4.81D-04  0.00D+00 EMaxC= 1.00D-01 BMatC= 7.63D-05 BMatP= 1.28D-03
 IDIUse=3 WtCom= 9.95D-01 WtEn= 4.81D-03
 Coeff-Com: -0.458D-03-0.490D-02 0.144D-01 0.338D-01 0.106D+00 0.271D+00
 Coeff-Com:  0.580D+00
 Coeff-En:   0.000D+00 0.000D+00 0.000D+00 0.000D+00 0.000D+00 0.203D-01
 Coeff-En:   0.980D+00
 Coeff:     -0.455D-03-0.487D-02 0.143D-01 0.337D-01 0.105D+00 0.270D+00
 Coeff:      0.582D+00
 Gap=     0.180 Goal=   None    Shift=    0.000
 RMSDP=5.54D-05 MaxDP=1.50D-03 DE=-9.39D-04 OVMax= 2.46D-03

 Cycle   8  Pass 0  IDiag  1:
 E= -561.210155177444     Delta-E=       -0.000057523142 Rises=F Damp=F
 DIIS: error= 1.40D-04 at cycle   8 NSaved=   8.
 NSaved= 8 IEnMin= 8 EnMin= -561.210155177444     IErMin= 8 ErrMin= 1.40D-04
 ErrMax= 1.40D-04  0.00D+00 EMaxC= 1.00D-01 BMatC= 4.71D-06 BMatP= 7.63D-05
 IDIUse=3 WtCom= 9.99D-01 WtEn= 1.40D-03
 Coeff-Com:  0.110D-03-0.204D-02 0.286D-02 0.370D-02 0.285D-01 0.108D+00
 Coeff-Com:  0.296D+00 0.562D+00
 Coeff-En:   0.000D+00 0.000D+00 0.000D+00 0.000D+00 0.000D+00 0.000D+00
 Coeff-En:   0.000D+00 0.100D+01
 Coeff:      0.110D-03-0.203D-02 0.286D-02 0.369D-02 0.284D-01 0.108D+00
 Coeff:      0.296D+00 0.563D+00
 Gap=     0.180 Goal=   None    Shift=    0.000
 RMSDP=1.48D-05 MaxDP=3.23D-04 DE=-5.75D-05 OVMax= 6.33D-04

 Cycle   9  Pass 0  IDiag  1:
 E= -561.210158930546     Delta-E=       -0.000003753102 Rises=F Damp=F
 DIIS: error= 3.20D-05 at cycle   9 NSaved=   9.
 NSaved= 9 IEnMin= 9 EnMin= -561.210158930546     IErMin= 9 ErrMin= 3.20D-05
 ErrMax= 3.20D-05  0.00D+00 EMaxC= 1.00D-01 BMatC= 2.77D-07 BMatP= 4.71D-06
 IDIUse=1 WtCom= 1.00D+00 WtEn= 0.00D+00
 Coeff-Com:  0.166D-03-0.570D-03 0.352D-03-0.124D-02 0.310D-02 0.262D-01
 Coeff-Com:  0.762D-01 0.232D+00 0.664D+00
 Coeff:      0.166D-03-0.570D-03 0.352D-03-0.124D-02 0.310D-02 0.262D-01
 Coeff:      0.762D-01 0.232D+00 0.664D+00
 Gap=     0.180 Goal=   None    Shift=    0.000
 RMSDP=4.21D-06 MaxDP=1.63D-04 DE=-3.75D-06 OVMax= 1.65D-04

 Initial convergence to 1.0D-05 achieved.  Increase integral accuracy.
 Cycle  10  Pass 1  IDiag  1:
 E= -561.210108018843     Delta-E=        0.000050911702 Rises=F Damp=F
 DIIS: error= 1.47D-05 at cycle   1 NSaved=   1.
 NSaved= 1 IEnMin= 1 EnMin= -561.210108018843     IErMin= 1 ErrMin= 1.47D-05
 ErrMax= 1.47D-05  0.00D+00 EMaxC= 1.00D-01 BMatC= 1.21D-07 BMatP= 1.21D-07
 IDIUse=1 WtCom= 1.00D+00 WtEn= 0.00D+00
 Coeff-Com:  0.100D+01
 Coeff:      0.100D+01
 Gap=     0.180 Goal=   None    Shift=    0.000
 RMSDP=4.21D-06 MaxDP=1.63D-04 DE= 5.09D-05 OVMax= 1.54D-04

 Cycle  11  Pass 1  IDiag  1:
 E= -561.210108005009     Delta-E=        0.000000013835 Rises=F Damp=F
 DIIS: error= 2.19D-05 at cycle   2 NSaved=   2.
 NSaved= 2 IEnMin= 1 EnMin= -561.210108018843     IErMin= 1 ErrMin= 1.47D-05
 ErrMax= 2.19D-05  0.00D+00 EMaxC= 1.00D-01 BMatC= 1.67D-07 BMatP= 1.21D-07
 IDIUse=1 WtCom= 1.00D+00 WtEn= 0.00D+00
 Coeff-Com:  0.550D+00 0.450D+00
 Coeff:      0.550D+00 0.450D+00
 Gap=     0.180 Goal=   None    Shift=    0.000
 RMSDP=2.96D-06 MaxDP=7.89D-05 DE= 1.38D-08 OVMax= 1.18D-04

 Cycle  12  Pass 1  IDiag  1:
 E= -561.210108128104     Delta-E=       -0.000000123095 Rises=F Damp=F
 DIIS: error= 8.76D-06 at cycle   3 NSaved=   3.
 NSaved= 3 IEnMin= 3 EnMin= -561.210108128104     IErMin= 3 ErrMin= 8.76D-06
 ErrMax= 8.76D-06  0.00D+00 EMaxC= 1.00D-01 BMatC= 1.95D-08 BMatP= 1.21D-07
 IDIUse=1 WtCom= 1.00D+00 WtEn= 0.00D+00
 Coeff-Com:  0.748D-01 0.251D+00 0.674D+00
 Coeff:      0.748D-01 0.251D+00 0.674D+00
 Gap=     0.180 Goal=   None    Shift=    0.000
 RMSDP=1.33D-06 MaxDP=3.97D-05 DE=-1.23D-07 OVMax= 5.57D-05

 Cycle  13  Pass 1  IDiag  1:
 E= -561.210108135521     Delta-E=       -0.000000007417 Rises=F Damp=F
 DIIS: error= 6.25D-06 at cycle   4 NSaved=   4.
 NSaved= 4 IEnMin= 4 EnMin= -561.210108135521     IErMin= 4 ErrMin= 6.25D-06
 ErrMax= 6.25D-06  0.00D+00 EMaxC= 1.00D-01 BMatC= 9.67D-09 BMatP= 1.95D-08
 IDIUse=1 WtCom= 1.00D+00 WtEn= 0.00D+00
 Coeff-Com: -0.776D-02 0.133D+00 0.496D+00 0.379D+00
 Coeff:     -0.776D-02 0.133D+00 0.496D+00 0.379D+00
 Gap=     0.180 Goal=   None    Shift=    0.000
 RMSDP=6.13D-07 MaxDP=2.02D-05 DE=-7.42D-09 OVMax= 3.61D-05

 Cycle  14  Pass 1  IDiag  1:
 E= -561.210108142910     Delta-E=       -0.000000007389 Rises=F Damp=F
 DIIS: error= 2.29D-06 at cycle   5 NSaved=   5.
 NSaved= 5 IEnMin= 5 EnMin= -561.210108142910     IErMin= 5 ErrMin= 2.29D-06
 ErrMax= 2.29D-06  0.00D+00 EMaxC= 1.00D-01 BMatC= 5.96D-10 BMatP= 9.67D-09
 IDIUse=1 WtCom= 1.00D+00 WtEn= 0.00D+00
 Coeff-Com: -0.102D-01 0.745D-01 0.295D+00 0.262D+00 0.379D+00
 Coeff:     -0.102D-01 0.745D-01 0.295D+00 0.262D+00 0.379D+00
 Gap=     0.180 Goal=   None    Shift=    0.000
 RMSDP=1.41D-07 MaxDP=6.29D-06 DE=-7.39D-09 OVMax= 1.28D-05

 Cycle  15  Pass 1  IDiag  1:
 E= -561.210108143369     Delta-E=       -0.000000000459 Rises=F Damp=F
 DIIS: error= 6.25D-07 at cycle   6 NSaved=   6.
 NSaved= 6 IEnMin= 6 EnMin= -561.210108143369     IErMin= 6 ErrMin= 6.25D-07
 ErrMax= 6.25D-07  0.00D+00 EMaxC= 1.00D-01 BMatC= 5.93D-11 BMatP= 5.96D-10
 IDIUse=1 WtCom= 1.00D+00 WtEn= 0.00D+00
 Coeff-Com: -0.598D-02 0.356D-01 0.143D+00 0.137D+00 0.268D+00 0.422D+00
 Coeff:     -0.598D-02 0.356D-01 0.143D+00 0.137D+00 0.268D+00 0.422D+00
 Gap=     0.180 Goal=   None    Shift=    0.000
 RMSDP=4.81D-08 MaxDP=1.41D-06 DE=-4.59D-10 OVMax= 2.95D-06

 Cycle  16  Pass 1  IDiag  1:
 E= -561.210108143391     Delta-E=       -0.000000000022 Rises=F Damp=F
 DIIS: error= 9.24D-08 at cycle   7 NSaved=   7.
 NSaved= 7 IEnMin= 7 EnMin= -561.210108143391     IErMin= 7 ErrMin= 9.24D-08
 ErrMax= 9.24D-08  0.00D+00 EMaxC= 1.00D-01 BMatC= 3.41D-12 BMatP= 5.93D-11
 IDIUse=1 WtCom= 1.00D+00 WtEn= 0.00D+00
 Coeff-Com: -0.176D-02 0.756D-02 0.315D-01 0.350D-01 0.917D-01 0.231D+00
 Coeff-Com:  0.605D+00
 Coeff:     -0.176D-02 0.756D-02 0.315D-01 0.350D-01 0.917D-01 0.231D+00
 Coeff:      0.605D+00
 Gap=     0.180 Goal=   None    Shift=    0.000
 RMSDP=1.27D-08 MaxDP=3.13D-07 DE=-2.18D-11 OVMax= 6.00D-07

 Cycle  17  Pass 1  IDiag  1:
 E= -561.210108143422     Delta-E=       -0.000000000031 Rises=F Damp=F
 DIIS: error= 4.82D-08 at cycle   8 NSaved=   8.
 NSaved= 8 IEnMin= 8 EnMin= -561.210108143422     IErMin= 8 ErrMin= 4.82D-08
 ErrMax= 4.82D-08  0.00D+00 EMaxC= 1.00D-01 BMatC= 5.29D-13 BMatP= 3.41D-12
 IDIUse=1 WtCom= 1.00D+00 WtEn= 0.00D+00
 Coeff-Com: -0.341D-03 0.442D-03 0.256D-02 0.518D-02 0.244D-01 0.827D-01
 Coeff-Com:  0.349D+00 0.536D+00
 Coeff:     -0.341D-03 0.442D-03 0.256D-02 0.518D-02 0.244D-01 0.827D-01
 Coeff:      0.349D+00 0.536D+00
 Gap=     0.180 Goal=   None    Shift=    0.000
 RMSDP=5.53D-09 MaxDP=1.59D-07 DE=-3.09D-11 OVMax= 1.82D-07

 SCF Done:  E(RB3LYP) =  -561.210108143     A.U. after   17 cycles
            NFock= 17  Conv=0.55D-08     -V/T= 2.0072
 KE= 5.571784584203D+02 PE=-2.410740748371D+03 EE= 7.439554347191D+02
 Leave Link  502 at Fri Aug 20 15:56:12 2021, MaxMem= 24159191040 cpu:        69.7
 (Enter /public/home/users/caep010/software/Gaussian09/g09/l601.exe)
 Copying SCF densities to generalized density rwf, IOpCl= 0 IROHF=0.

 **********************************************************************

            Population analysis using the SCF density.

 **********************************************************************

 Orbital symmetries:
       Occupied  (A) (A) (A) (A) (A) (A) (A) (A) (A) (A) (A) (A)
                 (A) (A) (A) (A) (A) (A) (A) (A) (A) (A) (A) (A)
                 (A) (A) (A) (A) (A) (A) (A) (A) (A) (A) (A) (A)
                 (A)
       Virtual   (A) (A) (A) (A) (A) (A) (A) (A) (A) (A) (A) (A)
                 (A) (A) (A) (A) (A) (A) (A) (A) (A) (A) (A) (A)
                 (A) (A) (A) (A) (A) (A) (A) (A) (A) (A) (A) (A)
                 (A) (A) (A) (A) (A) (A) (A) (A) (A) (A) (A) (A)
                 (A) (A) (A) (A) (A) (A) (A) (A) (A) (A) (A) (A)
                 (A) (A) (A) (A) (A) (A) (A) (A) (A) (A) (A) (A)
                 (A) (A) (A) (A) (A) (A) (A) (A) (A) (A) (A) (A)
                 (A) (A) (A) (A) (A) (A) (A) (A) (A) (A) (A) (A)
                 (A) (A) (A) (A) (A) (A) (A) (A) (A) (A) (A) (A)
                 (A) (A) (A) (A) (A) (A) (A) (A) (A) (A) (A) (A)
                 (A) (A) (A) (A) (A) (A) (A) (A) (A) (A) (A) (A)
                 (A)
 The electronic state is 1-A.
 Alpha  occ. eigenvalues --  -19.14719 -19.14157 -19.09940 -14.54524 -14.45106
 Alpha  occ. eigenvalues --  -14.42452 -14.38805 -10.33152 -10.29278 -10.23128
 Alpha  occ. eigenvalues --   -1.18992  -1.10442  -1.02407  -1.00664  -0.99114
 Alpha  occ. eigenvalues --   -0.87477  -0.84513  -0.74982  -0.68531  -0.64501
 Alpha  occ. eigenvalues --   -0.61773  -0.57004  -0.55757  -0.51927  -0.51533
 Alpha  occ. eigenvalues --   -0.50378  -0.48406  -0.45527  -0.40624  -0.39936
 Alpha  occ. eigenvalues --   -0.34926  -0.28815  -0.27553  -0.26285  -0.25664
 Alpha  occ. eigenvalues --   -0.23967  -0.23251
 Alpha virt. eigenvalues --   -0.05284   0.00696   0.03652   0.04531   0.08508
 Alpha virt. eigenvalues --    0.11265   0.12329   0.15802   0.20009   0.23547
 Alpha virt. eigenvalues --    0.25762   0.27271   0.30133   0.34599   0.36917
 Alpha virt. eigenvalues --    0.42486   0.46050   0.50288   0.50435   0.52902
 Alpha virt. eigenvalues --    0.55128   0.56165   0.57558   0.59064   0.62191
 Alpha virt. eigenvalues --    0.63910   0.64659   0.69343   0.70824   0.71992
 Alpha virt. eigenvalues --    0.74429   0.77928   0.79027   0.80162   0.81471
 Alpha virt. eigenvalues --    0.83284   0.83899   0.85033   0.87836   0.95124
 Alpha virt. eigenvalues --    0.95647   0.97656   0.98257   1.00341   1.02922
 Alpha virt. eigenvalues --    1.04413   1.05354   1.09442   1.12064   1.13002
 Alpha virt. eigenvalues --    1.17632   1.20205   1.24904   1.25780   1.27677
 Alpha virt. eigenvalues --    1.30685   1.32711   1.34282   1.36389   1.40376
 Alpha virt. eigenvalues --    1.43422   1.45788   1.48286   1.53390   1.56924
 Alpha virt. eigenvalues --    1.64914   1.67633   1.69927   1.74012   1.74418
 Alpha virt. eigenvalues --    1.79759   1.81259   1.82055   1.83866   1.84517
 Alpha virt. eigenvalues --    1.86760   1.91419   1.92891   1.97951   2.00183
 Alpha virt. eigenvalues --    2.01812   2.02273   2.07090   2.08305   2.11291
 Alpha virt. eigenvalues --    2.13771   2.13844   2.17072   2.20418   2.22912
 Alpha virt. eigenvalues --    2.28009   2.34131   2.35270   2.39761   2.41561
 Alpha virt. eigenvalues --    2.43611   2.46540   2.49371   2.53430   2.55840
 Alpha virt. eigenvalues --    2.57436   2.59825   2.64451   2.67292   2.69013
 Alpha virt. eigenvalues --    2.71764   2.75927   2.76596   2.83026   2.85608
 Alpha virt. eigenvalues --    2.89518   2.94285   2.95330   3.01247   3.08962
 Alpha virt. eigenvalues --    3.13639   3.14860   3.30881   3.35084   3.41083
 Alpha virt. eigenvalues --    3.62818   3.66865   3.70775   3.91777   3.92960
 Alpha virt. eigenvalues --    4.00144   4.05307   4.13961   4.20272   4.38093
 Alpha virt. eigenvalues --    4.46127   4.72111   4.85175
          Condensed to atoms (all electrons):
               1          2          3          4          5          6
     1  O    8.083286   0.613996  -0.088408   0.006219  -0.086287  -0.005184
     2  C    0.613996   4.518146   0.178017  -0.010936   0.221459  -0.058845
     3  N   -0.088408   0.178017   7.052622   0.321270  -0.114879   0.004181
     4  H    0.006219  -0.010936   0.321270   0.403388   0.009677  -0.000033
     5  C   -0.086287   0.221459  -0.114879   0.009677   5.534855   0.161071
     6  N   -0.005184  -0.058845   0.004181  -0.000033   0.161071   6.063992
     7  O   -0.000027   0.004052  -0.000070   0.000002  -0.083690   0.280430
     8  C    0.003333  -0.025606  -0.077140   0.003356   0.340067  -0.057199
     9  N   -0.000020   0.004836   0.003394  -0.000038  -0.064012  -0.007550
    10  H    0.000001   0.000100   0.000102  -0.000011   0.005512  -0.000178
    11  H    0.000001   0.000593  -0.000182   0.000003  -0.011900  -0.000876
    12  O   -0.002245  -0.004406   0.000173   0.000006  -0.082687   0.309907
    13  N    0.003676  -0.069497   0.161389  -0.025600  -0.001747   0.005373
    14  H   -0.000057   0.003176  -0.027930  -0.002842   0.004307  -0.000067
               7          8          9         10         11         12
     1  O   -0.000027   0.003333  -0.000020   0.000001   0.000001  -0.002245
     2  C    0.004052  -0.025606   0.004836   0.000100   0.000593  -0.004406
     3  N   -0.000070  -0.077140   0.003394   0.000102  -0.000182   0.000173
     4  H    0.000002   0.003356  -0.000038  -0.000011   0.000003   0.000006
     5  C   -0.083690   0.340067  -0.064012   0.005512  -0.011900  -0.082687
     6  N    0.280430  -0.057199  -0.007550  -0.000178  -0.000876   0.309907
     7  O    8.358735  -0.011659  -0.008604   0.000715   0.029394  -0.093044
     8  C   -0.011659   4.667048   0.371014  -0.025402  -0.014978   0.005026
     9  N   -0.008604   0.371014   6.558881   0.365486   0.388158  -0.000032
    10  H    0.000715  -0.025402   0.365486   0.428461  -0.028752   0.000003
    11  H    0.029394  -0.014978   0.388158  -0.028752   0.396713   0.000163
    12  O   -0.093044   0.005026  -0.000032   0.000003   0.000163   8.261198
    13  N    0.000311   0.266771  -0.081634  -0.008952   0.006128  -0.000021
    14  H    0.000008  -0.034610  -0.003098   0.002780  -0.000142   0.000002
              13         14
     1  O    0.003676  -0.000057
     2  C   -0.069497   0.003176
     3  N    0.161389  -0.027930
     4  H   -0.025600  -0.002842
     5  C   -0.001747   0.004307
     6  N    0.005373  -0.000067
     7  O    0.000311   0.000008
     8  C    0.266771  -0.034610
     9  N   -0.081634  -0.003098
    10  H   -0.008952   0.002780
    11  H    0.006128  -0.000142
    12  O   -0.000021   0.000002
    13  N    6.777357   0.377191
    14  H    0.377191   0.411814
 Mulliken charges:
               1
     1  O   -0.528284
     2  C    0.624915
     3  N   -0.412540
     4  H    0.295540
     5  C    0.168252
     6  N    0.304977
     7  O   -0.476554
     8  C    0.589980
     9  N   -0.526781
    10  H    0.260135
    11  H    0.235677
    12  O   -0.394042
    13  N   -0.410745
    14  H    0.269468
 Sum of Mulliken charges =  -0.00000
 Mulliken charges with hydrogens summed into heavy atoms:
               1
     1  O   -0.528284
     2  C    0.624915
     3  N   -0.116999
     5  C    0.168252
     6  N    0.304977
     7  O   -0.476554
     8  C    0.589980
     9  N   -0.030968
    12  O   -0.394042
    13  N   -0.141277
 Electronic spatial extent (au):  <R**2>=           1246.3091
 Charge=             -0.0000 electrons
 Dipole moment (field-independent basis, Debye):
    X=             -8.4978    Y=              7.3494    Z=              0.1811  Tot=             11.2365
 Quadrupole moment (field-independent basis, Debye-Ang):
   XX=            -49.4684   YY=            -54.2518   ZZ=            -55.5078
   XY=             -2.8921   XZ=             -0.5151   YZ=             -0.6597
 Traceless Quadrupole moment (field-independent basis, Debye-Ang):
   XX=              3.6076   YY=             -1.1758   ZZ=             -2.4318
   XY=             -2.8921   XZ=             -0.5151   YZ=             -0.6597
 Octapole moment (field-independent basis, Debye-Ang**2):
  XXX=            -68.2036  YYY=             69.7779  ZZZ=              0.0549  XYY=            -15.6819
  XXY=              3.1121  XXZ=              0.7957  XZZ=              5.2730  YZZ=             -1.9858
  YYZ=              1.2731  XYZ=              2.5427
 Hexadecapole moment (field-independent basis, Debye-Ang**3):
 XXXX=           -658.1550 YYYY=           -613.0709 ZZZZ=            -47.5990 XXXY=             -1.3259
 XXXZ=             -4.1296 YYYX=            -28.6569 YYYZ=             -2.2506 ZZZX=              0.3699
 ZZZY=             -0.4187 XXYY=           -209.2874 XXZZ=           -132.9450 YYZZ=           -123.3621
 XXYZ=             -4.9160 YYXZ=             -2.1230 ZZXY=             -0.0607
 N-N= 5.483967470881D+02 E-N=-2.410740754897D+03  KE= 5.571784584203D+02
 No NMR shielding tensors so no spin-rotation constants.
 Leave Link  601 at Fri Aug 20 15:56:12 2021, MaxMem= 24159191040 cpu:        11.1
 (Enter /public/home/users/caep010/software/Gaussian09/g09/l701.exe)
 Compute integral first derivatives.
 ... and contract with generalized density number  0.
 Leave Link  701 at Fri Aug 20 15:56:12 2021, MaxMem= 24159191040 cpu:        10.6
 (Enter /public/home/users/caep010/software/Gaussian09/g09/l702.exe)
 L702 exits ... SP integral derivatives will be done elsewhere.
 Leave Link  702 at Fri Aug 20 15:56:13 2021, MaxMem= 24159191040 cpu:         0.5
 (Enter /public/home/users/caep010/software/Gaussian09/g09/l703.exe)
 Compute integral first derivatives, UseDBF=F ICtDFT=           0.
 Integral derivatives from FoFJK, PRISM(SPDF).
 Calling FoFJK, ICntrl=      2127 FMM=F ISym2X=0 I1Cent= 0 IOpClX= 0 NMat=1 NMatS=1 NMatT=0.
 FoFJK:  IHMeth= 1 ICntrl=    2127 DoSepK=F KAlg= 0 I1Cent=   0 FoldK=F
 IRaf=         0 NMat=   1 IRICut=       1 DoRegI=T DoRafI=F ISym2E= 0.
 FoFCou: FMM=F IPFlag=           0 FMFlag=      100000 FMFlg1=         800
         NFxFlg=           0 DoJE=F BraDBF=F KetDBF=F FulRan=T
         wScrn=  0.000000 ICntrl=    2127 IOpCl=  0 I1Cent=           0 NGrid=           0
         NMat0=    1 NMatS0=      1 NMatT0=    0 NMatD0=    1 NMtDS0=    0 NMtDT0=    0
 Symmetry not used in FoFCou.
 Leave Link  703 at Fri Aug 20 15:56:13 2021, MaxMem= 24159191040 cpu:        16.2
 (Enter /public/home/users/caep010/software/Gaussian09/g09/l716.exe)
 Dipole        =-3.34329848D+00 2.89146456D+00 7.12343603D-02
 ***** Axes restored to original set *****
 -------------------------------------------------------------------
 Center     Atomic                   Forces (Hartrees/Bohr)
 Number     Number              X              Y              Z
 -------------------------------------------------------------------
      1        8           0.015480171    0.013510326    0.032420072
      2        6          -0.018090003   -0.022384706   -0.061385013
      3        7          -0.028898876   -0.012899708    0.034669342
      4        1           0.020600648    0.016604523   -0.007011960
      5        6           0.006658338    0.009903431    0.031428554
      6        7           0.003402895   -0.003538046   -0.041037529
      7        8           0.007055791    0.007335509    0.013113340
      8        6          -0.015300778   -0.017076971   -0.050232262
      9        7          -0.203708802   -0.148370678    0.096967174
     10        1           0.002851997    0.007132251    0.105949136
     11        1           0.217064183    0.155733621   -0.184529885
     12        8           0.000252852    0.003449797    0.014244636
     13        7           0.013661682   -0.024801543   -0.057089075
     14        1          -0.021030098    0.015402195    0.072493470
 -------------------------------------------------------------------
 Cartesian Forces:  Max     0.217064183 RMS     0.071550022
 Leave Link  716 at Fri Aug 20 15:56:13 2021, MaxMem= 24159191040 cpu:         0.7
 (Enter /public/home/users/caep010/software/Gaussian09/g09/l103.exe)

 GradGradGradGradGradGradGradGradGradGradGradGradGradGradGradGradGradGrad
 Berny optimization.
 FormGI is forming the generalized inverse of G from B-inverse, IUseBI=4.
 Internal  Forces:  Max     0.323750610 RMS     0.045261645
 Search for a local minimum.
 Step number   1 out of a maximum of   73
 All quantities printed in internal units (Hartrees-Bohrs-Radians)
 RMS Force = .45262D-01 SwitMx=.10000D-02 MixMth= 1
 Mixed Optimization -- RFO/linear search
 Second derivative matrix not updated -- first step.
 ITU=  0
     Eigenvalues ---    0.01671   0.01703   0.01847   0.01927   0.01989
     Eigenvalues ---    0.01989   0.02079   0.02232   0.02346   0.02813
     Eigenvalues ---    0.02836   0.14590   0.15336   0.16000   0.16000
     Eigenvalues ---    0.22795   0.24724   0.24992   0.24996   0.25000
     Eigenvalues ---    0.25000   0.25000   0.37155   0.39448   0.41284
     Eigenvalues ---    0.44296   0.49550   0.49889   0.55003   0.60075
     Eigenvalues ---    0.63142   0.64691   0.83386   0.84579   0.85638
     Eigenvalues ---    1.00629
 RFO step:  Lambda=-1.28048050D-01 EMin= 1.67086323D-02
 Linear search not attempted -- first point.
 Maximum step size (   0.300) exceeded in Quadratic search.
    -- Step size scaled by   0.805
 Iteration  1 RMS(Cart)=  0.04875171 RMS(Int)=  0.00367731
 Iteration  2 RMS(Cart)=  0.00361855 RMS(Int)=  0.00003537
 Iteration  3 RMS(Cart)=  0.00002474 RMS(Int)=  0.00002846
 Iteration  4 RMS(Cart)=  0.00000000 RMS(Int)=  0.00002846
 ITry= 1 IFail=0 DXMaxC= 2.65D-01 DCOld= 1.00D+10 DXMaxT= 3.00D-01 DXLimC= 3.00D+00 Rises=F
 Variable       Old X    -DE/DX   Delta X   Delta X   Delta X     New X
                                 (Linear)    (Quad)   (Total)
    R1        2.36140  -0.03800   0.00000  -0.03182  -0.03182   2.32958
    R2        2.56989   0.02906   0.00000   0.03710   0.03710   2.60698
    R3        2.72225   0.01608   0.00000   0.02471   0.02467   2.74693
    R4        1.96545  -0.02700   0.00000  -0.04020  -0.04020   1.92525
    R5        2.64502  -0.00351   0.00000  -0.00379  -0.00376   2.64126
    R6        2.60322   0.01872   0.00000   0.02418   0.02418   2.62739
    R7        2.69392  -0.01811   0.00000  -0.02861  -0.02863   2.66530
    R8        2.35011   0.01185   0.00000   0.00969   0.00969   2.35980
    R9        2.35537  -0.01419   0.00000  -0.01174  -0.01174   2.34363
   R10        2.48537   0.02711   0.00000   0.02875   0.02875   2.51412
   R11        2.53558   0.01478   0.00000   0.01629   0.01631   2.55189
   R12        1.74110   0.10601   0.00000   0.11018   0.11018   1.85128
   R13        1.55088   0.32375   0.00000   0.22989   0.22989   1.78077
   R14        1.77581   0.07693   0.00000   0.08503   0.08503   1.86084
    A1        2.16942  -0.00344   0.00000  -0.00873  -0.00871   2.16071
    A2        2.29517   0.00915   0.00000   0.01812   0.01813   2.31330
    A3        1.81859  -0.00571   0.00000  -0.00939  -0.00943   1.80917
    A4        2.18091   0.00311   0.00000   0.00563   0.00556   2.18647
    A5        1.93493  -0.00131   0.00000   0.00091   0.00090   1.93583
    A6        2.13320  -0.00244   0.00000  -0.00992  -0.00994   2.12326
    A7        2.20792   0.01165   0.00000   0.02590   0.02592   2.23384
    A8        1.90232   0.00008   0.00000  -0.00200  -0.00205   1.90027
    A9        2.17282  -0.01173   0.00000  -0.02392  -0.02389   2.14893
   A10        2.08302  -0.01529   0.00000  -0.03257  -0.03257   2.05045
   A11        2.07148   0.00332   0.00000   0.00708   0.00708   2.07856
   A12        2.12868   0.01196   0.00000   0.02549   0.02549   2.15417
   A13        2.27839  -0.00797   0.00000  -0.01519  -0.01520   2.26319
   A14        1.85437   0.01118   0.00000   0.02024   0.02026   1.87462
   A15        2.15027  -0.00322   0.00000  -0.00505  -0.00506   2.14521
   A16        2.09115   0.00476   0.00000   0.01331   0.01331   2.10447
   A17        2.21501  -0.02151   0.00000  -0.06015  -0.06015   2.15486
   A18        1.97364   0.01668   0.00000   0.04665   0.04665   2.02029
   A19        1.91027  -0.00430   0.00000  -0.01007  -0.01004   1.90023
   A20        2.10100   0.00051   0.00000  -0.00010  -0.00013   2.10087
   A21        2.21496   0.00308   0.00000   0.00682   0.00676   2.22172
    D1        0.23175   0.00152   0.00000   0.00773   0.00774   0.23950
    D2        3.09931  -0.00149   0.00000  -0.00726  -0.00732   3.09199
    D3       -2.91016   0.00110   0.00000   0.00559   0.00567  -2.90448
    D4       -0.04260  -0.00191   0.00000  -0.00940  -0.00939  -0.05199
    D5       -0.02759   0.00064   0.00000   0.00407   0.00404  -0.02356
    D6        3.13027   0.00108   0.00000   0.00583   0.00582   3.13609
    D7        3.11435   0.00111   0.00000   0.00643   0.00638   3.12073
    D8       -0.01097   0.00154   0.00000   0.00819   0.00816  -0.00281
    D9        0.08506   0.00088   0.00000   0.00630   0.00630   0.09135
   D10        2.89420  -0.00054   0.00000  -0.00182  -0.00181   2.89239
   D11        2.96137  -0.00102   0.00000  -0.00542  -0.00537   2.95600
   D12       -0.51267  -0.00244   0.00000  -0.01354  -0.01348  -0.52615
   D13        3.06973   0.00107   0.00000   0.00576   0.00576   3.07549
   D14       -0.07220   0.00053   0.00000   0.00280   0.00280  -0.06940
   D15       -0.09053   0.00072   0.00000   0.00404   0.00403  -0.08650
   D16        3.05072   0.00018   0.00000   0.00108   0.00108   3.05180
   D17       -3.06110  -0.00079   0.00000  -0.00399  -0.00399  -3.06509
   D18        0.06135  -0.00074   0.00000  -0.00398  -0.00401   0.05734
   D19        0.09636  -0.00063   0.00000  -0.00284  -0.00287   0.09349
   D20       -3.06438  -0.00058   0.00000  -0.00283  -0.00289  -3.06727
   D21       -3.10446   0.00043   0.00000   0.00188   0.00186  -3.10259
   D22       -0.05754   0.00045   0.00000   0.00197   0.00195  -0.05559
   D23        0.05910   0.00026   0.00000   0.00167   0.00168   0.06078
   D24        3.10602   0.00027   0.00000   0.00176   0.00177   3.10779
   D25       -0.08703  -0.00068   0.00000  -0.00198  -0.00199  -0.08902
   D26       -2.86879   0.00163   0.00000   0.00881   0.00885  -2.85994
   D27        3.03718  -0.00071   0.00000  -0.00215  -0.00218   3.03500
   D28        0.25541   0.00159   0.00000   0.00865   0.00867   0.26408
         Item               Value     Threshold  Converged?
 Maximum Force            0.323751     0.000450     NO 
 RMS     Force            0.045262     0.000300     NO 
 Maximum Displacement     0.264743     0.001800     NO 
 RMS     Displacement     0.051447     0.001200     NO 
 Predicted change in Energy=-6.742216D-02
 Lowest energy point so far.  Saving SCF results.
 GradGradGradGradGradGradGradGradGradGradGradGradGradGradGradGradGradGrad

 Leave Link  103 at Fri Aug 20 15:56:14 2021, MaxMem= 24159191040 cpu:         8.7
 (Enter /public/home/users/caep010/software/Gaussian09/g09/l202.exe)
                          Input orientation:                          
 ---------------------------------------------------------------------
 Center     Atomic      Atomic             Coordinates (Angstroms)
 Number     Number       Type             X           Y           Z
 ---------------------------------------------------------------------
      1          8           0       -1.741528    0.631155    5.046435
      2          6           0       -1.138591    1.177595    5.972484
      3          7           0       -1.491634    1.048936    7.299880
      4          1           0       -2.138289    0.355243    7.672141
      5          6           0        0.020575    2.053942    6.009012
      6          7           0        0.792954    2.496332    4.940923
      7          8           0        1.708228    3.308760    5.189149
      8          6           0        0.289359    2.399462    7.349774
      9          7           0        1.198295    3.234861    7.845712
     10          1           0        1.291481    3.352398    8.813817
     11          1           0        1.832408    3.687278    7.315404
     12          8           0        0.548024    2.070111    3.802313
     13          7           0       -0.589745    1.727761    8.124102
     14          1           0       -0.814237    1.907667    9.065855
 ---------------------------------------------------------------------
                    Distance matrix (angstroms):
                    1          2          3          4          5
     1  O    0.000000
     2  C    1.232759   0.000000
     3  N    2.305429   1.379556   0.000000
     4  H    2.669808   2.136467   1.018799   0.000000
     5  C    2.460871   1.453611   2.227814   3.211272   0.000000
     6  N    3.148590   2.556179   3.588729   4.542686   1.390357
     7  O    4.369296   3.641408   4.449843   5.448321   2.257192
     8  C    3.543554   2.330005   2.235698   3.190019   1.410415
     9  N    4.822633   3.633505   3.508834   4.410795   2.480939
    10  H    5.549547   4.325297   3.917100   4.695709   3.341874
    11  H    5.221219   4.114460   4.243860   5.195782   2.767162
    12  O    2.976657   2.889792   4.175641   5.013244   2.268917
    13  N    3.464272   2.287657   1.397694   2.118032   2.225419
    14  H    4.317996   3.194864   2.077247   2.470946   3.172159
                    6          7          8          9         10
     6  N    0.000000
     7  O    1.248752   0.000000
     8  C    2.462835   2.740129   0.000000
     9  N    3.024487   2.706070   1.330417   0.000000
    10  H    3.997586   3.648808   2.013892   0.979657   0.000000
    11  H    2.852539   2.163251   2.010137   0.942341   1.627879
    12  O    1.240197   2.191721   3.572094   4.257766   5.226104
    13  N    3.554601   4.048973   1.350404   2.354982   2.579567
    14  H    4.465944   4.832673   2.098742   2.701939   2.566090
                   11         12         13         14
    11  H    0.000000
    12  O    4.075130   0.000000
    13  N    3.218777   4.482141   0.000000
    14  H    3.638106   5.439395   0.984714   0.000000
 Stoichiometry    C3H4N4O3
 Framework group  C1[X(C3H4N4O3)]
 Deg. of freedom    36
 Full point group                 C1      NOp   1
 RotChk:  IX=0 Diff= 2.33D-01
 Largest Abelian subgroup         C1      NOp   1
 Largest concise Abelian subgroup C1      NOp   1
                         Standard orientation:                         
 ---------------------------------------------------------------------
 Center     Atomic      Atomic             Coordinates (Angstroms)
 Number     Number       Type             X           Y           Z
 ---------------------------------------------------------------------
      1          8           0       -0.866309   -2.349092   -0.063514
      2          6           0       -0.892480   -1.117001   -0.032495
      3          7           0       -2.054904   -0.374260   -0.015772
      4          1           0       -2.986129   -0.743045    0.170686
      5          6           0        0.157399   -0.111928   -0.008717
      6          7           0        1.533188   -0.311787    0.010115
      7          8           0        2.263262    0.699867   -0.043995
      8          6           0       -0.436012    1.167319    0.016949
      9          7           0        0.133114    2.368757   -0.034547
     10          1           0       -0.411191    3.181038    0.025952
     11          1           0        1.065844    2.501458   -0.054837
     12          8           0        1.973499   -1.468933    0.082420
     13          7           0       -1.773197    0.991118    0.083893
     14          1           0       -2.472994    1.658677   -0.101334
 ---------------------------------------------------------------------
 Rotational constants (GHZ):      1.8202296      1.5724442      0.8447271
 Leave Link  202 at Fri Aug 20 15:56:14 2021, MaxMem= 24159191040 cpu:         0.2
 (Enter /public/home/users/caep010/software/Gaussian09/g09/l301.exe)
 Standard basis: 6-31G(d,p) (6D, 7F)
 Ernie: Thresh=  0.10000D-02 Tol=  0.10000D-05 Strict=F.
 There are   170 symmetry adapted cartesian basis functions of A   symmetry.
 There are   170 symmetry adapted basis functions of A   symmetry.
   170 basis functions,   308 primitive gaussians,   170 cartesian basis functions
    37 alpha electrons       37 beta electrons
       nuclear repulsion energy       546.3178791765 Hartrees.
 IExCor=  402 DFT=T Ex+Corr=B3LYP ExCW=0 ScaHFX=  0.200000
 ScaDFX=  0.800000  0.720000  1.000000  0.810000 ScalE2=  1.000000  1.000000
 IRadAn=      0 IRanWt=     -1 IRanGd=            0 ICorTp=0 IEmpDi=  4
 NAtoms=   14 NActive=   14 NUniq=   14 SFac= 1.00D+00 NAtFMM=   60 NAOKFM=F Big=F
 Integral buffers will be    131072 words long.
 Raffenetti 2 integral format.
 Two-electron integral symmetry is turned on.
 Leave Link  301 at Fri Aug 20 15:56:14 2021, MaxMem= 24159191040 cpu:         1.8
 (Enter /public/home/users/caep010/software/Gaussian09/g09/l302.exe)
 NPDir=0 NMtPBC=     1 NCelOv=     1 NCel=       1 NClECP=     1 NCelD=      1
         NCelK=      1 NCelE2=     1 NClLst=     1 CellRange=     0.0.
 One-electron integrals computed using PRISM.
 NBasis=   170 RedAO= T EigKep=  7.38D-04  NBF=   170
 NBsUse=   170 1.00D-06 EigRej= -1.00D+00 NBFU=   170
 Precomputing XC quadrature grid using
 IXCGrd= 4 IRadAn=           0 IRanWt=          -1 IRanGd=           0 AccXCQ= 0.00D+00.
 Generated NRdTot=       0 NPtTot=           0 NUsed=           0 NTot=          32
 NSgBfM=   170   170   170   170   170 MxSgAt=    14 MxSgA2=    14.
 Leave Link  302 at Fri Aug 20 15:56:14 2021, MaxMem= 24159191040 cpu:        11.2
 (Enter /public/home/users/caep010/software/Gaussian09/g09/l303.exe)
 DipDrv:  MaxL=1.
 Leave Link  303 at Fri Aug 20 15:56:14 2021, MaxMem= 24159191040 cpu:         0.7
 (Enter /public/home/users/caep010/software/Gaussian09/g09/l401.exe)
 Initial guess from the checkpoint file:  "/public/home/users/caep010/.cache/gau_scr/Gau-7003.chk"
 B after Tr=    -0.000000    0.000000   -0.000000
         Rot=    0.996945    0.000151   -0.000321    0.078108 Ang=   8.96 deg.
 Guess basis will be translated and rotated to current coordinates.
 JPrj=2 DoOrth=T DoCkMO=T.
 Generating alternative initial guess.
 ExpMin= 1.61D-01 ExpMax= 5.48D+03 ExpMxC= 8.25D+02 IAcc=1 IRadAn=         1 AccDes= 0.00D+00
 Harris functional with IExCor=  402 and IRadAn=       1 diagonalized for initial guess.
 HarFok:  IExCor=  402 AccDes= 0.00D+00 IRadAn=         1 IDoV= 1 UseB2=F ITyADJ=14
 ICtDFT=  3500011 ScaDFX=  1.000000  1.000000  1.000000  1.000000
 FoFCou: FMM=F IPFlag=           0 FMFlag=      100000 FMFlg1=           0
         NFxFlg=           0 DoJE=T BraDBF=F KetDBF=T FulRan=T
         wScrn=  0.000000 ICntrl=     500 IOpCl=  0 I1Cent=   200000004 NGrid=           0
         NMat0=    1 NMatS0=      1 NMatT0=    0 NMatD0=    1 NMtDS0=    0 NMtDT0=    0
 Petite list used in FoFCou.
 Harris En= -561.295782033587    
 Leave Link  401 at Fri Aug 20 15:56:15 2021, MaxMem= 24159191040 cpu:        13.4
 (Enter /public/home/users/caep010/software/Gaussian09/g09/l502.exe)
 Closed shell SCF:
 Using DIIS extrapolation, IDIIS=  1040.
 Integral symmetry usage will be decided dynamically.
 Keep R1 ints in memory in canonical form, NReq=108252360.
 IVT=      111960 IEndB=      111960 NGot= 24159191040 MDV= 24053438701
 LenX= 24053438701 LenY= 24053409360
 Requested convergence on RMS density matrix=1.00D-08 within 128 cycles.
 Requested convergence on MAX density matrix=1.00D-06.
 Requested convergence on             energy=1.00D-06.
 No special actions if energy rises.
 FoFCou: FMM=F IPFlag=           0 FMFlag=           0 FMFlg1=           0
         NFxFlg=           0 DoJE=F BraDBF=F KetDBF=F FulRan=T
         wScrn=  0.000000 ICntrl=     600 IOpCl=  0 I1Cent=           0 NGrid=           0
         NMat0=    1 NMatS0=  14535 NMatT0=    0 NMatD0=    1 NMtDS0=    0 NMtDT0=    0
 Symmetry not used in FoFCou.
 Integral accuracy reduced to 1.0D-05 until final iterations.

 Cycle   1  Pass 0  IDiag  1:
 E= -561.261127982033    
 DIIS: error= 4.85D-03 at cycle   1 NSaved=   1.
 NSaved= 1 IEnMin= 1 EnMin= -561.261127982033     IErMin= 1 ErrMin= 4.85D-03
 ErrMax= 4.85D-03  0.00D+00 EMaxC= 1.00D-01 BMatC= 8.82D-03 BMatP= 8.82D-03
 IDIUse=3 WtCom= 9.52D-01 WtEn= 4.85D-02
 Coeff-Com:  0.100D+01
 Coeff-En:   0.100D+01
 Coeff:      0.100D+01
 Gap=     1.825 Goal=   None    Shift=    0.000
 GapD=    1.825 DampG=2.000 DampE=1.000 DampFc=2.0000 IDamp=-1.
 RMSDP=9.89D-04 MaxDP=2.92D-02              OVMax= 2.74D-02

 Cycle   2  Pass 0  IDiag  1:
 E= -561.268400847035     Delta-E=       -0.007272865003 Rises=F Damp=F
 DIIS: error= 3.27D-03 at cycle   2 NSaved=   2.
 NSaved= 2 IEnMin= 2 EnMin= -561.268400847035     IErMin= 2 ErrMin= 3.27D-03
 ErrMax= 3.27D-03  0.00D+00 EMaxC= 1.00D-01 BMatC= 3.36D-03 BMatP= 8.82D-03
 IDIUse=3 WtCom= 9.67D-01 WtEn= 3.27D-02
 Coeff-Com:  0.334D+00 0.666D+00
 Coeff-En:   0.000D+00 0.100D+01
 Coeff:      0.323D+00 0.677D+00
 Gap=     0.177 Goal=   None    Shift=    0.000
 RMSDP=5.19D-04 MaxDP=2.82D-02 DE=-7.27D-03 OVMax= 2.58D-02

 Cycle   3  Pass 0  IDiag  1:
 E= -561.269699933809     Delta-E=       -0.001299086774 Rises=F Damp=F
 DIIS: error= 2.34D-03 at cycle   3 NSaved=   3.
 NSaved= 3 IEnMin= 3 EnMin= -561.269699933809     IErMin= 3 ErrMin= 2.34D-03
 ErrMax= 2.34D-03  0.00D+00 EMaxC= 1.00D-01 BMatC= 1.95D-03 BMatP= 3.36D-03
 IDIUse=3 WtCom= 9.77D-01 WtEn= 2.34D-02
 Coeff-Com:  0.111D-01 0.430D+00 0.559D+00
 Coeff-En:   0.000D+00 0.377D+00 0.623D+00
 Coeff:      0.108D-01 0.428D+00 0.561D+00
 Gap=     0.180 Goal=   None    Shift=    0.000
 RMSDP=2.62D-04 MaxDP=1.06D-02 DE=-1.30D-03 OVMax= 1.42D-02

 Cycle   4  Pass 0  IDiag  1:
 E= -561.271254935435     Delta-E=       -0.001555001626 Rises=F Damp=F
 DIIS: error= 4.40D-04 at cycle   4 NSaved=   4.
 NSaved= 4 IEnMin= 4 EnMin= -561.271254935435     IErMin= 4 ErrMin= 4.40D-04
 ErrMax= 4.40D-04  0.00D+00 EMaxC= 1.00D-01 BMatC= 7.81D-05 BMatP= 1.95D-03
 IDIUse=3 WtCom= 9.96D-01 WtEn= 4.40D-03
 Coeff-Com: -0.373D-02 0.223D+00 0.313D+00 0.468D+00
 Coeff-En:   0.000D+00 0.000D+00 0.000D+00 0.100D+01
 Coeff:     -0.372D-02 0.222D+00 0.311D+00 0.471D+00
 Gap=     0.179 Goal=   None    Shift=    0.000
 RMSDP=7.13D-05 MaxDP=2.26D-03 DE=-1.56D-03 OVMax= 2.96D-03

 Cycle   5  Pass 0  IDiag  1:
 E= -561.271304723563     Delta-E=       -0.000049788128 Rises=F Damp=F
 DIIS: error= 1.96D-04 at cycle   5 NSaved=   5.
 NSaved= 5 IEnMin= 5 EnMin= -561.271304723563     IErMin= 5 ErrMin= 1.96D-04
 ErrMax= 1.96D-04  0.00D+00 EMaxC= 1.00D-01 BMatC= 1.40D-05 BMatP= 7.81D-05
 IDIUse=3 WtCom= 9.98D-01 WtEn= 1.96D-03
 Coeff-Com: -0.412D-02 0.638D-01 0.927D-01 0.305D+00 0.543D+00
 Coeff-En:   0.000D+00 0.000D+00 0.000D+00 0.172D+00 0.828D+00
 Coeff:     -0.412D-02 0.636D-01 0.925D-01 0.305D+00 0.543D+00
 Gap=     0.179 Goal=   None    Shift=    0.000
 RMSDP=2.61D-05 MaxDP=7.75D-04 DE=-4.98D-05 OVMax= 1.04D-03

 Cycle   6  Pass 0  IDiag  1:
 E= -561.271314212561     Delta-E=       -0.000009488998 Rises=F Damp=F
 DIIS: error= 6.97D-05 at cycle   6 NSaved=   6.
 NSaved= 6 IEnMin= 6 EnMin= -561.271314212561     IErMin= 6 ErrMin= 6.97D-05
 ErrMax= 6.97D-05  0.00D+00 EMaxC= 1.00D-01 BMatC= 1.63D-06 BMatP= 1.40D-05
 IDIUse=1 WtCom= 1.00D+00 WtEn= 0.00D+00
 Coeff-Com: -0.219D-02 0.199D-01 0.296D-01 0.149D+00 0.343D+00 0.460D+00
 Coeff:     -0.219D-02 0.199D-01 0.296D-01 0.149D+00 0.343D+00 0.460D+00
 Gap=     0.179 Goal=   None    Shift=    0.000
 RMSDP=7.93D-06 MaxDP=2.17D-04 DE=-9.49D-06 OVMax= 4.50D-04

 Initial convergence to 1.0D-05 achieved.  Increase integral accuracy.
 Cycle   7  Pass 1  IDiag  1:
 E= -561.271282682653     Delta-E=        0.000031529908 Rises=F Damp=F
 DIIS: error= 3.35D-05 at cycle   1 NSaved=   1.
 NSaved= 1 IEnMin= 1 EnMin= -561.271282682653     IErMin= 1 ErrMin= 3.35D-05
 ErrMax= 3.35D-05  0.00D+00 EMaxC= 1.00D-01 BMatC= 2.05D-07 BMatP= 2.05D-07
 IDIUse=1 WtCom= 1.00D+00 WtEn= 0.00D+00
 Coeff-Com:  0.100D+01
 Coeff:      0.100D+01
 Gap=     0.179 Goal=   None    Shift=    0.000
 RMSDP=7.93D-06 MaxDP=2.17D-04 DE= 3.15D-05 OVMax= 5.59D-04

 Cycle   8  Pass 1  IDiag  1:
 E= -561.271282091574     Delta-E=        0.000000591079 Rises=F Damp=F
 DIIS: error= 1.00D-04 at cycle   2 NSaved=   2.
 NSaved= 2 IEnMin= 1 EnMin= -561.271282682653     IErMin= 1 ErrMin= 3.35D-05
 ErrMax= 1.00D-04  0.00D+00 EMaxC= 1.00D-01 BMatC= 9.66D-07 BMatP= 2.05D-07
 IDIUse=3 WtCom= 5.00D-01 WtEn= 5.00D-01
 Coeff-Com:  0.705D+00 0.295D+00
 Coeff-En:   0.779D+00 0.221D+00
 Coeff:      0.742D+00 0.258D+00
 Gap=     0.179 Goal=   None    Shift=    0.000
 RMSDP=4.67D-06 MaxDP=2.24D-04 DE= 5.91D-07 OVMax= 4.34D-04

 Cycle   9  Pass 1  IDiag  1:
 E= -561.271282863159     Delta-E=       -0.000000771584 Rises=F Damp=F
 DIIS: error= 5.39D-06 at cycle   3 NSaved=   3.
 NSaved= 3 IEnMin= 3 EnMin= -561.271282863159     IErMin= 3 ErrMin= 5.39D-06
 ErrMax= 5.39D-06  0.00D+00 EMaxC= 1.00D-01 BMatC= 1.04D-08 BMatP= 2.05D-07
 IDIUse=1 WtCom= 1.00D+00 WtEn= 0.00D+00
 Coeff-Com:  0.168D+00 0.660D-01 0.766D+00
 Coeff:      0.168D+00 0.660D-01 0.766D+00
 Gap=     0.179 Goal=   None    Shift=    0.000
 RMSDP=1.33D-06 MaxDP=3.23D-05 DE=-7.72D-07 OVMax= 6.45D-05

 Cycle  10  Pass 1  IDiag  1:
 E= -561.271282858243     Delta-E=        0.000000004916 Rises=F Damp=F
 DIIS: error= 7.63D-06 at cycle   4 NSaved=   4.
 NSaved= 4 IEnMin= 3 EnMin= -561.271282863159     IErMin= 3 ErrMin= 5.39D-06
 ErrMax= 7.63D-06  0.00D+00 EMaxC= 1.00D-01 BMatC= 1.67D-08 BMatP= 1.04D-08
 IDIUse=1 WtCom= 1.00D+00 WtEn= 0.00D+00
 Coeff-Com:  0.330D-02-0.202D-02 0.561D+00 0.438D+00
 Coeff:      0.330D-02-0.202D-02 0.561D+00 0.438D+00
 Gap=     0.179 Goal=   None    Shift=    0.000
 RMSDP=7.56D-07 MaxDP=2.03D-05 DE= 4.92D-09 OVMax= 4.01D-05

 Cycle  11  Pass 1  IDiag  1:
 E= -561.271282872202     Delta-E=       -0.000000013959 Rises=F Damp=F
 DIIS: error= 1.04D-06 at cycle   5 NSaved=   5.
 NSaved= 5 IEnMin= 5 EnMin= -561.271282872202     IErMin= 5 ErrMin= 1.04D-06
 ErrMax= 1.04D-06  0.00D+00 EMaxC= 1.00D-01 BMatC= 5.00D-10 BMatP= 1.04D-08
 IDIUse=1 WtCom= 1.00D+00 WtEn= 0.00D+00
 Coeff-Com: -0.833D-02-0.460D-02 0.276D+00 0.246D+00 0.491D+00
 Coeff:     -0.833D-02-0.460D-02 0.276D+00 0.246D+00 0.491D+00
 Gap=     0.179 Goal=   None    Shift=    0.000
 RMSDP=1.60D-07 MaxDP=4.36D-06 DE=-1.40D-08 OVMax= 7.66D-06

 Cycle  12  Pass 1  IDiag  1:
 E= -561.271282872548     Delta-E=       -0.000000000346 Rises=F Damp=F
 DIIS: error= 3.84D-07 at cycle   6 NSaved=   6.
 NSaved= 6 IEnMin= 6 EnMin= -561.271282872548     IErMin= 6 ErrMin= 3.84D-07
 ErrMax= 3.84D-07  0.00D+00 EMaxC= 1.00D-01 BMatC= 5.48D-11 BMatP= 5.00D-10
 IDIUse=1 WtCom= 1.00D+00 WtEn= 0.00D+00
 Coeff-Com: -0.539D-02-0.265D-02 0.124D+00 0.116D+00 0.304D+00 0.465D+00
 Coeff:     -0.539D-02-0.265D-02 0.124D+00 0.116D+00 0.304D+00 0.465D+00
 Gap=     0.179 Goal=   None    Shift=    0.000
 RMSDP=5.62D-08 MaxDP=1.90D-06 DE=-3.46D-10 OVMax= 2.37D-06

 Cycle  13  Pass 1  IDiag  1:
 E= -561.271282872581     Delta-E=       -0.000000000033 Rises=F Damp=F
 DIIS: error= 1.01D-07 at cycle   7 NSaved=   7.
 NSaved= 7 IEnMin= 7 EnMin= -561.271282872581     IErMin= 7 ErrMin= 1.01D-07
 ErrMax= 1.01D-07  0.00D+00 EMaxC= 1.00D-01 BMatC= 4.68D-12 BMatP= 5.48D-11
 IDIUse=1 WtCom= 1.00D+00 WtEn= 0.00D+00
 Coeff-Com: -0.232D-02-0.114D-02 0.442D-01 0.433D-01 0.132D+00 0.272D+00
 Coeff-Com:  0.512D+00
 Coeff:     -0.232D-02-0.114D-02 0.442D-01 0.433D-01 0.132D+00 0.272D+00
 Coeff:      0.512D+00
 Gap=     0.179 Goal=   None    Shift=    0.000
 RMSDP=1.55D-08 MaxDP=4.80D-07 DE=-3.32D-11 OVMax= 5.69D-07

 Cycle  14  Pass 1  IDiag  1:
 E= -561.271282872589     Delta-E=       -0.000000000008 Rises=F Damp=F
 DIIS: error= 5.16D-08 at cycle   8 NSaved=   8.
 NSaved= 8 IEnMin= 8 EnMin= -561.271282872589     IErMin= 8 ErrMin= 5.16D-08
 ErrMax= 5.16D-08  0.00D+00 EMaxC= 1.00D-01 BMatC= 6.14D-13 BMatP= 4.68D-12
 IDIUse=1 WtCom= 1.00D+00 WtEn= 0.00D+00
 Coeff-Com: -0.603D-03-0.341D-03 0.875D-02 0.946D-02 0.356D-01 0.912D-01
 Coeff-Com:  0.301D+00 0.555D+00
 Coeff:     -0.603D-03-0.341D-03 0.875D-02 0.946D-02 0.356D-01 0.912D-01
 Coeff:      0.301D+00 0.555D+00
 Gap=     0.179 Goal=   None    Shift=    0.000
 RMSDP=4.98D-09 MaxDP=1.59D-07 DE=-7.73D-12 OVMax= 1.72D-07

 SCF Done:  E(RB3LYP) =  -561.271282873     A.U. after   14 cycles
            NFock= 14  Conv=0.50D-08     -V/T= 2.0083
 KE= 5.566311220140D+02 PE=-2.406409429456D+03 EE= 7.421891453933D+02
 Leave Link  502 at Fri Aug 20 15:56:19 2021, MaxMem= 24159191040 cpu:        64.5
 (Enter /public/home/users/caep010/software/Gaussian09/g09/l701.exe)
 Compute integral first derivatives.
 ... and contract with generalized density number  0.
 Leave Link  701 at Fri Aug 20 15:56:19 2021, MaxMem= 24159191040 cpu:        11.4
 (Enter /public/home/users/caep010/software/Gaussian09/g09/l702.exe)
 L702 exits ... SP integral derivatives will be done elsewhere.
 Leave Link  702 at Fri Aug 20 15:56:19 2021, MaxMem= 24159191040 cpu:         0.5
 (Enter /public/home/users/caep010/software/Gaussian09/g09/l703.exe)
 Compute integral first derivatives, UseDBF=F ICtDFT=           0.
 Integral derivatives from FoFJK, PRISM(SPDF).
 Calling FoFJK, ICntrl=      2127 FMM=F ISym2X=0 I1Cent= 0 IOpClX= 0 NMat=1 NMatS=1 NMatT=0.
 FoFJK:  IHMeth= 1 ICntrl=    2127 DoSepK=F KAlg= 0 I1Cent=   0 FoldK=F
 IRaf=         0 NMat=   1 IRICut=       1 DoRegI=T DoRafI=F ISym2E= 0.
 FoFCou: FMM=F IPFlag=           0 FMFlag=      100000 FMFlg1=         800
         NFxFlg=           0 DoJE=F BraDBF=F KetDBF=F FulRan=T
         wScrn=  0.000000 ICntrl=    2127 IOpCl=  0 I1Cent=           0 NGrid=           0
         NMat0=    1 NMatS0=      1 NMatT0=    0 NMatD0=    1 NMtDS0=    0 NMtDT0=    0
 Symmetry not used in FoFCou.
 Leave Link  703 at Fri Aug 20 15:56:20 2021, MaxMem= 24159191040 cpu:        16.1
 (Enter /public/home/users/caep010/software/Gaussian09/g09/l716.exe)
 Dipole        =-2.68810225D+00 3.26111646D+00 6.26200396D-02
 ***** Axes restored to original set *****
 -------------------------------------------------------------------
 Center     Atomic                   Forces (Hartrees/Bohr)
 Number     Number              X              Y              Z
 -------------------------------------------------------------------
      1        8           0.008631606    0.006785299    0.015436977
      2        6          -0.008942390   -0.012568149   -0.034214063
      3        7          -0.015680708   -0.000233053    0.016681175
      4        1           0.009936029    0.004699439   -0.002359285
      5        6           0.001715467    0.003986116    0.017262895
      6        7          -0.001396192   -0.004441790   -0.021441346
      7        8           0.005345160    0.004169654    0.001974520
      8        6          -0.004927669   -0.004647180   -0.022299908
      9        7          -0.039949653   -0.026623981    0.037449542
     10        1           0.000174028    0.000902051    0.028747543
     11        1           0.044229697    0.029755141   -0.054403547
     12        8           0.001444477    0.004081531    0.010327085
     13        7           0.007224353   -0.013324598   -0.012827646
     14        1          -0.007804205    0.007459520    0.019666058
 -------------------------------------------------------------------
 Cartesian Forces:  Max     0.054403547 RMS     0.019003837
 Leave Link  716 at Fri Aug 20 15:56:20 2021, MaxMem= 24159191040 cpu:         0.6
 (Enter /public/home/users/caep010/software/Gaussian09/g09/l103.exe)

 GradGradGradGradGradGradGradGradGradGradGradGradGradGradGradGradGradGrad
 Berny optimization.
 Using GEDIIS/GDIIS optimizer.
 FormGI is forming the generalized inverse of G from B-inverse, IUseBI=4.
 GSVD:  received Info=                   1 from GESDD.
 Internal  Forces:  Max     0.074667151 RMS     0.011668449
 Search for a local minimum.
 Step number   2 out of a maximum of   73
 All quantities printed in internal units (Hartrees-Bohrs-Radians)
 RMS Force = .11668D-01 SwitMx=.10000D-02 MixMth= 1
 Mixed Optimization -- RFO/linear search
 Update second derivatives using D2CorX and points    1    2
 DE= -6.12D-02 DEPred=-6.74D-02 R= 9.07D-01
 TightC=F SS=  1.41D+00  RLast= 3.02D-01 DXNew= 5.0454D-01 9.0458D-01
 Trust test= 9.07D-01 RLast= 3.02D-01 DXMaxT set to 5.05D-01
 ITU=  1  0
 Use linear search instead of GDIIS.
     Eigenvalues ---    0.01673   0.01702   0.01852   0.01926   0.01988
     Eigenvalues ---    0.01989   0.02092   0.02245   0.02347   0.02813
     Eigenvalues ---    0.02838   0.14489   0.15275   0.15831   0.16003
     Eigenvalues ---    0.22793   0.24731   0.24986   0.24995   0.24998
     Eigenvalues ---    0.25000   0.25394   0.37179   0.39442   0.41260
     Eigenvalues ---    0.44307   0.49284   0.49780   0.54860   0.60325
     Eigenvalues ---    0.63065   0.65388   0.82547   0.84392   0.85569
     Eigenvalues ---    1.08092
 RFO step:  Lambda=-1.39398192D-02 EMin= 1.67283223D-02
 Quartic linear search produced a step of  0.62447.
 Iteration  1 RMS(Cart)=  0.07030630 RMS(Int)=  0.00513818
 Iteration  2 RMS(Cart)=  0.00545348 RMS(Int)=  0.00151812
 Iteration  3 RMS(Cart)=  0.00004874 RMS(Int)=  0.00151752
 Iteration  4 RMS(Cart)=  0.00000001 RMS(Int)=  0.00151752
 ITry= 1 IFail=0 DXMaxC= 3.17D-01 DCOld= 1.00D+10 DXMaxT= 5.05D-01 DXLimC= 3.00D+00 Rises=F
 Variable       Old X    -DE/DX   Delta X   Delta X   Delta X     New X
                                 (Linear)    (Quad)   (Total)
    R1        2.32958  -0.01883  -0.01987  -0.01754  -0.03741   2.29217
    R2        2.60698   0.01549   0.02317   0.03127   0.05471   2.66169
    R3        2.74693   0.00721   0.01541   0.01781   0.03202   2.77895
    R4        1.92525  -0.01037  -0.02510  -0.02260  -0.04771   1.87754
    R5        2.64126  -0.00086  -0.00235   0.00156   0.00050   2.64176
    R6        2.62739   0.01123   0.01510   0.02434   0.03943   2.66683
    R7        2.66530  -0.00508  -0.01788  -0.01149  -0.03027   2.63503
    R8        2.35980   0.00702   0.00605   0.00741   0.01346   2.37326
    R9        2.34363  -0.01117  -0.00733  -0.01421  -0.02154   2.32209
   R10        2.51412   0.00997   0.01795   0.00987   0.02782   2.54195
   R11        2.55189   0.00564   0.01019   0.00610   0.01690   2.56879
   R12        1.85128   0.02853   0.06881   0.01126   0.08006   1.93135
   R13        1.78077   0.07467   0.14356  -0.02099   0.12256   1.90333
   R14        1.86084   0.02195   0.05310   0.01392   0.06701   1.92785
    A1        2.16071  -0.00023  -0.00544  -0.00351  -0.00872   2.15199
    A2        2.31330   0.00410   0.01132   0.01732   0.02886   2.34216
    A3        1.80917  -0.00387  -0.00589  -0.01385  -0.02029   1.78887
    A4        2.18647   0.00139   0.00347  -0.00942  -0.01289   2.17359
    A5        1.93583  -0.00017   0.00056   0.00357   0.00074   1.93657
    A6        2.12326  -0.00188  -0.00620  -0.03972  -0.05091   2.07235
    A7        2.23384  -0.00138   0.01619  -0.01160   0.00533   2.23917
    A8        1.90027   0.00100  -0.00128   0.00150  -0.00148   1.89879
    A9        2.14893   0.00037  -0.01492   0.00983  -0.00428   2.14465
   A10        2.05045  -0.00045  -0.02034   0.00420  -0.01614   2.03431
   A11        2.07856  -0.00032   0.00442  -0.00347   0.00094   2.07950
   A12        2.15417   0.00077   0.01592  -0.00074   0.01517   2.16934
   A13        2.26319  -0.00125  -0.00949  -0.00104  -0.01054   2.25265
   A14        1.87462   0.00416   0.01265   0.01440   0.02708   1.90170
   A15        2.14521  -0.00291  -0.00316  -0.01337  -0.01656   2.12865
   A16        2.10447   0.00443   0.00831   0.04165   0.04982   2.15428
   A17        2.15486  -0.01568  -0.03756  -0.14995  -0.18765   1.96721
   A18        2.02029   0.01116   0.02913   0.10629   0.13528   2.15557
   A19        1.90023  -0.00121  -0.00627  -0.01078  -0.01811   1.88212
   A20        2.10087   0.00010  -0.00008  -0.01570  -0.01939   2.08149
   A21        2.22172   0.00032   0.00422  -0.01638  -0.01642   2.20530
    D1        0.23950   0.00145   0.00484   0.08711   0.09224   0.33174
    D2        3.09199  -0.00142  -0.00457  -0.09002  -0.09517   2.99682
    D3       -2.90448   0.00121   0.00354   0.07276   0.07782  -2.82667
    D4       -0.05199  -0.00166  -0.00586  -0.10437  -0.10959  -0.16158
    D5       -0.02356   0.00072   0.00252   0.05614   0.05846   0.03491
    D6        3.13609   0.00102   0.00363   0.07304   0.07662  -3.07048
    D7        3.12073   0.00100   0.00398   0.07238   0.07537  -3.08709
    D8       -0.00281   0.00129   0.00510   0.08928   0.09352   0.09071
    D9        0.09135   0.00123   0.00393   0.08359   0.08676   0.17811
   D10        2.89239  -0.00085  -0.00113  -0.03553  -0.03713   2.85526
   D11        2.95600  -0.00090  -0.00336  -0.08063  -0.08180   2.87420
   D12       -0.52615  -0.00299  -0.00841  -0.19974  -0.20569  -0.73184
   D13        3.07549   0.00070   0.00360   0.05190   0.05556   3.13105
   D14       -0.06940   0.00084   0.00175   0.04843   0.05024  -0.01916
   D15       -0.08650   0.00037   0.00252   0.03268   0.03514  -0.05136
   D16        3.05180   0.00051   0.00067   0.02921   0.02982   3.08162
   D17       -3.06509  -0.00059  -0.00249  -0.04171  -0.04462  -3.10971
   D18        0.05734  -0.00052  -0.00250  -0.04215  -0.04558   0.01176
   D19        0.09349  -0.00029  -0.00179  -0.02554  -0.02777   0.06572
   D20       -3.06727  -0.00022  -0.00180  -0.02598  -0.02874  -3.09600
   D21       -3.10259   0.00065   0.00116   0.02640   0.02728  -3.07532
   D22       -0.05559   0.00010   0.00122   0.00578   0.00672  -0.04886
   D23        0.06078   0.00049   0.00105   0.02661   0.02793   0.08871
   D24        3.10779  -0.00005   0.00111   0.00599   0.00738   3.11517
   D25       -0.08902  -0.00064  -0.00124  -0.02276  -0.02356  -0.11259
   D26       -2.85994   0.00172   0.00553   0.10660   0.11237  -2.74757
   D27        3.03500  -0.00056  -0.00136  -0.02303  -0.02441   3.01059
   D28        0.26408   0.00181   0.00541   0.10634   0.11152   0.37560
         Item               Value     Threshold  Converged?
 Maximum Force            0.074667     0.000450     NO 
 RMS     Force            0.011668     0.000300     NO 
 Maximum Displacement     0.316988     0.001800     NO 
 RMS     Displacement     0.071391     0.001200     NO 
 Predicted change in Energy=-3.607743D-03
 Lowest energy point so far.  Saving SCF results.
 GradGradGradGradGradGradGradGradGradGradGradGradGradGradGradGradGradGrad

 Leave Link  103 at Fri Aug 20 15:56:20 2021, MaxMem= 24159191040 cpu:         1.8
 (Enter /public/home/users/caep010/software/Gaussian09/g09/l202.exe)
                          Input orientation:                          
 ---------------------------------------------------------------------
 Center     Atomic      Atomic             Coordinates (Angstroms)
 Number     Number       Type             X           Y           Z
[...]
 ITU=  0
     Eigenvalues ---    0.00590   0.00760   0.00820   0.00961   0.01200
     Eigenvalues ---    0.01906   0.02079   0.02701   0.03663   0.04573
     Eigenvalues ---    0.08586   0.10189   0.10895   0.11872   0.12696
     Eigenvalues ---    0.17229   0.19944   0.21016   0.23992   0.25087
     Eigenvalues ---    0.26956   0.27302   0.30795   0.34494   0.36938
     Eigenvalues ---    0.40699   0.42209   0.44553   0.45024   0.45262
     Eigenvalues ---    0.47993   0.54985   0.56541   0.65635   0.75335
     Eigenvalues ---    0.87261
 Angle between quadratic step and forces=  64.04 degrees.
 Linear search not attempted -- first point.
 Iteration  1 RMS(Cart)=  0.00057754 RMS(Int)=  0.00000069
 Iteration  2 RMS(Cart)=  0.00000057 RMS(Int)=  0.00000034
 ITry= 1 IFail=0 DXMaxC= 2.08D-03 DCOld= 1.00D+10 DXMaxT= 3.00D-01 DXLimC= 3.00D+00 Rises=F
 Variable       Old X    -DE/DX   Delta X   Delta X   Delta X     New X
                                 (Linear)    (Quad)   (Total)
    R1        2.28908   0.00008   0.00000   0.00007   0.00007   2.28915
    R2        2.70936  -0.00002   0.00000   0.00040   0.00040   2.70977
    R3        2.76262  -0.00005   0.00000  -0.00029  -0.00029   2.76233
    R4        1.91983   0.00004   0.00000   0.00019   0.00019   1.92002
    R5        2.69611   0.00009   0.00000   0.00038   0.00038   2.69650
    R6        2.66900  -0.00019   0.00000  -0.00073  -0.00073   2.66826
    R7        2.62267   0.00014   0.00000   0.00051   0.00051   2.62318
    R8        2.37329   0.00007   0.00000   0.00019   0.00019   2.37348
    R9        2.31688   0.00008   0.00000   0.00020   0.00020   2.31708
   R10        2.53397  -0.00006   0.00000  -0.00017  -0.00017   2.53381
   R11        2.61255  -0.00009   0.00000  -0.00056  -0.00056   2.61199
   R12        1.90570   0.00012   0.00000   0.00026   0.00026   1.90596
   R13        1.92098   0.00001   0.00000   0.00005   0.00005   1.92103
   R14        1.92204   0.00004   0.00000   0.00002   0.00002   1.92205
    A1        2.14583   0.00002   0.00000  -0.00017  -0.00017   2.14566
    A2        2.32360  -0.00002   0.00000  -0.00001  -0.00001   2.32359
    A3        1.81344   0.00000   0.00000   0.00021   0.00021   1.81364
    A4        1.97295  -0.00005   0.00000  -0.00123  -0.00123   1.97172
    A5        1.89863   0.00002   0.00000  -0.00046  -0.00046   1.89817
    A6        1.95465  -0.00000   0.00000  -0.00074  -0.00074   1.95391
    A7        2.21643  -0.00001   0.00000   0.00011   0.00011   2.21654
    A8        1.89971  -0.00001   0.00000  -0.00011  -0.00011   1.89960
    A9        2.16522   0.00002   0.00000   0.00002   0.00002   2.16523
   A10        2.04354   0.00007   0.00000   0.00028   0.00028   2.04382
   A11        2.08006  -0.00001   0.00000   0.00001   0.00001   2.08007
   A12        2.15957  -0.00006   0.00000  -0.00028  -0.00028   2.15929
   A13        2.25284   0.00001   0.00000  -0.00022  -0.00022   2.25262
   A14        1.91274   0.00001   0.00000  -0.00001  -0.00001   1.91273
   A15        2.11680  -0.00002   0.00000   0.00023   0.00023   2.11703
   A16        2.09274   0.00001   0.00000   0.00017   0.00017   2.09291
   A17        1.98378   0.00003   0.00000   0.00017   0.00017   1.98395
   A18        2.09724  -0.00004   0.00000  -0.00041  -0.00041   2.09683
   A19        1.87019  -0.00002   0.00000   0.00026   0.00026   1.87046
   A20        1.94636   0.00002   0.00000   0.00046   0.00046   1.94682
   A21        2.00025   0.00002   0.00000   0.00087   0.00087   2.00112
    D1        0.72704   0.00005   0.00000   0.00289   0.00289   0.72993
    D2        2.90985   0.00002   0.00000   0.00070   0.00070   2.91055
    D3       -2.39041  -0.00000   0.00000   0.00178   0.00178  -2.38862
    D4       -0.20759  -0.00003   0.00000  -0.00041  -0.00041  -0.20800
    D5        0.07059  -0.00003   0.00000  -0.00058  -0.00058   0.07001
    D6       -3.00760  -0.00003   0.00000  -0.00094  -0.00094  -3.00854
    D7       -3.09877   0.00003   0.00000   0.00068   0.00068  -3.09808
    D8        0.10622   0.00003   0.00000   0.00033   0.00033   0.10655
    D9        0.23733   0.00002   0.00000   0.00041   0.00041   0.23774
   D10        2.43932   0.00003   0.00000   0.00201   0.00201   2.44134
   D11        2.43083  -0.00003   0.00000  -0.00204  -0.00204   2.42879
   D12       -1.65036  -0.00001   0.00000  -0.00044  -0.00044  -1.65080
   D13       -3.10923   0.00004   0.00000   0.00052   0.00052  -3.10872
   D14        0.03882  -0.00004   0.00000  -0.00016  -0.00016   0.03867
   D15       -0.04008   0.00004   0.00000   0.00092   0.00092  -0.03916
   D16        3.10798  -0.00004   0.00000   0.00025   0.00025   3.10823
   D17       -3.06107  -0.00001   0.00000   0.00018   0.00018  -3.06088
   D18        0.03711  -0.00002   0.00000  -0.00005  -0.00005   0.03705
   D19        0.14164  -0.00001   0.00000  -0.00017  -0.00017   0.14148
   D20       -3.04337  -0.00002   0.00000  -0.00040  -0.00040  -3.04377
   D21       -2.82465  -0.00000   0.00000  -0.00052  -0.00052  -2.82517
   D22       -0.16766  -0.00002   0.00000  -0.00078  -0.00078  -0.16843
   D23        0.36481   0.00001   0.00000  -0.00025  -0.00025   0.36456
   D24        3.02180  -0.00001   0.00000  -0.00051  -0.00051   3.02130
   D25       -0.16764   0.00001   0.00000  -0.00025  -0.00025  -0.16789
   D26       -2.33714  -0.00001   0.00000  -0.00166  -0.00166  -2.33879
   D27        2.93452   0.00000   0.00000  -0.00048  -0.00048   2.93404
   D28        0.76502  -0.00002   0.00000  -0.00188  -0.00188   0.76313
         Item               Value     Threshold  Converged?
 Maximum Force            0.000189     0.000450     YES
 RMS     Force            0.000049     0.000300     YES
 Maximum Displacement     0.002078     0.001800     NO 
 RMS     Displacement     0.000578     0.001200     YES
 Predicted change in Energy=-5.165452D-07
 GradGradGradGradGradGradGradGradGradGradGradGradGradGradGradGradGradGrad

 Leave Link  103 at Fri Aug 20 15:57:52 2021, MaxMem= 24159191040 cpu:         1.0
 (Enter /public/home/users/caep010/software/Gaussian09/g09/l9999.exe)
 1\1\GINC-B1011\Freq\RB3LYP\6-31G(d,p)\C3H4N4O3\ROOT\20-Aug-2021\0\\#P 
 Geom=AllCheck Guess=TCheck SCRF=Check GenChk RB3LYP/6-31G(d,p) Freq\\K
 OBXOO\\0,1\O,-1.6754203491,0.5646868783,5.0801588776\C,-1.1541460046,1
 .184568874,5.9809041552\N,-1.6056917302,1.1134056913,7.3398126142\H,-1
 .8452086553,0.1698285111,7.6303436003\C,-0.0051377185,2.0865484322,6.0
 393480505\N,0.7800140301,2.5340786528,4.9539682532\O,1.7516486812,3.28
 34228064,5.2216870479\C,0.2617152607,2.3871353723,7.3677250072\N,1.166
 3481645,3.2358096818,7.8770955617\H,1.4399601078,3.1578730565,8.844586
 5431\H,1.8219052872,3.5950908169,7.1882489605\O,0.4823701274,2.1851168
 921,3.8169525718\N,-0.61494727,1.6972054351,8.1842877486\H,-1.03610993
 12,2.2567288994,8.9218810083\\Version=ES64L-G09RevE.01\State=1-A\HF=-5
 61.2908618\RMSD=3.277e-09\RMSF=1.044e-04\ZeroPoint=0.095846\Thermal=0.
 1041621\Dipole=0.2849836,0.3711454,3.3697744\DipoleDeriv=-0.6561032,-0
 .2837069,-0.3035091,-0.3184115,-0.6724445,-0.351575,-0.2757441,-0.3063
 093,-0.8194146,1.0681582,0.5825182,0.1740849,0.6118558,0.8225954,0.336
 3172,0.1471042,0.3506364,1.2642849,-0.5034523,-0.0208816,0.5004636,0.1
 444437,-0.059876,-0.0496726,0.2175894,-0.0455155,-0.6091825,0.3311581,
 0.0308902,-0.1371323,-0.0691041,0.1535981,0.0199958,-0.0621823,-0.0353
 05,0.1721478,-0.6092433,-0.3863654,0.0538693,-0.3589577,-0.3868571,-0.
 0571975,0.1714585,0.0004471,-1.1901526,1.1565024,0.5553077,-0.3898122,
 0.5883423,0.7437249,-0.1137862,-0.3410535,-0.0893901,1.8753802,-0.8822
 143,-0.4090363,0.079863,-0.4206793,-0.6177928,0.028673,0.0051091,-0.00
 79524,-0.5473662,0.7815643,0.5196312,0.30441,0.4990077,0.7447485,0.330
 0326,0.0579366,0.1494231,1.5878927,-0.7118197,-0.2092198,-0.230339,-0.
 3826918,-0.9131207,-0.5200968,-0.2054292,-0.2966866,-0.6287628,0.22552
 56,-0.0888452,-0.0253137,-0.0116234,0.3191007,0.1439581,0.0353614,0.06
 22331,0.2262112,0.2643287,-0.0245963,-0.0509481,0.042665,0.355161,0.01
 29096,-0.0134442,0.000689,0.3132845,-0.3624877,-0.0816863,-0.0220117,-
 0.0859865,-0.324103,-0.1132057,0.0099032,-0.0849748,-1.1450677,-0.2446
 945,-0.1186148,-0.0360661,-0.2403197,-0.3630468,0.5571918,0.3253056,0.
 3954739,-0.8205444,0.1427776,-0.0653947,0.0824414,0.0014593,0.1983123,
 -0.2235442,-0.0719147,-0.0927689,0.3212895\Polar=61.9648229,27.1414415
 ,52.2834128,-0.2418722,7.7440184,91.4221508\PG=C01 [X(C3H4N4O3)]\NImag
 =0\\0.20358292,0.18853560,0.24977298,0.24056340,0.29854210,0.51755252,
 -0.21284837,-0.16175860,-0.20491821,0.49055979,-0.15875846,-0.25421725
 ,-0.24456812,0.28872475,0.48326810,-0.20685509,-0.24236494,-0.44313201
 ,0.18679726,0.24408859,0.74234388,0.02568156,0.01075378,-0.00873680,-0
 .09094359,-0.03895781,0.00242805,0.28677815,0.00591008,0.01115502,-0.0
 3233859,-0.04317500,-0.09372784,0.01917755,0.24977149,0.58494972,-0.01
 083601,-0.02655758,-0.06750960,0.06966468,0.00967740,-0.15167714,-0.00
 462209,-0.08460739,0.48214263,-0.00221270,-0.00064929,-0.00536349,-0.0
 0949765,-0.01033219,0.01593117,-0.02578899,-0.06420632,-0.00206009,0.0
 5322790,0.00024710,0.00066684,0.00031321,0.00708091,0.00074613,-0.0049
 5557,-0.11147199,-0.38329914,0.11885334,0.10291623,0.38795307,-0.00154
 269,-0.00507151,0.00283751,0.00924625,0.03650126,-0.00276802,0.0217459
 4,0.11218839,-0.09188876,-0.01806151,-0.11088669,0.09538836,-0.0161393
 7,-0.03083221,-0.02675001,-0.14630841,-0.06999998,0.01092288,-0.020098
 32,-0.01549888,0.03076089,0.00080534,-0.00083072,0.00257187,0.43254570
 ,-0.03332103,-0.01383711,-0.02320763,-0.06633415,-0.11043166,-0.000450
 67,-0.01768378,0.00123241,0.02252999,-0.00017197,0.00040081,-0.0007181
 4,0.25517337,0.28396779,-0.03173258,-0.02546275,0.00779863,0.00578937,
 -0.00975422,-0.11155622,0.01969001,0.01895024,-0.01378565,0.00433655,-
 0.00170103,-0.00523581,-0.03871784,0.03487447,0.72849782,0.00451036,0.
 00348403,-0.00100686,-0.01960282,-0.00306469,0.02151599,-0.00003846,-0
 .00730770,-0.00158807,-0.00107403,-0.00000127,0.00140910,-0.12806164,-
 0.04077555,0.03698482,0.57333518,0.00306587,0.00168042,-0.00212106,-0.
 00377946,-0.00976729,0.02036545,-0.00655998,-0.00193801,0.00058231,-0.
 00112166,0.00045018,0.00022787,-0.04080858,-0.09351820,0.01745354,0.25
 962448,0.43376781,-0.00826994,-0.01019861,-0.01731585,0.02405535,0.024
 29741,0.02194634,-0.00507648,-0.00200482,0.00320502,0.00051727,-0.0001
 8761,0.00075012,0.03984088,0.01908582,-0.15097373,0.05485148,0.1096954
 4,0.83991760,-0.00255287,-0.00153978,-0.00028274,0.00774113,0.00178333
 ,0.00296162,-0.00273342,-0.00002625,0.00241268,0.00010980,0.00030297,0
 .00037195,-0.04213231,-0.04222242,0.02400879,-0.30803561,-0.17678733,-
 0.04695327,0.36191539,-0.00098494,-0.00174122,0.00045922,0.00079411,0.
 00682188,0.00013106,-0.00036194,-0.00121139,0.00162858,0.00025661,0.00
 004089,0.00041099,-0.04181892,-0.01064227,0.01755251,-0.17406781,-0.20
 894039,-0.04197382,0.25223545,0.22348390,0.00132234,0.00212369,0.00425
 123,-0.00237040,-0.00405637,-0.00763580,0.00188529,0.00165993,0.000078
 41,0.00015386,-0.00004463,-0.00030949,0.02210790,0.01633822,0.02004979
 ,-0.02244316,-0.02459088,-0.13817642,0.06416471,0.06175478,0.15926243,
 -0.00402728,-0.00442519,0.00622488,-0.00181795,-0.00664250,-0.03475417
 ,-0.04201299,-0.03835426,0.01115552,-0.00348075,0.00181989,-0.00016412
 ,-0.10376484,-0.03963567,-0.03882568,0.01944946,0.02393799,0.01408552,
 -0.00969109,-0.00779351,-0.00599045,0.57765506,-0.00566371,0.00109124,
 0.00377694,-0.00547471,-0.01022247,-0.02861580,-0.01633023,-0.02089917
 ,0.01455926,-0.00574215,-0.00021350,-0.00170358,-0.04159394,-0.0921242
 3,-0.04787160,0.02713966,0.00726713,0.00648886,-0.00951901,-0.00747414
 ,-0.00564103,0.32649714,0.44058726,0.01599832,0.00967392,-0.00198770,-
 0.06371832,-0.04161350,0.01849628,-0.00177526,-0.00765958,-0.00896695,
 -0.00539330,0.00035502,-0.00592819,-0.04149777,-0.04778945,-0.31260704
 ,0.02820222,0.01641038,-0.05419419,-0.01945345,-0.01454712,-0.00586844
 ,0.05343357,0.10131539,0.73532836,-0.00094883,-0.00032950,-0.00159632,
 0.00409536,-0.00015361,0.00317310,-0.00438423,-0.00460733,0.00231160,0
 .00037051,-0.00040444,-0.00220976,-0.00093961,-0.00961652,-0.02426973,
 -0.01368469,-0.00895235,0.00643467,0.01056170,0.00566709,0.00293294,-0
 .23261325,-0.17663441,-0.07115001,0.54760631,-0.00044256,-0.00165852,-
 0.00166703,0.00219009,0.00700445,0.00425447,-0.01048016,-0.00031916,-0
 .00064849,0.00176693,0.00005686,-0.00090040,-0.00881660,0.00033470,-0.
 03179831,-0.01645326,-0.01076093,0.00930796,0.00882383,0.00847078,0.00
 346637,-0.14757851,-0.18249418,-0.05235813,0.33518608,0.29002947,-0.00
 439965,-0.00270652,0.00158689,0.01102832,0.00555471,-0.01204177,-0.002
 74400,0.00366061,-0.00035485,0.00299929,-0.00028485,0.00118518,-0.0308
 3850,-0.03013627,-0.01642066,-0.00112230,0.00041487,0.00752730,0.00040
 753,-0.00147542,-0.01347169,-0.08113599,-0.07450890,-0.18866842,0.0388
 8512,-0.05394697,0.85803636,-0.00082982,0.00014779,0.00056222,0.002863
 26,-0.00054716,-0.00193485,-0.00172689,-0.00002391,0.00039789,0.000402
 46,-0.00001323,0.00018509,-0.00049240,-0.00446381,-0.00107330,-0.00365
 534,-0.00228135,0.00103811,0.00165820,0.00169759,0.00374646,-0.0034090
 1,0.01093270,-0.02258251,-0.08085342,-0.02740843,-0.11178387,0.0735066
 9,0.00008609,-0.00032319,0.00039402,-0.00125449,0.00045909,-0.00184521
 ,0.00130328,-0.00080521,0.00050730,-0.00022776,-0.00013426,-0.00013504
 ,-0.00473621,0.00069528,0.00390463,0.00022501,0.00034519,-0.00093727,-
 0.00025825,0.00064978,0.00056008,-0.00753421,-0.00407781,-0.03374135,-
 0.01727535,-0.02444758,0.05821147,0.01700229,0.02902698,-0.00006553,0.
 00002185,0.00018872,-0.00015260,-0.00031008,-0.00061267,0.00135938,-0.
 00011980,0.00014323,-0.00025012,-0.00000009,0.00009775,-0.00047103,0.0
 0088142,0.00507540,0.00286427,0.00183907,-0.00182708,-0.00119462,-0.00
 139289,-0.00215994,-0.00597550,-0.00284339,-0.01122871,-0.09884171,0.0
 3828514,-0.42775018,0.11328039,-0.03580362,0.44464062,0.00041869,0.000
 26204,0.00016324,-0.00106982,0.00001735,0.00030642,0.00110396,-0.00143
 880,0.00132432,-0.00035656,-0.00017728,-0.00037644,0.00011187,0.000849
 06,0.00160936,0.00089745,0.00125638,-0.00448304,-0.00489372,-0.0004416
 8,0.00456752,-0.01994643,-0.01003623,0.01557459,-0.21252452,-0.1168678
 6,0.16046479,0.01274050,0.00959609,-0.01141926,0.22323051,0.00046677,0
 .00065409,0.00016917,-0.00063201,-0.00182303,0.00085565,-0.00064019,0.
 00057705,-0.00022310,-0.00037793,0.00040117,0.00025633,0.00211596,-0.0
 0017611,0.00185282,0.00015470,-0.00191016,-0.00349655,0.00032830,-0.00
 328488,0.00386901,-0.02110651,-0.01466403,0.01510001,-0.09871071,-0.06
 506166,0.08052826,0.00340141,-0.00235028,-0.00196694,0.11918609,0.0861
 0272,0.00014344,-0.00007254,-0.00085973,-0.00053196,-0.00017467,0.0012
 3476,-0.00119355,-0.00114473,-0.00077359,-0.00012435,-0.00009764,-0.00
 055926,0.00092789,0.00062405,-0.01051254,-0.02168269,-0.01529546,0.004
 16915,0.01444238,0.01147177,0.00034439,-0.00107075,0.00331085,0.029651
 16,0.15358470,0.08764204,-0.23185065,0.01711121,0.00745986,-0.00786991
 ,-0.16450416,-0.09389289,0.21753525,-0.00097833,-0.00088124,0.00416097
 ,-0.00158941,-0.00145368,-0.00272903,-0.00039635,0.00013505,0.00047235
 ,0.00014740,0.00009702,0.00000058,0.02158778,0.00320881,0.01349063,-0.
 12880500,-0.04423252,-0.07246044,-0.01125468,-0.03506548,-0.07074277,-
 0.00313676,-0.00753022,-0.00017147,0.00273094,0.00305678,-0.00165438,0
 .00056660,0.00059325,-0.00047927,-0.00016562,-0.00080519,0.00556477,0.
 12164339,-0.00117775,0.00064906,0.00376129,-0.00214702,-0.00280707,-0.
 00272032,0.00020180,0.00020237,0.00016740,0.00011798,0.00001571,0.0000
 4407,0.00285305,0.02094144,-0.00239163,-0.04640994,-0.12496175,-0.1032
 5823,-0.03201067,-0.00512060,-0.05646489,-0.00626822,0.00171370,0.0001
 2339,0.00231455,0.00128050,-0.00179031,0.00078596,-0.00024855,-0.00019
 620,-0.00106137,0.00112897,0.00391567,0.08150046,0.10838923,0.00421815
 ,0.00473797,0.00706724,-0.01019251,-0.00920922,-0.00690614,0.00000181,
 -0.00103286,0.00037963,-0.00031260,0.00001190,0.00021127,0.00786504,-0
 .00509532,-0.08448135,-0.08787932,-0.11518413,-0.51703165,-0.04366985,
 -0.03656786,-0.01685312,0.00581173,0.00380290,0.00869575,-0.00028446,-
 0.00246856,-0.00493237,-0.00002219,0.00077258,0.00061407,0.00030833,0.
 00064615,0.00250648,0.12296332,0.15754653,0.61544714,0.00528181,-0.003
 69131,0.00027259,-0.01401281,0.00580738,0.00072498,-0.13638622,-0.0666
 9587,-0.06897409,-0.01294930,0.00166430,-0.01223174,0.00327145,-0.0040
 4048,0.02527560,0.00206126,-0.00267556,-0.00280324,-0.00002876,0.00018
 345,0.00075808,-0.16793955,-0.10805417,0.10265289,-0.02037956,-0.02152
 783,0.02133715,0.00124154,0.00236477,0.00111933,0.00034472,-0.00288443
 ,-0.00307188,0.00013869,0.00104101,0.00073837,0.46555996,0.00323840,0.
 00629236,-0.00184557,-0.01538239,-0.01472896,-0.00993047,-0.05913382,-
 0.08659198,-0.04878191,-0.02241570,-0.00531486,-0.02774552,-0.00062963
 ,0.01533247,0.02606358,-0.00179709,0.00900158,-0.00876067,-0.00167907,
 -0.00155606,0.00090296,-0.06154898,-0.12420071,0.02600027,-0.02876202,
 -0.02331308,0.01600182,0.00079955,0.00036354,0.00238325,-0.00134883,0.
 00057271,-0.00382614,0.00138992,-0.00114358,0.00196698,0.11233491,0.37
 008146,-0.00001437,-0.00455184,-0.01001598,-0.02004451,-0.00380282,-0.
 04776258,-0.02587736,-0.01823688,-0.13561821,0.00753058,-0.00146268,0.
 00668235,0.01854513,0.01022552,-0.06028008,-0.01031465,-0.01089239,0.0
 0430675,0.00332331,0.00298453,0.00017985,0.06128650,0.03364450,-0.1765
 3270,-0.00457660,0.00397710,0.02597031,0.00108253,0.00106686,0.0001369
 7,-0.00294751,-0.00491198,-0.00225131,0.00133714,0.00125269,-0.0053475
 5,-0.17670288,0.17827649,0.61601230,0.00106222,0.00092389,-0.00329288,
 -0.00756870,-0.00642274,0.00151165,0.01094580,-0.01448230,-0.03041957,
 0.00029658,-0.00122951,-0.00094452,-0.00038523,-0.00096586,0.00343399,
 0.00270388,-0.00068593,-0.00077688,-0.00066376,-0.00030001,-0.00009232
 ,-0.00526462,0.02200927,0.00988050,0.00096330,-0.00144850,-0.00144351,
 -0.00201236,0.00011548,0.00022628,0.00010897,-0.00049626,0.00040496,-0
 .00048866,0.00026016,0.00045416,-0.12620323,0.07493476,0.14737270,0.12
 650581,-0.00120147,-0.00018474,-0.00166797,0.00114798,-0.00057407,0.00
 201020,-0.00041045,-0.00932467,-0.00768712,0.00018722,-0.00176989,-0.0
 0246802,-0.00457671,-0.00217532,-0.00167223,-0.00075058,-0.00071556,0.
 00194209,0.00056890,0.00050375,0.00012276,-0.01136747,0.00571091,0.028
 73074,0.00227853,0.00087835,0.00047751,-0.00002940,0.00084702,-0.00077
 773,0.00020503,-0.00016654,0.00007982,-0.00001295,-0.00003941,0.000072
 92,0.08617384,-0.14479487,-0.18756910,-0.07221246,0.15180503,0.0014701
 9,0.00188678,-0.00046186,-0.00465271,-0.00663037,0.00007108,0.00291505
 ,-0.00849209,-0.01537417,0.00009674,0.00008732,-0.00046302,0.00473265,
 0.00283801,0.00443144,0.00020917,0.00109498,-0.00230335,-0.00053904,-0
 .00043635,0.00030881,0.01591894,-0.00571441,-0.02618921,-0.00439354,-0
 .00314521,0.00118456,-0.00000719,-0.00041433,0.00055171,-0.00058815,0.
 00121405,-0.00076420,0.00024762,0.00001052,0.00063060,0.11090483,-0.15
 070505,-0.21548013,-0.12631455,0.16840615,0.25385773\\0.00006295,-0.00
 001627,0.00008639,-0.00015797,0.00010434,-0.00012068,0.00011974,-0.000
 10636,0.00007053,-0.00004229,0.00006274,0.00001568,-0.00003563,0.00000
 175,0.00030219,0.00023008,-0.00001451,-0.00026990,-0.00008879,-0.00001
 177,0.00003521,-0.00002105,0.00002598,-0.00019430,0.00013786,0.0000364
 5,0.00014826,-0.00005204,-0.00000454,-0.00010924,-0.00003366,-0.000007
 20,-0.00002373,-0.00002327,0.00004200,0.00008211,-0.00009707,-0.000107
 55,0.00003163,0.00000115,-0.00000506,-0.00005416\\\@


 NATURE REVEALS EVERY SECRET ONCE.
                    - RALPH WALDO EMERSON
 Job cpu time:       0 days  0 hours  7 minutes 56.0 seconds.
 File lengths (MBytes):  RWF=     55 Int=      0 D2E=      0 Chk=      3 Scr=      1
 Normal termination of Gaussian 09 at Fri Aug 20 15:57:52 2021.
