 Entering Gaussian System, Link 0=g09
 Input=B3LYP6-31G.KAYTUZ.gjf
 Output=B3LYP6-31G.KAYTUZ.log
 Initial command:
 /public/home/users/caep010/software/Gaussian09/g09/l1.exe "/public/home/users/caep010/.cache/gau_scr/Gau-197821.inp" -scrdir="/public/home/users/caep010/.cache/gau_scr/"
 Entering Link 1 = /public/home/users/caep010/software/Gaussian09/g09/l1.exe PID=    197822.
  
 Copyright (c) 1988,1990,1992,1993,1995,1998,2003,2009,2015,
            Gaussian, Inc.  All Rights Reserved.
  
 This is part of the Gaussian(R) 09 program.  It is based on
 the Gaussian(R) 03 system (copyright 2003, Gaussian, Inc.),
 the Gaussian(R) 98 system (copyright 1998, Gaussian, Inc.),
 the Gaussian(R) 94 system (copyright 1995, Gaussian, Inc.),
 the Gaussian 92(TM) system (copyright 1992, Gaussian, Inc.),
 the Gaussian 90(TM) system (copyright 1990, Gaussian, Inc.),
 the Gaussian 88(TM) system (copyright 1988, Gaussian, Inc.),
 the Gaussian 86(TM) system (copyright 1986, Carnegie Mellon
 University), and the Gaussian 82(TM) system (copyright 1983,
 Carnegie Mellon University). Gaussian is a federally registered
 trademark of Gaussian, Inc.
  
 This software contains proprietary and confidential information,
 including trade secrets, belonging to Gaussian, Inc.
  
 This software is provided under written license and may be
 used, copied, transmitted, or stored only in accord with that
 written license.
  
 The following legend is applicable only to US Government
 contracts under FAR:
  
                    RESTRICTED RIGHTS LEGEND
  
 Use, reproduction and disclosure by the US Government is
 subject to restrictions as set forth in subparagraphs (a)
 and (c) of the Commercial Computer Software - Restricted
 Rights clause in FAR 52.227-19.
  
 Gaussian, Inc.
 340 Quinnipiac St., Bldg. 40, Wallingford CT 06492
  
  
 ---------------------------------------------------------------
 Warning -- This program may not be used in any manner that
 competes with the business of Gaussian, Inc. or will provide
 assistance to any competitor of Gaussian, Inc.  The licensee
 of this program is prohibited from giving any competitor of
 Gaussian, Inc. access to this program.  By using this program,
 the user acknowledges that Gaussian, Inc. is engaged in the
 business of creating and licensing software in the field of
 computational chemistry and represents and warrants to the
 licensee that it is not a competitor of Gaussian, Inc. and that
 it will not use this program in any manner prohibited above.
 ---------------------------------------------------------------
  

 Cite this work as:
 Gaussian 09, Revision E.01,
 M. J. Frisch, G. W. Trucks, H. B. Schlegel, G. E. Scuseria, 
 M. A. Robb, J. R. Cheeseman, G. Scalmani, V. Barone, B. Mennucci, 
 G. A. Petersson, H. Nakatsuji, M. Caricato, X. Li, H. P. Hratchian, 
 A. F. Izmaylov, J. Bloino, G. Zheng, J. L. Sonnenberg, M. Hada, 
 M. Ehara, K. Toyota, R. Fukuda, J. Hasegawa, M. Ishida, T. Nakajima, 
 Y. Honda, O. Kitao, H. Nakai, T. Vreven, J. A. Montgomery, Jr., 
 J. E. Peralta, F. Ogliaro, M. Bearpark, J. J. Heyd, E. Brothers, 
 K. N. Kudin, V. N. Staroverov, T. Keith, R. Kobayashi, J. Normand, 
 K. Raghavachari, A. Rendell, J. C. Burant, S. S. Iyengar, J. Tomasi, 
 M. Cossi, N. Rega, J. M. Millam, M. Klene, J. E. Knox, J. B. Cross, 
 V. Bakken, C. Adamo, J. Jaramillo, R. Gomperts, R. E. Stratmann, 
 O. Yazyev, A. J. Austin, R. Cammi, C. Pomelli, J. W. Ochterski, 
 R. L. Martin, K. Morokuma, V. G. Zakrzewski, G. A. Voth, 
 P. Salvador, J. J. Dannenberg, S. Dapprich, A. D. Daniels, 
 O. Farkas, J. B. Foresman, J. V. Ortiz, J. Cioslowski, 
 and D. J. Fox, Gaussian, Inc., Wallingford CT, 2013.
 
 ******************************************
 Gaussian 09:  ES64L-G09RevE.01 30-Nov-2015
                20-Aug-2021 
 ******************************************
 %nproc=32
 Will use up to   32 processors via shared memory.
 %mem=180GB
 -------------------------
 #P OPT Freq B3LYP/6-31G**
 -------------------------
 1/14=-1,18=20,19=15,26=3,38=1/1,3;
 2/9=110,12=2,17=6,18=5,40=1/2;
 3/5=1,6=6,7=101,11=2,16=1,25=1,30=1,71=1,74=-5/1,2,3;
 4//1;
 5/5=2,38=5/2;
 6/7=2,8=2,9=2,10=2,28=1/1;
 7//1,2,3,16;
 1/14=-1,18=20,19=15,26=3/3(2);
 2/9=110/2;
 99//99;
 2/9=110/2;
 3/5=1,6=6,7=101,11=2,16=1,25=1,30=1,71=1,74=-5/1,2,3;
 4/5=5,16=3,69=1/1;
 5/5=2,38=5/2;
 7//1,2,3,16;
 1/14=-1,18=20,19=15,26=3/3(-5);
 2/9=110/2;
 6/7=2,8=2,9=2,10=2,19=2,28=1/1;
 99/9=1/99;
 Leave Link    1 at Fri Aug 20 15:45:03 2021, MaxMem= 24159191040 cpu:         2.9
 (Enter /public/home/users/caep010/software/Gaussian09/g09/l101.exe)
 ------
 KAYTUZ
 ------
 Symbolic Z-matrix:
 Charge =  0 Multiplicity = 1
 C                     3.1689    1.3141    7.5333 
 N                     1.9458    1.1654    8.0861 
 H                     1.4413    0.4927    7.8192 
 C                     3.5831    0.4327    6.5171 
 C                     4.8264    0.5133    5.9586 
 C                     4.0827    2.3085    7.9357 
 C                     5.328     2.3918    7.3773 
 C                     1.448     1.9304    9.2127 
 H                     0.7206    1.3706    9.6512 
 C                     0.8725    3.2813    8.8368 
 N                    -0.2787    3.2276    7.9613 
 H                     0.1345    2.983     7.1507 
 H                     3.8435    2.8845    8.6397 
 H                     5.9766    3.0726    7.652 
 H                     2.21      2.0872    9.8914 
 C                     5.7066    1.5014    6.3886 
 N                     7.0037    1.5936    5.7805 
 O                     7.316     0.7991    4.8949 
 O                     7.7696    2.493     6.1656 
 H                     5.1118   -0.0806    5.2551 
 H                     2.9883   -0.1971    6.2072 
 H                     1.595     3.8788    8.3532 
 H                     0.5093    3.8161    9.6707 
 H                    -0.8936    2.5709    8.296 
 
 NAtoms=     24 NQM=       24 NQMF=       0 NMMI=      0 NMMIF=      0
                NMic=       0 NMicF=      0.
                    Isotopes and Nuclear Properties:
 (Nuclear quadrupole moments (NQMom) in fm**2, nuclear magnetic moments (NMagM)
  in nuclear magnetons)

  Atom         1           2           3           4           5           6           7           8           9          10
 IAtWgt=          12          14           1          12          12          12          12          12           1          12
 AtmWgt=  12.0000000  14.0030740   1.0078250  12.0000000  12.0000000  12.0000000  12.0000000  12.0000000   1.0078250  12.0000000
 NucSpn=           0           2           1           0           0           0           0           0           1           0
 AtZEff=   0.0000000   0.0000000   0.0000000   0.0000000   0.0000000   0.0000000   0.0000000   0.0000000   0.0000000   0.0000000
 NQMom=    0.0000000   2.0440000   0.0000000   0.0000000   0.0000000   0.0000000   0.0000000   0.0000000   0.0000000   0.0000000
 NMagM=    0.0000000   0.4037610   2.7928460   0.0000000   0.0000000   0.0000000   0.0000000   0.0000000   2.7928460   0.0000000
 AtZNuc=   6.0000000   7.0000000   1.0000000   6.0000000   6.0000000   6.0000000   6.0000000   6.0000000   1.0000000   6.0000000

  Atom        11          12          13          14          15          16          17          18          19          20
 IAtWgt=          14           1           1           1           1          12          14          16          16           1
 AtmWgt=  14.0030740   1.0078250   1.0078250   1.0078250   1.0078250  12.0000000  14.0030740  15.9949146  15.9949146   1.0078250
 NucSpn=           2           1           1           1           1           0           2           0           0           1
 AtZEff=   0.0000000   0.0000000   0.0000000   0.0000000   0.0000000   0.0000000   0.0000000   0.0000000   0.0000000   0.0000000
 NQMom=    2.0440000   0.0000000   0.0000000   0.0000000   0.0000000   0.0000000   2.0440000   0.0000000   0.0000000   0.0000000
 NMagM=    0.4037610   2.7928460   2.7928460   2.7928460   2.7928460   0.0000000   0.4037610   0.0000000   0.0000000   2.7928460
 AtZNuc=   7.0000000   1.0000000   1.0000000   1.0000000   1.0000000   6.0000000   7.0000000   8.0000000   8.0000000   1.0000000

  Atom        21          22          23          24
 IAtWgt=           1           1           1           1
 AtmWgt=   1.0078250   1.0078250   1.0078250   1.0078250
 NucSpn=           1           1           1           1
 AtZEff=   0.0000000   0.0000000   0.0000000   0.0000000
 NQMom=    0.0000000   0.0000000   0.0000000   0.0000000
 NMagM=    2.7928460   2.7928460   2.7928460   2.7928460
 AtZNuc=   1.0000000   1.0000000   1.0000000   1.0000000
 Leave Link  101 at Fri Aug 20 15:45:03 2021, MaxMem= 24159191040 cpu:        11.7
 (Enter /public/home/users/caep010/software/Gaussian09/g09/l103.exe)

 GradGradGradGradGradGradGradGradGradGradGradGradGradGradGradGradGradGrad
 Berny optimization.
 Initialization pass.
                           ----------------------------
                           !    Initial Parameters    !
                           ! (Angstroms and Degrees)  !
 --------------------------                            --------------------------
 ! Name  Definition              Value          Derivative Info.                !
 --------------------------------------------------------------------------------
 ! R1    R(1,2)                  1.3504         estimate D2E/DX2                !
 ! R2    R(1,4)                  1.4075         estimate D2E/DX2                !
 ! R3    R(1,6)                  1.4092         estimate D2E/DX2                !
 ! R4    R(2,3)                  0.8822         estimate D2E/DX2                !
 ! R5    R(2,8)                  1.4499         estimate D2E/DX2                !
 ! R6    R(4,5)                  1.3654         estimate D2E/DX2                !
 ! R7    R(4,21)                 0.92           estimate D2E/DX2                !
 ! R8    R(5,16)                 1.3914         estimate D2E/DX2                !
 ! R9    R(5,20)                 0.9639         estimate D2E/DX2                !
 ! R10   R(6,7)                  1.3673         estimate D2E/DX2                !
 ! R11   R(6,13)                 0.9405         estimate D2E/DX2                !
 ! R12   R(7,14)                 0.9796         estimate D2E/DX2                !
 ! R13   R(7,16)                 1.3834         estimate D2E/DX2                !
 ! R14   R(8,9)                  1.0172         estimate D2E/DX2                !
 ! R15   R(8,10)                 1.5157         estimate D2E/DX2                !
 ! R16   R(8,15)                 1.0324         estimate D2E/DX2                !
 ! R17   R(10,11)                1.4473         estimate D2E/DX2                !
 ! R18   R(10,22)                1.0549         estimate D2E/DX2                !
 ! R19   R(10,23)                1.0551         estimate D2E/DX2                !
 ! R20   R(11,12)                0.9421         estimate D2E/DX2                !
 ! R21   R(11,24)                0.9599         estimate D2E/DX2                !
 ! R22   R(16,17)                1.4355         estimate D2E/DX2                !
 ! R23   R(17,18)                1.2301         estimate D2E/DX2                !
 ! R24   R(17,19)                1.2425         estimate D2E/DX2                !
 ! A1    A(2,1,4)              119.5459         estimate D2E/DX2                !
 ! A2    A(2,1,6)              123.2386         estimate D2E/DX2                !
 ! A3    A(4,1,6)              117.2085         estimate D2E/DX2                !
 ! A4    A(1,2,3)              118.5589         estimate D2E/DX2                !
 ! A5    A(1,2,8)              124.815          estimate D2E/DX2                !
 ! A6    A(3,2,8)              116.1714         estimate D2E/DX2                !
 ! A7    A(1,4,5)              121.7578         estimate D2E/DX2                !
 ! A8    A(1,4,21)             118.7901         estimate D2E/DX2                !
 ! A9    A(5,4,21)             119.4278         estimate D2E/DX2                !
 ! A10   A(4,5,16)             119.4428         estimate D2E/DX2                !
 ! A11   A(4,5,20)             122.1269         estimate D2E/DX2                !
 ! A12   A(16,5,20)            118.4118         estimate D2E/DX2                !
 ! A13   A(1,6,7)              121.1293         estimate D2E/DX2                !
 ! A14   A(1,6,13)             118.7494         estimate D2E/DX2                !
 ! A15   A(7,6,13)             120.0005         estimate D2E/DX2                !
 ! A16   A(6,7,14)             122.0623         estimate D2E/DX2                !
 ! A17   A(6,7,16)             120.1279         estimate D2E/DX2                !
 ! A18   A(14,7,16)            117.8094         estimate D2E/DX2                !
 ! A19   A(2,8,9)              106.8638         estimate D2E/DX2                !
 ! A20   A(2,8,10)             114.073          estimate D2E/DX2                !
 ! A21   A(2,8,15)             109.7265         estimate D2E/DX2                !
 ! A22   A(9,8,10)             109.0184         estimate D2E/DX2                !
 ! A23   A(9,8,15)             109.1462         estimate D2E/DX2                !
 ! A24   A(10,8,15)            107.9334         estimate D2E/DX2                !
 ! A25   A(8,10,11)            114.769          estimate D2E/DX2                !
 ! A26   A(8,10,22)            111.0047         estimate D2E/DX2                !
 ! A27   A(8,10,23)            112.7326         estimate D2E/DX2                !
 ! A28   A(11,10,22)           106.7665         estimate D2E/DX2                !
 ! A29   A(11,10,23)           102.8908         estimate D2E/DX2                !
 ! A30   A(22,10,23)           108.1179         estimate D2E/DX2                !
 ! A31   A(10,11,12)           100.4424         estimate D2E/DX2                !
 ! A32   A(10,11,24)           108.9049         estimate D2E/DX2                !
 ! A33   A(12,11,24)           113.7868         estimate D2E/DX2                !
 ! A34   A(5,16,7)             120.3202         estimate D2E/DX2                !
 ! A35   A(5,16,17)            119.0974         estimate D2E/DX2                !
 ! A36   A(7,16,17)            120.5776         estimate D2E/DX2                !
 ! A37   A(16,17,18)           119.5316         estimate D2E/DX2                !
 ! A38   A(16,17,19)           118.1754         estimate D2E/DX2                !
 ! A39   A(18,17,19)           122.2887         estimate D2E/DX2                !
 ! D1    D(4,1,2,3)              2.499          estimate D2E/DX2                !
 ! D2    D(4,1,2,8)            174.447          estimate D2E/DX2                !
 ! D3    D(6,1,2,3)           -176.5119         estimate D2E/DX2                !
 ! D4    D(6,1,2,8)             -4.5639         estimate D2E/DX2                !
 ! D5    D(2,1,4,5)           -177.7476         estimate D2E/DX2                !
 ! D6    D(2,1,4,21)             4.0548         estimate D2E/DX2                !
 ! D7    D(6,1,4,5)              1.3222         estimate D2E/DX2                !
 ! D8    D(6,1,4,21)          -176.8754         estimate D2E/DX2                !
 ! D9    D(2,1,6,7)            177.7633         estimate D2E/DX2                !
 ! D10   D(2,1,6,13)             1.7604         estimate D2E/DX2                !
 ! D11   D(4,1,6,7)             -1.2692         estimate D2E/DX2                !
 ! D12   D(4,1,6,13)          -177.2721         estimate D2E/DX2                !
 ! D13   D(1,2,8,9)           -156.2364         estimate D2E/DX2                !
 ! D14   D(1,2,8,10)            83.2077         estimate D2E/DX2                !
 ! D15   D(1,2,8,15)           -38.0214         estimate D2E/DX2                !
 ! D16   D(3,2,8,9)             15.8846         estimate D2E/DX2                !
 ! D17   D(3,2,8,10)          -104.6713         estimate D2E/DX2                !
 ! D18   D(3,2,8,15)           134.0996         estimate D2E/DX2                !
 ! D19   D(1,4,5,16)            -0.8357         estimate D2E/DX2                !
 ! D20   D(1,4,5,20)          -179.2451         estimate D2E/DX2                !
 ! D21   D(21,4,5,16)          177.3507         estimate D2E/DX2                !
 ! D22   D(21,4,5,20)           -1.0586         estimate D2E/DX2                !
 ! D23   D(4,5,16,7)             0.252          estimate D2E/DX2                !
 ! D24   D(4,5,16,17)         -178.9573         estimate D2E/DX2                !
 ! D25   D(20,5,16,7)          178.7205         estimate D2E/DX2                !
 ! D26   D(20,5,16,17)          -0.4888         estimate D2E/DX2                !
 ! D27   D(1,6,7,14)          -179.4725         estimate D2E/DX2                !
 ! D28   D(1,6,7,16)             0.7441         estimate D2E/DX2                !
 ! D29   D(13,6,7,14)           -3.5191         estimate D2E/DX2                !
 ! D30   D(13,6,7,16)          176.6975         estimate D2E/DX2                !
 ! D31   D(6,7,16,5)            -0.2101         estimate D2E/DX2                !
 ! D32   D(6,7,16,17)          178.9874         estimate D2E/DX2                !
 ! D33   D(14,7,16,5)          179.9975         estimate D2E/DX2                !
 ! D34   D(14,7,16,17)          -0.805          estimate D2E/DX2                !
 ! D35   D(2,8,10,11)           62.1404         estimate D2E/DX2                !
 ! D36   D(2,8,10,22)          -59.0225         estimate D2E/DX2                !
 ! D37   D(2,8,10,23)          179.5088         estimate D2E/DX2                !
 ! D38   D(9,8,10,11)          -57.2046         estimate D2E/DX2                !
 ! D39   D(9,8,10,22)         -178.3676         estimate D2E/DX2                !
 ! D40   D(9,8,10,23)           60.1637         estimate D2E/DX2                !
 ! D41   D(15,8,10,11)        -175.6412         estimate D2E/DX2                !
 ! D42   D(15,8,10,22)          63.1959         estimate D2E/DX2                !
 ! D43   D(15,8,10,23)         -58.2729         estimate D2E/DX2                !
 ! D44   D(8,10,11,12)         -73.0408         estimate D2E/DX2                !
 ! D45   D(8,10,11,24)          46.7364         estimate D2E/DX2                !
 ! D46   D(22,10,11,12)         50.4155         estimate D2E/DX2                !
 ! D47   D(22,10,11,24)        170.1927         estimate D2E/DX2                !
 ! D48   D(23,10,11,12)        164.1268         estimate D2E/DX2                !
 ! D49   D(23,10,11,24)        -76.0961         estimate D2E/DX2                !
 ! D50   D(5,16,17,18)          -0.161          estimate D2E/DX2                !
 ! D51   D(5,16,17,19)         179.0959         estimate D2E/DX2                !
 ! D52   D(7,16,17,18)        -179.3682         estimate D2E/DX2                !
 ! D53   D(7,16,17,19)          -0.1113         estimate D2E/DX2                !
 --------------------------------------------------------------------------------
 Trust Radius=3.00D-01 FncErr=1.00D-07 GrdErr=1.00D-06
 Number of steps in this run=    126 maximum allowed number of steps=    144.
 GradGradGradGradGradGradGradGradGradGradGradGradGradGradGradGradGradGrad

 Leave Link  103 at Fri Aug 20 15:45:03 2021, MaxMem= 24159191040 cpu:         0.5
 (Enter /public/home/users/caep010/software/Gaussian09/g09/l202.exe)
                          Input orientation:                          
 ---------------------------------------------------------------------
 Center     Atomic      Atomic             Coordinates (Angstroms)
 Number     Number       Type             X           Y           Z
 ---------------------------------------------------------------------
      1          6           0        3.168900    1.314100    7.533300
      2          7           0        1.945800    1.165400    8.086100
      3          1           0        1.441300    0.492700    7.819200
      4          6           0        3.583100    0.432700    6.517100
      5          6           0        4.826400    0.513300    5.958600
      6          6           0        4.082700    2.308500    7.935700
      7          6           0        5.328000    2.391800    7.377300
      8          6           0        1.448000    1.930400    9.212700
      9          1           0        0.720600    1.370600    9.651200
     10          6           0        0.872500    3.281300    8.836800
     11          7           0       -0.278700    3.227600    7.961300
     12          1           0        0.134500    2.983000    7.150700
     13          1           0        3.843500    2.884500    8.639700
     14          1           0        5.976600    3.072600    7.652000
     15          1           0        2.210000    2.087200    9.891400
     16          6           0        5.706600    1.501400    6.388600
     17          7           0        7.003700    1.593600    5.780500
     18          8           0        7.316000    0.799100    4.894900
     19          8           0        7.769600    2.493000    6.165600
     20          1           0        5.111800   -0.080600    5.255100
     21          1           0        2.988300   -0.197100    6.207200
     22          1           0        1.595000    3.878800    8.353200
     23          1           0        0.509300    3.816100    9.670700
     24          1           0       -0.893600    2.570900    8.296000
 ---------------------------------------------------------------------
                    Distance matrix (angstroms):
                    1          2          3          4          5
     1  C    0.000000
     2  N    1.350434   0.000000
     3  H    1.934176   0.882202   0.000000
     4  C    1.407512   2.383141   2.507264   0.000000
     5  C    2.422451   3.639965   3.862792   1.365362   0.000000
     6  C    1.409180   2.428094   3.207444   2.404299   2.772139
     7  C    2.418158   3.666842   4.348367   2.760922   2.406881
     8  C    2.482279   1.449916   2.002216   3.750735   4.900094
     9  H    3.237725   1.998189   2.155537   4.346970   5.588189
    10  C    3.292786   2.488485   3.022471   4.565401   5.619536
    11  N    3.966184   3.035893   3.233925   4.981032   6.118846
    12  H    3.484135   2.731199   2.890711   4.335703   5.434560
    13  H    2.036016   2.619741   3.487763   3.253392   3.711735
    14  H    3.315055   4.480313   5.220420   3.739774   3.277282
    15  H    2.660415   2.044169   2.725315   4.001084   4.978918
    16  C    2.790222   4.139809   4.610518   2.380732   1.391400
    17  N    4.225650   5.575078   6.025659   3.686567   2.437089
    18  O    4.942147   6.257554   6.569438   4.086603   2.722361
    19  O    4.942353   6.274352   6.839808   4.679228   3.553095
    20  H    3.303066   4.426131   4.513962   2.047693   0.963889
    21  H    2.018634   2.544303   2.338285   0.920040   1.986223
    22  H    3.118827   2.748989   3.431392   4.381713   5.244296
    23  H    4.231070   3.405980   3.916844   5.553453   6.582213
    24  H    4.320320   3.175166   3.161963   5.270411   6.512723
                    6          7          8          9         10
     6  C    0.000000
     7  C    1.367304   0.000000
     8  C    2.952174   4.316941   0.000000
     9  H    3.889256   5.238474   1.017236   0.000000
    10  C    3.473284   4.772089   1.515728   2.082569   0.000000
    11  N    4.457265   5.698658   2.496041   2.702371   1.447289
    12  H    4.081600   5.231951   2.661784   3.032466   1.864554
    13  H    0.940536   2.010012   2.641412   3.614904   3.003854
    14  H    2.061842   0.979607   4.924289   5.875299   5.243963
    15  H    2.716752   4.016890   1.032407   1.670187   2.080135
    16  C    2.383690   1.383357   5.127890   5.960022   5.703530
    17  N    3.699758   2.448441   6.539054   7.383048   7.055559
    18  O    4.688175   3.556845   7.372697   8.151583   7.951012
    19  O    4.093962   2.727612   7.040168   7.943399   7.438193
    20  H    3.735299   3.265461   5.755880   6.380777   6.488652
    21  H    3.234726   3.680453   3.991467   4.411494   4.846718
    22  H    2.971330   4.135074   2.134622   2.956425   1.054932
    23  H    4.248796   5.523421   2.155641   2.454689   1.055137
    24  H    4.996222   6.291613   2.594932   2.425475   1.978950
                   11         12         13         14         15
    11  N    0.000000
    12  H    0.942144   0.000000
    13  H    4.191715   3.997937   0.000000
    14  H    6.264860   5.864253   2.358188   0.000000
    15  H    3.349541   3.552688   2.206980   4.491459   0.000000
    16  C    6.424715   5.815861   3.232887   2.034146   4.983872
    17  N    7.775551   7.140994   4.452899   2.597092   6.334248
    18  O    8.542827   7.837857   5.516401   3.816333   7.259163
    19  O    8.278847   7.713966   4.657113   2.400035   6.704880
    20  H    6.879331   6.144303   4.675032   4.054094   5.883458
    21  H    5.047646   4.375775   4.018045   4.659219   4.404215
    22  H    2.021979   2.093209   2.475170   4.509995   2.440105
    23  H    1.972137   2.680472   3.612164   5.875314   2.435197
    24  H    0.959886   1.593276   4.759894   6.918532   3.523010
                   16         17         18         19         20
    16  C    0.000000
    17  N    1.435533   0.000000
    18  O    2.305327   1.230061   0.000000
    19  O    2.299776   1.242508   2.165578   0.000000
    20  H    2.035027   2.580364   2.400440   3.810030   0.000000
    21  H    3.210446   4.417252   4.630716   5.486274   2.330090
    22  H    5.139741   6.410535   7.360315   6.695649   6.135385
    23  H    6.568253   7.889892   8.845435   8.169962   7.474276
    24  H    6.953031   8.345670   9.061142   8.921643   7.234802
                   21         22         23         24
    21  H    0.000000
    22  H    4.812438   0.000000
    23  H    5.852098   1.708357   0.000000
    24  H    5.205195   2.811940   2.325608   0.000000
 Stoichiometry    C8H11N3O2
 Framework group  C1[X(C8H11N3O2)]
 Deg. of freedom    66
 Full point group                 C1      NOp   1
 Largest Abelian subgroup         C1      NOp   1
 Largest concise Abelian subgroup C1      NOp   1
                         Standard orientation:                         
 ---------------------------------------------------------------------
 Center     Atomic      Atomic             Coordinates (Angstroms)
 Number     Number       Type             X           Y           Z
 ---------------------------------------------------------------------
      1          6           0       -0.774580    0.521609   -0.328102
      2          7           0       -2.077959    0.823024   -0.512563
      3          1           0       -2.320471    1.671157   -0.500727
      4          6           0        0.146910    1.554003   -0.070990
      5          6           0        1.481274    1.305741    0.077515
      6          6           0       -0.267934   -0.791442   -0.398776
      7          6           0        1.067775   -1.042693   -0.249523
      8          6           0       -3.101698   -0.129537   -0.895763
      9          1           0       -3.848924    0.401654   -1.336511
     10          6           0       -3.675128   -0.920526    0.263093
     11          7           0       -4.348091   -0.124077    1.266804
     12          1           0       -3.608975    0.284747    1.684185
     13          1           0       -0.857990   -1.493356   -0.607962
     14          1           0        1.435666   -1.948980   -0.303662
     15          1           0       -2.715200   -0.800710   -1.578413
     16          6           0        1.947412   -0.002368   -0.009440
     17          7           0        3.348601   -0.257552    0.170300
     18          8           0        4.111884    0.680656    0.394383
     19          8           0        3.743671   -1.433827    0.106091
     20          1           0        2.115493    2.007155    0.264242
     21          1           0       -0.166065    2.414061    0.022920
     22          1           0       -2.919792   -1.462992    0.761168
     23          1           0       -4.423310   -1.600809   -0.038158
     24          1           0       -4.936911    0.494966    0.829246
 ---------------------------------------------------------------------
 Rotational constants (GHZ):      2.3813702      0.3369942      0.3146910
 Leave Link  202 at Fri Aug 20 15:45:03 2021, MaxMem= 24159191040 cpu:         0.8
 (Enter /public/home/users/caep010/software/Gaussian09/g09/l301.exe)
 Standard basis: 6-31G(d,p) (6D, 7F)
 Ernie: Thresh=  0.10000D-02 Tol=  0.10000D-05 Strict=F.
 There are   250 symmetry adapted cartesian basis functions of A   symmetry.
 There are   250 symmetry adapted basis functions of A   symmetry.
   250 basis functions,   441 primitive gaussians,   250 cartesian basis functions
    48 alpha electrons       48 beta electrons
       nuclear repulsion energy       774.2073676540 Hartrees.
 IExCor=  402 DFT=T Ex+Corr=B3LYP ExCW=0 ScaHFX=  0.200000
 ScaDFX=  0.800000  0.720000  1.000000  0.810000 ScalE2=  1.000000  1.000000
 IRadAn=      0 IRanWt=     -1 IRanGd=            0 ICorTp=0 IEmpDi=  4
 NAtoms=   24 NActive=   24 NUniq=   24 SFac= 1.00D+00 NAtFMM=   60 NAOKFM=F Big=F
 Integral buffers will be    131072 words long.
 Raffenetti 2 integral format.
 Two-electron integral symmetry is turned on.
 Leave Link  301 at Fri Aug 20 15:45:03 2021, MaxMem= 24159191040 cpu:         1.8
 (Enter /public/home/users/caep010/software/Gaussian09/g09/l302.exe)
 NPDir=0 NMtPBC=     1 NCelOv=     1 NCel=       1 NClECP=     1 NCelD=      1
         NCelK=      1 NCelE2=     1 NClLst=     1 CellRange=     0.0.
 One-electron integrals computed using PRISM.
 NBasis=   250 RedAO= T EigKep=  3.42D-04  NBF=   250
 NBsUse=   250 1.00D-06 EigRej= -1.00D+00 NBFU=   250
 Precomputing XC quadrature grid using
 IXCGrd= 4 IRadAn=           0 IRanWt=          -1 IRanGd=           0 AccXCQ= 0.00D+00.
 Generated NRdTot=       0 NPtTot=           0 NUsed=           0 NTot=          32
 NSgBfM=   248   248   248   248   248 MxSgAt=    24 MxSgA2=    24.
 Leave Link  302 at Fri Aug 20 15:45:04 2021, MaxMem= 24159191040 cpu:        13.2
 (Enter /public/home/users/caep010/software/Gaussian09/g09/l303.exe)
 DipDrv:  MaxL=1.
 Leave Link  303 at Fri Aug 20 15:45:04 2021, MaxMem= 24159191040 cpu:         0.9
 (Enter /public/home/users/caep010/software/Gaussian09/g09/l401.exe)
 ExpMin= 1.61D-01 ExpMax= 5.48D+03 ExpMxC= 8.25D+02 IAcc=1 IRadAn=         1 AccDes= 0.00D+00
 Harris functional with IExCor=  402 and IRadAn=       1 diagonalized for initial guess.
 HarFok:  IExCor=  402 AccDes= 0.00D+00 IRadAn=         1 IDoV= 1 UseB2=F ITyADJ=14
 ICtDFT=  3500011 ScaDFX=  1.000000  1.000000  1.000000  1.000000
 FoFCou: FMM=F IPFlag=           0 FMFlag=      100000 FMFlg1=           0
         NFxFlg=           0 DoJE=T BraDBF=F KetDBF=T FulRan=T
         wScrn=  0.000000 ICntrl=     500 IOpCl=  0 I1Cent=   200000004 NGrid=           0
         NMat0=    1 NMatS0=      1 NMatT0=    0 NMatD0=    1 NMtDS0=    0 NMtDT0=    0
 Petite list used in FoFCou.
 Harris En= -626.096308469809    
 JPrj=0 DoOrth=F DoCkMO=F.
 Leave Link  401 at Fri Aug 20 15:45:04 2021, MaxMem= 24159191040 cpu:        12.4
 (Enter /public/home/users/caep010/software/Gaussian09/g09/l502.exe)
 Closed shell SCF:
 Using DIIS extrapolation, IDIIS=  1040.
 Integral symmetry usage will be decided dynamically.
 Keep R1 ints in memory in canonical form, NReq=500333433.
 IVT=      215933 IEndB=      215933 NGot= 24159191040 MDV= 23666764108
 LenX= 23666764108 LenY= 23666701167
 Requested convergence on RMS density matrix=1.00D-08 within 128 cycles.
 Requested convergence on MAX density matrix=1.00D-06.
 Requested convergence on             energy=1.00D-06.
 No special actions if energy rises.
 FoFCou: FMM=F IPFlag=           0 FMFlag=           0 FMFlg1=           0
         NFxFlg=           0 DoJE=F BraDBF=F KetDBF=F FulRan=T
         wScrn=  0.000000 ICntrl=     600 IOpCl=  0 I1Cent=           0 NGrid=           0
         NMat0=    1 NMatS0=  31375 NMatT0=    0 NMatD0=    1 NMtDS0=    0 NMtDT0=    0
 Symmetry not used in FoFCou.
 Integral accuracy reduced to 1.0D-05 until final iterations.

 Cycle   1  Pass 0  IDiag  1:
 E= -625.547587690411    
 DIIS: error= 3.74D-02 at cycle   1 NSaved=   1.
 NSaved= 1 IEnMin= 1 EnMin= -625.547587690411     IErMin= 1 ErrMin= 3.74D-02
 ErrMax= 3.74D-02  0.00D+00 EMaxC= 1.00D-01 BMatC= 5.02D-01 BMatP= 5.02D-01
 IDIUse=3 WtCom= 6.26D-01 WtEn= 3.74D-01
 Coeff-Com:  0.100D+01
 Coeff-En:   0.100D+01
 Coeff:      0.100D+01
 Gap=     0.091 Goal=   None    Shift=    0.000
 GapD=    0.091 DampG=0.500 DampE=0.500 DampFc=0.2500 IDamp=-1.
 Damping current iteration by 2.50D-01
 RMSDP=5.92D-03 MaxDP=2.51D-01              OVMax= 3.48D-01

 Cycle   2  Pass 0  IDiag  1:
 E= -625.706329232099     Delta-E=       -0.158741541689 Rises=F Damp=T
 DIIS: error= 1.89D-02 at cycle   2 NSaved=   2.
 NSaved= 2 IEnMin= 2 EnMin= -625.706329232099     IErMin= 2 ErrMin= 1.89D-02
 ErrMax= 1.89D-02  0.00D+00 EMaxC= 1.00D-01 BMatC= 1.03D-01 BMatP= 5.02D-01
 IDIUse=3 WtCom= 8.11D-01 WtEn= 1.89D-01
 Coeff-Com: -0.609D+00 0.161D+01
 Coeff-En:   0.000D+00 0.100D+01
 Coeff:     -0.494D+00 0.149D+01
 Gap=     0.181 Goal=   None    Shift=    0.000
 RMSDP=2.08D-03 MaxDP=4.88D-02 DE=-1.59D-01 OVMax= 2.38D-01

 Cycle   3  Pass 0  IDiag  1:
 E= -625.961895961021     Delta-E=       -0.255566728922 Rises=F Damp=F
 DIIS: error= 8.47D-03 at cycle   3 NSaved=   3.
 NSaved= 3 IEnMin= 3 EnMin= -625.961895961021     IErMin= 3 ErrMin= 8.47D-03
 ErrMax= 8.47D-03  0.00D+00 EMaxC= 1.00D-01 BMatC= 2.48D-02 BMatP= 1.03D-01
 IDIUse=3 WtCom= 9.15D-01 WtEn= 8.47D-02
 Coeff-Com: -0.277D+00 0.721D+00 0.556D+00
 Coeff-En:   0.000D+00 0.000D+00 0.100D+01
 Coeff:     -0.254D+00 0.660D+00 0.594D+00
 Gap=     0.152 Goal=   None    Shift=    0.000
 RMSDP=9.63D-04 MaxDP=3.16D-02 DE=-2.56D-01 OVMax= 6.32D-02

 Cycle   4  Pass 0  IDiag  1:
 E= -625.977830833654     Delta-E=       -0.015934872633 Rises=F Damp=F
 DIIS: error= 5.91D-03 at cycle   4 NSaved=   4.
 NSaved= 4 IEnMin= 4 EnMin= -625.977830833654     IErMin= 4 ErrMin= 5.91D-03
 ErrMax= 5.91D-03  0.00D+00 EMaxC= 1.00D-01 BMatC= 8.41D-03 BMatP= 2.48D-02
 IDIUse=3 WtCom= 9.41D-01 WtEn= 5.91D-02
 Coeff-Com: -0.704D-01 0.209D+00 0.369D+00 0.493D+00
 Coeff-En:   0.000D+00 0.000D+00 0.256D+00 0.744D+00
 Coeff:     -0.662D-01 0.197D+00 0.362D+00 0.507D+00
 Gap=     0.153 Goal=   None    Shift=    0.000
 RMSDP=4.63D-04 MaxDP=2.22D-02 DE=-1.59D-02 OVMax= 3.97D-02

 Cycle   5  Pass 0  IDiag  1:
 E= -625.983825716706     Delta-E=       -0.005994883053 Rises=F Damp=F
 DIIS: error= 5.82D-03 at cycle   5 NSaved=   5.
 NSaved= 5 IEnMin= 5 EnMin= -625.983825716706     IErMin= 5 ErrMin= 5.82D-03
 ErrMax= 5.82D-03  0.00D+00 EMaxC= 1.00D-01 BMatC= 1.97D-03 BMatP= 8.41D-03
 IDIUse=3 WtCom= 9.42D-01 WtEn= 5.82D-02
 Coeff-Com: -0.903D-02 0.447D-01 0.185D+00 0.367D+00 0.412D+00
 Coeff-En:   0.000D+00 0.000D+00 0.000D+00 0.188D+00 0.812D+00
 Coeff:     -0.851D-02 0.421D-01 0.174D+00 0.357D+00 0.436D+00
 Gap=     0.152 Goal=   None    Shift=    0.000
 RMSDP=2.06D-04 MaxDP=1.30D-02 DE=-5.99D-03 OVMax= 2.73D-02

 Cycle   6  Pass 0  IDiag  1:
 E= -625.985131125125     Delta-E=       -0.001305408418 Rises=F Damp=F
 DIIS: error= 2.92D-03 at cycle   6 NSaved=   6.
 NSaved= 6 IEnMin= 6 EnMin= -625.985131125125     IErMin= 6 ErrMin= 2.92D-03
 ErrMax= 2.92D-03  0.00D+00 EMaxC= 1.00D-01 BMatC= 4.51D-04 BMatP= 1.97D-03
 IDIUse=3 WtCom= 9.71D-01 WtEn= 2.92D-02
 Coeff-Com:  0.346D-02 0.140D-02 0.751D-01 0.188D+00 0.335D+00 0.397D+00
 Coeff-En:   0.000D+00 0.000D+00 0.000D+00 0.000D+00 0.214D+00 0.786D+00
 Coeff:      0.336D-02 0.136D-02 0.729D-01 0.182D+00 0.332D+00 0.408D+00
 Gap=     0.153 Goal=   None    Shift=    0.000
 RMSDP=8.32D-05 MaxDP=5.55D-03 DE=-1.31D-03 OVMax= 1.03D-02

 Cycle   7  Pass 0  IDiag  1:
 E= -625.985469931674     Delta-E=       -0.000338806549 Rises=F Damp=F
 DIIS: error= 3.85D-04 at cycle   7 NSaved=   7.
 NSaved= 7 IEnMin= 7 EnMin= -625.985469931674     IErMin= 7 ErrMin= 3.85D-04
 ErrMax= 3.85D-04  0.00D+00 EMaxC= 1.00D-01 BMatC= 2.45D-05 BMatP= 4.51D-04
 IDIUse=3 WtCom= 9.96D-01 WtEn= 3.85D-03
 Coeff-Com:  0.263D-02-0.283D-02 0.261D-01 0.735D-01 0.162D+00 0.259D+00
 Coeff-Com:  0.480D+00
 Coeff-En:   0.000D+00 0.000D+00 0.000D+00 0.000D+00 0.000D+00 0.318D-01
 Coeff-En:   0.968D+00
 Coeff:      0.262D-02-0.282D-02 0.260D-01 0.732D-01 0.161D+00 0.258D+00
 Coeff:      0.482D+00
 Gap=     0.153 Goal=   None    Shift=    0.000
 RMSDP=2.58D-05 MaxDP=8.57D-04 DE=-3.39D-04 OVMax= 2.75D-03

 Cycle   8  Pass 0  IDiag  1:
 E= -625.985492892077     Delta-E=       -0.000022960404 Rises=F Damp=F
 DIIS: error= 6.20D-05 at cycle   8 NSaved=   8.
 NSaved= 8 IEnMin= 8 EnMin= -625.985492892077     IErMin= 8 ErrMin= 6.20D-05
 ErrMax= 6.20D-05  0.00D+00 EMaxC= 1.00D-01 BMatC= 1.84D-06 BMatP= 2.45D-05
 IDIUse=1 WtCom= 1.00D+00 WtEn= 0.00D+00
 Coeff-Com:  0.140D-02-0.244D-02 0.702D-02 0.237D-01 0.603D-01 0.109D+00
 Coeff-Com:  0.285D+00 0.516D+00
 Coeff:      0.140D-02-0.244D-02 0.702D-02 0.237D-01 0.603D-01 0.109D+00
 Coeff:      0.285D+00 0.516D+00
 Gap=     0.153 Goal=   None    Shift=    0.000
 RMSDP=7.05D-06 MaxDP=2.36D-04 DE=-2.30D-05 OVMax= 8.04D-04

 Initial convergence to 1.0D-05 achieved.  Increase integral accuracy.
 Cycle   9  Pass 1  IDiag  1:
 E= -625.985489790125     Delta-E=        0.000003101952 Rises=F Damp=F
 DIIS: error= 1.37D-05 at cycle   1 NSaved=   1.
 NSaved= 1 IEnMin= 1 EnMin= -625.985489790125     IErMin= 1 ErrMin= 1.37D-05
 ErrMax= 1.37D-05  0.00D+00 EMaxC= 1.00D-01 BMatC= 1.19D-07 BMatP= 1.19D-07
 IDIUse=1 WtCom= 1.00D+00 WtEn= 0.00D+00
 Coeff-Com:  0.100D+01
 Coeff:      0.100D+01
 Gap=     0.153 Goal=   None    Shift=    0.000
 RMSDP=7.05D-06 MaxDP=2.36D-04 DE= 3.10D-06 OVMax= 2.84D-04

 Cycle  10  Pass 1  IDiag  1:
 E= -625.985489872085     Delta-E=       -0.000000081960 Rises=F Damp=F
 DIIS: error= 1.42D-05 at cycle   2 NSaved=   2.
 NSaved= 2 IEnMin= 2 EnMin= -625.985489872085     IErMin= 1 ErrMin= 1.37D-05
 ErrMax= 1.42D-05  0.00D+00 EMaxC= 1.00D-01 BMatC= 7.07D-08 BMatP= 1.19D-07
 IDIUse=1 WtCom= 1.00D+00 WtEn= 0.00D+00
 Coeff-Com:  0.411D+00 0.589D+00
 Coeff:      0.411D+00 0.589D+00
 Gap=     0.153 Goal=   None    Shift=    0.000
 RMSDP=1.94D-06 MaxDP=5.49D-05 DE=-8.20D-08 OVMax= 2.12D-04

 Cycle  11  Pass 1  IDiag  1:
 E= -625.985489918481     Delta-E=       -0.000000046396 Rises=F Damp=F
 DIIS: error= 7.17D-06 at cycle   3 NSaved=   3.
 NSaved= 3 IEnMin= 3 EnMin= -625.985489918481     IErMin= 3 ErrMin= 7.17D-06
 ErrMax= 7.17D-06  0.00D+00 EMaxC= 1.00D-01 BMatC= 2.16D-08 BMatP= 7.07D-08
 IDIUse=1 WtCom= 1.00D+00 WtEn= 0.00D+00
 Coeff-Com:  0.223D-01 0.350D+00 0.628D+00
 Coeff:      0.223D-01 0.350D+00 0.628D+00
 Gap=     0.153 Goal=   None    Shift=    0.000
 RMSDP=8.21D-07 MaxDP=2.51D-05 DE=-4.64D-08 OVMax= 1.02D-04

 Cycle  12  Pass 1  IDiag  1:
 E= -625.985489937279     Delta-E=       -0.000000018797 Rises=F Damp=F
 DIIS: error= 2.94D-06 at cycle   4 NSaved=   4.
 NSaved= 4 IEnMin= 4 EnMin= -625.985489937279     IErMin= 4 ErrMin= 2.94D-06
 ErrMax= 2.94D-06  0.00D+00 EMaxC= 1.00D-01 BMatC= 2.76D-09 BMatP= 2.16D-08
 IDIUse=1 WtCom= 1.00D+00 WtEn= 0.00D+00
 Coeff-Com: -0.125D-01 0.178D+00 0.383D+00 0.452D+00
 Coeff:     -0.125D-01 0.178D+00 0.383D+00 0.452D+00
 Gap=     0.153 Goal=   None    Shift=    0.000
 RMSDP=2.65D-07 MaxDP=8.11D-06 DE=-1.88D-08 OVMax= 2.46D-05

 Cycle  13  Pass 1  IDiag  1:
 E= -625.985489939998     Delta-E=       -0.000000002720 Rises=F Damp=F
 DIIS: error= 8.48D-07 at cycle   5 NSaved=   5.
 NSaved= 5 IEnMin= 5 EnMin= -625.985489939998     IErMin= 5 ErrMin= 8.48D-07
 ErrMax= 8.48D-07  0.00D+00 EMaxC= 1.00D-01 BMatC= 1.65D-10 BMatP= 2.76D-09
 IDIUse=1 WtCom= 1.00D+00 WtEn= 0.00D+00
 Coeff-Com: -0.855D-02 0.769D-01 0.173D+00 0.266D+00 0.492D+00
 Coeff:     -0.855D-02 0.769D-01 0.173D+00 0.266D+00 0.492D+00
 Gap=     0.153 Goal=   None    Shift=    0.000
 RMSDP=6.61D-08 MaxDP=2.76D-06 DE=-2.72D-09 OVMax= 4.78D-06

 Cycle  14  Pass 1  IDiag  1:
 E= -625.985489940139     Delta-E=       -0.000000000141 Rises=F Damp=F
 DIIS: error= 7.40D-07 at cycle   6 NSaved=   6.
 NSaved= 6 IEnMin= 6 EnMin= -625.985489940139     IErMin= 6 ErrMin= 7.40D-07
 ErrMax= 7.40D-07  0.00D+00 EMaxC= 1.00D-01 BMatC= 3.29D-11 BMatP= 1.65D-10
 IDIUse=1 WtCom= 1.00D+00 WtEn= 0.00D+00
 Coeff-Com: -0.453D-02 0.353D-01 0.804D-01 0.141D+00 0.343D+00 0.404D+00
 Coeff:     -0.453D-02 0.353D-01 0.804D-01 0.141D+00 0.343D+00 0.404D+00
 Gap=     0.153 Goal=   None    Shift=    0.000
 RMSDP=2.40D-08 MaxDP=1.70D-06 DE=-1.41D-10 OVMax= 3.10D-06

 Cycle  15  Pass 1  IDiag  1:
 E= -625.985489940160     Delta-E=       -0.000000000021 Rises=F Damp=F
 DIIS: error= 2.92D-07 at cycle   7 NSaved=   7.
 NSaved= 7 IEnMin= 7 EnMin= -625.985489940160     IErMin= 7 ErrMin= 2.92D-07
 ErrMax= 2.92D-07  0.00D+00 EMaxC= 1.00D-01 BMatC= 4.89D-12 BMatP= 3.29D-11
 IDIUse=1 WtCom= 1.00D+00 WtEn= 0.00D+00
 Coeff-Com: -0.159D-02 0.101D-01 0.233D-01 0.487D-01 0.143D+00 0.290D+00
 Coeff-Com:  0.486D+00
 Coeff:     -0.159D-02 0.101D-01 0.233D-01 0.487D-01 0.143D+00 0.290D+00
 Coeff:      0.486D+00
 Gap=     0.153 Goal=   None    Shift=    0.000
 RMSDP=1.02D-08 MaxDP=6.16D-07 DE=-2.09D-11 OVMax= 1.19D-06

 Cycle  16  Pass 1  IDiag  1:
 E= -625.985489940161     Delta-E=       -0.000000000002 Rises=F Damp=F
 DIIS: error= 7.54D-08 at cycle   8 NSaved=   8.
 NSaved= 8 IEnMin= 8 EnMin= -625.985489940161     IErMin= 8 ErrMin= 7.54D-08
 ErrMax= 7.54D-08  0.00D+00 EMaxC= 1.00D-01 BMatC= 1.04D-12 BMatP= 4.89D-12
 IDIUse=1 WtCom= 1.00D+00 WtEn= 0.00D+00
 Coeff-Com: -0.272D-03 0.494D-03 0.159D-02 0.855D-02 0.398D-01 0.143D+00
 Coeff-Com:  0.352D+00 0.455D+00
 Coeff:     -0.272D-03 0.494D-03 0.159D-02 0.855D-02 0.398D-01 0.143D+00
 Coeff:      0.352D+00 0.455D+00
 Gap=     0.153 Goal=   None    Shift=    0.000
 RMSDP=3.91D-09 MaxDP=2.28D-07 DE=-1.59D-12 OVMax= 3.38D-07

 SCF Done:  E(RB3LYP) =  -625.985489940     A.U. after   16 cycles
            NFock= 16  Conv=0.39D-08     -V/T= 2.0057
 KE= 6.224585453535D+02 PE=-3.007570356939D+03 EE= 9.849189539912D+02
 Leave Link  502 at Fri Aug 20 15:45:21 2021, MaxMem= 24159191040 cpu:       142.6
 (Enter /public/home/users/caep010/software/Gaussian09/g09/l601.exe)
 Copying SCF densities to generalized density rwf, IOpCl= 0 IROHF=0.

 **********************************************************************

            Population analysis using the SCF density.

 **********************************************************************

 Orbital symmetries:
       Occupied  (A) (A) (A) (A) (A) (A) (A) (A) (A) (A) (A) (A)
                 (A) (A) (A) (A) (A) (A) (A) (A) (A) (A) (A) (A)
                 (A) (A) (A) (A) (A) (A) (A) (A) (A) (A) (A) (A)
                 (A) (A) (A) (A) (A) (A) (A) (A) (A) (A) (A) (A)
       Virtual   (A) (A) (A) (A) (A) (A) (A) (A) (A) (A) (A) (A)
                 (A) (A) (A) (A) (A) (A) (A) (A) (A) (A) (A) (A)
                 (A) (A) (A) (A) (A) (A) (A) (A) (A) (A) (A) (A)
                 (A) (A) (A) (A) (A) (A) (A) (A) (A) (A) (A) (A)
                 (A) (A) (A) (A) (A) (A) (A) (A) (A) (A) (A) (A)
                 (A) (A) (A) (A) (A) (A) (A) (A) (A) (A) (A) (A)
                 (A) (A) (A) (A) (A) (A) (A) (A) (A) (A) (A) (A)
                 (A) (A) (A) (A) (A) (A) (A) (A) (A) (A) (A) (A)
                 (A) (A) (A) (A) (A) (A) (A) (A) (A) (A) (A) (A)
                 (A) (A) (A) (A) (A) (A) (A) (A) (A) (A) (A) (A)
                 (A) (A) (A) (A) (A) (A) (A) (A) (A) (A) (A) (A)
                 (A) (A) (A) (A) (A) (A) (A) (A) (A) (A) (A) (A)
                 (A) (A) (A) (A) (A) (A) (A) (A) (A) (A) (A) (A)
                 (A) (A) (A) (A) (A) (A) (A) (A) (A) (A) (A) (A)
                 (A) (A) (A) (A) (A) (A) (A) (A) (A) (A) (A) (A)
                 (A) (A) (A) (A) (A) (A) (A) (A) (A) (A) (A) (A)
                 (A) (A) (A) (A) (A) (A) (A) (A) (A) (A)
 The electronic state is 1-A.
 Alpha  occ. eigenvalues --  -19.15936 -19.15532 -14.55101 -14.36976 -14.31075
 Alpha  occ. eigenvalues --  -10.25662 -10.22929 -10.22901 -10.21123 -10.20040
 Alpha  occ. eigenvalues --  -10.19850 -10.18892 -10.18700  -1.20238  -1.02408
 Alpha  occ. eigenvalues --   -0.98989  -0.91758  -0.88381  -0.80642  -0.78750
 Alpha  occ. eigenvalues --   -0.76037  -0.70006  -0.66127  -0.64036  -0.61334
 Alpha  occ. eigenvalues --   -0.58591  -0.55139  -0.53566  -0.51285  -0.51207
 Alpha  occ. eigenvalues --   -0.49368  -0.49037  -0.47244  -0.46551  -0.45827
 Alpha  occ. eigenvalues --   -0.45029  -0.42699  -0.40123  -0.39353  -0.38374
 Alpha  occ. eigenvalues --   -0.36885  -0.33111  -0.29182  -0.28893  -0.27511
 Alpha  occ. eigenvalues --   -0.26769  -0.25295  -0.22320
 Alpha virt. eigenvalues --   -0.07018  -0.01857   0.02506   0.06273   0.09955
 Alpha virt. eigenvalues --    0.11153   0.12535   0.14041   0.14890   0.15433
 Alpha virt. eigenvalues --    0.16223   0.17255   0.18277   0.19925   0.20753
 Alpha virt. eigenvalues --    0.22099   0.22463   0.24447   0.25407   0.26263
 Alpha virt. eigenvalues --    0.27694   0.29611   0.32163   0.35154   0.37410
 Alpha virt. eigenvalues --    0.38963   0.47407   0.49284   0.49800   0.50508
 Alpha virt. eigenvalues --    0.52284   0.52311   0.54569   0.55815   0.57056
 Alpha virt. eigenvalues --    0.57295   0.57713   0.58324   0.60585   0.61205
 Alpha virt. eigenvalues --    0.61963   0.63506   0.64738   0.65953   0.68262
 Alpha virt. eigenvalues --    0.72144   0.73387   0.74301   0.75287   0.76527
 Alpha virt. eigenvalues --    0.77894   0.78347   0.79554   0.82764   0.82904
 Alpha virt. eigenvalues --    0.84438   0.84716   0.88420   0.89871   0.90313
 Alpha virt. eigenvalues --    0.91308   0.92922   0.94051   0.95336   0.95694
 Alpha virt. eigenvalues --    0.96585   0.97153   0.97426   0.98194   0.99651
 Alpha virt. eigenvalues --    0.99972   1.01453   1.02543   1.03624   1.05208
 Alpha virt. eigenvalues --    1.09448   1.13077   1.14199   1.17688   1.20236
 Alpha virt. eigenvalues --    1.22533   1.25208   1.26361   1.28713   1.30448
 Alpha virt. eigenvalues --    1.34705   1.36606   1.37088   1.38014   1.40098
 Alpha virt. eigenvalues --    1.42624   1.43898   1.45594   1.46464   1.50671
 Alpha virt. eigenvalues --    1.51501   1.55511   1.58611   1.63274   1.67624
 Alpha virt. eigenvalues --    1.72280   1.74014   1.75042   1.78155   1.79264
 Alpha virt. eigenvalues --    1.80119   1.82987   1.83194   1.84965   1.86124
 Alpha virt. eigenvalues --    1.87339   1.90730   1.91862   1.94265   1.95871
 Alpha virt. eigenvalues --    1.96679   1.97704   1.99826   2.01589   2.03459
 Alpha virt. eigenvalues --    2.04882   2.08900   2.09553   2.11499   2.12206
 Alpha virt. eigenvalues --    2.13816   2.14300   2.17181   2.17522   2.19733
 Alpha virt. eigenvalues --    2.21844   2.23658   2.27809   2.28195   2.30986
 Alpha virt. eigenvalues --    2.32723   2.35567   2.39542   2.40113   2.41429
 Alpha virt. eigenvalues --    2.43018   2.43638   2.47776   2.50629   2.51013
 Alpha virt. eigenvalues --    2.51463   2.52787   2.53890   2.55622   2.57434
 Alpha virt. eigenvalues --    2.58286   2.60495   2.65242   2.66423   2.68118
 Alpha virt. eigenvalues --    2.69667   2.72147   2.75042   2.75387   2.76730
 Alpha virt. eigenvalues --    2.78526   2.79610   2.85127   2.89056   2.89321
 Alpha virt. eigenvalues --    2.91110   2.94480   2.95385   2.99835   3.00642
 Alpha virt. eigenvalues --    3.02262   3.06823   3.08919   3.15483   3.25191
 Alpha virt. eigenvalues --    3.28044   3.35031   3.38390   3.40379   3.48808
 Alpha virt. eigenvalues --    3.49822   3.56509   3.61463   3.62473   3.65770
 Alpha virt. eigenvalues --    3.72585   3.75082   3.79289   3.91429   3.95627
 Alpha virt. eigenvalues --    4.01072   4.02315   4.11682   4.13299   4.14018
 Alpha virt. eigenvalues --    4.19378   4.29468   4.43599   4.43711   4.55583
 Alpha virt. eigenvalues --    4.64310   4.90838
          Condensed to atoms (all electrons):
               1          2          3          4          5          6
     1  C    4.569948   0.313640  -0.023392   0.500981  -0.007580   0.505824
     2  N    0.313640   6.862239   0.389037  -0.075845   0.005904  -0.071443
     3  H   -0.023392   0.389037   0.445572  -0.015118  -0.000214   0.008278
     4  C    0.500981  -0.075845  -0.015118   4.944401   0.503785  -0.050663
     5  C   -0.007580   0.005904  -0.000214   0.503785   4.914423  -0.046874
     6  C    0.505824  -0.071443   0.008278  -0.050663  -0.046874   4.921757
     7  C   -0.012297   0.005858  -0.000090  -0.047525  -0.087313   0.497233
     8  C   -0.034686   0.298009  -0.040534   0.005768  -0.000102  -0.005720
     9  H    0.005648  -0.038720  -0.007074  -0.000253   0.000003   0.000069
    10  C   -0.003768  -0.066972   0.001733  -0.000126   0.000001  -0.001162
    11  N    0.000524  -0.004419   0.002249  -0.000008  -0.000001   0.000038
    12  H    0.000709   0.011790   0.000294  -0.000085  -0.000004  -0.000087
    13  H   -0.052205  -0.014495  -0.000271   0.008625   0.000872   0.369575
    14  H    0.004997  -0.000132   0.000004   0.000316   0.008647  -0.040311
    15  H   -0.005931  -0.041508   0.005523   0.000199  -0.000012   0.004721
    16  C   -0.043124   0.000414  -0.000012  -0.018564   0.476988  -0.022914
    17  N    0.000314   0.000001  -0.000000   0.004830  -0.042897   0.004953
    18  O   -0.000007  -0.000000   0.000000   0.001150  -0.003848  -0.000029
    19  O   -0.000004   0.000000   0.000000  -0.000046   0.007589   0.001209
    20  H    0.005469  -0.000116  -0.000012  -0.042405   0.365144   0.000168
    21  H   -0.060064  -0.014227   0.006114   0.368849  -0.043257   0.009262
    22  H    0.003678  -0.006923  -0.000043  -0.000070  -0.000006   0.001289
    23  H    0.000082   0.004870  -0.000079   0.000002  -0.000000  -0.000118
    24  H    0.000063   0.000008   0.000250  -0.000005  -0.000000  -0.000018
               7          8          9         10         11         12
     1  C   -0.012297  -0.034686   0.005648  -0.003768   0.000524   0.000709
     2  N    0.005858   0.298009  -0.038720  -0.066972  -0.004419   0.011790
     3  H   -0.000090  -0.040534  -0.007074   0.001733   0.002249   0.000294
     4  C   -0.047525   0.005768  -0.000253  -0.000126  -0.000008  -0.000085
     5  C   -0.087313  -0.000102   0.000003   0.000001  -0.000001  -0.000004
     6  C    0.497233  -0.005720   0.000069  -0.001162   0.000038  -0.000087
     7  C    4.935073   0.000047  -0.000014   0.000059  -0.000002  -0.000002
     8  C    0.000047   4.898051   0.392780   0.352821  -0.068052  -0.006836
     9  H   -0.000014   0.392780   0.610788  -0.045584  -0.005357  -0.000196
    10  C    0.000059   0.352821  -0.045584   4.880233   0.350417  -0.059646
    11  N   -0.000002  -0.068052  -0.005357   0.350417   6.654085   0.365575
    12  H   -0.000002  -0.006836  -0.000196  -0.059646   0.365575   0.474857
    13  H   -0.042229   0.006815  -0.000058  -0.001299  -0.000029   0.000031
    14  H    0.361650   0.000008   0.000000  -0.000003   0.000000  -0.000000
    15  H    0.000046   0.359614  -0.029447  -0.044820   0.006580   0.000329
    16  C    0.485422  -0.000024   0.000000   0.000002   0.000000   0.000001
    17  N   -0.041511  -0.000000   0.000000   0.000000   0.000000   0.000000
    18  O    0.007718   0.000000   0.000000  -0.000000   0.000000  -0.000000
    19  O   -0.003104   0.000000   0.000000  -0.000000   0.000000  -0.000000
    20  H    0.009027   0.000002  -0.000000  -0.000000  -0.000000   0.000000
    21  H    0.000920  -0.000097  -0.000007  -0.000005   0.000002   0.000005
    22  H   -0.000109  -0.045090   0.006478   0.398916  -0.037509  -0.011208
    23  H   -0.000001  -0.046030  -0.003118   0.384131  -0.053270   0.010567
    24  H   -0.000000  -0.004223   0.006061  -0.054744   0.362991  -0.030174
              13         14         15         16         17         18
     1  C   -0.052205   0.004997  -0.005931  -0.043124   0.000314  -0.000007
     2  N   -0.014495  -0.000132  -0.041508   0.000414   0.000001  -0.000000
     3  H   -0.000271   0.000004   0.005523  -0.000012  -0.000000   0.000000
     4  C    0.008625   0.000316   0.000199  -0.018564   0.004830   0.001150
     5  C    0.000872   0.008647  -0.000012   0.476988  -0.042897  -0.003848
     6  C    0.369575  -0.040311   0.004721  -0.022914   0.004953  -0.000029
     7  C   -0.042229   0.361650   0.000046   0.485422  -0.041511   0.007718
     8  C    0.006815   0.000008   0.359614  -0.000024  -0.000000   0.000000
     9  H   -0.000058   0.000000  -0.029447   0.000000   0.000000   0.000000
    10  C   -0.001299  -0.000003  -0.044820   0.000002   0.000000  -0.000000
    11  N   -0.000029   0.000000   0.006580   0.000000   0.000000   0.000000
    12  H    0.000031  -0.000000   0.000329   0.000001   0.000000  -0.000000
    13  H    0.666167  -0.008535   0.000970   0.005451  -0.000144   0.000001
    14  H   -0.008535   0.591374   0.000003  -0.034725  -0.016006   0.000280
    15  H    0.000970   0.000003   0.623142  -0.000010   0.000000   0.000000
    16  C    0.005451  -0.034725  -0.000010   4.967819   0.161323  -0.093426
    17  N   -0.000144  -0.016006   0.000000   0.161323   6.007874   0.292866
    18  O    0.000001   0.000280   0.000000  -0.093426   0.292866   8.298847
    19  O   -0.000008   0.023899   0.000000  -0.093721   0.288826  -0.110134
    20  H    0.000032  -0.000299   0.000000  -0.037467  -0.016532   0.023961
    21  H   -0.000373   0.000034   0.000020   0.006004  -0.000169  -0.000005
    22  H    0.001619   0.000000  -0.003897  -0.000002   0.000000   0.000000
    23  H    0.000106  -0.000000   0.003372   0.000000   0.000000  -0.000000
    24  H    0.000003  -0.000000   0.000270   0.000000   0.000000  -0.000000
              19         20         21         22         23         24
     1  C   -0.000004   0.005469  -0.060064   0.003678   0.000082   0.000063
     2  N    0.000000  -0.000116  -0.014227  -0.006923   0.004870   0.000008
     3  H    0.000000  -0.000012   0.006114  -0.000043  -0.000079   0.000250
     4  C   -0.000046  -0.042405   0.368849  -0.000070   0.000002  -0.000005
     5  C    0.007589   0.365144  -0.043257  -0.000006  -0.000000  -0.000000
     6  C    0.001209   0.000168   0.009262   0.001289  -0.000118  -0.000018
     7  C   -0.003104   0.009027   0.000920  -0.000109  -0.000001  -0.000000
     8  C    0.000000   0.000002  -0.000097  -0.045090  -0.046030  -0.004223
     9  H    0.000000  -0.000000  -0.000007   0.006478  -0.003118   0.006061
    10  C   -0.000000  -0.000000  -0.000005   0.398916   0.384131  -0.054744
    11  N    0.000000  -0.000000   0.000002  -0.037509  -0.053270   0.362991
    12  H   -0.000000   0.000000   0.000005  -0.011208   0.010567  -0.030174
    13  H   -0.000008   0.000032  -0.000373   0.001619   0.000106   0.000003
    14  H    0.023899  -0.000299   0.000034   0.000000  -0.000000  -0.000000
    15  H    0.000000   0.000000   0.000020  -0.003897   0.003372   0.000270
    16  C   -0.093721  -0.037467   0.006004  -0.000002   0.000000   0.000000
    17  N    0.288826  -0.016532  -0.000169   0.000000   0.000000   0.000000
    18  O   -0.110134   0.023961  -0.000005   0.000000  -0.000000  -0.000000
    19  O    8.305401   0.000306   0.000001   0.000000  -0.000000  -0.000000
    20  H    0.000306   0.600854  -0.009518  -0.000000   0.000000  -0.000000
    21  H    0.000001  -0.009518   0.688783  -0.000001  -0.000000   0.000000
    22  H    0.000000  -0.000000  -0.000001   0.596467  -0.031015   0.007695
    23  H   -0.000000   0.000000  -0.000000  -0.031015   0.616507  -0.002284
    24  H   -0.000000  -0.000000   0.000000   0.007695  -0.002284   0.481704
 Mulliken charges:
               1
     1  C    0.331180
     2  N   -0.556972
     3  H    0.227785
     4  C   -0.088195
     5  C   -0.051252
     6  C   -0.085040
     7  C   -0.068854
     8  C   -0.062518
     9  H    0.108000
    10  C   -0.090184
    11  N   -0.573815
    12  H    0.244079
    13  H    0.059380
    14  H    0.108797
    15  H    0.120836
    16  C    0.240566
    17  N    0.356273
    18  O   -0.417374
    19  O   -0.420214
    20  H    0.101383
    21  H    0.047729
    22  H    0.119730
    23  H    0.116278
    24  H    0.232403
 Sum of Mulliken charges =  -0.00000
 Mulliken charges with hydrogens summed into heavy atoms:
               1
     1  C    0.331180
     2  N   -0.329188
     4  C   -0.040466
     5  C    0.050132
     6  C   -0.025660
     7  C    0.039943
     8  C    0.166317
    10  C    0.145825
    11  N   -0.097333
    16  C    0.240566
    17  N    0.356273
    18  O   -0.417374
    19  O   -0.420214
 Electronic spatial extent (au):  <R**2>=           3385.5920
 Charge=              0.0000 electrons
 Dipole moment (field-independent basis, Debye):
    X=             -7.0300    Y=              2.3092    Z=             -1.9646  Tot=              7.6559
 Quadrupole moment (field-independent basis, Debye-Ang):
   XX=            -95.7785   YY=            -70.5632   ZZ=            -77.3710
   XY=             -3.0870   XZ=              6.1388   YZ=              1.8006
 Traceless Quadrupole moment (field-independent basis, Debye-Ang):
   XX=            -14.5409   YY=             10.6744   ZZ=              3.8666
   XY=             -3.0870   XZ=              6.1388   YZ=              1.8006
 Octapole moment (field-independent basis, Debye-Ang**2):
  XXX=           -102.2202  YYY=             11.1890  ZZZ=              0.6161  XYY=            -14.1208
  XXY=             36.6616  XXZ=            -47.5538  XZZ=             17.2998  YZZ=              0.9556
  YYZ=             -0.9331  XYZ=             -6.8202
 Hexadecapole moment (field-independent basis, Debye-Ang**3):
 XXXX=          -4032.8199 YYYY=           -450.2319 ZZZZ=           -219.9676 XXXY=           -100.4558
 XXXZ=            149.2414 YYYX=            -10.9034 YYYZ=              2.7918 ZZZX=             29.5212
 ZZZY=              6.1766 XXYY=           -681.7580 XXZZ=           -675.8625 YYZZ=           -117.3291
 XXYZ=             28.8669 YYXZ=              4.3526 ZZXY=            -20.3273
 N-N= 7.742073676540D+02 E-N=-3.007570356906D+03  KE= 6.224585453535D+02
 No NMR shielding tensors so no spin-rotation constants.
 Leave Link  601 at Fri Aug 20 15:45:22 2021, MaxMem= 24159191040 cpu:        11.9
 (Enter /public/home/users/caep010/software/Gaussian09/g09/l701.exe)
 Compute integral first derivatives.
 ... and contract with generalized density number  0.
 Leave Link  701 at Fri Aug 20 15:45:22 2021, MaxMem= 24159191040 cpu:        12.7
 (Enter /public/home/users/caep010/software/Gaussian09/g09/l702.exe)
 L702 exits ... SP integral derivatives will be done elsewhere.
 Leave Link  702 at Fri Aug 20 15:45:22 2021, MaxMem= 24159191040 cpu:         0.5
 (Enter /public/home/users/caep010/software/Gaussian09/g09/l703.exe)
 Compute integral first derivatives, UseDBF=F ICtDFT=           0.
 Integral derivatives from FoFJK, PRISM(SPDF).
 Calling FoFJK, ICntrl=      2127 FMM=F ISym2X=0 I1Cent= 0 IOpClX= 0 NMat=1 NMatS=1 NMatT=0.
 FoFJK:  IHMeth= 1 ICntrl=    2127 DoSepK=F KAlg= 0 I1Cent=   0 FoldK=F
 IRaf=         0 NMat=   1 IRICut=       1 DoRegI=T DoRafI=F ISym2E= 0.
 FoFCou: FMM=F IPFlag=           0 FMFlag=      100000 FMFlg1=         800
         NFxFlg=           0 DoJE=F BraDBF=F KetDBF=F FulRan=T
         wScrn=  0.000000 ICntrl=    2127 IOpCl=  0 I1Cent=           0 NGrid=           0
         NMat0=    1 NMatS0=      1 NMatT0=    0 NMatD0=    1 NMtDS0=    0 NMtDT0=    0
 Symmetry not used in FoFCou.
 Leave Link  703 at Fri Aug 20 15:45:23 2021, MaxMem= 24159191040 cpu:        29.1
 (Enter /public/home/users/caep010/software/Gaussian09/g09/l716.exe)
 Dipole        =-2.76581121D+00 9.08502631D-01-7.72933681D-01
 ***** Axes restored to original set *****
 -------------------------------------------------------------------
 Center     Atomic                   Forces (Hartrees/Bohr)
 Number     Number              X              Y              Z
 -------------------------------------------------------------------
      1        6           0.019133940    0.000759031   -0.008098643
      2        7           0.082092319    0.128236619    0.055855585
      3        1          -0.096099597   -0.131796866   -0.054296584
      4        6           0.100779945    0.117176921    0.058998036
      5        6          -0.021536411    0.071685492    0.074746145
      6        6           0.020794707   -0.090135590   -0.093798556
      7        6          -0.045163551   -0.058448945   -0.029892317
      8        6           0.014467046    0.026425028   -0.047131453
      9        1          -0.043358086   -0.034567221    0.029714131
     10        6          -0.022801863   -0.007027179   -0.000042747
     11        7           0.013695391    0.058264431    0.033990954
     12        1           0.012229244   -0.028597515   -0.079074039
     13        1          -0.036966489    0.096733831    0.111576773
     14        1           0.063036732    0.069528620    0.030128415
     15        1           0.036295476    0.002321896    0.034958716
     16        6          -0.002653219   -0.006214687   -0.003798622
     17        7           0.017590728    0.013730154    0.000565236
     18        8          -0.005013580   -0.009199427   -0.004429749
     19        8          -0.006034153   -0.001150689    0.003256532
     20        1           0.032925568   -0.074969918   -0.086057318
     21        1          -0.119972341   -0.130397512   -0.062184278
     22        1           0.021827537    0.016671317   -0.009836184
     23        1           0.003836753    0.011394788    0.033798861
     24        1          -0.039106095   -0.040422581    0.011051106
 -------------------------------------------------------------------
 Cartesian Forces:  Max     0.131796866 RMS     0.056412771
 Leave Link  716 at Fri Aug 20 15:45:23 2021, MaxMem= 24159191040 cpu:         0.7
 (Enter /public/home/users/caep010/software/Gaussian09/g09/l103.exe)

 GradGradGradGradGradGradGradGradGradGradGradGradGradGradGradGradGradGrad
 Berny optimization.
 FormGI is forming the generalized inverse of G from B-inverse, IUseBI=4.
 Internal  Forces:  Max     0.187769816 RMS     0.034167865
 Search for a local minimum.
 Step number   1 out of a maximum of  126
 All quantities printed in internal units (Hartrees-Bohrs-Radians)
 RMS Force = .34168D-01 SwitMx=.10000D-02 MixMth= 1
 Mixed Optimization -- RFO/linear search
 Second derivative matrix not updated -- first step.
 ITU=  0
     Eigenvalues ---    0.00558   0.01031   0.01066   0.01222   0.01223
     Eigenvalues ---    0.01600   0.01931   0.02033   0.02149   0.02222
     Eigenvalues ---    0.02261   0.02329   0.02347   0.02352   0.02416
     Eigenvalues ---    0.02432   0.04150   0.04263   0.05238   0.05272
     Eigenvalues ---    0.05635   0.09654   0.10081   0.12998   0.13087
     Eigenvalues ---    0.15911   0.15964   0.15991   0.15996   0.16000
     Eigenvalues ---    0.16000   0.16000   0.21999   0.22009   0.22024
     Eigenvalues ---    0.22077   0.22954   0.23996   0.24996   0.24998
     Eigenvalues ---    0.25000   0.25000   0.30782   0.38256   0.38602
     Eigenvalues ---    0.39174   0.39201   0.40205   0.41553   0.42416
     Eigenvalues ---    0.42714   0.44782   0.46044   0.47063   0.49499
     Eigenvalues ---    0.51461   0.51700   0.54645   0.54929   0.55498
     Eigenvalues ---    0.59498   0.59880   0.65039   0.76235   0.86068
     Eigenvalues ---    0.91061
 RFO step:  Lambda=-1.76978027D-01 EMin= 5.57893968D-03
 Linear search not attempted -- first point.
 Maximum step size (   0.300) exceeded in Quadratic search.
    -- Step size scaled by   0.612
 Iteration  1 RMS(Cart)=  0.03401966 RMS(Int)=  0.00039083
 Iteration  2 RMS(Cart)=  0.00041582 RMS(Int)=  0.00013849
 Iteration  3 RMS(Cart)=  0.00000075 RMS(Int)=  0.00013848
 ITry= 1 IFail=0 DXMaxC= 1.28D-01 DCOld= 1.00D+10 DXMaxT= 3.00D-01 DXLimC= 3.00D+00 Rises=F
 Variable       Old X    -DE/DX   Delta X   Delta X   Delta X     New X
                                 (Linear)    (Quad)   (Total)
    R1        2.55195   0.01890   0.00000   0.01593   0.01593   2.56788
    R2        2.65981   0.01173   0.00000   0.01149   0.01150   2.67131
    R3        2.66296   0.00803   0.00000   0.00790   0.00791   2.67087
    R4        1.66712   0.17188   0.00000   0.11203   0.11203   1.77915
    R5        2.73994   0.00914   0.00000   0.01000   0.01000   2.74994
    R6        2.58016   0.01780   0.00000   0.01564   0.01564   2.59580
    R7        1.73862   0.18777   0.00000   0.13895   0.13895   1.87757
    R8        2.62936   0.01002   0.00000   0.00952   0.00951   2.63888
    R9        1.82149   0.11875   0.00000   0.10050   0.10050   1.92199
   R10        2.58383   0.01901   0.00000   0.01684   0.01684   2.60067
   R11        1.77736   0.15216   0.00000   0.12008   0.12008   1.89744
   R12        1.85119   0.09850   0.00000   0.08720   0.08720   1.93839
   R13        2.61417   0.01301   0.00000   0.01211   0.01210   2.62627
   R14        1.92230   0.06284   0.00000   0.06157   0.06157   1.98387
   R15        2.86431   0.01560   0.00000   0.01970   0.01970   2.88401
   R16        1.95097   0.05012   0.00000   0.05105   0.05105   2.00202
   R17        2.73498   0.03147   0.00000   0.03422   0.03422   2.76920
   R18        1.99353   0.02890   0.00000   0.03110   0.03110   2.02463
   R19        1.99392   0.03117   0.00000   0.03355   0.03355   2.02747
   R20        1.78039   0.08082   0.00000   0.06410   0.06410   1.84449
   R21        1.81392   0.05656   0.00000   0.04731   0.04731   1.86123
   R22        2.71276   0.00639   0.00000   0.00675   0.00675   2.71952
   R23        2.32448   0.00786   0.00000   0.00442   0.00442   2.32890
   R24        2.34800  -0.00355   0.00000  -0.00209  -0.00209   2.34591
    A1        2.08647  -0.00179   0.00000  -0.00255  -0.00256   2.08391
    A2        2.15092  -0.00541   0.00000  -0.00774  -0.00775   2.14318
    A3        2.04567   0.00720   0.00000   0.01032   0.01033   2.05600
    A4        2.06924  -0.00330   0.00000  -0.00583  -0.00583   2.06341
    A5        2.17843   0.00117   0.00000   0.00182   0.00182   2.18025
    A6        2.02757   0.00217   0.00000   0.00413   0.00413   2.03170
    A7        2.12507  -0.00454   0.00000  -0.00697  -0.00697   2.11811
    A8        2.07328   0.00307   0.00000   0.00494   0.00494   2.07822
    A9        2.08441   0.00149   0.00000   0.00208   0.00208   2.08649
   A10        2.08467  -0.00052   0.00000  -0.00057  -0.00058   2.08409
   A11        2.13152  -0.00232   0.00000  -0.00439  -0.00439   2.12713
   A12        2.06668   0.00286   0.00000   0.00502   0.00502   2.07170
   A13        2.11411  -0.00367   0.00000  -0.00548  -0.00548   2.10863
   A14        2.07257   0.00477   0.00000   0.00814   0.00813   2.08070
   A15        2.09440  -0.00101   0.00000  -0.00238  -0.00239   2.09202
   A16        2.13039  -0.00235   0.00000  -0.00467  -0.00467   2.12572
   A17        2.09663  -0.00174   0.00000  -0.00234  -0.00234   2.09428
   A18        2.05616   0.00409   0.00000   0.00701   0.00701   2.06318
   A19        1.86513   0.00185   0.00000   0.00257   0.00257   1.86770
   A20        1.99095  -0.00438   0.00000  -0.00628  -0.00628   1.98467
   A21        1.91509  -0.00059   0.00000  -0.00166  -0.00164   1.91345
   A22        1.90273   0.00077   0.00000   0.00104   0.00103   1.90377
   A23        1.90496  -0.00290   0.00000  -0.00616  -0.00617   1.89879
   A24        1.88379   0.00511   0.00000   0.01011   0.01011   1.89390
   A25        2.00310  -0.00023   0.00000   0.00092   0.00097   2.00407
   A26        1.93740  -0.00087   0.00000  -0.00420  -0.00428   1.93312
   A27        1.96756  -0.01076   0.00000  -0.02216  -0.02226   1.94530
   A28        1.86343   0.00022   0.00000   0.00123   0.00122   1.86465
   A29        1.79578   0.01302   0.00000   0.02887   0.02892   1.82470
   A30        1.88701  -0.00016   0.00000  -0.00193  -0.00218   1.88483
   A31        1.75305   0.03687   0.00000   0.06764   0.06713   1.82018
   A32        1.90075   0.00843   0.00000   0.01584   0.01539   1.91614
   A33        1.98595  -0.01703   0.00000  -0.02948  -0.03053   1.95542
   A34        2.09998   0.00328   0.00000   0.00506   0.00506   2.10504
   A35        2.07864   0.00084   0.00000   0.00104   0.00104   2.07968
   A36        2.10448  -0.00412   0.00000  -0.00609  -0.00609   2.09839
   A37        2.08622  -0.00803   0.00000  -0.01150  -0.01151   2.07471
   A38        2.06255  -0.00294   0.00000  -0.00421  -0.00421   2.05833
   A39        2.13434   0.01099   0.00000   0.01577   0.01577   2.15011
    D1        0.04362   0.00035   0.00000   0.00115   0.00115   0.04477
    D2        3.04468   0.00089   0.00000   0.00252   0.00252   3.04719
    D3       -3.08071  -0.00027   0.00000  -0.00064  -0.00063  -3.08135
    D4       -0.07965   0.00027   0.00000   0.00073   0.00073  -0.07892
    D5       -3.10228  -0.00075   0.00000  -0.00241  -0.00242  -3.10470
    D6        0.07077  -0.00140   0.00000  -0.00444  -0.00445   0.06632
    D7        0.02308  -0.00029   0.00000  -0.00090  -0.00090   0.02218
    D8       -3.08706  -0.00093   0.00000  -0.00293  -0.00293  -3.08998
    D9        3.10255   0.00070   0.00000   0.00221   0.00221   3.10477
   D10        0.03072  -0.00071   0.00000  -0.00228  -0.00229   0.02844
   D11       -0.02215   0.00017   0.00000   0.00057   0.00057  -0.02158
   D12       -3.09398  -0.00125   0.00000  -0.00392  -0.00393  -3.09791
   D13       -2.72684   0.00075   0.00000   0.00186   0.00186  -2.72498
   D14        1.45225   0.00118   0.00000   0.00263   0.00264   1.45488
   D15       -0.66360  -0.00197   0.00000  -0.00490  -0.00490  -0.66850
   D16        0.27724   0.00088   0.00000   0.00248   0.00248   0.27972
   D17       -1.82686   0.00132   0.00000   0.00325   0.00326  -1.82360
   D18        2.34048  -0.00184   0.00000  -0.00428  -0.00428   2.33620
   D19       -0.01459   0.00040   0.00000   0.00112   0.00112  -0.01347
   D20       -3.12842  -0.00049   0.00000  -0.00154  -0.00154  -3.12996
   D21        3.09535   0.00108   0.00000   0.00321   0.00320   3.09856
   D22       -0.01848   0.00019   0.00000   0.00055   0.00055  -0.01793
   D23        0.00440  -0.00025   0.00000  -0.00079  -0.00079   0.00361
   D24       -3.12339  -0.00043   0.00000  -0.00137  -0.00138  -3.12477
   D25        3.11926   0.00053   0.00000   0.00163   0.00163   3.12089
   D26       -0.00853   0.00035   0.00000   0.00104   0.00104  -0.00749
   D27       -3.13239  -0.00026   0.00000  -0.00073  -0.00073  -3.13311
   D28        0.01299  -0.00019   0.00000  -0.00050  -0.00050   0.01249
   D29       -0.06142   0.00140   0.00000   0.00422   0.00422  -0.05720
   D30        3.08395   0.00147   0.00000   0.00445   0.00444   3.08840
   D31       -0.00367   0.00016   0.00000   0.00051   0.00051  -0.00316
   D32        3.12392   0.00038   0.00000   0.00116   0.00116   3.12508
   D33        3.14155   0.00024   0.00000   0.00075   0.00075  -3.14089
   D34       -0.01405   0.00046   0.00000   0.00140   0.00140  -0.01265
   D35        1.08455  -0.00320   0.00000  -0.00816  -0.00813   1.07643
   D36       -1.03014  -0.00266   0.00000  -0.00720  -0.00715  -1.03728
   D37        3.13302   0.00578   0.00000   0.01401   0.01394  -3.13623
   D38       -0.99841  -0.00326   0.00000  -0.00810  -0.00807  -1.00648
   D39       -3.11310  -0.00272   0.00000  -0.00715  -0.00709  -3.12019
   D40        1.05005   0.00572   0.00000   0.01407   0.01399   1.06405
   D41       -3.06552  -0.00312   0.00000  -0.00705  -0.00703  -3.07255
   D42        1.10298  -0.00258   0.00000  -0.00609  -0.00605   1.09693
   D43       -1.01705   0.00586   0.00000   0.01512   0.01504  -1.00202
   D44       -1.27480  -0.00135   0.00000  -0.00105  -0.00132  -1.27612
   D45        0.81570   0.00123   0.00000   0.00584   0.00617   0.82187
   D46        0.87992  -0.00246   0.00000  -0.00493  -0.00526   0.87466
   D47        2.97042   0.00013   0.00000   0.00196   0.00223   2.97265
   D48        2.86455   0.00304   0.00000   0.00579   0.00550   2.87005
   D49       -1.32813   0.00563   0.00000   0.01268   0.01298  -1.31514
   D50       -0.00281  -0.00067   0.00000  -0.00222  -0.00222  -0.00503
   D51        3.12581   0.00082   0.00000   0.00262   0.00262   3.12843
   D52       -3.13057  -0.00091   0.00000  -0.00290  -0.00290  -3.13346
   D53       -0.00194   0.00059   0.00000   0.00194   0.00194  -0.00000
         Item               Value     Threshold  Converged?
 Maximum Force            0.187770     0.000450     NO 
 RMS     Force            0.034168     0.000300     NO 
 Maximum Displacement     0.128049     0.001800     NO 
 RMS     Displacement     0.034083     0.001200     NO 
 Predicted change in Energy=-8.327197D-02
 Lowest energy point so far.  Saving SCF results.
 GradGradGradGradGradGradGradGradGradGradGradGradGradGradGradGradGradGrad

 Leave Link  103 at Fri Aug 20 15:45:23 2021, MaxMem= 24159191040 cpu:         3.9
 (Enter /public/home/users/caep010/software/Gaussian09/g09/l202.exe)
                          Input orientation:                          
 ---------------------------------------------------------------------
 Center     Atomic      Atomic             Coordinates (Angstroms)
 Number     Number       Type             X           Y           Z
 ---------------------------------------------------------------------
      1          6           0        3.177645    1.313482    7.536383
      2          7           0        1.948226    1.167002    8.096372
      3          1           0        1.410675    0.449472    7.808993
      4          6           0        3.583977    0.427270    6.512772
      5          6           0        4.833595    0.511575    5.948651
      6          6           0        4.090995    2.311664    7.945066
      7          6           0        5.342688    2.396223    7.379307
      8          6           0        1.451651    1.934869    9.228369
      9          1           0        0.701878    1.359060    9.684881
     10          6           0        0.872012    3.292765    8.841996
     11          7           0       -0.287597    3.234843    7.947936
     12          1           0        0.087504    2.982292    7.082939
     13          1           0        3.839177    2.928431    8.696310
     14          1           0        6.019910    3.109845    7.669623
     15          1           0        2.234927    2.089316    9.924787
     16          6           0        5.716508    1.502539    6.382799
     17          7           0        7.016660    1.599128    5.773453
     18          8           0        7.318876    0.799106    4.886071
     19          8           0        7.777976    2.497319    6.166804
     20          1           0        5.130560   -0.115448    5.204952
     21          1           0        2.941063   -0.253237    6.179982
     22          1           0        1.610627    3.895880    8.353556
     23          1           0        0.522207    3.829436    9.702647
     24          1           0       -0.931838    2.568069    8.280249
 ---------------------------------------------------------------------
                    Distance matrix (angstroms):
                    1          2          3          4          5
     1  C    0.000000
     2  N    1.358866   0.000000
     3  H    1.985702   0.941487   0.000000
     4  C    1.413596   2.393882   2.530597   0.000000
     5  C    2.430250   3.656179   3.896294   1.373640   0.000000
     6  C    1.413364   2.434051   3.266556   2.420634   2.788807
     7  C    2.425780   3.680698   4.408537   2.778618   2.420298
     8  C    2.495595   1.455206   2.054924   3.767510   4.921367
     9  H    3.278345   2.028209   2.201977   4.386000   5.634601
    10  C    3.307285   2.496610   3.072714   4.581604   5.639202
    11  N    3.983580   3.049082   3.265229   4.993119   6.135139
    12  H    3.541117   2.790091   2.948408   4.367899   5.469591
    13  H    2.095499   2.652971   3.581926   3.329980   3.792056
    14  H    3.364988   4.531596   5.323726   3.803719   3.334680
    15  H    2.682370   2.067840   2.800904   4.027924   5.005197
    16  C    2.795054   4.153176   4.656520   2.391817   1.396434
    17  N    4.234094   5.592111   6.073895   3.701777   2.445247
    18  O    4.943534   6.267795   6.600951   4.090707   2.718155
    19  O    4.943709   6.283229   6.887161   4.689821   3.558110
    20  H    3.360251   4.486896   4.575774   2.096868   1.017072
    21  H    2.085762   2.583670   2.342982   0.993568   2.054295
    22  H    3.129233   2.761683   3.494891   4.394752   5.255912
    23  H    4.251362   3.420849   3.974853   5.578930   6.609747
    24  H    4.360640   3.208047   3.193415   5.300903   6.550247
                    6          7          8          9         10
     6  C    0.000000
     7  C    1.376216   0.000000
     8  C    2.958880   4.332672   0.000000
     9  H    3.926897   5.284742   1.049819   0.000000
    10  C    3.482656   4.788548   1.526154   2.116274   0.000000
    11  N    4.474855   5.720728   2.520798   2.741277   1.465398
    12  H    4.149812   5.296062   2.749701   3.127689   1.950930
    13  H    1.004082   2.068403   2.640176   3.644563   2.992997
    14  H    2.105630   1.025754   4.967821   5.950460   5.282876
    15  H    2.722814   4.028875   1.059421   1.714954   2.116191
    16  C    2.395341   1.389762   5.145210   6.005901   5.720289
    17  N    3.712564   2.452817   6.558848   7.431916   7.073971
    18  O    4.697286   3.559821   7.387139   8.193094   7.964278
    19  O    4.097623   2.722317   7.050667   7.983963   7.448606
    20  H    3.805232   3.328860   5.824608   6.469711   6.555855
    21  H    3.319123   3.771713   4.037179   4.460691   4.892997
    22  H    2.971334   4.138407   2.153168   3.005613   1.071389
    23  H    4.257813   5.539770   2.162912   2.476965   1.072893
    24  H    5.040530   6.341207   2.642138   2.470571   2.023516
                   11         12         13         14         15
    11  N    0.000000
    12  H    0.976064   0.000000
    13  H    4.205260   4.084227   0.000000
    14  H    6.314881   5.962710   2.417146   0.000000
    15  H    3.403424   3.672183   2.187895   4.522537   0.000000
    16  C    6.442034   5.862214   3.303010   2.081202   5.001139
    17  N    7.794620   7.186174   4.517360   2.621305   6.351285
    18  O    8.553727   7.866719   5.582137   3.843825   7.273227
    19  O    8.292757   7.760017   4.700893   2.392582   6.709269
    20  H    6.935765   6.209287   4.808581   4.155486   5.960077
    21  H    5.071154   4.407582   4.154699   4.796733   4.473225
    22  H    2.050549   2.183808   2.453542   4.530716   2.474306
    23  H    2.021963   2.787380   3.581454   5.905568   2.451688
    24  H    0.984920   1.626096   4.802660   6.999513   3.600293
                   16         17         18         19         20
    16  C    0.000000
    17  N    1.439106   0.000000
    18  O    2.302736   1.232402   0.000000
    19  O    2.299106   1.241401   2.176000   0.000000
    20  H    2.085316   2.611577   2.393077   3.841942   0.000000
    21  H    3.290437   4.495220   4.684749   5.564302   2.400743
    22  H    5.144922   6.415387   7.361899   6.691341   6.196321
    23  H    6.589128   7.911432   8.864367   8.180642   7.551708
    24  H    6.995440   8.390559   9.095271   8.962840   7.308309
                   21         22         23         24
    21  H    0.000000
    22  H    4.869256   0.000000
    23  H    5.910013   1.734682   0.000000
    24  H    5.231659   2.869248   2.393430   0.000000
 Stoichiometry    C8H11N3O2
 Framework group  C1[X(C8H11N3O2)]
 Deg. of freedom    66
 Full point group                 C1      NOp   1
 RotChk:  IX=0 Diff= 1.20D-02
 Largest Abelian subgroup         C1      NOp   1
 Largest concise Abelian subgroup C1      NOp   1
                         Standard orientation:                         
 ---------------------------------------------------------------------
[...]
 531,0.00107395,0.00072722,0.00127385,-0.04711883,-0.01497877,0.0145796
 1,-0.17031574,-0.11692994,-0.04806276,-0.01287486,0.01616738,0.0244676
 0,-0.11090928,0.03237547,0.05571803,0.00153834,-0.00207039,-0.00355437
 ,-0.00038780,0.00017749,0.00042254,0.00052943,-0.00073662,0.00117529,-
 0.00069141,0.00112018,-0.00046108,0.00046451,-0.00065581,0.00047089,-0
 .00337848,-0.00204841,0.00355636,0.00995097,-0.01415569,-0.01517209,0.
 00007899,0.00044796,0.00105091,0.51969900,-0.00780909,-0.04132714,-0.0
 2762451,-0.00088570,0.00321861,0.00322935,0.00024565,0.00047366,-0.000
 22102,-0.04758177,0.01392657,0.03173074,-0.08055641,-0.20512108,-0.090
 02283,0.04950945,0.02292717,-0.01127833,-0.00372038,-0.19293569,-0.117
 70894,0.00032246,0.00014832,0.00004952,0.00012359,0.00005841,0.0002001
 5,-0.00047249,-0.00034006,0.00035088,0.00003779,0.00012651,-0.00002315
 ,0.00004239,-0.00008998,0.00001346,-0.00293748,0.00372483,-0.00137578,
 0.00487971,-0.00949328,-0.01586852,-0.00066458,0.00021425,0.00054900,0
 .12829867,0.50646338,-0.01529448,-0.02773446,-0.02291043,0.00730430,0.
 00314375,-0.00041412,-0.00018682,-0.00016374,-0.00070051,-0.01490578,0
 .01438938,0.02721439,-0.01567628,-0.07115406,-0.11535560,0.05435613,0.
 00626096,-0.01602859,0.02334636,-0.13654681,-0.19471387,-0.00053401,0.
 00112061,0.00209716,0.00031622,-0.00002992,-0.00005794,-0.00067825,-0.
 00006022,-0.00025445,0.00040780,-0.00044151,0.00017292,-0.00019945,0.0
 0024890,-0.00022955,0.00283210,-0.00197713,0.00415415,0.00196814,-0.00
 588622,-0.00111482,-0.00070320,-0.00005825,-0.00013855,-0.08842849,0.2
 7785810,0.41978276,-0.01513642,-0.00196367,0.00469746,0.01486419,0.000
 26845,-0.00467981,-0.00072375,-0.00057546,-0.00129009,0.00959889,-0.00
 764140,-0.00847035,-0.04413857,-0.01515568,0.00640564,0.01493237,0.003
 67167,-0.00080693,-0.02566169,0.01784907,0.02641087,-0.00163701,0.0023
 9857,0.00400874,0.00058418,-0.00019661,-0.00054143,-0.00095522,0.00067
 426,-0.00112444,0.00109304,-0.00139296,0.00059005,-0.00062693,0.000721
 00,-0.00055087,0.00091842,-0.00064979,-0.00009147,0.00014910,-0.002256
 26,-0.00430391,-0.00024501,-0.00044254,-0.00088284,-0.12724958,-0.0112
 3534,0.01863040,0.62223698,-0.00148794,-0.00372650,-0.00106230,0.00110
 574,-0.00009670,-0.00033169,-0.00010363,-0.00006498,-0.00017603,-0.005
 51710,-0.00235093,-0.00544566,-0.01803014,0.00381722,0.01763671,0.0015
 3847,-0.00093770,-0.00810929,0.02022357,0.00876415,0.00219705,0.000148
 37,0.00025622,0.00066010,0.00011070,-0.00002333,0.00000161,-0.00002927
 ,0.00009557,-0.00016792,0.00005490,-0.00016706,0.00002332,-0.00003450,
 0.00008301,-0.00004287,0.00106161,0.00079531,-0.00134503,0.00109329,-0
 .00413449,-0.00027751,-0.00023858,-0.00005145,0.00006667,-0.01061028,-
 0.09657232,-0.01727430,0.14726379,0.67360884,0.00556945,-0.00086334,-0
 .00509875,-0.00677503,0.00008630,0.00207869,0.00036205,0.00032854,0.00
 062899,-0.00621713,-0.00442278,0.00625603,0.00356892,0.01606868,0.0071
 1639,-0.00256845,-0.00924956,0.00017031,0.02865302,0.00361211,-0.01691
 008,0.00051112,-0.00096600,-0.00213599,-0.00029702,0.00007580,0.000227
 92,0.00039743,-0.00034568,0.00069826,-0.00050818,0.00065080,-0.0002845
 8,0.00028883,-0.00035793,0.00025855,0.00131959,-0.00038362,0.00068764,
 -0.00136338,0.00139987,-0.00247818,0.00027702,0.00025840,0.00031158,0.
 01921849,-0.01695132,-0.09646910,-0.07097004,0.32563630,0.55711837,0.0
 0343456,0.00157753,-0.00008804,-0.00332352,-0.00002582,0.00111719,0.00
 012509,0.00011453,0.00025751,-0.00037133,0.00181630,0.00158106,-0.0028
 9480,0.00017481,0.00249333,-0.00310590,0.00065942,0.00172218,-0.003314
 48,-0.00611730,-0.00154971,0.00038529,-0.00063454,-0.00094452,-0.00020
 523,0.00003875,0.00012579,0.00031795,-0.00011527,0.00025157,-0.0003568
 0,0.00037737,-0.00016521,0.00017227,-0.00018207,0.00014257,-0.00081571
 ,0.00013663,0.00015115,0.00010886,0.00029051,0.00045174,0.00005707,0.0
 0012329,0.00011090,-0.01424598,0.02822591,0.04163908,-0.15694534,0.063
 50842,0.09892518,0.14834305,-0.00292035,0.00007911,0.00115210,0.002734
 89,0.00038433,-0.00041171,-0.00007167,-0.00016937,-0.00028060,0.002991
 92,0.00032783,-0.00089260,-0.00957713,-0.00515668,-0.00112100,0.002093
 53,0.00112610,0.00076940,-0.00174090,0.00338205,0.00009436,-0.00036640
 ,0.00025798,0.00058803,0.00008250,-0.00000774,-0.00008822,-0.00024507,
 0.00012626,-0.00021974,0.00022389,-0.00021249,0.00012626,-0.00011469,0
 .00012027,-0.00010074,0.00022468,-0.00026993,0.00030269,-0.00092254,0.
 00090889,0.00085179,0.00000682,-0.00007479,-0.00017546,0.02047850,0.00
 393172,-0.02262448,0.05442807,-0.27075207,-0.20332614,-0.05801725,0.31
 971900,-0.00423847,-0.00104380,0.00144312,0.00416331,0.00033530,-0.001
 02597,-0.00017111,-0.00017047,-0.00046038,0.00260321,-0.00020201,-0.00
 209261,-0.00626591,-0.00615263,-0.00069431,0.00298037,0.00155583,-0.00
 109239,0.00237029,0.00234531,0.00510055,-0.00042096,0.00057168,0.00114
 819,0.00020231,-0.00003111,-0.00013233,-0.00038103,0.00020965,-0.00040
 271,0.00039710,-0.00042592,0.00021604,-0.00019210,0.00023281,-0.000178
 55,0.00027319,0.00029140,-0.00056396,-0.00064114,0.00022762,0.00102676
 ,-0.00010756,-0.00015644,-0.00016341,0.03472846,-0.02655153,-0.0244922
 9,0.09077998,-0.20800911,-0.30979588,-0.11404952,0.29190776,0.34983945
 ,0.00449654,-0.00078663,-0.00267718,-0.00500288,0.00026488,0.00184859,
 0.00031257,0.00018132,0.00035202,-0.00403244,0.00001495,0.00171325,0.0
 0011641,0.00491009,0.00655989,-0.00297884,-0.00171471,-0.00026433,0.00
 023906,-0.00416531,-0.00301841,0.00057097,-0.00088944,-0.00152626,-0.0
 0023891,0.00007897,0.00021367,0.00033200,-0.00028694,0.00044773,-0.000
 42580,0.00056032,-0.00022299,0.00024150,-0.00028062,0.00020468,-0.0001
 7940,0.00013651,0.00016677,-0.00374739,0.00001416,0.00182373,0.0000785
 0,0.00019100,0.00031135,-0.04906779,-0.04401251,-0.00543830,-0.2928509
 5,-0.19816293,-0.06650943,0.03628306,-0.01002845,-0.01440817,0.3162742
 0,0.00338021,0.00048303,-0.00153151,-0.00324465,0.00025259,0.00123813,
 0.00031286,0.00014153,0.00025708,-0.00130311,0.00090115,0.00232199,0.0
 0052822,0.00415783,-0.00040414,-0.00295023,-0.00036884,0.00170546,0.00
 590071,-0.00449765,-0.00853136,0.00028835,-0.00053802,-0.00105913,-0.0
 0012349,0.00006672,0.00014517,0.00016405,-0.00026399,0.00034436,-0.000
 20949,0.00036562,-0.00014258,0.00013592,-0.00019810,0.00013255,-0.0001
 8399,-0.00000169,0.00013771,0.00025988,0.00216404,0.00192175,0.0001003
 3,0.00009725,0.00024675,-0.03671977,-0.00463080,-0.00063808,-0.1890174
 0,-0.30545318,-0.10918865,-0.03247054,-0.05589554,-0.05682340,0.254038
 13,0.36244708,0.00089762,0.00051278,0.00036939,-0.00036592,0.00011823,
 0.00010003,0.00010528,0.00001621,0.00001770,0.00043066,0.00161444,0.00
 035423,0.00266488,-0.00264105,0.00055119,-0.00140137,0.00102908,0.0011
 5932,0.00602462,-0.00337402,-0.00448791,0.00001289,-0.00001702,-0.0001
 1441,0.00002130,0.00001125,0.00001876,-0.00001675,-0.00004964,0.000022
 68,0.00004615,-0.00000621,0.00001340,-0.00000024,0.00000060,0.00000088
 ,-0.00010699,-0.00001536,-0.00004883,0.00205046,0.00208110,0.00060395,
 0.00001528,-0.00000854,0.00010047,0.00116786,0.00308473,0.01941736,-0.
 05835331,-0.10450229,-0.13998739,-0.03456542,-0.06836929,-0.01782966,0
 .08029227,0.16960396,0.13978630,-0.00316266,-0.00297905,0.00329271,-0.
 00003434,0.00095529,0.00098449,0.00002726,0.00003324,0.00009890,-0.003
 09008,0.01798576,0.01959271,-0.07715017,0.04845117,0.06326803,-0.00092
 708,-0.00031231,-0.00007425,-0.00266676,-0.00401097,-0.00008115,-0.000
 32221,-0.00007241,-0.00017159,-0.00005409,0.00004885,0.00006729,0.0000
 0918,-0.00000479,0.00009825,-0.00002758,0.00003182,-0.00002606,0.00001
 017,-0.00001902,0.00001827,-0.00003026,0.00021383,-0.00016187,0.000697
 46,-0.00091949,-0.00078710,0.00003420,-0.00000226,-0.00001257,0.011047
 67,-0.01192158,-0.01385974,0.00131965,-0.00017360,-0.00299517,-0.00342
 508,0.00052218,0.00212412,0.00056364,0.00115582,0.00098650,0.07675372,
 -0.00304642,0.00380696,-0.00260944,-0.00001017,0.00025642,0.00018418,-
 0.00003840,0.00003855,-0.00004900,-0.00193273,0.00624626,0.00323829,0.
 04703842,-0.17012251,-0.14206141,-0.00036149,-0.00001245,0.00064933,-0
 .00445308,-0.00069530,-0.00206331,-0.00000494,-0.00021433,0.00015256,-
 0.00000557,0.00002069,0.00005454,0.00002836,-0.00003266,-0.00005347,-0
 .00000093,-0.00000238,0.00000188,0.00000411,0.00000914,-0.00000394,0.0
 0023427,-0.00027520,0.00028318,0.00034824,-0.00025427,-0.00110938,0.00
 000215,0.00000807,0.00002412,0.00716081,-0.00913117,-0.01632821,0.0031
 1267,-0.00374961,-0.00121056,0.00077647,0.00216625,0.00171601,-0.00005
 058,0.00101494,0.00052139,-0.05018832,0.17228153,0.00324742,-0.0025916
 6,0.00443670,0.00003102,-0.00037057,-0.00031886,0.00004752,-0.00006347
 ,0.00004123,0.00190375,-0.00700205,-0.00353386,0.06203802,-0.14274011,
 -0.19899180,-0.00007992,0.00056864,0.00003695,-0.00060901,-0.00226437,
 0.00243972,-0.00001488,0.00030419,-0.00009324,0.00000262,-0.00003373,-
 0.00005958,-0.00003145,0.00002159,0.00004808,-0.00000002,0.00000178,-0
 .00000107,-0.00000025,-0.00000498,0.00000096,-0.00015001,0.00029839,-0
 .00037568,0.00036233,-0.00045917,0.00017553,-0.00000689,-0.00001927,-0
 .00002978,0.00316246,-0.00668910,-0.00270653,-0.00000488,0.00049177,-0
 .00374861,0.00238474,0.00189138,0.00027308,-0.00010578,-0.00010931,0.0
 0042064,-0.07072775,0.15634680,0.20378299,0.00596009,0.00660346,0.0043
 2419,0.00170963,0.00178120,-0.00046679,0.00011612,-0.00052411,-0.00017
 706,-0.16466344,-0.12993688,-0.04726632,-0.01543301,-0.02132839,-0.010
 42869,0.00075882,0.00041095,0.00229837,-0.00040599,0.00051066,0.000536
 67,0.00007431,0.00023922,-0.00030189,0.00003131,-0.00005823,-0.0000589
 0,-0.00004829,0.00002891,0.00005908,0.00002702,-0.00002192,0.00001470,
 -0.00001389,0.00000354,-0.00000946,0.00033488,0.00037147,0.00017835,-0
 .00009053,0.00008124,-0.00023292,0.00000271,-0.00002998,-0.00004478,-0
 .00217520,0.00005409,0.00497596,0.00037677,-0.00169772,-0.00088753,-0.
 00019136,0.00017616,0.00022530,-0.00096531,-0.00004132,0.00010519,0.00
 044227,0.00137435,-0.00143650,0.17415323,-0.01538804,-0.01074862,-0.00
 426841,0.00003442,0.00029777,0.00250865,0.00091550,-0.00000402,-0.0012
 3531,-0.12984096,-0.18803772,-0.07316195,0.00023235,0.00131771,-0.0001
 9902,0.00141136,0.00019741,-0.00454000,0.00077923,-0.00001190,-0.00015
 898,0.00054296,-0.00021795,0.00015690,0.00003424,0.00001558,-0.0000004
 3,-0.00008713,-0.00002865,-0.00009333,0.00005356,0.00001472,0.00000524
 ,0.00001464,-0.00001497,-0.00002074,-0.00079899,-0.00060136,-0.0001571
 1,0.00010397,-0.00027543,0.00031462,-0.00004357,0.00012836,0.00025068,
 -0.00111590,0.00415624,-0.00230322,0.00005222,0.00065777,-0.00088719,-
 0.00012729,-0.00000006,0.00012073,0.00003628,-0.00030112,0.00032634,0.
 00117851,-0.00135345,0.00242299,0.14197820,0.19477294,-0.01530806,-0.0
 1551760,-0.00301183,-0.00235718,0.00094098,0.00001631,0.00136529,0.000
 12732,-0.00030509,-0.04716506,-0.07323488,-0.07288643,0.00875408,0.010
 96200,0.00668586,0.00308550,-0.00403734,-0.00070454,0.00092110,-0.0001
 0043,-0.00084501,-0.00000282,0.00039136,-0.00051426,0.00004085,-0.0000
 4273,-0.00006698,-0.00007826,0.00002874,0.00023509,0.00000180,0.000073
 56,-0.00001269,0.00000315,-0.00005391,0.00002662,-0.00082106,-0.000802
 11,-0.00027571,-0.00021243,0.00032842,-0.00028526,0.00001324,-0.000017
 74,0.00001810,0.00399298,-0.00276679,0.00280772,0.00064645,0.00003000,
 0.00132041,-0.00004332,-0.00004392,-0.00007919,0.00020059,0.00037653,-
 0.00045265,-0.00162222,0.00231896,-0.00180310,0.04860016,0.08092823,0.
 07017426,0.00003972,-0.00010264,0.00024648,0.00065194,-0.00113364,-0.0
 0040661,0.00000628,-0.00005016,-0.00006965,0.00008881,-0.00006168,-0.0
 0012913,-0.00012574,-0.00007569,-0.00000356,-0.00102074,0.00030010,-0.
 00007168,0.00005072,0.00003703,-0.00013138,0.00983055,0.00892064,-0.00
 533579,-0.00021689,0.00344345,-0.00073458,-0.17235878,-0.10363841,0.07
 570622,-0.02809060,-0.01341270,0.00723828,0.00058271,-0.00021234,0.000
 04452,-0.00043699,0.00054745,0.00006963,0.00000825,0.00000143,-0.00000
 486,0.00062603,-0.00112520,0.00039238,-0.00000656,0.00008540,0.0000941
 3,0.00001995,-0.00004350,0.00003398,-0.00000460,0.00002860,0.00000235,
 0.00001486,0.00001452,-0.00001144,-0.00000791,0.00000410,-0.00000350,0
 .00000608,-0.00000241,-0.00000539,0.19906446,-0.00076980,-0.00060441,0
 .00014571,0.00026169,0.00261018,-0.00070506,-0.00011647,0.00021342,-0.
 00005152,0.00040104,-0.00018038,-0.00028620,-0.00030352,-0.00006664,0.
 00009669,-0.00003046,-0.00012183,-0.00068731,0.00017368,0.00024841,-0.
 00002541,-0.02036175,-0.01993776,0.01589196,0.00272247,-0.00490523,0.0
 0147112,-0.10493839,-0.13641523,0.06046788,-0.00182209,0.00171851,-0.0
 0133652,-0.00029084,-0.00026628,0.00016946,0.00059676,0.00010974,0.000
 70857,0.00001539,0.00001364,-0.00002694,0.00023300,0.00083503,-0.00035
 326,0.00012582,0.00011836,0.00014811,0.00014206,0.00003070,-0.00002766
 ,-0.00010667,0.00001690,0.00006012,-0.00007097,0.00000761,0.00003866,0
 .00000523,0.00000477,-0.00000879,0.00000538,0.00004911,0.00005107,0.11
 312159,0.14630696,0.00082138,0.00019389,-0.00003862,-0.00153247,-0.000
 37759,0.00101055,-0.00006685,0.00006730,-0.00004407,-0.00030968,0.0000
 4307,0.00012664,0.00016940,0.00007041,-0.00003072,0.00011305,0.0000863
 6,0.00044705,0.00004771,-0.00013751,-0.00015348,0.00612197,0.00326758,
 -0.00345745,-0.00132716,0.00125252,0.00084072,0.08099867,0.06398833,-0
 .09811062,-0.02240560,-0.01217316,0.00945598,0.00058141,-0.00063041,0.
 00088585,-0.00024064,-0.00001364,-0.00011661,-0.00002506,-0.00000298,0
 .00003316,0.00003460,0.00002159,-0.00005029,-0.00012053,-0.00002426,-0
 .00000795,0.00012725,0.00001590,-0.00005000,-0.00000994,0.00000222,0.0
 0000771,-0.00005498,-0.00005113,-0.00002040,-0.00000413,-0.00001003,0.
 00000801,0.00000553,-0.00002288,-0.00002218,-0.07618433,-0.06999043,0.
 10170706,0.00129384,0.00008995,-0.00047843,-0.00044678,0.00340185,-0.0
 0007874,-0.00062274,0.00063186,-0.00005125,-0.00029478,0.00002143,0.00
 033745,0.00022655,0.00008852,0.00001808,-0.00031004,-0.00024614,-0.000
 20871,0.00014665,-0.00000068,-0.00005592,-0.00285561,0.00215056,0.0108
 3025,0.00052753,0.00009753,-0.00039609,-0.07654491,0.03659987,0.073190
 90,0.00648954,-0.01102792,-0.03049643,-0.00419110,-0.00165180,-0.00469
 719,-0.00002751,0.00012907,0.00017579,-0.00001238,0.00000739,0.0000070
 5,-0.00013878,-0.00028476,-0.00005669,-0.00029868,-0.00007010,0.000117
 88,0.00039969,0.00005336,-0.00018604,-0.00011435,0.00006282,0.00012246
 ,-0.00016659,-0.00009897,-0.00000031,-0.00001390,0.00000745,-0.0000085
 3,0.00000150,0.00001628,-0.00002864,-0.00609365,0.01080019,0.01820200,
 0.08180387,-0.00202022,-0.00118395,0.00082899,0.00376659,-0.00571182,-
 0.00028720,0.00076017,-0.00065300,-0.00026024,0.00068969,-0.00009338,-
 0.00069844,-0.00051151,-0.00013143,-0.00003806,0.00030060,0.00029249,-
 0.00002881,-0.00015175,0.00010946,0.00007240,0.00982194,-0.01160438,-0
 .02507784,-0.00109786,0.00087796,-0.00028228,0.03402607,-0.10063620,-0
 .09423937,-0.00137294,0.00154990,-0.00046553,0.00013458,0.00037601,-0.
 00013963,0.00005808,0.00001146,0.00015552,0.00001859,0.00000324,-0.000
 01498,0.00030220,0.00089441,0.00036939,0.00053246,0.00014159,-0.000134
 97,-0.00055183,-0.00006065,0.00028395,0.00012812,-0.00009940,-0.000167
 32,0.00021950,0.00015428,0.00001776,0.00002917,-0.00000960,0.00000881,
 0.00001108,-0.00001453,0.00007308,-0.00503271,0.00944472,0.01627492,-0
 .04021149,0.10667078,-0.00037342,0.00039369,0.00023931,-0.00045814,0.0
 0164301,0.00081859,-0.00015848,0.00039562,0.00025797,-0.00004019,-0.00
 008898,0.00001494,-0.00005757,-0.00002106,0.00005344,0.00009239,0.0000
 1922,0.00009823,-0.00004744,-0.00002696,0.00002593,-0.00158330,0.00363
 717,0.00579166,0.00012547,-0.00052948,0.00035525,0.06732768,-0.0941145
 6,-0.22839328,0.00190953,-0.00738630,-0.02352762,-0.00440609,-0.001278
 56,-0.00082226,-0.00002564,-0.00007064,-0.00014195,0.00000128,-0.00000
 468,-0.00000463,0.00042030,-0.00099368,0.00043402,0.00008384,0.0000292
 4,-0.00004270,-0.00016227,-0.00002213,0.00005034,0.00005061,-0.0000169
 1,-0.00003298,0.00007120,0.00003531,0.00000239,-0.00001233,0.00000411,
 -0.00000027,-0.00001149,0.00001307,-0.00002195,0.00412553,-0.00552216,
 -0.01014144,-0.06684694,0.10412059,0.25441402,-0.00084072,-0.00022036,
 0.00043514,0.00075185,0.00048093,-0.00013003,-0.00039138,0.00037987,-0
 .00006475,0.00024669,-0.00008679,-0.00021597,-0.00018852,-0.00008171,0
 .00002748,0.00022550,0.00015458,-0.00013475,-0.00009608,0.00007304,0.0
 0005804,0.00105376,-0.00053767,0.00213508,-0.00009949,0.00146991,-0.00
 067260,-0.02560008,-0.01894313,0.01150160,-0.24006314,-0.14289713,0.10
 285421,-0.00813941,-0.00786645,0.00332455,0.00005542,-0.00006393,0.000
 06712,0.00001266,-0.00000270,-0.00000635,0.00091756,-0.00025467,-0.000
 10196,0.00025620,0.00004232,-0.00008370,-0.00032274,-0.00003301,0.0001
 5233,0.00008727,-0.00005009,-0.00009649,0.00013299,0.00008393,0.000000
 78,0.00000688,0.00000125,-0.00000051,-0.00000771,0.00002055,0.00001926
 ,-0.00262790,0.00020667,-0.00494161,0.00124264,0.00015147,-0.00002452,
 0.27338775,0.00079397,0.00009523,-0.00030908,-0.00072705,-0.00039868,0
 .00054359,0.00019067,-0.00014832,-0.00002606,-0.00021110,0.00009162,0.
 00018773,0.00014083,0.00006052,-0.00001216,-0.00038792,-0.00016307,-0.
 00003186,0.00021598,-0.00002600,-0.00014689,0.00235543,0.00197937,-0.0
 0146096,-0.00046387,0.00016516,0.00028173,0.00572992,-0.00568392,0.004
 76643,-0.19086220,-0.13442939,0.08244656,0.01778983,0.00477122,-0.0097
 6934,0.00006884,0.00002415,0.00007120,0.00000266,0.00000160,-0.0000006
 4,-0.00024473,-0.00018034,0.00010179,-0.00033517,0.00001190,0.00018577
 ,0.00049711,0.00003217,-0.00022034,-0.00015132,0.00009136,0.00015953,-
 0.00019704,-0.00010473,0.00000691,-0.00000706,-0.00000064,0.00000024,0
 .00000864,0.00000216,-0.00001279,-0.00161325,0.00076968,-0.00185008,-0
 .00056629,-0.00032798,-0.00021495,0.16797313,0.13336693,-0.00039892,-0
 .00007226,-0.00002635,0.00052515,-0.00020500,-0.00004367,0.00017939,-0
 .00008812,0.00005021,0.00010333,0.00000973,-0.00004982,-0.00006524,-0.
 00003174,0.00001841,-0.00001678,-0.00001285,-0.00009706,-0.00001979,0.
 00003130,0.00004109,-0.00078304,-0.00078093,0.00079577,0.00060638,0.00
 054911,-0.00017554,-0.02311705,-0.01385630,0.01051581,0.11506546,0.066
 00827,-0.12013157,0.02603260,0.02374755,-0.01258906,0.00005611,0.00001
 448,0.00006847,0.00000272,0.00000110,-0.00000574,0.00017604,-0.0000386
 6,-0.00010774,0.00005909,0.00001091,-0.00000950,-0.00006421,0.00000670
 ,0.00003507,0.00001108,-0.00001517,-0.00001829,0.00002009,0.00001253,0
 .00000258,0.00000467,0.00000339,-0.00000152,-0.00000116,0.00000111,0.0
 0000252,-0.00486162,-0.00022809,-0.00227893,0.00058805,-0.00037075,0.0
 0057296,-0.11410237,-0.07469632,0.12343190\\0.00000421,-0.00000910,-0.
 00000236,0.00000330,0.00001188,0.00000483,-0.00001219,0.00000149,-0.00
 001115,0.00000595,0.00001125,0.00000597,0.00000040,-0.00000735,-0.0000
 1041,0.00000338,-0.00000167,-0.00000424,0.00000651,0.00000315,0.000005
 30,-0.00000118,-0.00000651,0.00000862,0.00000163,0.00000283,0.00000087
 ,-0.00000320,0.00000445,0.00000460,0.00000373,0.00000228,0.00000096,0.
 00000042,0.00000874,0.00000108,0.00000146,-0.00000064,0.00000113,-0.00
 000241,-0.00001063,-0.00000096,-0.00000124,0.00000186,-0.00000362,0.00
 000057,-0.00000437,-0.00000301,-0.00000386,-0.00000546,0.00000185,-0.0
 0000178,-0.00000540,-0.00000267,0.00000155,-0.00000597,-0.00000017,-0.
 00000671,0.00000501,0.00000371,-0.00001235,-0.00000692,-0.00000617,0.0
 0000643,0.00000072,0.00000116,0.00000346,0.00000211,0.00000322,0.00000
 190,0.00000825,0.00000150\\\@


 YOU WILL NEVER "FIND" TIME FOR ANYTHING.
 IF YOU WANT TIME, YOU MUST MAKE IT.

                        -- CHARLES BIXTON
 Job cpu time:       0 days  0 hours 20 minutes  0.7 seconds.
 File lengths (MBytes):  RWF=    171 Int=      0 D2E=      0 Chk=      6 Scr=      1
 Normal termination of Gaussian 09 at Fri Aug 20 15:50:18 2021.
