 Entering Gaussian System, Link 0=g09
 Input=B3LYP6-31G.RIYTID.gjf
 Output=B3LYP6-31G.RIYTID.log
 Initial command:
 /public/home/users/caep010/software/Gaussian09/g09/l1.exe "/public/home/users/caep010/.cache/gau_scr/Gau-138010.inp" -scrdir="/public/home/users/caep010/.cache/gau_scr/"
 Entering Link 1 = /public/home/users/caep010/software/Gaussian09/g09/l1.exe PID=    138011.
  
 Copyright (c) 1988,1990,1992,1993,1995,1998,2003,2009,2015,
            Gaussian, Inc.  All Rights Reserved.
  
 This is part of the Gaussian(R) 09 program.  It is based on
 the Gaussian(R) 03 system (copyright 2003, Gaussian, Inc.),
 the Gaussian(R) 98 system (copyright 1998, Gaussian, Inc.),
 the Gaussian(R) 94 system (copyright 1995, Gaussian, Inc.),
 the Gaussian 92(TM) system (copyright 1992, Gaussian, Inc.),
 the Gaussian 90(TM) system (copyright 1990, Gaussian, Inc.),
 the Gaussian 88(TM) system (copyright 1988, Gaussian, Inc.),
 the Gaussian 86(TM) system (copyright 1986, Carnegie Mellon
 University), and the Gaussian 82(TM) system (copyright 1983,
 Carnegie Mellon University). Gaussian is a federally registered
 trademark of Gaussian, Inc.
  
 This software contains proprietary and confidential information,
 including trade secrets, belonging to Gaussian, Inc.
  
 This software is provided under written license and may be
 used, copied, transmitted, or stored only in accord with that
 written license.
  
 The following legend is applicable only to US Government
 contracts under FAR:
  
                    RESTRICTED RIGHTS LEGEND
  
 Use, reproduction and disclosure by the US Government is
 subject to restrictions as set forth in subparagraphs (a)
 and (c) of the Commercial Computer Software - Restricted
 Rights clause in FAR 52.227-19.
  
 Gaussian, Inc.
 340 Quinnipiac St., Bldg. 40, Wallingford CT 06492
  
  
 ---------------------------------------------------------------
 Warning -- This program may not be used in any manner that
 competes with the business of Gaussian, Inc. or will provide
 assistance to any competitor of Gaussian, Inc.  The licensee
 of this program is prohibited from giving any competitor of
 Gaussian, Inc. access to this program.  By using this program,
 the user acknowledges that Gaussian, Inc. is engaged in the
 business of creating and licensing software in the field of
 computational chemistry and represents and warrants to the
 licensee that it is not a competitor of Gaussian, Inc. and that
 it will not use this program in any manner prohibited above.
 ---------------------------------------------------------------
  

 Cite this work as:
 Gaussian 09, Revision E.01,
 M. J. Frisch, G. W. Trucks, H. B. Schlegel, G. E. Scuseria, 
 M. A. Robb, J. R. Cheeseman, G. Scalmani, V. Barone, B. Mennucci, 
 G. A. Petersson, H. Nakatsuji, M. Caricato, X. Li, H. P. Hratchian, 
 A. F. Izmaylov, J. Bloino, G. Zheng, J. L. Sonnenberg, M. Hada, 
 M. Ehara, K. Toyota, R. Fukuda, J. Hasegawa, M. Ishida, T. Nakajima, 
 Y. Honda, O. Kitao, H. Nakai, T. Vreven, J. A. Montgomery, Jr., 
 J. E. Peralta, F. Ogliaro, M. Bearpark, J. J. Heyd, E. Brothers, 
 K. N. Kudin, V. N. Staroverov, T. Keith, R. Kobayashi, J. Normand, 
 K. Raghavachari, A. Rendell, J. C. Burant, S. S. Iyengar, J. Tomasi, 
 M. Cossi, N. Rega, J. M. Millam, M. Klene, J. E. Knox, J. B. Cross, 
 V. Bakken, C. Adamo, J. Jaramillo, R. Gomperts, R. E. Stratmann, 
 O. Yazyev, A. J. Austin, R. Cammi, C. Pomelli, J. W. Ochterski, 
 R. L. Martin, K. Morokuma, V. G. Zakrzewski, G. A. Voth, 
 P. Salvador, J. J. Dannenberg, S. Dapprich, A. D. Daniels, 
 O. Farkas, J. B. Foresman, J. V. Ortiz, J. Cioslowski, 
 and D. J. Fox, Gaussian, Inc., Wallingford CT, 2013.
 
 ******************************************
 Gaussian 09:  ES64L-G09RevE.01 30-Nov-2015
                20-Aug-2021 
 ******************************************
 %nproc=32
 Will use up to   32 processors via shared memory.
 %mem=180GB
 -------------------------
 #P OPT Freq B3LYP/6-31G**
 -------------------------
 1/14=-1,18=20,19=15,26=3,38=1/1,3;
 2/9=110,12=2,17=6,18=5,40=1/2;
 3/5=1,6=6,7=101,11=2,16=1,25=1,30=1,71=1,74=-5/1,2,3;
 4//1;
 5/5=2,38=5/2;
 6/7=2,8=2,9=2,10=2,28=1/1;
 7//1,2,3,16;
 1/14=-1,18=20,19=15,26=3/3(2);
 2/9=110/2;
 99//99;
 2/9=110/2;
 3/5=1,6=6,7=101,11=2,16=1,25=1,30=1,71=1,74=-5/1,2,3;
 4/5=5,16=3,69=1/1;
 5/5=2,38=5/2;
 7//1,2,3,16;
 1/14=-1,18=20,19=15,26=3/3(-5);
 2/9=110/2;
 6/7=2,8=2,9=2,10=2,19=2,28=1/1;
 99/9=1/99;
 Leave Link    1 at Fri Aug 20 15:56:33 2021, MaxMem= 24159191040 cpu:         2.6
 (Enter /public/home/users/caep010/software/Gaussian09/g09/l101.exe)
 ------
 RIYTID
 ------
 Symbolic Z-matrix:
 Charge =  0 Multiplicity = 1
 N                     3.181     2.518     4.7815 
 C                     3.4577    3.7633    4.0586 
 C                     3.0891    3.8564    2.7322 
 H                     2.6772    3.1456    2.2974 
 O                     3.6645    2.3775    5.8894 
 O                     2.4701    1.6835    4.253 
 C                     4.0725    4.8093    4.7263 
 C                     4.3088    5.982     4.0492 
 H                     4.7109    6.6898    4.4982 
 C                     3.9642    6.1424    2.7114 
 H                     4.3212    4.72      5.6168 
 C                     4.2348    7.422     1.975 
 H                     4.6708    8.0435    2.562 
 C                     3.3546    5.0483    2.0692 
 C                     2.9657    5.1819    0.6837 
 N                     2.6503    5.3124   -0.4007 
 H                     3.4056    7.7976    1.6717 
 H                     4.8012    7.2433    1.2204 
 
 NAtoms=     18 NQM=       18 NQMF=       0 NMMI=      0 NMMIF=      0
                NMic=       0 NMicF=      0.
                    Isotopes and Nuclear Properties:
 (Nuclear quadrupole moments (NQMom) in fm**2, nuclear magnetic moments (NMagM)
  in nuclear magnetons)

  Atom         1           2           3           4           5           6           7           8           9          10
 IAtWgt=          14          12          12           1          16          16          12          12           1          12
 AtmWgt=  14.0030740  12.0000000  12.0000000   1.0078250  15.9949146  15.9949146  12.0000000  12.0000000   1.0078250  12.0000000
 NucSpn=           2           0           0           1           0           0           0           0           1           0
 AtZEff=   0.0000000   0.0000000   0.0000000   0.0000000   0.0000000   0.0000000   0.0000000   0.0000000   0.0000000   0.0000000
 NQMom=    2.0440000   0.0000000   0.0000000   0.0000000   0.0000000   0.0000000   0.0000000   0.0000000   0.0000000   0.0000000
 NMagM=    0.4037610   0.0000000   0.0000000   2.7928460   0.0000000   0.0000000   0.0000000   0.0000000   2.7928460   0.0000000
 AtZNuc=   7.0000000   6.0000000   6.0000000   1.0000000   8.0000000   8.0000000   6.0000000   6.0000000   1.0000000   6.0000000

  Atom        11          12          13          14          15          16          17          18
 IAtWgt=           1          12           1          12          12          14           1           1
 AtmWgt=   1.0078250  12.0000000   1.0078250  12.0000000  12.0000000  14.0030740   1.0078250   1.0078250
 NucSpn=           1           0           1           0           0           2           1           1
 AtZEff=   0.0000000   0.0000000   0.0000000   0.0000000   0.0000000   0.0000000   0.0000000   0.0000000
 NQMom=    0.0000000   0.0000000   0.0000000   0.0000000   0.0000000   2.0440000   0.0000000   0.0000000
 NMagM=    2.7928460   0.0000000   2.7928460   0.0000000   0.0000000   0.4037610   2.7928460   2.7928460
 AtZNuc=   1.0000000   6.0000000   1.0000000   6.0000000   6.0000000   7.0000000   1.0000000   1.0000000
 Leave Link  101 at Fri Aug 20 15:56:34 2021, MaxMem= 24159191040 cpu:         9.4
 (Enter /public/home/users/caep010/software/Gaussian09/g09/l103.exe)

 GradGradGradGradGradGradGradGradGradGradGradGradGradGradGradGradGradGrad
 Berny optimization.
 Initialization pass.
                           ----------------------------
                           !    Initial Parameters    !
                           ! (Angstroms and Degrees)  !
 --------------------------                            --------------------------
 ! Name  Definition              Value          Derivative Info.                !
 --------------------------------------------------------------------------------
 ! R1    R(1,2)                  1.4663         estimate D2E/DX2                !
 ! R2    R(1,5)                  1.2169         estimate D2E/DX2                !
 ! R3    R(1,6)                  1.217          estimate D2E/DX2                !
 ! R4    R(2,3)                  1.3798         estimate D2E/DX2                !
 ! R5    R(2,7)                  1.3849         estimate D2E/DX2                !
 ! R6    R(3,4)                  0.9295         estimate D2E/DX2                !
 ! R7    R(3,14)                 1.3895         estimate D2E/DX2                !
 ! R8    R(7,8)                  1.3746         estimate D2E/DX2                !
 ! R9    R(7,11)                 0.9289         estimate D2E/DX2                !
 ! R10   R(8,9)                  0.9297         estimate D2E/DX2                !
 ! R11   R(8,10)                 1.3908         estimate D2E/DX2                !
 ! R12   R(10,12)                1.501          estimate D2E/DX2                !
 ! R13   R(10,14)                1.4075         estimate D2E/DX2                !
 ! R14   R(12,13)                0.9596         estimate D2E/DX2                !
 ! R15   R(12,17)                0.9595         estimate D2E/DX2                !
 ! R16   R(12,18)                0.9603         estimate D2E/DX2                !
 ! R17   R(14,15)                1.4452         estimate D2E/DX2                !
 ! R18   R(15,16)                1.1369         estimate D2E/DX2                !
 ! A1    A(2,1,5)              118.1592         estimate D2E/DX2                !
 ! A2    A(2,1,6)              118.5876         estimate D2E/DX2                !
 ! A3    A(5,1,6)              123.2484         estimate D2E/DX2                !
 ! A4    A(1,2,3)              118.7398         estimate D2E/DX2                !
 ! A5    A(1,2,7)              119.1795         estimate D2E/DX2                !
 ! A6    A(3,2,7)              122.0798         estimate D2E/DX2                !
 ! A7    A(2,3,4)              121.0952         estimate D2E/DX2                !
 ! A8    A(2,3,14)             117.7438         estimate D2E/DX2                !
 ! A9    A(4,3,14)             121.1611         estimate D2E/DX2                !
 ! A10   A(2,7,8)              118.8935         estimate D2E/DX2                !
 ! A11   A(2,7,11)             120.5613         estimate D2E/DX2                !
 ! A12   A(8,7,11)             120.5452         estimate D2E/DX2                !
 ! A13   A(7,8,9)              119.0765         estimate D2E/DX2                !
 ! A14   A(7,8,10)             121.9801         estimate D2E/DX2                !
 ! A15   A(9,8,10)             118.9434         estimate D2E/DX2                !
 ! A16   A(8,10,12)            121.7081         estimate D2E/DX2                !
 ! A17   A(8,10,14)            117.1652         estimate D2E/DX2                !
 ! A18   A(12,10,14)           121.1258         estimate D2E/DX2                !
 ! A19   A(10,12,13)           109.5072         estimate D2E/DX2                !
 ! A20   A(10,12,17)           109.4514         estimate D2E/DX2                !
 ! A21   A(10,12,18)           109.4643         estimate D2E/DX2                !
 ! A22   A(13,12,17)           109.4188         estimate D2E/DX2                !
 ! A23   A(13,12,18)           109.4633         estimate D2E/DX2                !
 ! A24   A(17,12,18)           109.5223         estimate D2E/DX2                !
 ! A25   A(3,14,10)            122.1297         estimate D2E/DX2                !
 ! A26   A(3,14,15)            119.0328         estimate D2E/DX2                !
 ! A27   A(10,14,15)           118.8223         estimate D2E/DX2                !
 ! A28   L(14,15,16,17,-1)     178.7444         estimate D2E/DX2                !
 ! A29   L(14,15,16,17,-2)     180.6316         estimate D2E/DX2                !
 ! D1    D(5,1,2,3)            170.3816         estimate D2E/DX2                !
 ! D2    D(5,1,2,7)             -9.9435         estimate D2E/DX2                !
 ! D3    D(6,1,2,3)            -10.38           estimate D2E/DX2                !
 ! D4    D(6,1,2,7)            169.2948         estimate D2E/DX2                !
 ! D5    D(1,2,3,4)             -0.3415         estimate D2E/DX2                !
 ! D6    D(1,2,3,14)           179.6597         estimate D2E/DX2                !
 ! D7    D(7,2,3,4)            179.9936         estimate D2E/DX2                !
 ! D8    D(7,2,3,14)            -0.0052         estimate D2E/DX2                !
 ! D9    D(1,2,7,8)           -178.9186         estimate D2E/DX2                !
 ! D10   D(1,2,7,11)             1.0907         estimate D2E/DX2                !
 ! D11   D(3,2,7,8)              0.7449         estimate D2E/DX2                !
 ! D12   D(3,2,7,11)          -179.2458         estimate D2E/DX2                !
 ! D13   D(2,3,14,10)           -0.6963         estimate D2E/DX2                !
 ! D14   D(2,3,14,15)         -179.2631         estimate D2E/DX2                !
 ! D15   D(4,3,14,10)          179.3049         estimate D2E/DX2                !
 ! D16   D(4,3,14,15)            0.7381         estimate D2E/DX2                !
 ! D17   D(2,7,8,9)            179.1782         estimate D2E/DX2                !
 ! D18   D(2,7,8,10)            -0.8128         estimate D2E/DX2                !
 ! D19   D(11,7,8,9)            -0.831          estimate D2E/DX2                !
 ! D20   D(11,7,8,10)          179.178          estimate D2E/DX2                !
 ! D21   D(7,8,10,12)         -179.5141         estimate D2E/DX2                !
 ! D22   D(7,8,10,14)            0.1451         estimate D2E/DX2                !
 ! D23   D(9,8,10,12)            0.4949         estimate D2E/DX2                !
 ! D24   D(9,8,10,14)         -179.846          estimate D2E/DX2                !
 ! D25   D(8,10,12,13)           0.9933         estimate D2E/DX2                !
 ! D26   D(8,10,12,17)        -118.9523         estimate D2E/DX2                !
 ! D27   D(8,10,12,18)         121.0015         estimate D2E/DX2                !
 ! D28   D(14,10,12,13)       -178.6524         estimate D2E/DX2                !
 ! D29   D(14,10,12,17)         61.4019         estimate D2E/DX2                !
 ! D30   D(14,10,12,18)        -58.6443         estimate D2E/DX2                !
 ! D31   D(8,10,14,3)            0.6292         estimate D2E/DX2                !
 ! D32   D(8,10,14,15)         179.1989         estimate D2E/DX2                !
 ! D33   D(12,10,14,3)        -179.7096         estimate D2E/DX2                !
 ! D34   D(12,10,14,15)         -1.1399         estimate D2E/DX2                !
 --------------------------------------------------------------------------------
 Trust Radius=3.00D-01 FncErr=1.00D-07 GrdErr=1.00D-06
 Number of steps in this run=     91 maximum allowed number of steps=    108.
 GradGradGradGradGradGradGradGradGradGradGradGradGradGradGradGradGradGrad

 Leave Link  103 at Fri Aug 20 15:56:34 2021, MaxMem= 24159191040 cpu:         0.4
 (Enter /public/home/users/caep010/software/Gaussian09/g09/l202.exe)
                          Input orientation:                          
 ---------------------------------------------------------------------
 Center     Atomic      Atomic             Coordinates (Angstroms)
 Number     Number       Type             X           Y           Z
 ---------------------------------------------------------------------
      1          7           0        3.181000    2.518000    4.781500
      2          6           0        3.457700    3.763300    4.058600
      3          6           0        3.089100    3.856400    2.732200
      4          1           0        2.677200    3.145600    2.297400
      5          8           0        3.664500    2.377500    5.889400
      6          8           0        2.470100    1.683500    4.253000
      7          6           0        4.072500    4.809300    4.726300
      8          6           0        4.308800    5.982000    4.049200
      9          1           0        4.710900    6.689800    4.498200
     10          6           0        3.964200    6.142400    2.711400
     11          1           0        4.321200    4.720000    5.616800
     12          6           0        4.234800    7.422000    1.975000
     13          1           0        4.670800    8.043500    2.562000
     14          6           0        3.354600    5.048300    2.069200
     15          6           0        2.965700    5.181900    0.683700
     16          7           0        2.650300    5.312400   -0.400700
     17          1           0        3.405600    7.797600    1.671700
     18          1           0        4.801200    7.243300    1.220400
 ---------------------------------------------------------------------
                    Distance matrix (angstroms):
                    1          2          3          4          5
     1  N    0.000000
     2  C    1.466260   0.000000
     3  C    2.449365   1.379808   0.000000
     4  H    2.611216   2.023007   0.929489   0.000000
     5  O    1.216945   2.305436   3.533574   3.803578   0.000000
     6  O    1.216997   2.310566   2.723507   2.450510   2.141502
     7  C    2.459243   1.384889   2.418993   3.257962   2.726338
     8  C    3.715843   2.376361   2.782145   3.711615   4.098034
     9  H    4.452501   3.213746   3.711758   4.641208   4.650411
    10  C    4.246762   2.780577   2.447862   3.287640   4.935988
    11  H    2.616598   2.022101   3.253428   4.024908   2.448034
    12  C    5.747708   4.281514   3.820927   4.562637   6.410519
    13  H    6.138146   4.693776   4.479124   5.294703   6.647389
    14  C    3.713371   2.370563   1.389491   2.032539   4.671524
    15  C    4.892308   3.693838   2.443058   2.614150   5.954183
    16  N    5.911473   4.789255   3.482462   3.460562   7.014813
    17  H    6.131515   4.687812   4.093640   4.750071   6.872664
    18  H    6.134732   4.687299   4.085085   4.739457   6.838688
                    6          7          8          9         10
     6  O    0.000000
     7  C    3.544337   0.000000
     8  C    4.679685   1.374601   0.000000
     9  H    5.490387   1.998966   0.929659   0.000000
    10  C    4.948803   2.418410   1.390750   2.012427   0.000000
    11  H    3.808786   0.928879   2.012503   2.298531   3.254538
    12  C    6.421358   3.797656   2.526140   2.670080   1.500962
    13  H    6.939176   3.937284   2.567604   2.362833   2.033663
    14  C    4.107700   2.762731   2.388031   3.230188   1.407511
    15  C    5.022382   4.207903   3.710885   4.457566   2.455836
    16  N    5.904093   5.344333   4.795894   5.490221   3.478563
    17  H    6.702275   4.324959   3.124849   3.304562   2.032904
    18  H    6.748486   4.329745   3.136151   3.325431   2.033625
                   11         12         13         14         15
    11  H    0.000000
    12  C    4.535524   0.000000
    13  H    4.527657   0.959650   0.000000
    14  C    3.691553   2.533392   3.308543   0.000000
    15  C    5.136751   2.880298   3.824151   1.445234   0.000000
    16  N    6.273209   3.550353   4.507651   2.581897   1.136851
    17  H    5.086626   0.959499   1.566471   2.778355   2.830467
    18  H    5.091736   0.960294   1.567551   2.762451   2.811846
                   16         17         18
    16  N    0.000000
    17  H    3.322881   0.000000
    18  H    3.314017   1.567999   0.000000
 Stoichiometry    C8H6N2O2
 Framework group  C1[X(C8H6N2O2)]
 Deg. of freedom    48
 Full point group                 C1      NOp   1
 Largest Abelian subgroup         C1      NOp   1
 Largest concise Abelian subgroup C1      NOp   1
                         Standard orientation:                         
 ---------------------------------------------------------------------
 Center     Atomic      Atomic             Coordinates (Angstroms)
 Number     Number       Type             X           Y           Z
 ---------------------------------------------------------------------
      1          7           0       -2.540731    0.324289   -0.002052
      2          6           0       -1.138001   -0.102624   -0.005789
      3          6           0       -0.151188    0.861360   -0.034160
      4          1           0       -0.364164    1.765870   -0.055434
      5          8           0       -3.399603   -0.523911   -0.156483
      6          8           0       -2.790212    1.503131    0.168746
      7          6           0       -0.843891   -1.455549    0.026014
      8          6           0        0.473160   -1.848668    0.045029
      9          1           0        0.673424   -2.755900    0.078037
     10          6           0        1.516634   -0.929681    0.016554
     11          1           0       -1.525162   -2.086912    0.034231
     12          6           0        2.952711   -1.366102    0.026726
     13          1           0        2.996244   -2.324688    0.038777
     14          6           0        1.170918    0.433922   -0.029866
     15          6           0        2.227029    1.420412   -0.042861
     16          7           0        3.071250    2.181754   -0.033863
     17          1           0        3.387167   -1.017192    0.807847
     18          1           0        3.393150   -1.035663   -0.760031
 ---------------------------------------------------------------------
 Rotational constants (GHZ):      1.8882743      0.6283017      0.4733842
 Leave Link  202 at Fri Aug 20 15:56:34 2021, MaxMem= 24159191040 cpu:         1.0
 (Enter /public/home/users/caep010/software/Gaussian09/g09/l301.exe)
 Standard basis: 6-31G(d,p) (6D, 7F)
 Ernie: Thresh=  0.10000D-02 Tol=  0.10000D-05 Strict=F.
 There are   210 symmetry adapted cartesian basis functions of A   symmetry.
 There are   210 symmetry adapted basis functions of A   symmetry.
   210 basis functions,   378 primitive gaussians,   210 cartesian basis functions
    42 alpha electrons       42 beta electrons
       nuclear repulsion energy       635.0038899358 Hartrees.
 IExCor=  402 DFT=T Ex+Corr=B3LYP ExCW=0 ScaHFX=  0.200000
 ScaDFX=  0.800000  0.720000  1.000000  0.810000 ScalE2=  1.000000  1.000000
 IRadAn=      0 IRanWt=     -1 IRanGd=            0 ICorTp=0 IEmpDi=  4
 NAtoms=   18 NActive=   18 NUniq=   18 SFac= 1.00D+00 NAtFMM=   60 NAOKFM=F Big=F
 Integral buffers will be    131072 words long.
 Raffenetti 2 integral format.
 Two-electron integral symmetry is turned on.
 Leave Link  301 at Fri Aug 20 15:56:34 2021, MaxMem= 24159191040 cpu:         1.9
 (Enter /public/home/users/caep010/software/Gaussian09/g09/l302.exe)
 NPDir=0 NMtPBC=     1 NCelOv=     1 NCel=       1 NClECP=     1 NCelD=      1
         NCelK=      1 NCelE2=     1 NClLst=     1 CellRange=     0.0.
 One-electron integrals computed using PRISM.
 NBasis=   210 RedAO= T EigKep=  3.30D-04  NBF=   210
 NBsUse=   210 1.00D-06 EigRej= -1.00D+00 NBFU=   210
 Precomputing XC quadrature grid using
 IXCGrd= 4 IRadAn=           0 IRanWt=          -1 IRanGd=           0 AccXCQ= 0.00D+00.
 Generated NRdTot=       0 NPtTot=           0 NUsed=           0 NTot=          32
 NSgBfM=   209   209   209   209   209 MxSgAt=    18 MxSgA2=    18.
 Leave Link  302 at Fri Aug 20 15:56:35 2021, MaxMem= 24159191040 cpu:        12.3
 (Enter /public/home/users/caep010/software/Gaussian09/g09/l303.exe)
 DipDrv:  MaxL=1.
 Leave Link  303 at Fri Aug 20 15:56:35 2021, MaxMem= 24159191040 cpu:         1.0
 (Enter /public/home/users/caep010/software/Gaussian09/g09/l401.exe)
 ExpMin= 1.61D-01 ExpMax= 5.48D+03 ExpMxC= 8.25D+02 IAcc=1 IRadAn=         1 AccDes= 0.00D+00
 Harris functional with IExCor=  402 and IRadAn=       1 diagonalized for initial guess.
 HarFok:  IExCor=  402 AccDes= 0.00D+00 IRadAn=         1 IDoV= 1 UseB2=F ITyADJ=14
 ICtDFT=  3500011 ScaDFX=  1.000000  1.000000  1.000000  1.000000
 FoFCou: FMM=F IPFlag=           0 FMFlag=      100000 FMFlg1=           0
         NFxFlg=           0 DoJE=T BraDBF=F KetDBF=T FulRan=T
         wScrn=  0.000000 ICntrl=     500 IOpCl=  0 I1Cent=   200000004 NGrid=           0
         NMat0=    1 NMatS0=      1 NMatT0=    0 NMatD0=    1 NMtDS0=    0 NMtDT0=    0
 Petite list used in FoFCou.
 Harris En= -568.316872233728    
 JPrj=0 DoOrth=F DoCkMO=F.
 Leave Link  401 at Fri Aug 20 15:56:35 2021, MaxMem= 24159191040 cpu:        12.0
 (Enter /public/home/users/caep010/software/Gaussian09/g09/l502.exe)
 Closed shell SCF:
 Using DIIS extrapolation, IDIIS=  1040.
 Integral symmetry usage will be decided dynamically.
 Keep R1 ints in memory in canonical form, NReq=250289092.
 IVT=      159142 IEndB=      159142 NGot= 24159191040 MDV= 23913598809
 LenX= 23913598809 LenY= 23913554268
 Requested convergence on RMS density matrix=1.00D-08 within 128 cycles.
 Requested convergence on MAX density matrix=1.00D-06.
 Requested convergence on             energy=1.00D-06.
 No special actions if energy rises.
 FoFCou: FMM=F IPFlag=           0 FMFlag=           0 FMFlg1=           0
         NFxFlg=           0 DoJE=F BraDBF=F KetDBF=F FulRan=T
         wScrn=  0.000000 ICntrl=     600 IOpCl=  0 I1Cent=           0 NGrid=           0
         NMat0=    1 NMatS0=  22155 NMatT0=    0 NMatD0=    1 NMtDS0=    0 NMtDT0=    0
 Symmetry not used in FoFCou.
 Integral accuracy reduced to 1.0D-05 until final iterations.

 Cycle   1  Pass 0  IDiag  1:
 E= -567.819568187884    
 DIIS: error= 4.97D-02 at cycle   1 NSaved=   1.
 NSaved= 1 IEnMin= 1 EnMin= -567.819568187884     IErMin= 1 ErrMin= 4.97D-02
 ErrMax= 4.97D-02  0.00D+00 EMaxC= 1.00D-01 BMatC= 4.51D-01 BMatP= 4.51D-01
 IDIUse=3 WtCom= 5.03D-01 WtEn= 4.97D-01
 Coeff-Com:  0.100D+01
 Coeff-En:   0.100D+01
 Coeff:      0.100D+01
 Gap=     0.210 Goal=   None    Shift=    0.000
 GapD=    0.210 DampG=1.000 DampE=0.500 DampFc=0.5000 IDamp=-1.
 Damping current iteration by 5.00D-01
 RMSDP=6.99D-03 MaxDP=2.52D-01              OVMax= 3.42D-01

 Cycle   2  Pass 0  IDiag  1:
 E= -567.927502865601     Delta-E=       -0.107934677716 Rises=F Damp=T
 DIIS: error= 1.75D-02 at cycle   2 NSaved=   2.
 NSaved= 2 IEnMin= 2 EnMin= -567.927502865601     IErMin= 2 ErrMin= 1.75D-02
 ErrMax= 1.75D-02  0.00D+00 EMaxC= 1.00D-01 BMatC= 7.79D-02 BMatP= 4.51D-01
 IDIUse=3 WtCom= 8.25D-01 WtEn= 1.75D-01
 Coeff-Com:  0.234D+00 0.766D+00
 Coeff-En:   0.342D+00 0.658D+00
 Coeff:      0.253D+00 0.747D+00
 Gap=     0.185 Goal=   None    Shift=    0.000
 RMSDP=2.25D-03 MaxDP=7.59D-02 DE=-1.08D-01 OVMax= 2.47D-01

 Cycle   3  Pass 0  IDiag  1:
 E= -568.172382361069     Delta-E=       -0.244879495468 Rises=F Damp=F
 DIIS: error= 1.42D-02 at cycle   3 NSaved=   3.
 NSaved= 3 IEnMin= 3 EnMin= -568.172382361069     IErMin= 3 ErrMin= 1.42D-02
 ErrMax= 1.42D-02  0.00D+00 EMaxC= 1.00D-01 BMatC= 3.66D-02 BMatP= 7.79D-02
 IDIUse=3 WtCom= 8.58D-01 WtEn= 1.42D-01
 Coeff-Com:  0.696D-01 0.402D+00 0.528D+00
 Coeff-En:   0.000D+00 0.000D+00 0.100D+01
 Coeff:      0.598D-01 0.345D+00 0.595D+00
 Gap=     0.195 Goal=   None    Shift=    0.000
 RMSDP=1.33D-03 MaxDP=3.99D-02 DE=-2.45D-01 OVMax= 7.79D-02

 Cycle   4  Pass 0  IDiag  1:
 E= -568.192887115271     Delta-E=       -0.020504754202 Rises=F Damp=F
 DIIS: error= 1.07D-02 at cycle   4 NSaved=   4.
 NSaved= 4 IEnMin= 4 EnMin= -568.192887115271     IErMin= 4 ErrMin= 1.07D-02
 ErrMax= 1.07D-02  0.00D+00 EMaxC= 1.00D-01 BMatC= 1.53D-02 BMatP= 3.66D-02
 IDIUse=3 WtCom= 8.93D-01 WtEn= 1.07D-01
 Coeff-Com:  0.314D-01 0.141D+00 0.394D+00 0.433D+00
 Coeff-En:   0.000D+00 0.000D+00 0.317D+00 0.683D+00
 Coeff:      0.281D-01 0.126D+00 0.386D+00 0.460D+00
 Gap=     0.193 Goal=   None    Shift=    0.000
 RMSDP=7.29D-04 MaxDP=3.56D-02 DE=-2.05D-02 OVMax= 4.65D-02

 Cycle   5  Pass 0  IDiag  1:
 E= -568.204942072374     Delta-E=       -0.012054957103 Rises=F Damp=F
 DIIS: error= 3.56D-03 at cycle   5 NSaved=   5.
 NSaved= 5 IEnMin= 5 EnMin= -568.204942072374     IErMin= 5 ErrMin= 3.56D-03
 ErrMax= 3.56D-03  0.00D+00 EMaxC= 1.00D-01 BMatC= 2.32D-03 BMatP= 1.53D-02
 IDIUse=3 WtCom= 9.64D-01 WtEn= 3.56D-02
 Coeff-Com:  0.106D-01 0.191D-01 0.183D+00 0.335D+00 0.453D+00
 Coeff-En:   0.000D+00 0.000D+00 0.000D+00 0.118D+00 0.882D+00
 Coeff:      0.102D-01 0.184D-01 0.176D+00 0.327D+00 0.468D+00
 Gap=     0.190 Goal=   None    Shift=    0.000
 RMSDP=2.41D-04 MaxDP=1.00D-02 DE=-1.21D-02 OVMax= 1.23D-02

 Cycle   6  Pass 0  IDiag  1:
 E= -568.206637373032     Delta-E=       -0.001695300657 Rises=F Damp=F
 DIIS: error= 1.75D-03 at cycle   6 NSaved=   6.
 NSaved= 6 IEnMin= 6 EnMin= -568.206637373032     IErMin= 6 ErrMin= 1.75D-03
 ErrMax= 1.75D-03  0.00D+00 EMaxC= 1.00D-01 BMatC= 2.32D-04 BMatP= 2.32D-03
 IDIUse=3 WtCom= 9.82D-01 WtEn= 1.75D-02
 Coeff-Com:  0.394D-02-0.474D-03 0.803D-01 0.173D+00 0.312D+00 0.432D+00
 Coeff-En:   0.000D+00 0.000D+00 0.000D+00 0.000D+00 0.762D-01 0.924D+00
 Coeff:      0.387D-02-0.466D-03 0.789D-01 0.170D+00 0.308D+00 0.440D+00
 Gap=     0.190 Goal=   None    Shift=    0.000
 RMSDP=8.43D-05 MaxDP=4.46D-03 DE=-1.70D-03 OVMax= 6.93D-03

 Cycle   7  Pass 0  IDiag  1:
 E= -568.206799313959     Delta-E=       -0.000161940927 Rises=F Damp=F
 DIIS: error= 9.26D-04 at cycle   7 NSaved=   7.
 NSaved= 7 IEnMin= 7 EnMin= -568.206799313959     IErMin= 7 ErrMin= 9.26D-04
 ErrMax= 9.26D-04  0.00D+00 EMaxC= 1.00D-01 BMatC= 4.53D-05 BMatP= 2.32D-04
 IDIUse=3 WtCom= 9.91D-01 WtEn= 9.26D-03
 Coeff-Com:  0.150D-02-0.296D-02 0.340D-01 0.807D-01 0.165D+00 0.330D+00
 Coeff-Com:  0.392D+00
 Coeff-En:   0.000D+00 0.000D+00 0.000D+00 0.000D+00 0.000D+00 0.176D+00
 Coeff-En:   0.824D+00
 Coeff:      0.148D-02-0.293D-02 0.336D-01 0.799D-01 0.164D+00 0.328D+00
 Coeff:      0.396D+00
 Gap=     0.190 Goal=   None    Shift=    0.000
 RMSDP=3.21D-05 MaxDP=1.85D-03 DE=-1.62D-04 OVMax= 3.07D-03

 Cycle   8  Pass 0  IDiag  1:
 E= -568.206833036693     Delta-E=       -0.000033722735 Rises=F Damp=F
 DIIS: error= 1.99D-04 at cycle   8 NSaved=   8.
 NSaved= 8 IEnMin= 8 EnMin= -568.206833036693     IErMin= 8 ErrMin= 1.99D-04
 ErrMax= 1.99D-04  0.00D+00 EMaxC= 1.00D-01 BMatC= 3.83D-06 BMatP= 4.53D-05
 IDIUse=3 WtCom= 9.98D-01 WtEn= 1.99D-03
 Coeff-Com:  0.471D-03-0.180D-02 0.116D-01 0.299D-01 0.655D-01 0.159D+00
 Coeff-Com:  0.270D+00 0.466D+00
 Coeff-En:   0.000D+00 0.000D+00 0.000D+00 0.000D+00 0.000D+00 0.000D+00
 Coeff-En:   0.666D-01 0.933D+00
 Coeff:      0.470D-03-0.179D-02 0.116D-01 0.298D-01 0.653D-01 0.158D+00
 Coeff:      0.269D+00 0.467D+00
 Gap=     0.190 Goal=   None    Shift=    0.000
 RMSDP=1.08D-05 MaxDP=3.70D-04 DE=-3.37D-05 OVMax= 6.13D-04

 Cycle   9  Pass 0  IDiag  1:
 E= -568.206836129982     Delta-E=       -0.000003093288 Rises=F Damp=F
 DIIS: error= 3.69D-05 at cycle   9 NSaved=   9.
 NSaved= 9 IEnMin= 9 EnMin= -568.206836129982     IErMin= 9 ErrMin= 3.69D-05
 ErrMax= 3.69D-05  0.00D+00 EMaxC= 1.00D-01 BMatC= 2.96D-07 BMatP= 3.83D-06
 IDIUse=1 WtCom= 1.00D+00 WtEn= 0.00D+00
 Coeff-Com:  0.111D-03-0.797D-03 0.299D-02 0.877D-02 0.201D-01 0.559D-01
 Coeff-Com:  0.116D+00 0.282D+00 0.515D+00
 Coeff:      0.111D-03-0.797D-03 0.299D-02 0.877D-02 0.201D-01 0.559D-01
 Coeff:      0.116D+00 0.282D+00 0.515D+00
 Gap=     0.190 Goal=   None    Shift=    0.000
 RMSDP=3.45D-06 MaxDP=1.15D-04 DE=-3.09D-06 OVMax= 2.55D-04

 Initial convergence to 1.0D-05 achieved.  Increase integral accuracy.
 Cycle  10  Pass 1  IDiag  1:
 E= -568.206803419666     Delta-E=        0.000032710315 Rises=F Damp=F
 DIIS: error= 2.25D-05 at cycle   1 NSaved=   1.
 NSaved= 1 IEnMin= 1 EnMin= -568.206803419666     IErMin= 1 ErrMin= 2.25D-05
 ErrMax= 2.25D-05  0.00D+00 EMaxC= 1.00D-01 BMatC= 7.40D-08 BMatP= 7.40D-08
 IDIUse=1 WtCom= 1.00D+00 WtEn= 0.00D+00
 Coeff-Com:  0.100D+01
 Coeff:      0.100D+01
 Gap=     0.190 Goal=   None    Shift=    0.000
 RMSDP=3.45D-06 MaxDP=1.15D-04 DE= 3.27D-05 OVMax= 1.56D-04

 Cycle  11  Pass 1  IDiag  1:
 E= -568.206803449871     Delta-E=       -0.000000030205 Rises=F Damp=F
 DIIS: error= 1.58D-05 at cycle   2 NSaved=   2.
 NSaved= 2 IEnMin= 2 EnMin= -568.206803449871     IErMin= 2 ErrMin= 1.58D-05
 ErrMax= 1.58D-05  0.00D+00 EMaxC= 1.00D-01 BMatC= 5.04D-08 BMatP= 7.40D-08
 IDIUse=1 WtCom= 1.00D+00 WtEn= 0.00D+00
 Coeff-Com:  0.434D+00 0.566D+00
 Coeff:      0.434D+00 0.566D+00
 Gap=     0.190 Goal=   None    Shift=    0.000
 RMSDP=1.95D-06 MaxDP=7.93D-05 DE=-3.02D-08 OVMax= 1.60D-04

 Cycle  12  Pass 1  IDiag  1:
 E= -568.206803481751     Delta-E=       -0.000000031880 Rises=F Damp=F
 DIIS: error= 9.62D-06 at cycle   3 NSaved=   3.
 NSaved= 3 IEnMin= 3 EnMin= -568.206803481751     IErMin= 3 ErrMin= 9.62D-06
 ErrMax= 9.62D-06  0.00D+00 EMaxC= 1.00D-01 BMatC= 2.14D-08 BMatP= 5.04D-08
 IDIUse=1 WtCom= 1.00D+00 WtEn= 0.00D+00
 Coeff-Com:  0.283D-01 0.389D+00 0.583D+00
 Coeff:      0.283D-01 0.389D+00 0.583D+00
 Gap=     0.190 Goal=   None    Shift=    0.000
 RMSDP=9.04D-07 MaxDP=2.96D-05 DE=-3.19D-08 OVMax= 6.60D-05

 Cycle  13  Pass 1  IDiag  1:
 E= -568.206803502389     Delta-E=       -0.000000020638 Rises=F Damp=F
 DIIS: error= 4.33D-06 at cycle   4 NSaved=   4.
 NSaved= 4 IEnMin= 4 EnMin= -568.206803502389     IErMin= 4 ErrMin= 4.33D-06
 ErrMax= 4.33D-06  0.00D+00 EMaxC= 1.00D-01 BMatC= 2.99D-09 BMatP= 2.14D-08
 IDIUse=1 WtCom= 1.00D+00 WtEn= 0.00D+00
 Coeff-Com: -0.142D-01 0.221D+00 0.387D+00 0.407D+00
 Coeff:     -0.142D-01 0.221D+00 0.387D+00 0.407D+00
 Gap=     0.190 Goal=   None    Shift=    0.000
 RMSDP=2.77D-07 MaxDP=9.26D-06 DE=-2.06D-08 OVMax= 1.39D-05

 Cycle  14  Pass 1  IDiag  1:
 E= -568.206803504823     Delta-E=       -0.000000002433 Rises=F Damp=F
 DIIS: error= 1.12D-06 at cycle   5 NSaved=   5.
 NSaved= 5 IEnMin= 5 EnMin= -568.206803504823     IErMin= 5 ErrMin= 1.12D-06
 ErrMax= 1.12D-06  0.00D+00 EMaxC= 1.00D-01 BMatC= 1.74D-10 BMatP= 2.99D-09
 IDIUse=1 WtCom= 1.00D+00 WtEn= 0.00D+00
 Coeff-Com: -0.998D-02 0.115D+00 0.205D+00 0.260D+00 0.430D+00
 Coeff:     -0.998D-02 0.115D+00 0.205D+00 0.260D+00 0.430D+00
 Gap=     0.190 Goal=   None    Shift=    0.000
 RMSDP=7.68D-08 MaxDP=3.13D-06 DE=-2.43D-09 OVMax= 4.12D-06

 Cycle  15  Pass 1  IDiag  1:
 E= -568.206803504959     Delta-E=       -0.000000000137 Rises=F Damp=F
 DIIS: error= 4.20D-07 at cycle   6 NSaved=   6.
 NSaved= 6 IEnMin= 6 EnMin= -568.206803504959     IErMin= 6 ErrMin= 4.20D-07
 ErrMax= 4.20D-07  0.00D+00 EMaxC= 1.00D-01 BMatC= 2.41D-11 BMatP= 1.74D-10
 IDIUse=1 WtCom= 1.00D+00 WtEn= 0.00D+00
 Coeff-Com: -0.446D-02 0.420D-01 0.748D-01 0.110D+00 0.289D+00 0.489D+00
 Coeff:     -0.446D-02 0.420D-01 0.748D-01 0.110D+00 0.289D+00 0.489D+00
 Gap=     0.190 Goal=   None    Shift=    0.000
 RMSDP=2.76D-08 MaxDP=1.26D-06 DE=-1.37D-10 OVMax= 1.68D-06

 Cycle  16  Pass 1  IDiag  1:
 E= -568.206803504952     Delta-E=        0.000000000007 Rises=F Damp=F
 DIIS: error= 2.42D-07 at cycle   7 NSaved=   7.
 NSaved= 7 IEnMin= 6 EnMin= -568.206803504959     IErMin= 7 ErrMin= 2.42D-07
 ErrMax= 2.42D-07  0.00D+00 EMaxC= 1.00D-01 BMatC= 3.47D-12 BMatP= 2.41D-11
 IDIUse=1 WtCom= 1.00D+00 WtEn= 0.00D+00
 Coeff-Com: -0.168D-02 0.145D-01 0.250D-01 0.422D-01 0.141D+00 0.325D+00
 Coeff-Com:  0.454D+00
 Coeff:     -0.168D-02 0.145D-01 0.250D-01 0.422D-01 0.141D+00 0.325D+00
 Coeff:      0.454D+00
 Gap=     0.190 Goal=   None    Shift=    0.000
 RMSDP=1.02D-08 MaxDP=5.53D-07 DE= 6.82D-12 OVMax= 9.92D-07

 Cycle  17  Pass 1  IDiag  1:
 E= -568.206803504974     Delta-E=       -0.000000000022 Rises=F Damp=F
 DIIS: error= 1.21D-07 at cycle   8 NSaved=   8.
 NSaved= 8 IEnMin= 8 EnMin= -568.206803504974     IErMin= 8 ErrMin= 1.21D-07
 ErrMax= 1.21D-07  0.00D+00 EMaxC= 1.00D-01 BMatC= 9.17D-13 BMatP= 3.47D-12
 IDIUse=1 WtCom= 1.00D+00 WtEn= 0.00D+00
 Coeff-Com: -0.410D-03 0.246D-02 0.354D-02 0.876D-02 0.445D-01 0.134D+00
 Coeff-Com:  0.353D+00 0.454D+00
 Coeff:     -0.410D-03 0.246D-02 0.354D-02 0.876D-02 0.445D-01 0.134D+00
 Coeff:      0.353D+00 0.454D+00
 Gap=     0.190 Goal=   None    Shift=    0.000
 RMSDP=4.87D-09 MaxDP=1.94D-07 DE=-2.18D-11 OVMax= 3.43D-07

 SCF Done:  E(RB3LYP) =  -568.206803505     A.U. after   17 cycles
            NFock= 17  Conv=0.49D-08     -V/T= 2.0057
 KE= 5.649589018755D+02 PE=-2.593822400353D+03 EE= 8.256528050365D+02
 Leave Link  502 at Fri Aug 20 15:56:45 2021, MaxMem= 24159191040 cpu:       114.8
 (Enter /public/home/users/caep010/software/Gaussian09/g09/l601.exe)
 Copying SCF densities to generalized density rwf, IOpCl= 0 IROHF=0.

 **********************************************************************

            Population analysis using the SCF density.

 **********************************************************************

 Orbital symmetries:
       Occupied  (A) (A) (A) (A) (A) (A) (A) (A) (A) (A) (A) (A)
                 (A) (A) (A) (A) (A) (A) (A) (A) (A) (A) (A) (A)
                 (A) (A) (A) (A) (A) (A) (A) (A) (A) (A) (A) (A)
                 (A) (A) (A) (A) (A) (A)
       Virtual   (A) (A) (A) (A) (A) (A) (A) (A) (A) (A) (A) (A)
                 (A) (A) (A) (A) (A) (A) (A) (A) (A) (A) (A) (A)
                 (A) (A) (A) (A) (A) (A) (A) (A) (A) (A) (A) (A)
                 (A) (A) (A) (A) (A) (A) (A) (A) (A) (A) (A) (A)
                 (A) (A) (A) (A) (A) (A) (A) (A) (A) (A) (A) (A)
                 (A) (A) (A) (A) (A) (A) (A) (A) (A) (A) (A) (A)
                 (A) (A) (A) (A) (A) (A) (A) (A) (A) (A) (A) (A)
                 (A) (A) (A) (A) (A) (A) (A) (A) (A) (A) (A) (A)
                 (A) (A) (A) (A) (A) (A) (A) (A) (A) (A) (A) (A)
                 (A) (A) (A) (A) (A) (A) (A) (A) (A) (A) (A) (A)
                 (A) (A) (A) (A) (A) (A) (A) (A) (A) (A) (A) (A)
                 (A) (A) (A) (A) (A) (A) (A) (A) (A) (A) (A) (A)
                 (A) (A) (A) (A) (A) (A) (A) (A) (A) (A) (A) (A)
                 (A) (A) (A) (A) (A) (A) (A) (A) (A) (A) (A) (A)
 The electronic state is 1-A.
 Alpha  occ. eigenvalues --  -19.19041 -19.19025 -14.58462 -14.34776 -10.26987
 Alpha  occ. eigenvalues --  -10.26120 -10.25044 -10.23969 -10.23209 -10.22525
 Alpha  occ. eigenvalues --  -10.21657 -10.17706  -1.24843  -1.06894  -0.93773
 Alpha  occ. eigenvalues --   -0.91845  -0.85283  -0.82129  -0.78358  -0.70711
 Alpha  occ. eigenvalues --   -0.69346  -0.64840  -0.57906  -0.55136  -0.54833
 Alpha  occ. eigenvalues --   -0.53649  -0.51740  -0.50896  -0.49810  -0.48424
 Alpha  occ. eigenvalues --   -0.45267  -0.41957  -0.41335  -0.41129  -0.37330
 Alpha  occ. eigenvalues --   -0.37270  -0.35576  -0.32142  -0.32090  -0.30365
 Alpha  occ. eigenvalues --   -0.29781  -0.28942
 Alpha virt. eigenvalues --   -0.09955  -0.06872  -0.01783   0.02818   0.07101
 Alpha virt. eigenvalues --    0.09083   0.12490   0.14081   0.14894   0.16395
 Alpha virt. eigenvalues --    0.17542   0.19213   0.19449   0.20693   0.21760
 Alpha virt. eigenvalues --    0.26742   0.28192   0.29033   0.29991   0.32784
 Alpha virt. eigenvalues --    0.37899   0.43221   0.43723   0.45576   0.46603
 Alpha virt. eigenvalues --    0.48880   0.49209   0.50964   0.52369   0.53333
 Alpha virt. eigenvalues --    0.55066   0.58114   0.58222   0.58564   0.60853
 Alpha virt. eigenvalues --    0.62270   0.63736   0.64021   0.65851   0.68451
 Alpha virt. eigenvalues --    0.69169   0.72350   0.74679   0.74827   0.76260
 Alpha virt. eigenvalues --    0.77731   0.80025   0.82838   0.84201   0.86077
 Alpha virt. eigenvalues --    0.87381   0.89866   0.91088   0.91697   0.92770
 Alpha virt. eigenvalues --    0.93962   0.95571   0.97047   0.97381   0.98346
 Alpha virt. eigenvalues --    1.00651   1.05073   1.05739   1.06910   1.11182
 Alpha virt. eigenvalues --    1.15482   1.16410   1.18825   1.19304   1.20580
 Alpha virt. eigenvalues --    1.23881   1.25946   1.29899   1.31756   1.34152
 Alpha virt. eigenvalues --    1.34302   1.36250   1.39491   1.42561   1.45639
 Alpha virt. eigenvalues --    1.50545   1.50635   1.53622   1.58648   1.60613
 Alpha virt. eigenvalues --    1.65680   1.68227   1.68886   1.71159   1.75654
 Alpha virt. eigenvalues --    1.76469   1.77797   1.79266   1.80403   1.81395
 Alpha virt. eigenvalues --    1.84031   1.87905   1.90056   1.92580   1.93443
 Alpha virt. eigenvalues --    1.94691   1.97078   1.98580   1.98783   2.01081
 Alpha virt. eigenvalues --    2.05005   2.07795   2.08631   2.09447   2.10696
 Alpha virt. eigenvalues --    2.12087   2.14446   2.16494   2.20312   2.22514
 Alpha virt. eigenvalues --    2.25652   2.27193   2.27740   2.38730   2.40352
 Alpha virt. eigenvalues --    2.45100   2.47526   2.49958   2.51073   2.52209
 Alpha virt. eigenvalues --    2.53122   2.56911   2.60350   2.62801   2.66407
 Alpha virt. eigenvalues --    2.67551   2.70436   2.74564   2.76250   2.78417
 Alpha virt. eigenvalues --    2.82320   2.83508   2.85011   2.87353   2.88335
 Alpha virt. eigenvalues --    2.89667   2.97927   3.04886   3.08762   3.11770
 Alpha virt. eigenvalues --    3.23040   3.24895   3.29175   3.39319   3.53975
 Alpha virt. eigenvalues --    3.66265   3.73443   3.74503   3.74572   3.77195
 Alpha virt. eigenvalues --    3.84734   3.91837   3.99597   4.03068   4.09389
 Alpha virt. eigenvalues --    4.10594   4.13207   4.20919   4.32552   4.35783
 Alpha virt. eigenvalues --    4.49729   4.56439   4.91779
          Condensed to atoms (all electrons):
               1          2          3          4          5          6
     1  N    5.962272   0.151491  -0.037288  -0.014305   0.302074   0.300851
     2  C    0.151491   5.011730   0.443657  -0.042315  -0.096624  -0.095872
     3  C   -0.037288   0.443657   4.985546   0.374690   0.007402   0.000057
     4  H   -0.014305  -0.042315   0.374690   0.591005   0.000309   0.021216
     5  O    0.302074  -0.096624   0.007402   0.000309   8.272580  -0.113923
     6  O    0.300851  -0.095872   0.000057   0.021216  -0.113923   8.270444
     7  C   -0.041388   0.478766  -0.081908   0.008491  -0.000906   0.007217
     8  C    0.003941   0.007247  -0.069166  -0.000593   0.001094  -0.000047
     9  H   -0.000157   0.005709   0.001361   0.000038   0.000000   0.000001
    10  C    0.000657  -0.051777  -0.027059   0.007371  -0.000015   0.000004
    11  H   -0.015321  -0.043073   0.008958  -0.000243   0.021049   0.000279
    12  C    0.000003  -0.000209   0.008134  -0.000119   0.000000   0.000000
    13  H   -0.000000   0.000015  -0.000261   0.000002   0.000000   0.000000
    14  C    0.003428   0.006052   0.436249  -0.041774  -0.000034   0.001271
    15  C   -0.000173   0.004410  -0.053121  -0.008951   0.000000  -0.000014
    16  N   -0.000000  -0.000189  -0.000310   0.000984  -0.000000   0.000000
    17  H    0.000000   0.000064  -0.000222  -0.000005  -0.000000  -0.000000
    18  H    0.000000   0.000060  -0.000211  -0.000004  -0.000000   0.000000
               7          8          9         10         11         12
     1  N   -0.041388   0.003941  -0.000157   0.000657  -0.015321   0.000003
     2  C    0.478766   0.007247   0.005709  -0.051777  -0.043073  -0.000209
     3  C   -0.081908  -0.069166   0.001361  -0.027059   0.008958   0.008134
     4  H    0.008491  -0.000593   0.000038   0.007371  -0.000243  -0.000119
     5  O   -0.000906   0.001094   0.000000  -0.000015   0.021049   0.000000
     6  O    0.007217  -0.000047   0.000001   0.000004   0.000279   0.000000
     7  C    4.913901   0.458262  -0.050609  -0.021264   0.374858   0.008399
     8  C    0.458262   4.888376   0.381558   0.516465  -0.042813  -0.064475
     9  H   -0.050609   0.381558   0.644989  -0.047152  -0.009282  -0.012459
    10  C   -0.021264   0.516465  -0.047152   4.752233   0.006664   0.405738
    11  H    0.374858  -0.042813  -0.009282   0.006664   0.603855  -0.000189
    12  C    0.008399  -0.064475  -0.012459   0.405738  -0.000189   4.895746
    13  H   -0.000054  -0.007867   0.006224  -0.021743  -0.000006   0.384866
    14  C   -0.052410   0.007440   0.008692   0.487462   0.000149  -0.069034
    15  C    0.001024   0.007757  -0.000316  -0.055882   0.000015  -0.016845
    16  N    0.000020  -0.000149  -0.000001  -0.002235  -0.000000  -0.000367
    17  H   -0.000328   0.002120   0.000226  -0.020649   0.000003   0.392846
    18  H   -0.000312   0.002122   0.000180  -0.021305   0.000003   0.394199
              13         14         15         16         17         18
     1  N   -0.000000   0.003428  -0.000173  -0.000000   0.000000   0.000000
     2  C    0.000015   0.006052   0.004410  -0.000189   0.000064   0.000060
     3  C   -0.000261   0.436249  -0.053121  -0.000310  -0.000222  -0.000211
     4  H    0.000002  -0.041774  -0.008951   0.000984  -0.000005  -0.000004
     5  O    0.000000  -0.000034   0.000000  -0.000000  -0.000000  -0.000000
     6  O    0.000000   0.001271  -0.000014   0.000000  -0.000000   0.000000
     7  C   -0.000054  -0.052410   0.001024   0.000020  -0.000328  -0.000312
     8  C   -0.007867   0.007440   0.007757  -0.000149   0.002120   0.002122
     9  H    0.006224   0.008692  -0.000316  -0.000001   0.000226   0.000180
    10  C   -0.021743   0.487462  -0.055882  -0.002235  -0.020649  -0.021305
    11  H   -0.000006   0.000149   0.000015  -0.000000   0.000003   0.000003
    12  C    0.384866  -0.069034  -0.016845  -0.000367   0.392846   0.394199
    13  H    0.574738   0.006399   0.000889   0.000100  -0.030430  -0.030411
    14  C    0.006399   5.063227   0.211797  -0.092878  -0.007006  -0.006951
    15  C    0.000889   0.211797   4.772518   0.896435   0.004682   0.004585
    16  N    0.000100  -0.092878   0.896435   6.656422   0.000418   0.000349
    17  H   -0.030430  -0.007006   0.004682   0.000418   0.535473  -0.029918
    18  H   -0.030411  -0.006951   0.004585   0.000349  -0.029918   0.535674
 Mulliken charges:
               1
     1  N    0.383915
     2  C    0.220857
     3  C    0.003492
     4  H    0.104202
     5  O   -0.393007
     6  O   -0.391484
     7  C   -0.001759
     8  C   -0.091272
     9  H    0.070997
    10  C    0.092487
    11  H    0.095094
    12  C   -0.326235
    13  H    0.117538
    14  C    0.037920
    15  C    0.231190
    16  N   -0.458599
    17  H    0.152726
    18  H    0.151938
 Sum of Mulliken charges =  -0.00000
 Mulliken charges with hydrogens summed into heavy atoms:
               1
     1  N    0.383915
     2  C    0.220857
     3  C    0.107695
     5  O   -0.393007
     6  O   -0.391484
     7  C    0.093335
     8  C   -0.020275
    10  C    0.092487
    12  C    0.095967
    14  C    0.037920
    15  C    0.231190
    16  N   -0.458599
 Electronic spatial extent (au):  <R**2>=           2178.8173
 Charge=             -0.0000 electrons
 Dipole moment (field-independent basis, Debye):
    X=              2.0094    Y=             -4.4083    Z=              0.0242  Tot=              4.8447
 Quadrupole moment (field-independent basis, Debye-Ang):
   XX=            -85.1356   YY=            -68.4466   ZZ=            -65.9316
   XY=             -8.8512   XZ=              0.0152   YZ=             -0.8162
 Traceless Quadrupole moment (field-independent basis, Debye-Ang):
   XX=            -11.9643   YY=              4.7246   ZZ=              7.2397
   XY=             -8.8512   XZ=              0.0152   YZ=             -0.8162
 Octapole moment (field-independent basis, Debye-Ang**2):
  XXX=              5.4629  YYY=            -30.4500  ZZZ=              0.1081  XYY=            -19.8672
  XXY=            -44.6431  XXZ=              1.5764  XZZ=             -9.2903  YZZ=              2.0415
  YYZ=             -0.0611  XYZ=              2.1021
 Hexadecapole moment (field-independent basis, Debye-Ang**3):
 XXXX=          -2213.0452 YYYY=           -732.8544 ZZZZ=            -67.1317 XXXY=           -136.1920
 XXXZ=             -2.3013 YYYX=            -67.6949 YYYZ=             -0.9211 ZZZX=              0.4434
 ZZZY=              1.1820 XXYY=           -534.9896 XXZZ=           -320.7180 YYZZ=           -135.5562
 XXYZ=             -4.2185 YYXZ=              2.5976 ZZXY=             -6.5452
 N-N= 6.350038899358D+02 E-N=-2.593822405907D+03  KE= 5.649589018755D+02
 No NMR shielding tensors so no spin-rotation constants.
 Leave Link  601 at Fri Aug 20 15:56:46 2021, MaxMem= 24159191040 cpu:        10.9
 (Enter /public/home/users/caep010/software/Gaussian09/g09/l701.exe)
 Compute integral first derivatives.
 ... and contract with generalized density number  0.
 Leave Link  701 at Fri Aug 20 15:56:46 2021, MaxMem= 24159191040 cpu:        10.6
 (Enter /public/home/users/caep010/software/Gaussian09/g09/l702.exe)
 L702 exits ... SP integral derivatives will be done elsewhere.
 Leave Link  702 at Fri Aug 20 15:56:46 2021, MaxMem= 24159191040 cpu:         0.5
 (Enter /public/home/users/caep010/software/Gaussian09/g09/l703.exe)
 Compute integral first derivatives, UseDBF=F ICtDFT=           0.
 Integral derivatives from FoFJK, PRISM(SPDF).
 Calling FoFJK, ICntrl=      2127 FMM=F ISym2X=0 I1Cent= 0 IOpClX= 0 NMat=1 NMatS=1 NMatT=0.
 FoFJK:  IHMeth= 1 ICntrl=    2127 DoSepK=F KAlg= 0 I1Cent=   0 FoldK=F
 IRaf=         0 NMat=   1 IRICut=       1 DoRegI=T DoRafI=F ISym2E= 0.
 FoFCou: FMM=F IPFlag=           0 FMFlag=      100000 FMFlg1=         800
         NFxFlg=           0 DoJE=F BraDBF=F KetDBF=F FulRan=T
         wScrn=  0.000000 ICntrl=    2127 IOpCl=  0 I1Cent=           0 NGrid=           0
         NMat0=    1 NMatS0=      1 NMatT0=    0 NMatD0=    1 NMtDS0=    0 NMtDT0=    0
 Symmetry not used in FoFCou.
 Leave Link  703 at Fri Aug 20 15:56:47 2021, MaxMem= 24159191040 cpu:        22.4
 (Enter /public/home/users/caep010/software/Gaussian09/g09/l716.exe)
 Dipole        = 7.90541631D-01-1.73434915D+00 9.53131664D-03
 ***** Axes restored to original set *****
 -------------------------------------------------------------------
 Center     Atomic                   Forces (Hartrees/Bohr)
 Number     Number              X              Y              Z
 -------------------------------------------------------------------
      1        7          -0.000267210    0.003184978   -0.000544208
      2        6          -0.000259528   -0.003851590    0.002565445
      3        6           0.070428570    0.121691896    0.075454759
      4        1          -0.075524440   -0.130115928   -0.078740434
      5        8           0.012678572    0.005451913    0.019783129
      6        8          -0.012311175   -0.009704776   -0.017779492
      7        6          -0.044331320    0.006522602   -0.149346161
      8        6          -0.067126988   -0.112368356   -0.082467869
      9        1           0.074294252    0.130074585    0.082591817
     10        6          -0.001847423   -0.006184392   -0.001374935
     11        1           0.044715016   -0.018236236    0.164325425
     12        6          -0.020294376   -0.105953515    0.065166438
     13        1           0.058640505    0.084340526    0.077992171
     14        6          -0.002858618    0.007049038   -0.014427732
     15        6           0.018847580   -0.009030269    0.067818753
     16        7          -0.017958987    0.007552549   -0.064044316
     17        1          -0.111766550    0.051898898   -0.043736671
     18        1           0.074942120   -0.022321922   -0.103236118
 -------------------------------------------------------------------
 Cartesian Forces:  Max     0.164325425 RMS     0.066462223
 Leave Link  716 at Fri Aug 20 15:56:47 2021, MaxMem= 24159191040 cpu:         0.7
 (Enter /public/home/users/caep010/software/Gaussian09/g09/l103.exe)

 GradGradGradGradGradGradGradGradGradGradGradGradGradGradGradGradGradGrad
 Berny optimization.
 FormGI is forming the generalized inverse of G from B-inverse, IUseBI=4.
 Internal  Forces:  Max     0.171261061 RMS     0.042255395
 Search for a local minimum.
 Step number   1 out of a maximum of   91
 All quantities printed in internal units (Hartrees-Bohrs-Radians)
 RMS Force = .42255D-01 SwitMx=.10000D-02 MixMth= 1
 Mixed Optimization -- RFO/linear search
 Second derivative matrix not updated -- first step.
 ITU=  0
     Eigenvalues ---    0.00753   0.00815   0.00817   0.01546   0.01878
     Eigenvalues ---    0.02091   0.02131   0.02284   0.02293   0.02311
     Eigenvalues ---    0.02336   0.02367   0.05173   0.05173   0.07527
     Eigenvalues ---    0.07531   0.16000   0.16000   0.16000   0.16000
     Eigenvalues ---    0.16000   0.16000   0.22369   0.23505   0.24607
     Eigenvalues ---    0.24993   0.25000   0.25000   0.25000   0.25000
     Eigenvalues ---    0.32277   0.36192   0.38876   0.42114   0.43655
     Eigenvalues ---    0.46284   0.47676   0.48537   0.49525   0.55410
     Eigenvalues ---    0.55549   0.55581   0.62547   0.62590   0.62744
     Eigenvalues ---    0.96726   0.96750   1.44223
 RFO step:  Lambda=-1.82446520D-01 EMin= 7.53228392D-03
 Linear search not attempted -- first point.
 Maximum step size (   0.300) exceeded in Quadratic search.
    -- Step size scaled by   0.621
 Iteration  1 RMS(Cart)=  0.03599532 RMS(Int)=  0.00008769
 Iteration  2 RMS(Cart)=  0.00010777 RMS(Int)=  0.00000196
 Iteration  3 RMS(Cart)=  0.00000001 RMS(Int)=  0.00000196
 ITry= 1 IFail=0 DXMaxC= 1.40D-01 DCOld= 1.00D+10 DXMaxT= 3.00D-01 DXLimC= 3.00D+00 Rises=F
 Variable       Old X    -DE/DX   Delta X   Delta X   Delta X     New X
                                 (Linear)    (Quad)   (Total)
    R1        2.77083   0.00161   0.00000   0.00184   0.00184   2.77267
    R2        2.29969   0.02242   0.00000   0.01211   0.01211   2.31180
    R3        2.29979   0.02157   0.00000   0.01166   0.01166   2.31145
    R4        2.60746   0.00948   0.00000   0.00863   0.00863   2.61609
    R5        2.61706   0.00715   0.00000   0.00682   0.00682   2.62388
    R6        1.75648   0.16980   0.00000   0.13051   0.13051   1.88699
    R7        2.62576   0.01078   0.00000   0.00993   0.00993   2.63568
    R8        2.59762   0.01917   0.00000   0.01768   0.01769   2.61530
    R9        1.75533   0.17126   0.00000   0.13138   0.13138   1.88671
   R10        1.75680   0.17106   0.00000   0.13154   0.13154   1.88834
   R11        2.62814   0.01065   0.00000   0.01024   0.01024   2.63838
   R12        2.83641   0.00894   0.00000   0.01099   0.01099   2.84739
   R13        2.65981   0.00663   0.00000   0.00641   0.00641   2.66622
   R14        1.81347   0.12897   0.00000   0.10858   0.10858   1.92206
   R15        1.81319   0.13073   0.00000   0.11001   0.11001   1.92320
   R16        1.81469   0.12948   0.00000   0.10922   0.10922   1.92391
   R17        2.73110  -0.00399   0.00000  -0.00434  -0.00434   2.72675
   R18        2.14834   0.06694   0.00000   0.02560   0.02560   2.17394
    A1        2.06227  -0.00620   0.00000  -0.00890  -0.00890   2.05336
    A2        2.06974  -0.00805   0.00000  -0.01156  -0.01156   2.05819
    A3        2.15109   0.01427   0.00000   0.02051   0.02051   2.17160
    A4        2.07240  -0.00091   0.00000  -0.00135  -0.00135   2.07105
    A5        2.08008  -0.00110   0.00000  -0.00162  -0.00162   2.07846
    A6        2.13070   0.00201   0.00000   0.00297   0.00297   2.13366
    A7        2.11351  -0.00112   0.00000  -0.00160  -0.00160   2.11191
    A8        2.05502   0.00100   0.00000   0.00094   0.00094   2.05595
    A9        2.11466   0.00012   0.00000   0.00066   0.00066   2.11532
   A10        2.07508  -0.00229   0.00000  -0.00279  -0.00279   2.07230
   A11        2.10419  -0.00067   0.00000  -0.00189  -0.00189   2.10230
   A12        2.10391   0.00296   0.00000   0.00468   0.00468   2.10859
   A13        2.07828   0.00105   0.00000   0.00125   0.00125   2.07952
   A14        2.12895  -0.00225   0.00000  -0.00276  -0.00276   2.12620
   A15        2.07595   0.00120   0.00000   0.00151   0.00151   2.07747
   A16        2.12421  -0.00218   0.00000  -0.00314  -0.00314   2.12107
   A17        2.04492   0.00289   0.00000   0.00418   0.00418   2.04910
   A18        2.11404  -0.00071   0.00000  -0.00104  -0.00104   2.11301
   A19        1.91126   0.00121   0.00000   0.00247   0.00246   1.91372
   A20        1.91029   0.00190   0.00000   0.00333   0.00332   1.91361
   A21        1.91051   0.00183   0.00000   0.00319   0.00319   1.91370
   A22        1.90972  -0.00098   0.00000  -0.00149  -0.00150   1.90822
   A23        1.91050  -0.00099   0.00000  -0.00154  -0.00155   1.90895
   A24        1.91153  -0.00299   0.00000  -0.00595  -0.00596   1.90557
   A25        2.13157  -0.00135   0.00000  -0.00252  -0.00252   2.12904
   A26        2.07751  -0.00071   0.00000  -0.00072  -0.00072   2.07679
   A27        2.07384   0.00208   0.00000   0.00328   0.00328   2.07712
   A28        3.11968   0.00021   0.00000   0.00054   0.00054   3.12022
   A29        3.15262  -0.00134   0.00000  -0.00357  -0.00357   3.14905
    D1        2.97372   0.00006   0.00000   0.00023   0.00023   2.97395
    D2       -0.17355   0.00018   0.00000   0.00056   0.00056  -0.17299
    D3       -0.18117   0.00148   0.00000   0.00484   0.00484  -0.17633
    D4        2.95475   0.00159   0.00000   0.00516   0.00516   2.95992
    D5       -0.00596   0.00017   0.00000   0.00055   0.00055  -0.00541
    D6        3.13565   0.00020   0.00000   0.00061   0.00061   3.13627
    D7        3.14148   0.00007   0.00000   0.00022   0.00023  -3.14148
    D8       -0.00009   0.00009   0.00000   0.00029   0.00029   0.00020
    D9       -3.12272  -0.00039   0.00000  -0.00117  -0.00117  -3.12389
   D10        0.01904  -0.00027   0.00000  -0.00083  -0.00083   0.01821
   D11        0.01300  -0.00028   0.00000  -0.00084  -0.00084   0.01216
   D12       -3.12843  -0.00017   0.00000  -0.00050  -0.00050  -3.12893
   D13       -0.01215   0.00015   0.00000   0.00048   0.00048  -0.01167
   D14       -3.12873  -0.00048   0.00000  -0.00140  -0.00139  -3.13013
   D15        3.12946   0.00017   0.00000   0.00055   0.00055   3.13001
   D16        0.01288  -0.00045   0.00000  -0.00133  -0.00133   0.01155
   D17        3.12725   0.00025   0.00000   0.00075   0.00075   3.12800
   D18       -0.01419   0.00022   0.00000   0.00065   0.00065  -0.01354
   D19       -0.01450   0.00014   0.00000   0.00041   0.00041  -0.01409
   D20        3.12725   0.00011   0.00000   0.00031   0.00031   3.12755
   D21       -3.13311  -0.00010   0.00000  -0.00028  -0.00028  -3.13339
   D22        0.00253   0.00003   0.00000   0.00010   0.00010   0.00263
   D23        0.00864  -0.00013   0.00000  -0.00039  -0.00039   0.00825
   D24       -3.13890  -0.00000   0.00000  -0.00000  -0.00000  -3.13891
   D25        0.01734   0.00007   0.00000   0.00019   0.00019   0.01753
   D26       -2.07611  -0.00064   0.00000  -0.00153  -0.00153  -2.07764
   D27        2.11187   0.00073   0.00000   0.00177   0.00177   2.11365
   D28       -3.11807  -0.00007   0.00000  -0.00022  -0.00022  -3.11829
   D29        1.07167  -0.00078   0.00000  -0.00194  -0.00194   1.06972
   D30       -1.02354   0.00059   0.00000   0.00136   0.00136  -1.02217
   D31        0.01098  -0.00023   0.00000  -0.00069  -0.00069   0.01030
   D32        3.12761   0.00036   0.00000   0.00113   0.00113   3.12875
   D33       -3.13652  -0.00011   0.00000  -0.00031  -0.00031  -3.13684
   D34       -0.01989   0.00047   0.00000   0.00150   0.00151  -0.01839
         Item               Value     Threshold  Converged?
 Maximum Force            0.171261     0.000450     NO 
 RMS     Force            0.042255     0.000300     NO 
 Maximum Displacement     0.140222     0.001800     NO 
 RMS     Displacement     0.036001     0.001200     NO 
 Predicted change in Energy=-8.635659D-02
 Lowest energy point so far.  Saving SCF results.
 GradGradGradGradGradGradGradGradGradGradGradGradGradGradGradGradGradGrad

 Leave Link  103 at Fri Aug 20 15:56:47 2021, MaxMem= 24159191040 cpu:         3.4
 (Enter /public/home/users/caep010/software/Gaussian09/g09/l202.exe)
                          Input orientation:                          
 ---------------------------------------------------------------------
 Center     Atomic      Atomic             Coordinates (Angstroms)
 Number     Number       Type             X           Y           Z
 ---------------------------------------------------------------------
      1          7           0        3.177648    2.509371    4.782724
      2          6           0        3.454710    3.756517    4.061175
      3          6           0        3.084110    3.850242    2.730626
      4          1           0        2.641120    3.085990    2.265025
      5          8           0        3.668200    2.376305    5.895489
      6          8           0        2.465731    1.677843    4.236952
      7          6           0        4.071809    4.802741    4.733883
      8          6           0        4.310473    5.983282    4.052189
      9          1           0        4.743591    6.744303    4.533639
     10          6           0        3.962719    6.141155    2.709269
     11          1           0        4.337536    4.702153    5.691002
     12          6           0        4.235117    7.425888    1.970598
     13          1           0        4.698088    8.085579    2.591065
     14          6           0        3.350180    5.046127    2.064010
     15          6           0        2.961795    5.176993    0.680501
     16          7           0        2.645908    5.306111   -0.418114
     17          1           0        3.357622    7.826914    1.646674
     18          1           0        4.833842    7.239286    1.168594
 ---------------------------------------------------------------------
                    Distance matrix (angstroms):
                    1          2          3          4          5
     1  N    0.000000
     2  C    1.467231   0.000000
     3  C    2.453119   1.384374   0.000000
     4  H    2.638022   2.082712   0.998552   0.000000
     5  O    1.223354   2.305487   3.539776   3.839117   0.000000
     6  O    1.223165   2.308649   2.714909   2.429431   2.164377
     7  C    2.462002   1.388500   2.428135   3.330070   2.720261
     8  C    3.726262   2.385559   2.792912   3.791437   4.101286
     9  H    4.522042   3.288054   3.792139   4.790642   4.700053
    10  C    4.255045   2.787871   2.453710   3.358275   4.940935
    11  H    2.641705   2.080853   3.325757   4.150558   2.428867
    12  C    5.761808   4.294629   3.832454   4.632735   6.420627
    13  H    6.181359   4.737931   4.534587   5.416024   6.676503
    14  C    3.722405   2.379640   1.394744   2.094113   4.680739
    15  C    4.898064   3.699955   2.445044   2.643075   5.961456
    16  N    5.929015   4.808268   3.496590   3.482556   7.034944
    17  H    6.176039   4.733643   4.130821   4.834470   6.917949
    18  H    6.178755   4.732728   4.121544   4.822869   6.881195
                    6          7          8          9         10
     6  O    0.000000
     7  C    3.548438   0.000000
     8  C    4.687644   1.383960   0.000000
     9  H    5.562884   2.064232   0.999269   0.000000
    10  C    4.949338   2.429468   1.396171   2.074096   0.000000
    11  H    3.842443   0.998402   2.080320   2.382172   3.331959
    12  C    6.427061   3.813570   2.533736   2.700423   1.506776
    13  H    6.982223   3.970003   2.589360   2.361077   2.082192
    14  C    4.104785   2.776366   2.398599   3.305217   1.410904
    15  C    5.013828   4.219253   3.719854   4.525254   2.459137
    16  N    5.904781   5.369325   4.817982   5.566734   3.494541
    17  H    6.731722   4.380245   3.177012   3.380462   2.082555
    18  H    6.778821   4.385058   3.188508   3.402452   2.082889
                   11         12         13         14         15
    11  H    0.000000
    12  C    4.612010   0.000000
    13  H    4.602953   1.017110   0.000000
    14  C    3.774687   2.540690   3.366439   0.000000
    15  C    5.217591   2.888464   3.889066   1.442936   0.000000
    16  N    6.367706   3.567210   4.581707   2.593170   1.150397
    17  H    5.203936   1.017716   1.660009   2.811939   2.848201
    18  H    5.209179   1.018088   1.660742   2.795169   2.827692
                   16         17         18
    16  N    0.000000
    17  H    3.335317   0.000000
    18  H    3.322930   1.659245   0.000000
 Stoichiometry    C8H6N2O2
 Framework group  C1[X(C8H6N2O2)]
 Deg. of freedom    48
 Full point group                 C1      NOp   1
 RotChk:  IX=0 Diff= 1.81D-03
 Largest Abelian subgroup         C1      NOp   1
 Largest concise Abelian subgroup C1      NOp   1
                         Standard orientation:                         
 ---------------------------------------------------------------------
 Center     Atomic      Atomic             Coordinates (Angstroms)
 Number     Number       Type             X           Y           Z
 ---------------------------------------------------------------------
      1          7           0       -2.546817    0.329426   -0.001025
      2          6           0       -1.144246   -0.101330   -0.004408
      3          6           0       -0.153003    0.864683   -0.031741
      4          1           0       -0.382185    1.836335   -0.053515
      5          8           0       -3.404593   -0.528617   -0.157798
      6          8           0       -2.780559    1.518201    0.167233
      7          6           0       -0.855031   -1.459027    0.026295
      8          6           0        0.470443   -1.856692    0.044357
      9          1           0        0.685575   -2.831936    0.078328
     10          6           0        1.516710   -0.932656    0.016484
     11          1           0       -1.591397   -2.133195    0.034677
     12          6           0        2.957576   -1.373326    0.025865
     13          1           0        3.004426   -2.389293    0.037301
     14          6           0        1.173986    0.435268   -0.027942
     15          6           0        2.227970    1.420659   -0.041549
     16          7           0        3.082207    2.191159   -0.036587
     17          1           0        3.422495   -1.005276    0.852989
     18          1           0        3.428137   -1.022868   -0.806153
 ---------------------------------------------------------------------
 Rotational constants (GHZ):      1.8634500      0.6260911      0.4706866
 Leave Link  202 at Fri Aug 20 15:56:47 2021, MaxMem= 24159191040 cpu:         0.3
 (Enter /public/home/users/caep010/software/Gaussian09/g09/l301.exe)
 Standard basis: 6-31G(d,p) (6D, 7F)
 Ernie: Thresh=  0.10000D-02 Tol=  0.10000D-05 Strict=F.
 There are   210 symmetry adapted cartesian basis functions of A   symmetry.
 There are   210 symmetry adapted basis functions of A   symmetry.
   210 basis functions,   378 primitive gaussians,   210 cartesian basis functions
    42 alpha electrons       42 beta electrons
       nuclear repulsion energy       630.9758735887 Hartrees.
 IExCor=  402 DFT=T Ex+Corr=B3LYP ExCW=0 ScaHFX=  0.200000
 ScaDFX=  0.800000  0.720000  1.000000  0.810000 ScalE2=  1.000000  1.000000
 IRadAn=      0 IRanWt=     -1 IRanGd=            0 ICorTp=0 IEmpDi=  4
 NAtoms=   18 NActive=   18 NUniq=   18 SFac= 1.00D+00 NAtFMM=   60 NAOKFM=F Big=F
 Integral buffers will be    131072 words long.
 Raffenetti 2 integral format.
 Two-electron integral symmetry is turned on.
 Leave Link  301 at Fri Aug 20 15:56:47 2021, MaxMem= 24159191040 cpu:         1.6
 (Enter /public/home/users/caep010/software/Gaussian09/g09/l302.exe)
 NPDir=0 NMtPBC=     1 NCelOv=     1 NCel=       1 NClECP=     1 NCelD=      1
         NCelK=      1 NCelE2=     1 NClLst=     1 CellRange=     0.0.
 One-electron integrals computed using PRISM.
 NBasis=   210 RedAO= T EigKep=  3.55D-04  NBF=   210
 NBsUse=   210 1.00D-06 EigRej= -1.00D+00 NBFU=   210
 Precomputing XC quadrature grid using
 IXCGrd= 4 IRadAn=           0 IRanWt=          -1 IRanGd=           0 AccXCQ= 0.00D+00.
 Generated NRdTot=       0 NPtTot=           0 NUsed=           0 NTot=          32
 NSgBfM=   210   210   210   210   210 MxSgAt=    18 MxSgA2=    18.
 Leave Link  302 at Fri Aug 20 15:56:48 2021, MaxMem= 24159191040 cpu:        13.8
 (Enter /public/home/users/caep010/software/Gaussian09/g09/l303.exe)
 DipDrv:  MaxL=1.
 Leave Link  303 at Fri Aug 20 15:56:48 2021, MaxMem= 24159191040 cpu:         0.7
 (Enter /public/home/users/caep010/software/Gaussian09/g09/l401.exe)
 Initial guess from the checkpoint file:  "/public/home/users/caep010/.cache/gau_scr/Gau-138011.chk"
 B after Tr=    -0.000000    0.000000   -0.000000
         Rot=    1.000000    0.000032   -0.000039    0.000658 Ang=   0.08 deg.
 Guess basis will be translated and rotated to current coordinates.
 JPrj=2 DoOrth=T DoCkMO=T.
 Generating alternative initial guess.
 ExpMin= 1.61D-01 ExpMax= 5.48D+03 ExpMxC= 8.25D+02 IAcc=1 IRadAn=         1 AccDes= 0.00D+00
 Harris functional with IExCor=  402 and IRadAn=       1 diagonalized for initial guess.
 HarFok:  IExCor=  402 AccDes= 0.00D+00 IRadAn=         1 IDoV= 1 UseB2=F ITyADJ=14
 ICtDFT=  3500011 ScaDFX=  1.000000  1.000000  1.000000  1.000000
 FoFCou: FMM=F IPFlag=           0 FMFlag=      100000 FMFlg1=           0
         NFxFlg=           0 DoJE=T BraDBF=F KetDBF=T FulRan=T
         wScrn=  0.000000 ICntrl=     500 IOpCl=  0 I1Cent=   200000004 NGrid=           0
         NMat0=    1 NMatS0=      1 NMatT0=    0 NMatD0=    1 NMtDS0=    0 NMtDT0=    0
 Petite list used in FoFCou.
 Harris En= -568.352295623639    
 Leave Link  401 at Fri Aug 20 15:56:49 2021, MaxMem= 24159191040 cpu:        13.6
 (Enter /public/home/users/caep010/software/Gaussian09/g09/l502.exe)
 Closed shell SCF:
 Using DIIS extrapolation, IDIIS=  1040.
 Integral symmetry usage will be decided dynamically.
 Keep R1 ints in memory in canonical form, NReq=250289092.
 IVT=      159142 IEndB=      159142 NGot= 24159191040 MDV= 23913598809
 LenX= 23913598809 LenY= 23913554268
 Requested convergence on RMS density matrix=1.00D-08 within 128 cycles.
 Requested convergence on MAX density matrix=1.00D-06.
 Requested convergence on             energy=1.00D-06.
 No special actions if energy rises.
 FoFCou: FMM=F IPFlag=           0 FMFlag=           0 FMFlg1=           0
         NFxFlg=           0 DoJE=F BraDBF=F KetDBF=F FulRan=T
         wScrn=  0.000000 ICntrl=     600 IOpCl=  0 I1Cent=           0 NGrid=           0
         NMat0=    1 NMatS0=  22155 NMatT0=    0 NMatD0=    1 NMtDS0=    0 NMtDT0=    0
 Symmetry not used in FoFCou.
 Integral accuracy reduced to 1.0D-05 until final iterations.

 Cycle   1  Pass 0  IDiag  1:
 E= -568.283015163694    
 DIIS: error= 3.26D-03 at cycle   1 NSaved=   1.
 NSaved= 1 IEnMin= 1 EnMin= -568.283015163694     IErMin= 1 ErrMin= 3.26D-03
 ErrMax= 3.26D-03  0.00D+00 EMaxC= 1.00D-01 BMatC= 3.87D-03 BMatP= 3.87D-03
 IDIUse=3 WtCom= 9.67D-01 WtEn= 3.26D-02
 Coeff-Com:  0.100D+01
 Coeff-En:   0.100D+01
 Coeff:      0.100D+01
 Gap=     1.928 Goal=   None    Shift=    0.000
 GapD=    1.928 DampG=2.000 DampE=1.000 DampFc=2.0000 IDamp=-1.
 RMSDP=6.61D-04 MaxDP=1.73D-02              OVMax= 1.68D-02

 Cycle   2  Pass 0  IDiag  1:
 E= -568.286476439356     Delta-E=       -0.003461275662 Rises=F Damp=F
 DIIS: error= 2.76D-03 at cycle   2 NSaved=   2.
 NSaved= 2 IEnMin= 2 EnMin= -568.286476439356     IErMin= 2 ErrMin= 2.76D-03
 ErrMax= 2.76D-03  0.00D+00 EMaxC= 1.00D-01 BMatC= 1.18D-03 BMatP= 3.87D-03
 IDIUse=3 WtCom= 9.72D-01 WtEn= 2.76D-02
 Coeff-Com:  0.313D+00 0.687D+00
 Coeff-En:   0.000D+00 0.100D+01
 Coeff:      0.304D+00 0.696D+00
 Gap=     0.187 Goal=   None    Shift=    0.000
 RMSDP=2.43D-04 MaxDP=9.29D-03 DE=-3.46D-03 OVMax= 1.33D-02

 Cycle   3  Pass 0  IDiag  1:
 E= -568.287234133116     Delta-E=       -0.000757693760 Rises=F Damp=F
 DIIS: error= 1.24D-03 at cycle   3 NSaved=   3.
 NSaved= 3 IEnMin= 3 EnMin= -568.287234133116     IErMin= 3 ErrMin= 1.24D-03
 ErrMax= 1.24D-03  0.00D+00 EMaxC= 1.00D-01 BMatC= 4.37D-04 BMatP= 1.18D-03
 IDIUse=3 WtCom= 9.88D-01 WtEn= 1.24D-02
 Coeff-Com:  0.504D-01 0.378D+00 0.572D+00
 Coeff-En:   0.000D+00 0.254D+00 0.746D+00
 Coeff:      0.498D-01 0.376D+00 0.574D+00
 Gap=     0.187 Goal=   None    Shift=    0.000
 RMSDP=1.20D-04 MaxDP=4.03D-03 DE=-7.58D-04 OVMax= 7.65D-03

 Cycle   4  Pass 0  IDiag  1:
 E= -568.287543845902     Delta-E=       -0.000309712787 Rises=F Damp=F
 DIIS: error= 9.63D-04 at cycle   4 NSaved=   4.
 NSaved= 4 IEnMin= 4 EnMin= -568.287543845902     IErMin= 4 ErrMin= 9.63D-04
 ErrMax= 9.63D-04  0.00D+00 EMaxC= 1.00D-01 BMatC= 1.10D-04 BMatP= 4.37D-04
 IDIUse=3 WtCom= 9.90D-01 WtEn= 9.63D-03
 Coeff-Com:  0.144D-01 0.212D+00 0.397D+00 0.377D+00
 Coeff-En:   0.000D+00 0.000D+00 0.177D+00 0.823D+00
 Coeff:      0.143D-01 0.210D+00 0.395D+00 0.381D+00
 Gap=     0.187 Goal=   None    Shift=    0.000
 RMSDP=5.58D-05 MaxDP=2.18D-03 DE=-3.10D-04 OVMax= 3.77D-03

 Cycle   5  Pass 0  IDiag  1:
 E= -568.287639946612     Delta-E=       -0.000096100710 Rises=F Damp=F
 DIIS: error= 2.37D-04 at cycle   5 NSaved=   5.
 NSaved= 5 IEnMin= 5 EnMin= -568.287639946612     IErMin= 5 ErrMin= 2.37D-04
 ErrMax= 2.37D-04  0.00D+00 EMaxC= 1.00D-01 BMatC= 8.85D-06 BMatP= 1.10D-04
 IDIUse=3 WtCom= 9.98D-01 WtEn= 2.37D-03
 Coeff-Com:  0.583D-04 0.674D-01 0.147D+00 0.242D+00 0.543D+00
 Coeff-En:   0.000D+00 0.000D+00 0.000D+00 0.577D-01 0.942D+00
 Coeff:      0.582D-04 0.672D-01 0.147D+00 0.241D+00 0.544D+00
 Gap=     0.187 Goal=   None    Shift=    0.000
 RMSDP=1.65D-05 MaxDP=8.34D-04 DE=-9.61D-05 OVMax= 9.63D-04

 Cycle   6  Pass 0  IDiag  1:
 E= -568.287646494960     Delta-E=       -0.000006548347 Rises=F Damp=F
 DIIS: error= 7.57D-05 at cycle   6 NSaved=   6.
 NSaved= 6 IEnMin= 6 EnMin= -568.287646494960     IErMin= 6 ErrMin= 7.57D-05
 ErrMax= 7.57D-05  0.00D+00 EMaxC= 1.00D-01 BMatC= 1.16D-06 BMatP= 8.85D-06
 IDIUse=1 WtCom= 1.00D+00 WtEn= 0.00D+00
 Coeff-Com: -0.158D-02 0.196D-01 0.496D-01 0.112D+00 0.342D+00 0.478D+00
 Coeff:     -0.158D-02 0.196D-01 0.496D-01 0.112D+00 0.342D+00 0.478D+00
 Gap=     0.187 Goal=   None    Shift=    0.000
 RMSDP=6.29D-06 MaxDP=2.64D-04 DE=-6.55D-06 OVMax= 5.08D-04

 Initial convergence to 1.0D-05 achieved.  Increase integral accuracy.
 Cycle   7  Pass 1  IDiag  1:
 E= -568.287584774676     Delta-E=        0.000061720284 Rises=F Damp=F
 DIIS: error= 5.40D-05 at cycle   1 NSaved=   1.
 NSaved= 1 IEnMin= 1 EnMin= -568.287584774676     IErMin= 1 ErrMin= 5.40D-05
 ErrMax= 5.40D-05  0.00D+00 EMaxC= 1.00D-01 BMatC= 2.92D-07 BMatP= 2.92D-07
 IDIUse=1 WtCom= 1.00D+00 WtEn= 0.00D+00
 Coeff-Com:  0.100D+01
 Coeff:      0.100D+01
 Gap=     0.187 Goal=   None    Shift=    0.000
 RMSDP=6.29D-06 MaxDP=2.64D-04 DE= 6.17D-05 OVMax= 8.54D-04

 Cycle   8  Pass 1  IDiag  1:
 E= -568.287583399217     Delta-E=        0.000001375458 Rises=F Damp=F
 DIIS: error= 1.71D-04 at cycle   2 NSaved=   2.
 NSaved= 2 IEnMin= 1 EnMin= -568.287584774676     IErMin= 1 ErrMin= 5.40D-05
 ErrMax= 1.71D-04  0.00D+00 EMaxC= 1.00D-01 BMatC= 2.04D-06 BMatP= 2.92D-07
 IDIUse=3 WtCom= 4.33D-01 WtEn= 5.67D-01
 Coeff-Com:  0.736D+00 0.264D+00
 Coeff-En:   0.818D+00 0.182D+00
 Coeff:      0.782D+00 0.218D+00
 Gap=     0.187 Goal=   None    Shift=    0.000
 RMSDP=4.83D-06 MaxDP=2.76D-04 DE= 1.38D-06 OVMax= 5.93D-04

 Cycle   9  Pass 1  IDiag  1:
 E= -568.287584991246     Delta-E=       -0.000001592029 Rises=F Damp=F
 DIIS: error= 1.77D-05 at cycle   3 NSaved=   3.
 NSaved= 3 IEnMin= 3 EnMin= -568.287584991246     IErMin= 3 ErrMin= 1.77D-05
 ErrMax= 1.77D-05  0.00D+00 EMaxC= 1.00D-01 BMatC= 3.56D-08 BMatP= 2.92D-07
 IDIUse=1 WtCom= 1.00D+00 WtEn= 0.00D+00
 Coeff-Com:  0.213D+00-0.200D-01 0.807D+00
 Coeff:      0.213D+00-0.200D-01 0.807D+00
 Gap=     0.187 Goal=   None    Shift=    0.000
 RMSDP=1.13D-06 MaxDP=3.60D-05 DE=-1.59D-06 OVMax= 9.42D-05

 Cycle  10  Pass 1  IDiag  1:
 E= -568.287585012176     Delta-E=       -0.000000020930 Rises=F Damp=F
 DIIS: error= 6.57D-06 at cycle   4 NSaved=   4.
 NSaved= 4 IEnMin= 4 EnMin= -568.287585012176     IErMin= 4 ErrMin= 6.57D-06
 ErrMax= 6.57D-06  0.00D+00 EMaxC= 1.00D-01 BMatC= 9.13D-09 BMatP= 3.56D-08
 IDIUse=1 WtCom= 1.00D+00 WtEn= 0.00D+00
 Coeff-Com:  0.558D-02-0.647D-01 0.558D+00 0.501D+00
 Coeff:      0.558D-02-0.647D-01 0.558D+00 0.501D+00
 Gap=     0.187 Goal=   None    Shift=    0.000
 RMSDP=5.30D-07 MaxDP=1.74D-05 DE=-2.09D-08 OVMax= 4.48D-05

 Cycle  11  Pass 1  IDiag  1:
 E= -568.287585021290     Delta-E=       -0.000000009114 Rises=F Damp=F
 DIIS: error= 1.94D-06 at cycle   5 NSaved=   5.
 NSaved= 5 IEnMin= 5 EnMin= -568.287585021290     IErMin= 5 ErrMin= 1.94D-06
 ErrMax= 1.94D-06  0.00D+00 EMaxC= 1.00D-01 BMatC= 6.54D-10 BMatP= 9.13D-09
 IDIUse=1 WtCom= 1.00D+00 WtEn= 0.00D+00
 Coeff-Com: -0.925D-02-0.399D-01 0.303D+00 0.313D+00 0.433D+00
 Coeff:     -0.925D-02-0.399D-01 0.303D+00 0.313D+00 0.433D+00
 Gap=     0.187 Goal=   None    Shift=    0.000
 RMSDP=1.39D-07 MaxDP=4.27D-06 DE=-9.11D-09 OVMax= 7.96D-06

 Cycle  12  Pass 1  IDiag  1:
 E= -568.287585021844     Delta-E=       -0.000000000554 Rises=F Damp=F
 DIIS: error= 8.16D-07 at cycle   6 NSaved=   6.
 NSaved= 6 IEnMin= 6 EnMin= -568.287585021844     IErMin= 6 ErrMin= 8.16D-07
 ErrMax= 8.16D-07  0.00D+00 EMaxC= 1.00D-01 BMatC= 9.10D-11 BMatP= 6.54D-10
 IDIUse=1 WtCom= 1.00D+00 WtEn= 0.00D+00
 Coeff-Com: -0.657D-02-0.203D-01 0.146D+00 0.159D+00 0.295D+00 0.427D+00
 Coeff:     -0.657D-02-0.203D-01 0.146D+00 0.159D+00 0.295D+00 0.427D+00
 Gap=     0.187 Goal=   None    Shift=    0.000
 RMSDP=5.32D-08 MaxDP=3.08D-06 DE=-5.54D-10 OVMax= 3.52D-06

 Cycle  13  Pass 1  IDiag  1:
 E= -568.287585021920     Delta-E=       -0.000000000076 Rises=F Damp=F
 DIIS: error= 2.05D-07 at cycle   7 NSaved=   7.
 NSaved= 7 IEnMin= 7 EnMin= -568.287585021920     IErMin= 7 ErrMin= 2.05D-07
 ErrMax= 2.05D-07  0.00D+00 EMaxC= 1.00D-01 BMatC= 6.88D-12 BMatP= 9.10D-11
 IDIUse=1 WtCom= 1.00D+00 WtEn= 0.00D+00
 Coeff-Com: -0.295D-02-0.826D-02 0.572D-01 0.641D-01 0.136D+00 0.267D+00
 Coeff-Com:  0.486D+00
 Coeff:     -0.295D-02-0.826D-02 0.572D-01 0.641D-01 0.136D+00 0.267D+00
 Coeff:      0.486D+00
 Gap=     0.187 Goal=   None    Shift=    0.000
 RMSDP=1.34D-08 MaxDP=5.57D-07 DE=-7.59D-11 OVMax= 8.99D-07

 Cycle  14  Pass 1  IDiag  1:
 E= -568.287585021901     Delta-E=        0.000000000018 Rises=F Damp=F
 DIIS: error= 4.25D-08 at cycle   8 NSaved=   8.
 NSaved= 8 IEnMin= 7 EnMin= -568.287585021920     IErMin= 8 ErrMin= 4.25D-08
 ErrMax= 4.25D-08  0.00D+00 EMaxC= 1.00D-01 BMatC= 4.34D-13 BMatP= 6.88D-12
 IDIUse=1 WtCom= 1.00D+00 WtEn= 0.00D+00
 Coeff-Com: -0.572D-03-0.132D-02 0.840D-02 0.103D-01 0.265D-01 0.745D-01
 Coeff-Com:  0.247D+00 0.635D+00
 Coeff:     -0.572D-03-0.132D-02 0.840D-02 0.103D-01 0.265D-01 0.745D-01
 Coeff:      0.247D+00 0.635D+00
 Gap=     0.187 Goal=   None    Shift=    0.000
 RMSDP=4.18D-09 MaxDP=1.46D-07 DE= 1.82D-11 OVMax= 2.28D-07

 SCF Done:  E(RB3LYP) =  -568.287585022     A.U. after   14 cycles
            NFock= 14  Conv=0.42D-08     -V/T= 2.0075
 KE= 5.640462067027D+02 PE=-2.585288014521D+03 EE= 8.219783492080D+02
 Leave Link  502 at Fri Aug 20 15:56:57 2021, MaxMem= 24159191040 cpu:        84.1
 (Enter /public/home/users/caep010/software/Gaussian09/g09/l701.exe)
 Compute integral first derivatives.
 ... and contract with generalized density number  0.
 Leave Link  701 at Fri Aug 20 15:56:57 2021, MaxMem= 24159191040 cpu:        11.3
 (Enter /public/home/users/caep010/software/Gaussian09/g09/l702.exe)
 L702 exits ... SP integral derivatives will be done elsewhere.
 Leave Link  702 at Fri Aug 20 15:56:57 2021, MaxMem= 24159191040 cpu:         0.6
 (Enter /public/home/users/caep010/software/Gaussian09/g09/l703.exe)
 Compute integral first derivatives, UseDBF=F ICtDFT=           0.
 Integral derivatives from FoFJK, PRISM(SPDF).
 Calling FoFJK, ICntrl=      2127 FMM=F ISym2X=0 I1Cent= 0 IOpClX= 0 NMat=1 NMatS=1 NMatT=0.
 FoFJK:  IHMeth= 1 ICntrl=    2127 DoSepK=F KAlg= 0 I1Cent=   0 FoldK=F
 IRaf=         0 NMat=   1 IRICut=       1 DoRegI=T DoRafI=F ISym2E= 0.
 FoFCou: FMM=F IPFlag=           0 FMFlag=      100000 FMFlg1=         800
         NFxFlg=           0 DoJE=F BraDBF=F KetDBF=F FulRan=T
[...]
 6041814,0.2862734,-0.1635553,0.1885197,-0.9959147,-0.3947895,-0.277544
 8,-0.1092274,-0.2822785,-0.9366496,-0.0261692,-0.1032854,-0.0112809,-0
 .5574737,-0.0117416,0.1043729,-0.0608757,0.0358705,0.1878214,-0.163601
 1,0.0242984,0.0500659,-0.0202885,-0.0613841,0.1080762,0.0606795,0.0777
 346,-0.1142243,0.2302301,0.0983697,0.3248111,-0.2208838,0.0769005,-0.0
 607327,-0.0362738,-0.064393,-0.0180735,-0.0381645,-0.0317229,-0.026752
 1,0.0471082,0.0487916,0.0433916,0.001806,0.0951626,0.3613899,-0.113980
 4,-0.0624978,-0.2753087,0.1781767,0.118933,0.0008839,-0.0133716,0.0042
 792,0.1245434,0.0112665,-0.0176145,0.0006283,0.0671981,0.0680864,0.038
 1531,0.0081442,0.0060294,0.0003093,0.0808494,0.048041,0.1809029,-0.024
 7579,0.0420949,-0.070797,-0.035055,-0.0460904,-0.0211996,-0.015963,-0.
 0657507,-0.0929554,-0.0078594,0.0099693,-0.0738072,0.0530899,-0.047695
 5,-0.1776537,0.0998546,0.0206187,0.0184269,0.063708,0.1347857,-0.04120
 35,0.0402341,-0.0409907,0.051026,-0.0193298,0.0399724,-0.0199852,0.287
 7114,-0.3064769,0.0165221,-0.0154268,0.0105459,-0.2778485,-0.0047296,-
 0.0079978,0.0138951,-0.3503011,-0.0378537,0.0268645,-0.0271623,0.00315
 41,-0.0056677,0.0477706,-0.0314047,0.0393057,0.0711172,0.0374891,-0.01
 10004,0.0728295,0.0140123,-0.0068694,-0.0052169,0.0754599,-0.0007865,-
 0.0030167\Polar=56.4722182,21.5740418,113.5397452,20.5039203,-22.51168
 4,133.1873425\PG=C01 [X(C8H6N2O2)]\NImag=0\\0.37146781,0.18973364,0.64
 922281,0.22534083,0.06284763,0.84851481,-0.08385522,-0.01264663,-0.006
 54463,0.25792628,-0.01252662,-0.11604590,0.00983184,0.16617803,0.53258
 347,-0.00669713,0.00945134,-0.10932668,0.18008339,0.02266608,0.6671583
 7,0.00279242,0.00638731,0.00836572,-0.09342895,-0.00947578,-0.08905600
 ,0.26555068,0.00836502,-0.00846580,0.03355879,-0.02599866,-0.11071861,
 -0.01937273,0.19978453,0.65425556,0.00590921,0.02740499,-0.01806006,-0
 .06852478,0.03213111,-0.31461018,0.15875629,-0.02242735,0.65771626,-0.
 00448073,0.00016260,0.00064530,0.00152703,-0.00681042,-0.00393511,-0.1
 0331280,-0.10772436,-0.06738811,0.09726729,0.00134641,-0.00066000,-0.0
 0088741,0.00093781,0.00733100,0.00065271,-0.10780843,-0.22590294,-0.10
 352848,0.11841302,0.23623379,-0.00082536,-0.00458076,-0.00163736,-0.01
 356177,-0.02349557,-0.00757642,-0.06728489,-0.10327111,-0.12018456,0.0
 7349057,0.10851334,0.12075218,-0.11558604,-0.00753594,-0.11978632,0.01
 737948,0.00232792,-0.00490378,0.00226626,-0.00153215,-0.00063811,0.000
 59258,-0.00055404,0.00061869,0.09403043,-0.00508022,-0.12870217,0.0519
 2577,0.00671272,0.00108454,0.04199969,-0.00367170,-0.00469158,-0.00178
 461,-0.00003184,-0.00004786,0.00072406,0.02507831,0.12043781,-0.122838
 61,0.04426542,-0.51247266,-0.01035512,0.02832019,-0.04949282,0.0020221
 7,0.00488815,0.00331001,-0.00002908,-0.00090524,0.00164542,0.17659322,
 -0.03738598,0.62488430,-0.17217804,-0.16203330,-0.10369929,0.00464660,
 -0.02902812,-0.00577437,0.00019250,0.00076291,-0.00488310,0.00022024,-
 0.00023601,0.00150559,0.00230272,-0.02316604,-0.04402980,0.16253580,-0
 .16449296,-0.36963385,-0.14614369,-0.03336640,-0.05368003,-0.01490774,
 -0.00241697,-0.00121071,-0.00422537,-0.00040229,-0.00310395,0.00239149
 ,-0.01443028,0.02060409,-0.03875509,0.21526289,0.41233984,-0.10063889,
 -0.13846596,-0.21621471,-0.00038288,-0.00137786,0.01858020,-0.00093201
 ,0.00569442,-0.00852276,0.00171233,0.00291085,0.00155419,-0.05489044,-
 0.06600955,-0.06354773,0.15332551,0.19332657,0.26563168,-0.00408424,-0
 .01094644,0.00861759,-0.11809633,-0.09511955,-0.05772089,-0.00125859,0
 .00362593,-0.03462054,0.00388248,-0.00084825,-0.00212814,-0.00076084,-
 0.00199514,-0.00446481,0.00329243,0.00110160,-0.00110298,0.25374653,-0
 .01286036,-0.03765454,0.00362499,-0.07788983,-0.21679393,-0.05003346,-
 0.00910569,0.03514447,-0.06161098,-0.00069127,0.00106832,0.00261016,-0
 .00507271,-0.00543980,-0.00723895,-0.00118062,-0.00071934,0.00119647,0
 .16740826,0.61473582,0.01099101,0.00957694,0.01987679,-0.07912835,-0.1
 0373972,-0.17942296,-0.01880157,-0.02192590,-0.02296087,-0.00232353,0.
 00212117,-0.00497445,-0.00063624,0.00236634,-0.00345779,0.00173195,0.0
 0831099,-0.00171686,0.15602436,-0.07183384,0.71259131,0.00494236,-0.00
 442310,-0.00514028,0.00135138,-0.01549035,0.00679738,-0.00390110,0.002
 53299,-0.00139421,-0.00031164,0.00041469,0.00030191,-0.00000463,0.0010
 9574,0.00068302,-0.00111350,-0.00053108,0.00099487,-0.08222479,-0.0660
 8449,0.01372504,0.25768114,-0.00459267,0.00297400,-0.00763497,-0.02983
 293,-0.05046703,-0.02364377,0.00362451,-0.01948737,0.02996676,0.000424
 66,-0.00004758,0.00066992,0.00138963,0.00121852,0.00199915,-0.00043146
 ,-0.00306846,0.00095030,-0.04647004,-0.28041096,0.12867063,0.19856783,
 0.65736609,-0.00492944,-0.00710293,0.00181728,0.02461618,0.02106256,0.
 05590936,-0.00275099,0.02656329,-0.04604464,0.00028931,0.00063887,-0.0
 0046484,0.00031781,0.00108002,-0.00101489,0.00087304,0.00064292,0.0007
 0013,-0.01064574,0.06752847,-0.17738211,0.14751552,-0.03484013,0.63430
 111,0.00066634,-0.00011407,-0.00058042,0.00599044,-0.00240524,-0.00071
 288,-0.00039253,0.00047710,0.00017602,-0.00059962,0.00021067,0.0001919
 1,0.00001274,-0.00005583,0.00010117,-0.00040183,-0.00002442,0.00015620
 ,0.00049424,-0.00327542,-0.00281747,-0.09949927,-0.10338619,-0.0668128
 0,0.09491047,-0.00080202,0.00008496,-0.00148998,-0.00204895,-0.0015529
 4,0.00446273,0.00040653,-0.00009783,0.00059442,0.00020606,-0.00012558,
 -0.00012758,0.00006939,-0.00009235,0.00033434,-0.00009127,-0.00082109,
 0.00018593,-0.01210189,-0.01662195,-0.01370912,-0.10364154,-0.21630213
 ,-0.10007650,0.11397272,0.22791296,0.00027436,0.00065447,0.00094016,-0
 .00115574,0.00335147,-0.00058917,0.00026357,0.00081433,-0.00082945,0.0
 0019767,-0.00011314,0.00001155,-0.00005439,-0.00005580,-0.00009764,0.0
 0023949,0.00039509,-0.00018642,0.00814943,0.01380254,0.01095567,-0.066
 49475,-0.09927919,-0.12075767,0.07344943,0.10426108,0.12530728,-0.0021
 8695,-0.00091744,-0.00079424,-0.01558208,-0.00774798,-0.02183671,0.002
 20042,-0.02839279,0.02370897,0.00572053,-0.00207077,-0.00123011,0.0002
 4800,0.00046708,-0.00045897,0.00031661,-0.00030929,0.00061540,0.016266
 85,0.02875631,0.00310341,-0.09259373,-0.02430406,-0.05464202,-0.000384
 92,0.00140061,-0.01378371,0.27275511,-0.00094790,-0.00413946,0.0002401
 2,-0.00784611,-0.00677783,-0.02285675,-0.01585023,-0.04671042,0.015979
 33,-0.00219766,-0.00138488,0.00349363,-0.00037058,0.00053985,-0.001565
 99,0.00062415,0.00075224,0.00131372,0.01548221,0.01828175,0.03027752,-
 0.00521834,-0.12077120,0.05256359,-0.00701155,0.00444524,-0.02305627,0
 .13946627,0.57008550,-0.00075430,0.00033623,-0.00434003,-0.02171275,-0
 .02254837,-0.04515551,0.00812282,-0.02311902,0.05996063,-0.00107257,0.
 00388867,-0.00123476,0.00058093,0.00104469,0.00072395,-0.00054527,-0.0
 0159684,0.00052814,0.01959632,0.07165372,-0.02413744,-0.07835674,-0.00
 692921,-0.30100576,-0.00333113,0.00316481,-0.01083744,0.12293920,-0.05
 278855,0.62650884,-0.00402365,0.00220331,-0.00109799,0.00164387,0.0019
 1297,-0.01394860,0.00281248,-0.00401908,-0.00184053,0.00034969,0.00007
 276,-0.00081163,0.00038756,0.00009370,0.00150108,0.00080968,0.00015052
 ,0.00057286,-0.06407005,0.00210959,-0.07909387,0.00616826,-0.00086804,
 0.00642740,-0.00316680,0.00165689,0.00113113,0.00600368,-0.00359412,-0
 .00104322,0.05469421,0.00095183,0.00067502,-0.00352899,-0.00594787,0.0
 0859332,-0.02256322,-0.00386653,-0.00366017,-0.00128651,-0.00043676,0.
 00053940,-0.00130911,-0.00008089,-0.00258380,0.00279682,0.00067013,0.0
 0101117,0.00153808,0.00272572,-0.05860568,0.03218708,0.00732143,0.0025
 0652,0.02524122,0.00155947,0.00040879,-0.00085361,-0.00350422,-0.00314
 995,0.00264708,0.00000431,0.05554692,0.00045920,0.00037699,-0.00358892
 ,-0.00418219,0.00193629,-0.01008733,-0.00202932,-0.00176086,0.00086664
 ,-0.00017872,0.00027830,-0.00032182,0.00171830,0.00334235,0.00107237,-
 0.00007514,-0.00008609,0.00043893,-0.07985899,0.03027015,-0.32609846,-
 0.00374866,-0.00028887,-0.00687457,0.00125197,-0.00054994,0.00039632,-
 0.00115480,0.00236652,0.00122989,0.08715890,-0.03578910,0.34290893,-0.
 00102951,-0.00007649,0.00040216,-0.00003359,0.00058382,-0.00008854,0.0
 0289095,-0.00286951,-0.00351059,0.00001403,-0.00042964,0.00039060,0.00
 009004,0.00010104,-0.00002764,0.00017643,0.00014283,0.00011160,0.00586
 045,-0.00314199,-0.00375596,0.00886973,0.00540044,-0.00482408,-0.00339
 404,0.00214496,0.00055248,-0.08168766,-0.02727434,0.00886479,-0.000384
 56,0.00058055,-0.00001162,0.55090983,0.00041716,0.00025754,-0.00042158
 ,0.00005951,-0.00080772,0.00089364,-0.00260766,0.00121955,-0.00323123,
 0.00000065,-0.00034795,0.00050891,0.00008153,0.00004300,0.00027374,-0.
 00008473,-0.00012490,-0.00000499,-0.00285195,0.00208258,-0.00114208,-0
 .00162432,-0.00288747,0.00879423,0.00109865,0.00042129,-0.00259900,-0.
 02462590,-0.18042510,0.05589369,0.00024238,0.00022200,-0.00028117,0.00
 558848,0.51922173,-0.00021072,-0.00195907,0.00064886,0.00056293,0.0025
 2697,-0.00162293,-0.00383533,-0.00404607,-0.00176722,-0.00014406,-0.00
 083218,0.00064501,-0.00000340,0.00033444,-0.00036750,0.00039397,0.0007
 0374,0.00043762,-0.00411643,-0.00204539,-0.00197157,0.00390347,0.03069
 055,-0.01769900,0.00185269,0.00066242,0.00052515,0.00557577,0.04764230
 ,-0.11547432,0.00040858,0.00077283,-0.00029906,0.02311009,0.04480246,0
 .55763415,0.00003734,0.00010507,-0.00008267,0.00009660,0.00001412,0.00
 006874,0.00029621,-0.00014326,-0.00051597,-0.00014200,0.00000688,0.000
 10864,0.00000174,-0.00003600,0.00007871,-0.00000526,-0.00002248,0.0000
 3207,-0.00010189,0.00006873,0.00021674,-0.00012726,0.00100325,-0.00060
 840,0.00046393,-0.00003746,0.00032960,-0.00389784,-0.00282211,-0.00309
 159,-0.00002944,-0.00000157,0.00000674,-0.10473053,-0.08199193,-0.0740
 1961,0.10797537,0.00002959,0.00024471,-0.00018465,0.00004248,0.0000546
 3,0.00015019,-0.00079697,-0.00038360,-0.00136324,0.00003475,-0.0002851
 0,0.00023939,0.00003755,-0.00006735,0.00018950,0.00001926,-0.00004007,
 0.00010168,0.00015327,0.00008102,0.00012975,-0.00018865,0.00108263,-0.
 00234597,0.00035021,0.00025139,0.00124309,-0.01253744,-0.01896749,-0.0
 1772068,0.00000939,-0.00000324,-0.00000517,-0.08059397,-0.16568833,-0.
 10531896,0.09031752,0.18045363,0.00001110,0.00005057,-0.00000617,0.000
 03349,0.00006194,0.00009635,0.00029620,0.00067436,0.00060448,0.0000740
 2,0.00015254,-0.00013839,-0.00001273,-0.00003985,0.00000066,-0.0000197
 6,-0.00002843,-0.00003290,0.00011178,-0.00013366,0.00031552,0.00087271
 ,0.00136946,0.00068640,-0.00015215,0.00003484,-0.00014420,0.00897781,0
 .01255511,0.01059979,-0.00000686,-0.00003932,-0.00000353,-0.07575647,-
 0.10967542,-0.14812845,0.08170902,0.11412139,0.15861359,0.00646848,-0.
 00032264,-0.00529536,0.01461674,0.01055708,0.01683018,-0.08075753,-0.0
 4804932,-0.00563228,0.00214847,-0.01061953,0.00781182,-0.00062762,0.00
 055795,0.00084896,-0.00068097,-0.00045655,0.00052551,-0.01147795,-0.01
 889173,0.00043098,-0.00147235,0.00439570,-0.03314978,0.00488794,-0.001
 23664,-0.00248300,-0.11079258,-0.07979740,-0.03611466,-0.00069564,-0.0
 0015812,0.00047160,0.00026481,-0.00876521,-0.00022273,0.00100884,-0.00
 073804,0.00018097,0.24145338,-0.00007120,0.00995967,-0.00228520,0.0249
 3871,0.01138649,0.06981419,-0.06336773,-0.26928594,0.06276006,-0.00243
 862,-0.01340433,0.01387173,0.00050119,-0.00144831,0.00196603,-0.000858
 23,-0.00184730,-0.00121294,-0.02052256,-0.05376313,-0.00224538,-0.0070
 6257,0.03613803,-0.05770969,-0.00113659,0.00158931,0.00215777,-0.06598
 004,-0.21077250,-0.02751901,-0.00011604,-0.00112948,0.00006847,-0.0147
 3001,-0.02596087,-0.00890126,-0.00099738,-0.00377326,0.00312623,0.1547
 0612,0.58509306,-0.00560865,-0.00307188,-0.00537208,-0.00104228,0.0249
 8115,-0.02927840,0.01340352,0.11051211,-0.15532686,-0.00235423,-0.0116
 3257,0.01099085,0.00092067,0.00214280,-0.00091575,0.00102582,0.0000430
 0,0.00247683,0.00245669,0.00283802,0.00004701,-0.01891184,-0.02199108,
 -0.02421437,-0.00260690,0.00184635,-0.00424279,-0.05328306,-0.07058939
 ,-0.14577514,0.00041903,-0.00006327,0.00060131,0.00718932,0.00969276,0
 .01419460,0.00050336,0.00393500,-0.00207486,0.12662169,-0.07183570,0.6
 2306659,0.00136750,0.00038403,-0.00010263,0.00721622,-0.00315046,0.000
 81310,0.00375949,0.00582503,0.00055363,-0.00327618,0.00119966,0.001689
 24,-0.00048453,-0.00017132,0.00039783,-0.00018458,-0.00026011,-0.00008
 529,-0.00143755,-0.00075710,0.00000753,0.00424674,-0.00525640,-0.00206
 302,0.00016522,0.00008937,-0.00084850,-0.00505255,-0.00131899,-0.02039
 802,-0.00070834,0.00032649,0.00021399,-0.00271554,0.00119866,-0.000372
 87,-0.00012143,0.00024584,-0.00017121,-0.07952052,-0.00362246,-0.05803
 944,0.19833506,0.00034376,0.00093191,0.00146391,-0.00392562,-0.0037733
 1,0.00265385,0.01001669,-0.00022700,0.03306667,0.00170016,-0.00000123,
 -0.00003709,0.00011973,-0.00066887,0.00052895,-0.00007130,-0.00007180,
 -0.00019956,-0.00026997,-0.00186459,0.00006099,-0.00481977,-0.00317513
 ,-0.00237602,-0.00042644,0.00046505,-0.00140808,-0.00438259,0.01033307
 ,-0.02399015,0.00031710,-0.00007200,-0.00004917,0.00013401,-0.00125278
 ,-0.00184487,0.00001961,-0.00012891,0.00001690,-0.00336649,-0.08229398
 ,0.01788242,-0.02770318,0.12914488,-0.00005291,0.00158932,-0.00089144,
 0.00177616,0.00507082,0.00744803,-0.00465404,0.02000390,-0.03809851,0.
 00106771,-0.00159664,0.00101531,0.00003612,-0.00037920,0.00003944,-0.0
 0031973,-0.00078828,-0.00007129,-0.00059790,-0.00145760,-0.00119097,-0
 .00260602,-0.00373721,0.00352488,-0.00020754,0.00019994,-0.00049365,-0
 .01659216,-0.01444125,-0.03175432,0.00022570,-0.00002002,-0.00017894,0
 .00094987,0.00147363,-0.00194321,0.00010992,0.00072205,-0.00071927,-0.
 05835764,0.01708336,-0.26255627,0.38297616,-0.13932356,1.45323790,-0.0
 0049899,-0.00053700,0.00004462,-0.00127943,0.00082265,-0.00047633,0.00
 011296,-0.00320761,0.00012170,0.00041464,-0.00003688,-0.00026196,0.000
 14378,0.00019327,-0.00017661,0.00017200,0.00024862,0.00004444,0.000353
 01,0.00011201,0.00016624,-0.00088428,0.00082627,-0.00002926,-0.0000926
 0,0.00002558,0.00007448,0.00197147,0.00061037,0.00184074,0.00011621,-0
 .00004657,-0.00002991,0.00011674,-0.00024250,-0.00010403,0.00012847,-0
 .00000857,-0.00005993,0.01427285,0.00249769,-0.01046533,-0.12147595,0.
 03306022,-0.30476074,0.10640589,-0.00009802,-0.00029446,-0.00031173,0.
 00086531,0.00076841,-0.00006460,-0.00151501,-0.00017774,-0.00282082,-0
 .00019713,0.00014332,-0.00015468,-0.00000208,0.00012050,-0.00000288,0.
 00005176,0.00010262,0.00010678,-0.00003169,0.00016315,0.00001540,0.000
 83672,0.00080963,0.00010580,0.00010980,-0.00008786,0.00029404,-0.00109
 240,-0.00388780,0.00283871,-0.00004495,0.00002951,0.00000259,-0.000489
 64,-0.00046349,-0.00064318,-0.00006985,0.00026952,-0.00036494,0.002327
 92,0.01895028,0.00437915,0.03319773,-0.04595533,0.11475310,-0.03421909
 ,0.02888092,-0.00050067,-0.00167984,0.00022695,-0.00052942,-0.00019785
 ,-0.00285878,-0.00198118,-0.00809640,0.00523689,-0.00006283,0.00034474
 ,-0.00011105,0.00006619,0.00060610,-0.00042351,0.00028891,0.00072036,0
 .00006455,0.00034480,0.00046332,0.00075419,-0.00004216,0.00007340,-0.0
 0142678,-0.00003016,0.00003148,-0.00025982,0.00395631,0.00814578,0.003
 34831,-0.00003195,-0.00000245,0.00004792,0.00020293,0.00012665,0.00072
 155,0.00001623,-0.00017383,0.00041775,-0.01025359,0.00490815,-0.021423
 05,-0.30493257,0.11432488,-1.12931411,0.31404522,-0.11857338,1.1454093
 6,0.00007354,0.00034047,-0.00014923,-0.00000250,-0.00033150,0.00044995
 ,-0.00000451,0.00062790,-0.00021066,0.00000542,0.00002457,-0.00003637,
 0.00002167,-0.00005737,0.00010735,-0.00004321,-0.00010469,-0.00004195,
 -0.00031496,0.00019735,0.00026800,-0.00050408,-0.00049681,0.00081456,0
 .00013168,0.00000212,0.00015465,0.00921404,-0.00263045,0.00248512,0.00
 005876,-0.00006692,0.00000670,-0.24004007,0.08955590,-0.07710788,-0.01
 103125,0.00539498,-0.00279899,0.00018242,-0.00102478,-0.00058581,0.000
 10315,-0.00022253,0.00011365,-0.00016659,-0.00020027,-0.00000438,0.259
 00592,0.00020216,0.00058094,-0.00031827,-0.00011538,-0.00059731,0.0002
 7335,-0.00065786,0.00039150,0.00048139,0.00004204,-0.00003271,-0.00002
 682,-0.00000994,-0.00015264,0.00013063,-0.00009715,-0.00024538,-0.0000
 2529,-0.00070435,0.00061050,0.00071218,-0.00095992,-0.00260109,-0.0000
 9674,0.00030404,-0.00004564,0.00008206,0.02348626,-0.01220642,0.009913
 44,0.00001271,-0.00018997,0.00005280,0.09063498,-0.09060152,0.03494167
 ,-0.01921653,0.01028831,-0.00637746,-0.00034862,0.00049588,0.00077689,
 0.00059774,-0.00106372,0.00033065,-0.00028065,0.00058869,-0.00052257,-
 0.09814321,0.09723695,-0.00013951,0.00020852,0.00000152,-0.00000353,-0
 .00028349,0.00036245,0.00045576,0.00039312,-0.00074328,-0.00002082,-0.
 00000141,0.00003265,0.00005708,0.00003770,0.00003908,0.00001048,-0.000
 01140,-0.00006587,0.00085491,-0.00013465,-0.00094257,0.00093915,0.0020
 5464,-0.00022437,-0.00048042,0.00029552,0.00029647,-0.01282796,0.00924
 087,-0.00897787,-0.00004335,0.00016377,-0.00004137,-0.07836882,0.03417
 521,-0.07248859,-0.01601020,0.00876027,-0.00627709,-0.00071812,-0.0020
 9404,-0.00004435,-0.00013208,-0.00032886,0.00118234,0.00009623,0.00033
 382,-0.00030124,0.08331252,-0.04188611,0.07883241,0.00010756,0.0002366
 1,-0.00014316,-0.00011656,-0.00031057,0.00010760,0.00018163,-0.0000646
 7,-0.00006692,-0.00001943,-0.00002291,0.00003128,-0.00001335,-0.000034
 37,0.00004714,-0.00005761,-0.00008894,-0.00001634,-0.00006880,0.000298
 95,-0.00010830,-0.00062296,0.00000632,-0.00039830,0.00020861,-0.000014
 44,0.00000381,-0.00251840,0.00069678,0.00199034,0.00003408,-0.00003046
 ,-0.00001805,-0.13517752,0.02455129,0.12432959,0.01017838,-0.00177119,
 -0.01328899,0.00072122,-0.00071550,0.00035743,-0.00021619,-0.00052339,
 0.00089339,0.00018983,0.00057089,-0.00055168,-0.01668942,0.00525368,0.
 02301869,0.14387894,0.00008241,0.00066463,-0.00028658,-0.00011619,-0.0
 0058725,0.00042451,0.00092097,0.00000864,-0.00010612,-0.00005359,0.000
 02827,-0.00001992,-0.00001664,-0.00015358,0.00016122,-0.00011286,-0.00
 024308,-0.00002863,0.00136485,-0.00029370,0.00016706,-0.00072526,-0.00
 287700,0.00032701,-0.00024691,0.00016837,0.00030914,-0.01771161,0.0047
 5540,0.02483080,-0.00014340,-0.00013835,0.00011591,0.02429448,-0.05490
 756,-0.03748639,0.01380337,-0.00338850,-0.01550427,0.00020553,0.000066
 40,0.00015423,-0.00082451,-0.00032627,0.00051699,0.00018220,0.00004014
 ,-0.00049854,0.00713524,-0.00245638,-0.01092348,-0.02803808,0.05963985
 ,0.00021048,0.00009801,-0.00011626,0.00005128,-0.00029755,0.00046642,-
 0.00036070,0.00091697,-0.00054655,0.00003216,-0.00000411,-0.00000350,0
 .00001640,0.00005102,0.00007507,-0.00004830,0.00000878,-0.00005375,-0.
 00089945,0.00050070,-0.00028443,0.00096159,0.00189962,0.00016983,0.000
 55249,-0.00012073,0.00000565,0.00772686,0.00147969,-0.01420696,0.00007
 333,0.00010873,-0.00006832,0.12456988,-0.03927945,-0.21304510,0.011148
 66,-0.00247981,-0.01380966,-0.00149455,-0.00195276,-0.00015329,0.00049
 417,-0.00044120,0.00076408,-0.00006957,0.00010681,-0.00010915,-0.00677
 722,0.00155821,0.00935970,-0.13618753,0.03784708,0.23155622\\0.0000005
 4,-0.00000168,-0.00000190,0.00000224,0.00001059,-0.00000396,-0.0000082
 9,-0.00001351,-0.00000261,0.00000650,0.00001050,0.00000413,-0.00000303
 ,-0.00000077,-0.00000277,-0.00000095,-0.00000158,-0.00000181,0.0000013
 5,-0.00000996,0.00001047,0.00000563,0.00001542,0.00000263,-0.00000700,
 -0.00001461,-0.00000578,-0.00000220,-0.00001166,0.00000786,-0.00000476
 ,-0.00000023,-0.00001252,-0.00000215,-0.00000325,0.00000039,0.00000598
 ,0.00000705,0.00000966,0.00000673,0.00000749,0.00000109,-0.00000468,0.
 00000193,-0.00000678,0.00000360,0.00000183,0.00000636,-0.00000650,0.00
 000380,0.00000031,0.00000699,-0.00000135,-0.00000479\\\@


 A MAN IS NEVER SO BRILLIANT AS WHEN HE TAKES THE WORDS RIGHT OUT
 OF YOUR MOUTH. -- ARNOT SHEPPARD, JR.
 Job cpu time:       0 days  0 hours 12 minutes 58.8 seconds.
 File lengths (MBytes):  RWF=     96 Int=      0 D2E=      0 Chk=      4 Scr=      1
 Normal termination of Gaussian 09 at Fri Aug 20 15:59:16 2021.
