 Entering Gaussian System, Link 0=g09
 Input=B3LYP6-31G.HNIMOZ.gjf
 Output=B3LYP6-31G.HNIMOZ.log
 Initial command:
 /public/home/users/caep010/software/Gaussian09/g09/l1.exe "/public/home/users/caep010/.cache/gau_scr/Gau-13830.inp" -scrdir="/public/home/users/caep010/.cache/gau_scr/"
 Entering Link 1 = /public/home/users/caep010/software/Gaussian09/g09/l1.exe PID=     13831.
  
 Copyright (c) 1988,1990,1992,1993,1995,1998,2003,2009,2015,
            Gaussian, Inc.  All Rights Reserved.
  
 This is part of the Gaussian(R) 09 program.  It is based on
 the Gaussian(R) 03 system (copyright 2003, Gaussian, Inc.),
 the Gaussian(R) 98 system (copyright 1998, Gaussian, Inc.),
 the Gaussian(R) 94 system (copyright 1995, Gaussian, Inc.),
 the Gaussian 92(TM) system (copyright 1992, Gaussian, Inc.),
 the Gaussian 90(TM) system (copyright 1990, Gaussian, Inc.),
 the Gaussian 88(TM) system (copyright 1988, Gaussian, Inc.),
 the Gaussian 86(TM) system (copyright 1986, Carnegie Mellon
 University), and the Gaussian 82(TM) system (copyright 1983,
 Carnegie Mellon University). Gaussian is a federally registered
 trademark of Gaussian, Inc.
  
 This software contains proprietary and confidential information,
 including trade secrets, belonging to Gaussian, Inc.
  
 This software is provided under written license and may be
 used, copied, transmitted, or stored only in accord with that
 written license.
  
 The following legend is applicable only to US Government
 contracts under FAR:
  
                    RESTRICTED RIGHTS LEGEND
  
 Use, reproduction and disclosure by the US Government is
 subject to restrictions as set forth in subparagraphs (a)
 and (c) of the Commercial Computer Software - Restricted
 Rights clause in FAR 52.227-19.
  
 Gaussian, Inc.
 340 Quinnipiac St., Bldg. 40, Wallingford CT 06492
  
  
 ---------------------------------------------------------------
 Warning -- This program may not be used in any manner that
 competes with the business of Gaussian, Inc. or will provide
 assistance to any competitor of Gaussian, Inc.  The licensee
 of this program is prohibited from giving any competitor of
 Gaussian, Inc. access to this program.  By using this program,
 the user acknowledges that Gaussian, Inc. is engaged in the
 business of creating and licensing software in the field of
 computational chemistry and represents and warrants to the
 licensee that it is not a competitor of Gaussian, Inc. and that
 it will not use this program in any manner prohibited above.
 ---------------------------------------------------------------
  

 Cite this work as:
 Gaussian 09, Revision E.01,
 M. J. Frisch, G. W. Trucks, H. B. Schlegel, G. E. Scuseria, 
 M. A. Robb, J. R. Cheeseman, G. Scalmani, V. Barone, B. Mennucci, 
 G. A. Petersson, H. Nakatsuji, M. Caricato, X. Li, H. P. Hratchian, 
 A. F. Izmaylov, J. Bloino, G. Zheng, J. L. Sonnenberg, M. Hada, 
 M. Ehara, K. Toyota, R. Fukuda, J. Hasegawa, M. Ishida, T. Nakajima, 
 Y. Honda, O. Kitao, H. Nakai, T. Vreven, J. A. Montgomery, Jr., 
 J. E. Peralta, F. Ogliaro, M. Bearpark, J. J. Heyd, E. Brothers, 
 K. N. Kudin, V. N. Staroverov, T. Keith, R. Kobayashi, J. Normand, 
 K. Raghavachari, A. Rendell, J. C. Burant, S. S. Iyengar, J. Tomasi, 
 M. Cossi, N. Rega, J. M. Millam, M. Klene, J. E. Knox, J. B. Cross, 
 V. Bakken, C. Adamo, J. Jaramillo, R. Gomperts, R. E. Stratmann, 
 O. Yazyev, A. J. Austin, R. Cammi, C. Pomelli, J. W. Ochterski, 
 R. L. Martin, K. Morokuma, V. G. Zakrzewski, G. A. Voth, 
 P. Salvador, J. J. Dannenberg, S. Dapprich, A. D. Daniels, 
 O. Farkas, J. B. Foresman, J. V. Ortiz, J. Cioslowski, 
 and D. J. Fox, Gaussian, Inc., Wallingford CT, 2013.
 
 ******************************************
 Gaussian 09:  ES64L-G09RevE.01 30-Nov-2015
                20-Aug-2021 
 ******************************************
 %nproc=32
 Will use up to   32 processors via shared memory.
 %mem=180GB
 -------------------------
 #P OPT Freq B3LYP/6-31G**
 -------------------------
 1/14=-1,18=20,19=15,26=3,38=1/1,3;
 2/9=110,12=2,17=6,18=5,40=1/2;
 3/5=1,6=6,7=101,11=2,16=1,25=1,30=1,71=1,74=-5/1,2,3;
 4//1;
 5/5=2,38=5/2;
 6/7=2,8=2,9=2,10=2,28=1/1;
 7//1,2,3,16;
 1/14=-1,18=20,19=15,26=3/3(2);
 2/9=110/2;
 99//99;
 2/9=110/2;
 3/5=1,6=6,7=101,11=2,16=1,25=1,30=1,71=1,74=-5/1,2,3;
 4/5=5,16=3,69=1/1;
 5/5=2,38=5/2;
 7//1,2,3,16;
 1/14=-1,18=20,19=15,26=3/3(-5);
 2/9=110/2;
 6/7=2,8=2,9=2,10=2,19=2,28=1/1;
 99/9=1/99;
 Leave Link    1 at Fri Aug 20 15:57:52 2021, MaxMem= 24159191040 cpu:         2.3
 (Enter /public/home/users/caep010/software/Gaussian09/g09/l101.exe)
 ------
 HNIMOZ
 ------
 Symbolic Z-matrix:
 Charge =  0 Multiplicity = 1
 C                     6.3315    1.0353    1.1085 
 N                     7.1747    2.1291    1.3379 
 O                     7.8038    2.5775    0.3729 
 C                     5.5916    0.2958    1.976 
 N                     4.9625   -0.7352    1.3337 
 C                     5.3628   -0.5825    0.095 
 O                     4.9945   -1.2305   -1.0051 
 C                     5.7442   -0.6139   -2.1062 
 C                     6.3643    0.6746   -1.5481 
 H                     7.4003    0.7948   -1.8089 
 H                     6.4816   -1.2598   -2.3685 
 O                     7.2379    2.5818    2.4744 
 H                     5.8016    1.4992   -1.7547 
 H                     5.0535   -0.4325   -2.8298 
 H                     5.4341    0.4182    2.8969 
 N                     6.2084    0.4166   -0.1224 
 
 NAtoms=     16 NQM=       16 NQMF=       0 NMMI=      0 NMMIF=      0
                NMic=       0 NMicF=      0.
                    Isotopes and Nuclear Properties:
 (Nuclear quadrupole moments (NQMom) in fm**2, nuclear magnetic moments (NMagM)
  in nuclear magnetons)

  Atom         1           2           3           4           5           6           7           8           9          10
 IAtWgt=          12          14          16          12          14          12          16          12          12           1
 AtmWgt=  12.0000000  14.0030740  15.9949146  12.0000000  14.0030740  12.0000000  15.9949146  12.0000000  12.0000000   1.0078250
 NucSpn=           0           2           0           0           2           0           0           0           0           1
 AtZEff=   0.0000000   0.0000000   0.0000000   0.0000000   0.0000000   0.0000000   0.0000000   0.0000000   0.0000000   0.0000000
 NQMom=    0.0000000   2.0440000   0.0000000   0.0000000   2.0440000   0.0000000   0.0000000   0.0000000   0.0000000   0.0000000
 NMagM=    0.0000000   0.4037610   0.0000000   0.0000000   0.4037610   0.0000000   0.0000000   0.0000000   0.0000000   2.7928460
 AtZNuc=   6.0000000   7.0000000   8.0000000   6.0000000   7.0000000   6.0000000   8.0000000   6.0000000   6.0000000   1.0000000

  Atom        11          12          13          14          15          16
 IAtWgt=           1          16           1           1           1          14
 AtmWgt=   1.0078250  15.9949146   1.0078250   1.0078250   1.0078250  14.0030740
 NucSpn=           1           0           1           1           1           2
 AtZEff=   0.0000000   0.0000000   0.0000000   0.0000000   0.0000000   0.0000000
 NQMom=    0.0000000   0.0000000   0.0000000   0.0000000   0.0000000   2.0440000
 NMagM=    2.7928460   0.0000000   2.7928460   2.7928460   2.7928460   0.4037610
 AtZNuc=   1.0000000   8.0000000   1.0000000   1.0000000   1.0000000   7.0000000
 Leave Link  101 at Fri Aug 20 15:57:52 2021, MaxMem= 24159191040 cpu:         9.9
 (Enter /public/home/users/caep010/software/Gaussian09/g09/l103.exe)

 GradGradGradGradGradGradGradGradGradGradGradGradGradGradGradGradGradGrad
 Berny optimization.
 Initialization pass.
                           ----------------------------
                           !    Initial Parameters    !
                           ! (Angstroms and Degrees)  !
 --------------------------                            --------------------------
 ! Name  Definition              Value          Derivative Info.                !
 --------------------------------------------------------------------------------
 ! R1    R(1,2)                  1.4            estimate D2E/DX2                !
 ! R2    R(1,4)                  1.359          estimate D2E/DX2                !
 ! R3    R(1,16)                 1.3831         estimate D2E/DX2                !
 ! R4    R(2,3)                  1.2361         estimate D2E/DX2                !
 ! R5    R(2,12)                 1.225          estimate D2E/DX2                !
 ! R6    R(4,5)                  1.3679         estimate D2E/DX2                !
 ! R7    R(4,15)                 0.9423         estimate D2E/DX2                !
 ! R8    R(5,6)                  1.3107         estimate D2E/DX2                !
 ! R9    R(6,7)                  1.3288         estimate D2E/DX2                !
 ! R10   R(6,16)                 1.3268         estimate D2E/DX2                !
 ! R11   R(7,8)                  1.4679         estimate D2E/DX2                !
 ! R12   R(8,9)                  1.535          estimate D2E/DX2                !
 ! R13   R(8,11)                 1.0148         estimate D2E/DX2                !
 ! R14   R(8,14)                 1.0166         estimate D2E/DX2                !
 ! R15   R(9,10)                 1.0751         estimate D2E/DX2                !
 ! R16   R(9,13)                 1.0195         estimate D2E/DX2                !
 ! R17   R(9,16)                 1.4572         estimate D2E/DX2                !
 ! A1    A(2,1,4)              130.425          estimate D2E/DX2                !
 ! A2    A(2,1,16)             123.2921         estimate D2E/DX2                !
 ! A3    A(4,1,16)             106.0345         estimate D2E/DX2                !
 ! A4    A(1,2,3)              117.5164         estimate D2E/DX2                !
 ! A5    A(1,2,12)             118.1529         estimate D2E/DX2                !
 ! A6    A(3,2,12)             124.33           estimate D2E/DX2                !
 ! A7    A(1,4,5)              111.1481         estimate D2E/DX2                !
 ! A8    A(1,4,15)             130.1051         estimate D2E/DX2                !
 ! A9    A(5,4,15)             118.6807         estimate D2E/DX2                !
 ! A10   A(4,5,6)              102.4439         estimate D2E/DX2                !
 ! A11   A(5,6,7)              129.8618         estimate D2E/DX2                !
 ! A12   A(5,6,16)             115.9261         estimate D2E/DX2                !
 ! A13   A(7,6,16)             114.091          estimate D2E/DX2                !
 ! A14   A(6,7,8)              105.939          estimate D2E/DX2                !
 ! A15   A(7,8,9)              106.6303         estimate D2E/DX2                !
 ! A16   A(7,8,11)             107.3173         estimate D2E/DX2                !
 ! A17   A(7,8,14)             105.1809         estimate D2E/DX2                !
 ! A18   A(9,8,11)             109.5551         estimate D2E/DX2                !
 ! A19   A(9,8,14)             112.5482         estimate D2E/DX2                !
 ! A20   A(11,8,14)            115.0424         estimate D2E/DX2                !
 ! A21   A(8,9,10)             113.2626         estimate D2E/DX2                !
 ! A22   A(8,9,13)             112.4769         estimate D2E/DX2                !
 ! A23   A(8,9,16)              99.4323         estimate D2E/DX2                !
 ! A24   A(10,9,13)            113.0982         estimate D2E/DX2                !
 ! A25   A(10,9,16)            111.1147         estimate D2E/DX2                !
 ! A26   A(13,9,16)            106.4054         estimate D2E/DX2                !
 ! A27   A(1,16,6)             104.3434         estimate D2E/DX2                !
 ! A28   A(1,16,9)             141.4411         estimate D2E/DX2                !
 ! A29   A(6,16,9)             111.2109         estimate D2E/DX2                !
 ! D1    D(4,1,2,3)            175.655          estimate D2E/DX2                !
 ! D2    D(4,1,2,12)            -4.6265         estimate D2E/DX2                !
 ! D3    D(16,1,2,3)             2.2129         estimate D2E/DX2                !
 ! D4    D(16,1,2,12)         -178.0685         estimate D2E/DX2                !
 ! D5    D(2,1,4,5)           -176.7059         estimate D2E/DX2                !
 ! D6    D(2,1,4,15)             6.3479         estimate D2E/DX2                !
 ! D7    D(16,1,4,5)            -2.4064         estimate D2E/DX2                !
 ! D8    D(16,1,4,15)         -179.3526         estimate D2E/DX2                !
 ! D9    D(2,1,16,6)           177.9501         estimate D2E/DX2                !
 ! D10   D(2,1,16,9)           -25.1375         estimate D2E/DX2                !
 ! D11   D(4,1,16,6)             3.1402         estimate D2E/DX2                !
 ! D12   D(4,1,16,9)           160.0526         estimate D2E/DX2                !
 ! D13   D(1,4,5,6)              0.6093         estimate D2E/DX2                !
 ! D14   D(15,4,5,6)           177.9472         estimate D2E/DX2                !
 ! D15   D(4,5,6,7)           -174.1105         estimate D2E/DX2                !
 ! D16   D(4,5,6,16)             1.6063         estimate D2E/DX2                !
 ! D17   D(5,6,7,8)            178.5174         estimate D2E/DX2                !
 ! D18   D(16,6,7,8)             2.737          estimate D2E/DX2                !
 ! D19   D(5,6,16,1)            -3.0798         estimate D2E/DX2                !
 ! D20   D(5,6,16,9)          -167.8798         estimate D2E/DX2                !
 ! D21   D(7,6,16,1)           173.3198         estimate D2E/DX2                !
 ! D22   D(7,6,16,9)             8.5198         estimate D2E/DX2                !
 ! D23   D(6,7,8,9)            -12.0895         estimate D2E/DX2                !
 ! D24   D(6,7,8,11)           105.2357         estimate D2E/DX2                !
 ! D25   D(6,7,8,14)          -131.8065         estimate D2E/DX2                !
 ! D26   D(7,8,9,10)           133.6929         estimate D2E/DX2                !
 ! D27   D(7,8,9,13)           -96.5158         estimate D2E/DX2                !
 ! D28   D(7,8,9,16)            15.7297         estimate D2E/DX2                !
 ! D29   D(11,8,9,10)           17.8587         estimate D2E/DX2                !
 ! D30   D(11,8,9,13)          147.6501         estimate D2E/DX2                !
 ! D31   D(11,8,9,16)         -100.1045         estimate D2E/DX2                !
 ! D32   D(14,8,9,10)         -111.4766         estimate D2E/DX2                !
 ! D33   D(14,8,9,13)           18.3148         estimate D2E/DX2                !
 ! D34   D(14,8,9,16)          130.5602         estimate D2E/DX2                !
 ! D35   D(8,9,16,1)          -170.7249         estimate D2E/DX2                !
 ! D36   D(8,9,16,6)           -14.7742         estimate D2E/DX2                !
 ! D37   D(10,9,16,1)           69.7157         estimate D2E/DX2                !
 ! D38   D(10,9,16,6)         -134.3335         estimate D2E/DX2                !
 ! D39   D(13,9,16,1)          -53.7944         estimate D2E/DX2                !
 ! D40   D(13,9,16,6)          102.1564         estimate D2E/DX2                !
 --------------------------------------------------------------------------------
 Trust Radius=3.00D-01 FncErr=1.00D-07 GrdErr=1.00D-06
 Number of steps in this run=     96 maximum allowed number of steps=    100.
 GradGradGradGradGradGradGradGradGradGradGradGradGradGradGradGradGradGrad

 Leave Link  103 at Fri Aug 20 15:57:52 2021, MaxMem= 24159191040 cpu:         0.6
 (Enter /public/home/users/caep010/software/Gaussian09/g09/l202.exe)
                          Input orientation:                          
 ---------------------------------------------------------------------
 Center     Atomic      Atomic             Coordinates (Angstroms)
 Number     Number       Type             X           Y           Z
 ---------------------------------------------------------------------
      1          6           0        6.331500    1.035300    1.108500
      2          7           0        7.174700    2.129100    1.337900
      3          8           0        7.803800    2.577500    0.372900
      4          6           0        5.591600    0.295800    1.976000
      5          7           0        4.962500   -0.735200    1.333700
      6          6           0        5.362800   -0.582500    0.095000
      7          8           0        4.994500   -1.230500   -1.005100
      8          6           0        5.744200   -0.613900   -2.106200
      9          6           0        6.364300    0.674600   -1.548100
     10          1           0        7.400300    0.794800   -1.808900
     11          1           0        6.481600   -1.259800   -2.368500
     12          8           0        7.237900    2.581800    2.474400
     13          1           0        5.801600    1.499200   -1.754700
     14          1           0        5.053500   -0.432500   -2.829800
     15          1           0        5.434100    0.418200    2.896900
     16          7           0        6.208400    0.416600   -0.122400
 ---------------------------------------------------------------------
                    Distance matrix (angstroms):
                    1          2          3          4          5
     1  C    0.000000
     2  N    1.400003   0.000000
     3  O    2.255472   1.236145   0.000000
     4  C    1.358995   2.504868   3.559482   0.000000
     5  N    2.249344   3.619124   4.468792   1.367946   0.000000
     6  C    2.140757   3.490065   4.002663   2.088521   1.310700
     7  O    3.374718   4.640025   4.928683   3.401923   2.390885
     8  C    3.660475   4.629493   4.535738   4.185116   3.529686
     9  C    2.681176   3.331864   3.063238   3.627649   3.501050
    10  H    3.116311   3.425435   2.846240   4.224437   4.261420
    11  H    4.168878   5.069757   4.897791   4.699646   4.035983
    12  O    2.253643   1.224975   2.176365   2.860857   4.181044
    13  H    2.948544   3.441853   3.114196   3.925607   3.903184
    14  H    4.392941   5.332073   5.184741   4.890367   4.175481
    15  H    2.093923   2.896092   4.080273   0.942255   1.999083
    16  N    1.383133   2.449259   2.731321   2.190506   2.235875
                    6          7          8          9         10
     6  C    0.000000
     7  O    1.328822   0.000000
     8  C    2.234219   1.467878   0.000000
     9  C    2.298495   2.408445   1.535002   0.000000
    10  H    3.110176   3.245891   2.194423   1.075063   0.000000
    11  H    2.789136   2.017718   1.014764   2.104452   2.319169
    12  O    4.380678   5.627912   5.781482   4.536639   4.643964
    13  H    2.819115   2.943565   2.142904   1.019451   1.747844
    14  H    2.944931   1.992439   1.016646   2.141640   2.838304
    15  H    2.976093   4.258763   5.117851   4.548520   5.113934
    16  N    1.326839   2.228374   2.283172   1.457220   2.099510
                   11         12         13         14         15
    11  H    0.000000
    12  O    6.227645   0.000000
    13  H    2.907100   4.595679   0.000000
    14  H    1.713678   6.480135   2.333872   0.000000
    15  H    5.624711   2.848397   4.789676   5.802038   0.000000
    16  N    2.816011   3.534308   2.000478   3.063459   3.117004
                   16
    16  N    0.000000
 Stoichiometry    C5H5N3O3
 Framework group  C1[X(C5H5N3O3)]
 Deg. of freedom    42
 Full point group                 C1      NOp   1
 Largest Abelian subgroup         C1      NOp   1
 Largest concise Abelian subgroup C1      NOp   1
                         Standard orientation:                         
 ---------------------------------------------------------------------
 Center     Atomic      Atomic             Coordinates (Angstroms)
 Number     Number       Type             X           Y           Z
 ---------------------------------------------------------------------
      1          6           0       -0.846781    0.356822    0.019835
      2          7           0       -2.043509   -0.368985   -0.012663
      3          8           0       -1.962916   -1.599836   -0.093693
      4          6           0       -0.629636    1.698344    0.025855
      5          7           0        0.708078    1.981937   -0.011208
      6          6           0        1.248742    0.788640   -0.051956
      7          8           0        2.527102    0.430415    0.004964
      8          6           0        2.537473   -1.036434   -0.049004
      9          6           0        1.087713   -1.494105    0.163044
     10          1           0        0.773145   -2.246343   -0.537631
     11          1           0        2.845046   -1.302323   -0.978761
     12          8           0       -3.097829    0.251927    0.045982
     13          1           0        0.896099   -1.745239    1.132320
     14          1           0        3.152322   -1.326315    0.706973
     15          1           0       -1.241617    2.412017    0.089059
     16          7           0        0.401015   -0.231730   -0.078504
 ---------------------------------------------------------------------
 Rotational constants (GHZ):      2.4491545      0.9468083      0.6897629
 Leave Link  202 at Fri Aug 20 15:57:53 2021, MaxMem= 24159191040 cpu:         0.9
 (Enter /public/home/users/caep010/software/Gaussian09/g09/l301.exe)
 Standard basis: 6-31G(d,p) (6D, 7F)
 Ernie: Thresh=  0.10000D-02 Tol=  0.10000D-05 Strict=F.
 There are   190 symmetry adapted cartesian basis functions of A   symmetry.
 There are   190 symmetry adapted basis functions of A   symmetry.
   190 basis functions,   343 primitive gaussians,   190 cartesian basis functions
    40 alpha electrons       40 beta electrons
       nuclear repulsion energy       631.1959111386 Hartrees.
 IExCor=  402 DFT=T Ex+Corr=B3LYP ExCW=0 ScaHFX=  0.200000
 ScaDFX=  0.800000  0.720000  1.000000  0.810000 ScalE2=  1.000000  1.000000
 IRadAn=      0 IRanWt=     -1 IRanGd=            0 ICorTp=0 IEmpDi=  4
 NAtoms=   16 NActive=   16 NUniq=   16 SFac= 1.00D+00 NAtFMM=   60 NAOKFM=F Big=F
 Integral buffers will be    131072 words long.
 Raffenetti 2 integral format.
 Two-electron integral symmetry is turned on.
 Leave Link  301 at Fri Aug 20 15:57:53 2021, MaxMem= 24159191040 cpu:         1.9
 (Enter /public/home/users/caep010/software/Gaussian09/g09/l302.exe)
 NPDir=0 NMtPBC=     1 NCelOv=     1 NCel=       1 NClECP=     1 NCelD=      1
         NCelK=      1 NCelE2=     1 NClLst=     1 CellRange=     0.0.
 One-electron integrals computed using PRISM.
 NBasis=   190 RedAO= T EigKep=  9.51D-04  NBF=   190
 NBsUse=   190 1.00D-06 EigRej= -1.00D+00 NBFU=   190
 Precomputing XC quadrature grid using
 IXCGrd= 4 IRadAn=           0 IRanWt=          -1 IRanGd=           0 AccXCQ= 0.00D+00.
 Generated NRdTot=       0 NPtTot=           0 NUsed=           0 NTot=          32
 NSgBfM=   189   189   189   189   189 MxSgAt=    16 MxSgA2=    16.
 Leave Link  302 at Fri Aug 20 15:57:53 2021, MaxMem= 24159191040 cpu:        12.2
 (Enter /public/home/users/caep010/software/Gaussian09/g09/l303.exe)
 DipDrv:  MaxL=1.
 Leave Link  303 at Fri Aug 20 15:57:53 2021, MaxMem= 24159191040 cpu:         1.1
 (Enter /public/home/users/caep010/software/Gaussian09/g09/l401.exe)
 ExpMin= 1.61D-01 ExpMax= 5.48D+03 ExpMxC= 8.25D+02 IAcc=1 IRadAn=         1 AccDes= 0.00D+00
 Harris functional with IExCor=  402 and IRadAn=       1 diagonalized for initial guess.
 HarFok:  IExCor=  402 AccDes= 0.00D+00 IRadAn=         1 IDoV= 1 UseB2=F ITyADJ=14
 ICtDFT=  3500011 ScaDFX=  1.000000  1.000000  1.000000  1.000000
 FoFCou: FMM=F IPFlag=           0 FMFlag=      100000 FMFlg1=           0
         NFxFlg=           0 DoJE=T BraDBF=F KetDBF=T FulRan=T
         wScrn=  0.000000 ICntrl=     500 IOpCl=  0 I1Cent=   200000004 NGrid=           0
         NMat0=    1 NMatS0=      1 NMatT0=    0 NMatD0=    1 NMtDS0=    0 NMtDT0=    0
 Petite list used in FoFCou.
 Harris En= -583.308126276225    
 JPrj=0 DoOrth=F DoCkMO=F.
 Leave Link  401 at Fri Aug 20 15:57:54 2021, MaxMem= 24159191040 cpu:        18.5
 (Enter /public/home/users/caep010/software/Gaussian09/g09/l502.exe)
 Closed shell SCF:
 Using DIIS extrapolation, IDIIS=  1040.
 Integral symmetry usage will be decided dynamically.
 Keep R1 ints in memory in canonical form, NReq=168247776.
 IVT=      134351 IEndB=      134351 NGot= 24159191040 MDV= 23994427105
 LenX= 23994427105 LenY= 23994390564
 Requested convergence on RMS density matrix=1.00D-08 within 128 cycles.
 Requested convergence on MAX density matrix=1.00D-06.
 Requested convergence on             energy=1.00D-06.
 No special actions if energy rises.
 FoFCou: FMM=F IPFlag=           0 FMFlag=           0 FMFlg1=           0
         NFxFlg=           0 DoJE=F BraDBF=F KetDBF=F FulRan=T
         wScrn=  0.000000 ICntrl=     600 IOpCl=  0 I1Cent=           0 NGrid=           0
         NMat0=    1 NMatS0=  18145 NMatT0=    0 NMatD0=    1 NMtDS0=    0 NMtDT0=    0
 Symmetry not used in FoFCou.
 Integral accuracy reduced to 1.0D-05 until final iterations.

 Cycle   1  Pass 0  IDiag  1:
 E= -583.032929771068    
 DIIS: error= 5.24D-02 at cycle   1 NSaved=   1.
 NSaved= 1 IEnMin= 1 EnMin= -583.032929771068     IErMin= 1 ErrMin= 5.24D-02
 ErrMax= 5.24D-02  0.00D+00 EMaxC= 1.00D-01 BMatC= 3.53D-01 BMatP= 3.53D-01
 IDIUse=3 WtCom= 4.76D-01 WtEn= 5.24D-01
 Coeff-Com:  0.100D+01
 Coeff-En:   0.100D+01
 Coeff:      0.100D+01
 Gap=     0.116 Goal=   None    Shift=    0.000
 GapD=    0.116 DampG=1.000 DampE=0.500 DampFc=0.5000 IDamp=-1.
 Damping current iteration by 5.00D-01
 RMSDP=7.08D-03 MaxDP=2.43D-01              OVMax= 3.20D-01

 Cycle   2  Pass 0  IDiag  1:
 E= -583.079525742272     Delta-E=       -0.046595971204 Rises=F Damp=T
 DIIS: error= 1.92D-02 at cycle   2 NSaved=   2.
 NSaved= 2 IEnMin= 2 EnMin= -583.079525742272     IErMin= 2 ErrMin= 1.92D-02
 ErrMax= 1.92D-02  0.00D+00 EMaxC= 1.00D-01 BMatC= 7.80D-02 BMatP= 3.53D-01
 IDIUse=3 WtCom= 8.08D-01 WtEn= 1.92D-01
 Coeff-Com:  0.279D+00 0.721D+00
 Coeff-En:   0.424D+00 0.576D+00
 Coeff:      0.306D+00 0.694D+00
 Gap=     0.211 Goal=   None    Shift=    0.000
 RMSDP=2.04D-03 MaxDP=6.40D-02 DE=-4.66D-02 OVMax= 2.10D-01

 Cycle   3  Pass 0  IDiag  1:
 E= -583.292420724254     Delta-E=       -0.212894981982 Rises=F Damp=F
 DIIS: error= 1.13D-02 at cycle   3 NSaved=   3.
 NSaved= 3 IEnMin= 3 EnMin= -583.292420724254     IErMin= 3 ErrMin= 1.13D-02
 ErrMax= 1.13D-02  0.00D+00 EMaxC= 1.00D-01 BMatC= 2.11D-02 BMatP= 7.80D-02
 IDIUse=3 WtCom= 8.87D-01 WtEn= 1.13D-01
 Coeff-Com:  0.106D+00 0.335D+00 0.559D+00
 Coeff-En:   0.000D+00 0.000D+00 0.100D+01
 Coeff:      0.943D-01 0.297D+00 0.609D+00
 Gap=     0.167 Goal=   None    Shift=    0.000
 RMSDP=1.22D-03 MaxDP=4.59D-02 DE=-2.13D-01 OVMax= 9.62D-02

 Cycle   4  Pass 0  IDiag  1:
 E= -583.296384963899     Delta-E=       -0.003964239645 Rises=F Damp=F
 DIIS: error= 1.69D-02 at cycle   4 NSaved=   4.
 NSaved= 4 IEnMin= 4 EnMin= -583.296384963899     IErMin= 3 ErrMin= 1.13D-02
 ErrMax= 1.69D-02  0.00D+00 EMaxC= 1.00D-01 BMatC= 1.83D-02 BMatP= 2.11D-02
 IDIUse=3 WtCom= 8.31D-01 WtEn= 1.69D-01
 Coeff-Com:  0.428D-01 0.126D+00 0.452D+00 0.379D+00
 Coeff-En:   0.000D+00 0.000D+00 0.452D+00 0.548D+00
 Coeff:      0.356D-01 0.105D+00 0.452D+00 0.408D+00
 Gap=     0.167 Goal=   None    Shift=    0.000
 RMSDP=7.24D-04 MaxDP=3.58D-02 DE=-3.96D-03 OVMax= 6.87D-02

 Cycle   5  Pass 0  IDiag  1:
 E= -583.309100712934     Delta-E=       -0.012715749035 Rises=F Damp=F
 DIIS: error= 6.83D-03 at cycle   5 NSaved=   5.
 NSaved= 5 IEnMin= 5 EnMin= -583.309100712934     IErMin= 5 ErrMin= 6.83D-03
 ErrMax= 6.83D-03  0.00D+00 EMaxC= 1.00D-01 BMatC= 2.61D-03 BMatP= 1.83D-02
 IDIUse=3 WtCom= 9.32D-01 WtEn= 6.83D-02
 Coeff-Com:  0.136D-01 0.214D-01 0.223D+00 0.302D+00 0.440D+00
 Coeff-En:   0.000D+00 0.000D+00 0.000D+00 0.146D+00 0.854D+00
 Coeff:      0.127D-01 0.199D-01 0.208D+00 0.291D+00 0.468D+00
 Gap=     0.164 Goal=   None    Shift=    0.000
 RMSDP=2.79D-04 MaxDP=1.36D-02 DE=-1.27D-02 OVMax= 2.26D-02

 Cycle   6  Pass 0  IDiag  1:
 E= -583.311050994244     Delta-E=       -0.001950281310 Rises=F Damp=F
 DIIS: error= 1.37D-03 at cycle   6 NSaved=   6.
 NSaved= 6 IEnMin= 6 EnMin= -583.311050994244     IErMin= 6 ErrMin= 1.37D-03
 ErrMax= 1.37D-03  0.00D+00 EMaxC= 1.00D-01 BMatC= 2.28D-04 BMatP= 2.61D-03
 IDIUse=3 WtCom= 9.86D-01 WtEn= 1.37D-02
 Coeff-Com:  0.307D-02-0.230D-03 0.779D-01 0.131D+00 0.299D+00 0.489D+00
 Coeff-En:   0.000D+00 0.000D+00 0.000D+00 0.000D+00 0.855D-01 0.915D+00
 Coeff:      0.303D-02-0.227D-03 0.769D-01 0.129D+00 0.296D+00 0.495D+00
 Gap=     0.165 Goal=   None    Shift=    0.000
 RMSDP=7.76D-05 MaxDP=2.47D-03 DE=-1.95D-03 OVMax= 4.26D-03

 Cycle   7  Pass 0  IDiag  1:
 E= -583.311236065492     Delta-E=       -0.000185071248 Rises=F Damp=F
 DIIS: error= 1.32D-04 at cycle   7 NSaved=   7.
 NSaved= 7 IEnMin= 7 EnMin= -583.311236065492     IErMin= 7 ErrMin= 1.32D-04
 ErrMax= 1.32D-04  0.00D+00 EMaxC= 1.00D-01 BMatC= 1.03D-05 BMatP= 2.28D-04
 IDIUse=3 WtCom= 9.99D-01 WtEn= 1.32D-03
 Coeff-Com:  0.597D-03-0.178D-02 0.255D-01 0.474D-01 0.130D+00 0.276D+00
 Coeff-Com:  0.522D+00
 Coeff-En:   0.000D+00 0.000D+00 0.000D+00 0.000D+00 0.000D+00 0.000D+00
 Coeff-En:   0.100D+01
 Coeff:      0.596D-03-0.178D-02 0.254D-01 0.474D-01 0.130D+00 0.275D+00
 Coeff:      0.523D+00
 Gap=     0.165 Goal=   None    Shift=    0.000
 RMSDP=1.99D-05 MaxDP=5.38D-04 DE=-1.85D-04 OVMax= 1.62D-03

 Cycle   8  Pass 0  IDiag  1:
 E= -583.311243900361     Delta-E=       -0.000007834869 Rises=F Damp=F
 DIIS: error= 6.02D-05 at cycle   8 NSaved=   8.
 NSaved= 8 IEnMin= 8 EnMin= -583.311243900361     IErMin= 8 ErrMin= 6.02D-05
 ErrMax= 6.02D-05  0.00D+00 EMaxC= 1.00D-01 BMatC= 1.14D-06 BMatP= 1.03D-05
 IDIUse=1 WtCom= 1.00D+00 WtEn= 0.00D+00
 Coeff-Com:  0.267D-04-0.105D-02 0.739D-02 0.150D-01 0.485D-01 0.115D+00
 Coeff-Com:  0.307D+00 0.507D+00
 Coeff:      0.267D-04-0.105D-02 0.739D-02 0.150D-01 0.485D-01 0.115D+00
 Coeff:      0.307D+00 0.507D+00
 Gap=     0.165 Goal=   None    Shift=    0.000
 RMSDP=6.58D-06 MaxDP=2.01D-04 DE=-7.83D-06 OVMax= 6.28D-04

 Initial convergence to 1.0D-05 achieved.  Increase integral accuracy.
 Cycle   9  Pass 1  IDiag  1:
 E= -583.311283026417     Delta-E=       -0.000039126056 Rises=F Damp=F
 DIIS: error= 1.26D-05 at cycle   1 NSaved=   1.
 NSaved= 1 IEnMin= 1 EnMin= -583.311283026417     IErMin= 1 ErrMin= 1.26D-05
 ErrMax= 1.26D-05  0.00D+00 EMaxC= 1.00D-01 BMatC= 1.32D-07 BMatP= 1.32D-07
 IDIUse=1 WtCom= 1.00D+00 WtEn= 0.00D+00
 Coeff-Com:  0.100D+01
 Coeff:      0.100D+01
 Gap=     0.165 Goal=   None    Shift=    0.000
 RMSDP=6.58D-06 MaxDP=2.01D-04 DE=-3.91D-05 OVMax= 2.74D-04

 Cycle  10  Pass 1  IDiag  1:
 E= -583.311283003813     Delta-E=        0.000000022605 Rises=F Damp=F
 DIIS: error= 2.12D-05 at cycle   2 NSaved=   2.
 NSaved= 2 IEnMin= 1 EnMin= -583.311283026417     IErMin= 1 ErrMin= 1.26D-05
 ErrMax= 2.12D-05  0.00D+00 EMaxC= 1.00D-01 BMatC= 1.64D-07 BMatP= 1.32D-07
 IDIUse=1 WtCom= 1.00D+00 WtEn= 0.00D+00
 Coeff-Com:  0.534D+00 0.466D+00
 Coeff:      0.534D+00 0.466D+00
 Gap=     0.165 Goal=   None    Shift=    0.000
 RMSDP=3.03D-06 MaxDP=1.04D-04 DE= 2.26D-08 OVMax= 2.58D-04

 Cycle  11  Pass 1  IDiag  1:
 E= -583.311283128666     Delta-E=       -0.000000124854 Rises=F Damp=F
 DIIS: error= 1.90D-05 at cycle   3 NSaved=   3.
 NSaved= 3 IEnMin= 3 EnMin= -583.311283128666     IErMin= 1 ErrMin= 1.26D-05
 ErrMax= 1.90D-05  0.00D+00 EMaxC= 1.00D-01 BMatC= 3.89D-08 BMatP= 1.32D-07
 IDIUse=1 WtCom= 1.00D+00 WtEn= 0.00D+00
 Coeff-Com:  0.887D-01 0.319D+00 0.592D+00
 Coeff:      0.887D-01 0.319D+00 0.592D+00
 Gap=     0.165 Goal=   None    Shift=    0.000
 RMSDP=1.26D-06 MaxDP=5.55D-05 DE=-1.25D-07 OVMax= 9.83D-05

 Cycle  12  Pass 1  IDiag  1:
 E= -583.311283151674     Delta-E=       -0.000000023007 Rises=F Damp=F
 DIIS: error= 1.52D-05 at cycle   4 NSaved=   4.
 NSaved= 4 IEnMin= 4 EnMin= -583.311283151674     IErMin= 1 ErrMin= 1.26D-05
 ErrMax= 1.52D-05  0.00D+00 EMaxC= 1.00D-01 BMatC= 1.51D-08 BMatP= 3.89D-08
 IDIUse=1 WtCom= 1.00D+00 WtEn= 0.00D+00
 Coeff-Com: -0.308D-02 0.186D+00 0.453D+00 0.364D+00
 Coeff:     -0.308D-02 0.186D+00 0.453D+00 0.364D+00
 Gap=     0.165 Goal=   None    Shift=    0.000
 RMSDP=5.88D-07 MaxDP=3.29D-05 DE=-2.30D-08 OVMax= 5.74D-05

 Cycle  13  Pass 1  IDiag  1:
 E= -583.311283163183     Delta-E=       -0.000000011509 Rises=F Damp=F
 DIIS: error= 2.87D-06 at cycle   5 NSaved=   5.
 NSaved= 5 IEnMin= 5 EnMin= -583.311283163183     IErMin= 5 ErrMin= 2.87D-06
 ErrMax= 2.87D-06  0.00D+00 EMaxC= 1.00D-01 BMatC= 8.90D-10 BMatP= 1.51D-08
 IDIUse=1 WtCom= 1.00D+00 WtEn= 0.00D+00
 Coeff-Com: -0.106D-01 0.975D-01 0.253D+00 0.245D+00 0.416D+00
 Coeff:     -0.106D-01 0.975D-01 0.253D+00 0.245D+00 0.416D+00
 Gap=     0.165 Goal=   None    Shift=    0.000
 RMSDP=1.50D-07 MaxDP=6.45D-06 DE=-1.15D-08 OVMax= 1.02D-05

 Cycle  14  Pass 1  IDiag  1:
 E= -583.311283163883     Delta-E=       -0.000000000701 Rises=F Damp=F
 DIIS: error= 4.07D-07 at cycle   6 NSaved=   6.
 NSaved= 6 IEnMin= 6 EnMin= -583.311283163883     IErMin= 6 ErrMin= 4.07D-07
 ErrMax= 4.07D-07  0.00D+00 EMaxC= 1.00D-01 BMatC= 3.32D-11 BMatP= 8.90D-10
 IDIUse=1 WtCom= 1.00D+00 WtEn= 0.00D+00
 Coeff-Com: -0.542D-02 0.403D-01 0.106D+00 0.106D+00 0.235D+00 0.518D+00
 Coeff:     -0.542D-02 0.403D-01 0.106D+00 0.106D+00 0.235D+00 0.518D+00
 Gap=     0.165 Goal=   None    Shift=    0.000
 RMSDP=3.52D-08 MaxDP=9.93D-07 DE=-7.01D-10 OVMax= 1.92D-06

 Cycle  15  Pass 1  IDiag  1:
 E= -583.311283163921     Delta-E=       -0.000000000038 Rises=F Damp=F
 DIIS: error= 1.27D-07 at cycle   7 NSaved=   7.
 NSaved= 7 IEnMin= 7 EnMin= -583.311283163921     IErMin= 7 ErrMin= 1.27D-07
 ErrMax= 1.27D-07  0.00D+00 EMaxC= 1.00D-01 BMatC= 3.59D-12 BMatP= 3.32D-11
 IDIUse=1 WtCom= 1.00D+00 WtEn= 0.00D+00
 Coeff-Com: -0.185D-02 0.117D-01 0.306D-01 0.312D-01 0.885D-01 0.298D+00
 Coeff-Com:  0.542D+00
 Coeff:     -0.185D-02 0.117D-01 0.306D-01 0.312D-01 0.885D-01 0.298D+00
 Coeff:      0.542D+00
 Gap=     0.165 Goal=   None    Shift=    0.000
 RMSDP=1.10D-08 MaxDP=3.20D-07 DE=-3.82D-11 OVMax= 5.58D-07

 Cycle  16  Pass 1  IDiag  1:
 E= -583.311283163916     Delta-E=        0.000000000006 Rises=F Damp=F
 DIIS: error= 5.60D-08 at cycle   8 NSaved=   8.
 NSaved= 8 IEnMin= 7 EnMin= -583.311283163921     IErMin= 8 ErrMin= 5.60D-08
 ErrMax= 5.60D-08  0.00D+00 EMaxC= 1.00D-01 BMatC= 4.53D-13 BMatP= 3.59D-12
 IDIUse=1 WtCom= 1.00D+00 WtEn= 0.00D+00
 Coeff-Com: -0.324D-03 0.116D-02 0.284D-02 0.316D-02 0.184D-01 0.101D+00
 Coeff-Com:  0.309D+00 0.565D+00
 Coeff:     -0.324D-03 0.116D-02 0.284D-02 0.316D-02 0.184D-01 0.101D+00
 Coeff:      0.309D+00 0.565D+00
 Gap=     0.165 Goal=   None    Shift=    0.000
 RMSDP=3.26D-09 MaxDP=1.40D-07 DE= 5.91D-12 OVMax= 1.80D-07

 SCF Done:  E(RB3LYP) =  -583.311283164     A.U. after   16 cycles
            NFock= 16  Conv=0.33D-08     -V/T= 2.0071
 KE= 5.792130795370D+02 PE=-2.625105370995D+03 EE= 8.313850971556D+02
 Leave Link  502 at Fri Aug 20 15:58:00 2021, MaxMem= 24159191040 cpu:        75.5
 (Enter /public/home/users/caep010/software/Gaussian09/g09/l601.exe)
 Copying SCF densities to generalized density rwf, IOpCl= 0 IROHF=0.

 **********************************************************************

            Population analysis using the SCF density.

 **********************************************************************

 Orbital symmetries:
       Occupied  (A) (A) (A) (A) (A) (A) (A) (A) (A) (A) (A) (A)
                 (A) (A) (A) (A) (A) (A) (A) (A) (A) (A) (A) (A)
                 (A) (A) (A) (A) (A) (A) (A) (A) (A) (A) (A) (A)
                 (A) (A) (A) (A)
       Virtual   (A) (A) (A) (A) (A) (A) (A) (A) (A) (A) (A) (A)
                 (A) (A) (A) (A) (A) (A) (A) (A) (A) (A) (A) (A)
                 (A) (A) (A) (A) (A) (A) (A) (A) (A) (A) (A) (A)
                 (A) (A) (A) (A) (A) (A) (A) (A) (A) (A) (A) (A)
                 (A) (A) (A) (A) (A) (A) (A) (A) (A) (A) (A) (A)
                 (A) (A) (A) (A) (A) (A) (A) (A) (A) (A) (A) (A)
                 (A) (A) (A) (A) (A) (A) (A) (A) (A) (A) (A) (A)
                 (A) (A) (A) (A) (A) (A) (A) (A) (A) (A) (A) (A)
                 (A) (A) (A) (A) (A) (A) (A) (A) (A) (A) (A) (A)
                 (A) (A) (A) (A) (A) (A) (A) (A) (A) (A) (A) (A)
                 (A) (A) (A) (A) (A) (A) (A) (A) (A) (A) (A) (A)
                 (A) (A) (A) (A) (A) (A) (A) (A) (A) (A) (A) (A)
                 (A) (A) (A) (A) (A) (A)
 The electronic state is 1-A.
 Alpha  occ. eigenvalues --  -19.22313 -19.17322 -19.17299 -14.57320 -14.42200
 Alpha  occ. eigenvalues --  -14.33900 -10.32351 -10.27816 -10.27511 -10.26945
 Alpha  occ. eigenvalues --  -10.23016  -1.22656  -1.14575  -1.05023  -1.04228
 Alpha  occ. eigenvalues --   -0.93760  -0.83721  -0.80918  -0.72959  -0.69229
 Alpha  occ. eigenvalues --   -0.64313  -0.60436  -0.57560  -0.55346  -0.53789
 Alpha  occ. eigenvalues --   -0.53294  -0.50602  -0.48776  -0.48054  -0.47363
 Alpha  occ. eigenvalues --   -0.46045  -0.43987  -0.40480  -0.36171  -0.31808
 Alpha  occ. eigenvalues --   -0.30977  -0.30289  -0.29927  -0.28536  -0.24503
 Alpha virt. eigenvalues --   -0.07983   0.03181   0.04216   0.05978   0.07860
 Alpha virt. eigenvalues --    0.11469   0.12813   0.14233   0.16035   0.18308
 Alpha virt. eigenvalues --    0.18953   0.19567   0.21194   0.24179   0.25985
 Alpha virt. eigenvalues --    0.29218   0.34881   0.37828   0.39979   0.43112
 Alpha virt. eigenvalues --    0.44868   0.45704   0.49441   0.50838   0.52301
 Alpha virt. eigenvalues --    0.53591   0.54126   0.57928   0.59357   0.60139
 Alpha virt. eigenvalues --    0.61504   0.63379   0.64760   0.68054   0.70812
 Alpha virt. eigenvalues --    0.73909   0.75484   0.77652   0.78407   0.79790
 Alpha virt. eigenvalues --    0.81325   0.82461   0.85195   0.85926   0.87535
 Alpha virt. eigenvalues --    0.88377   0.89443   0.90989   0.93415   0.95346
 Alpha virt. eigenvalues --    0.96236   0.97903   0.99772   1.03264   1.03980
 Alpha virt. eigenvalues --    1.09664   1.12793   1.14183   1.18059   1.21070
 Alpha virt. eigenvalues --    1.23021   1.26426   1.27673   1.30358   1.32203
 Alpha virt. eigenvalues --    1.36407   1.38819   1.40859   1.43791   1.49056
 Alpha virt. eigenvalues --    1.50447   1.52572   1.55674   1.59167   1.63142
 Alpha virt. eigenvalues --    1.67865   1.69370   1.71325   1.75295   1.76824
 Alpha virt. eigenvalues --    1.78814   1.81198   1.82205   1.84187   1.88090
 Alpha virt. eigenvalues --    1.89465   1.90951   1.92213   1.94514   1.95613
 Alpha virt. eigenvalues --    1.96926   1.99506   2.02496   2.04474   2.07130
 Alpha virt. eigenvalues --    2.10267   2.11711   2.13358   2.16438   2.17461
 Alpha virt. eigenvalues --    2.20736   2.24651   2.26064   2.32145   2.33952
 Alpha virt. eigenvalues --    2.38568   2.42599   2.45163   2.47672   2.48418
 Alpha virt. eigenvalues --    2.51203   2.54152   2.55536   2.57176   2.60573
 Alpha virt. eigenvalues --    2.63622   2.65240   2.67317   2.67800   2.73771
 Alpha virt. eigenvalues --    2.75361   2.78457   2.79187   2.83703   2.84173
 Alpha virt. eigenvalues --    2.89176   2.92210   2.96200   2.96607   3.07303
 Alpha virt. eigenvalues --    3.10196   3.21985   3.27483   3.34339   3.37463
 Alpha virt. eigenvalues --    3.43171   3.52974   3.57844   3.72898   3.87151
 Alpha virt. eigenvalues --    3.89156   4.03250   4.11512   4.12869   4.23205
 Alpha virt. eigenvalues --    4.33955   4.36900   4.56475   4.64986   4.74449
          Condensed to atoms (all electrons):
               1          2          3          4          5          6
     1  C    4.982993   0.135932  -0.075998   0.489394  -0.027450  -0.088458
     2  N    0.135932   6.038060   0.271645  -0.059636   0.005293   0.001810
     3  O   -0.075998   0.271645   8.328264   0.005711  -0.000090  -0.000005
     4  C    0.489394  -0.059636   0.005711   4.799345   0.400759  -0.095507
     5  N   -0.027450   0.005293  -0.000090   0.400759   6.825982   0.495479
     6  C   -0.088458   0.001810  -0.000005  -0.095507   0.495479   4.346609
     7  O    0.001594  -0.000030  -0.000003   0.002536  -0.045878   0.294563
     8  C    0.006261  -0.000079   0.000383  -0.000511   0.002678  -0.050651
     9  C   -0.024754  -0.002945   0.008641   0.008091   0.004702  -0.069419
    10  H   -0.000771   0.000463   0.003319  -0.000260  -0.000171   0.002916
    11  H   -0.000392  -0.000006  -0.000002   0.000066  -0.000093   0.001761
    12  O   -0.096818   0.321866  -0.090414   0.006615   0.000271  -0.000023
    13  H    0.000903   0.000053   0.000210   0.000326  -0.000137   0.001204
    14  H   -0.000088   0.000000  -0.000002   0.000011  -0.000089   0.002560
    15  H   -0.049837  -0.005469  -0.000006   0.404516  -0.045256   0.005862
    16  N    0.276456  -0.038889  -0.010972  -0.085531  -0.101001   0.375322
               7          8          9         10         11         12
     1  C    0.001594   0.006261  -0.024754  -0.000771  -0.000392  -0.096818
     2  N   -0.000030  -0.000079  -0.002945   0.000463  -0.000006   0.321866
     3  O   -0.000003   0.000383   0.008641   0.003319  -0.000002  -0.090414
     4  C    0.002536  -0.000511   0.008091  -0.000260   0.000066   0.006615
     5  N   -0.045878   0.002678   0.004702  -0.000171  -0.000093   0.000271
     6  C    0.294563  -0.050651  -0.069419   0.002916   0.001761  -0.000023
     7  O    8.194606   0.236568  -0.023882   0.002008  -0.036587   0.000000
     8  C    0.236568   4.765346   0.329701  -0.028418   0.391361   0.000002
     9  C   -0.023882   0.329701   4.844055   0.389277  -0.034674   0.000064
    10  H    0.002008  -0.028418   0.389277   0.536536  -0.007927   0.000009
    11  H   -0.036587   0.391361  -0.034674  -0.007927   0.567492  -0.000000
    12  O    0.000000   0.000002   0.000064   0.000009  -0.000000   8.263969
    13  H    0.002139  -0.033127   0.397251  -0.034437   0.005661  -0.000012
    14  H   -0.032155   0.401848  -0.030906   0.002966  -0.039424  -0.000000
    15  H   -0.000106   0.000013  -0.000086  -0.000001  -0.000000   0.006089
    16  N   -0.082818  -0.044398   0.263786  -0.030905   0.000061   0.002819
              13         14         15         16
     1  C    0.000903  -0.000088  -0.049837   0.276456
     2  N    0.000053   0.000000  -0.005469  -0.038889
     3  O    0.000210  -0.000002  -0.000006  -0.010972
     4  C    0.000326   0.000011   0.404516  -0.085531
     5  N   -0.000137  -0.000089  -0.045256  -0.101001
     6  C    0.001204   0.002560   0.005862   0.375322
     7  O    0.002139  -0.032155  -0.000106  -0.082818
     8  C   -0.033127   0.401848   0.000013  -0.044398
     9  C    0.397251  -0.030906  -0.000086   0.263786
    10  H   -0.034437   0.002966  -0.000001  -0.030905
    11  H    0.005661  -0.039424  -0.000000   0.000061
    12  O   -0.000012  -0.000000   0.006089   0.002819
    13  H    0.558264  -0.007906   0.000000  -0.048759
    14  H   -0.007906   0.552250  -0.000001   0.003418
    15  H    0.000000  -0.000001   0.576777   0.006229
    16  N   -0.048759   0.003418   0.006229   7.024900
 Mulliken charges:
               1
     1  C    0.471035
     2  N    0.331931
     3  O   -0.440683
     4  C    0.124074
     5  N   -0.515001
     6  C    0.775977
     7  O   -0.512555
     8  C    0.023025
     9  C   -0.058903
    10  H    0.165395
    11  H    0.152703
    12  O   -0.414438
    13  H    0.158367
    14  H    0.147518
    15  H    0.101275
    16  N   -0.509718
 Sum of Mulliken charges =  -0.00000
 Mulliken charges with hydrogens summed into heavy atoms:
               1
     1  C    0.471035
     2  N    0.331931
     3  O   -0.440683
     4  C    0.225349
     5  N   -0.515001
     6  C    0.775977
     7  O   -0.512555
     8  C    0.323245
     9  C    0.264859
    12  O   -0.414438
    16  N   -0.509718
 Electronic spatial extent (au):  <R**2>=           1531.1283
 Charge=             -0.0000 electrons
 Dipole moment (field-independent basis, Debye):
    X=              4.2985    Y=             -2.8197    Z=              0.2482  Tot=              5.1468
 Quadrupole moment (field-independent basis, Debye-Ang):
   XX=            -69.3090   YY=            -63.4665   ZZ=            -58.3970
   XY=            -13.0108   XZ=             -0.0163   YZ=             -0.3002
 Traceless Quadrupole moment (field-independent basis, Debye-Ang):
   XX=             -5.5848   YY=              0.2577   ZZ=              5.3271
   XY=            -13.0108   XZ=             -0.0163   YZ=             -0.3002
 Octapole moment (field-independent basis, Debye-Ang**2):
  XXX=             39.0229  YYY=            -15.9711  ZZZ=              0.3111  XYY=             -0.2159
  XXY=            -13.9773  XXZ=             -0.0142  XZZ=             -1.1901  YZZ=             -5.3159
  YYZ=              0.3993  XYZ=              0.1358
 Hexadecapole moment (field-independent basis, Debye-Ang**3):
 XXXX=          -1333.5089 YYYY=           -576.3262 ZZZZ=            -62.6900 XXXY=            -43.9880
 XXXZ=              3.7497 YYYX=            -47.5744 YYYZ=              3.3436 ZZZX=              0.2241
 ZZZY=             -0.2881 XXYY=           -302.2585 XXZZ=           -203.7443 YYZZ=           -101.2132
 XXYZ=             -2.0450 YYXZ=             -1.3160 ZZXY=             -0.6478
 N-N= 6.311959111386D+02 E-N=-2.625105373272D+03  KE= 5.792130795370D+02
 No NMR shielding tensors so no spin-rotation constants.
 Leave Link  601 at Fri Aug 20 15:58:01 2021, MaxMem= 24159191040 cpu:        10.8
 (Enter /public/home/users/caep010/software/Gaussian09/g09/l701.exe)
 Compute integral first derivatives.
 ... and contract with generalized density number  0.
 Leave Link  701 at Fri Aug 20 15:58:01 2021, MaxMem= 24159191040 cpu:        13.6
 (Enter /public/home/users/caep010/software/Gaussian09/g09/l702.exe)
 L702 exits ... SP integral derivatives will be done elsewhere.
 Leave Link  702 at Fri Aug 20 15:58:01 2021, MaxMem= 24159191040 cpu:         0.6
 (Enter /public/home/users/caep010/software/Gaussian09/g09/l703.exe)
 Compute integral first derivatives, UseDBF=F ICtDFT=           0.
 Integral derivatives from FoFJK, PRISM(SPDF).
 Calling FoFJK, ICntrl=      2127 FMM=F ISym2X=0 I1Cent= 0 IOpClX= 0 NMat=1 NMatS=1 NMatT=0.
 FoFJK:  IHMeth= 1 ICntrl=    2127 DoSepK=F KAlg= 0 I1Cent=   0 FoldK=F
 IRaf=         0 NMat=   1 IRICut=       1 DoRegI=T DoRafI=F ISym2E= 0.
 FoFCou: FMM=F IPFlag=           0 FMFlag=      100000 FMFlg1=         800
         NFxFlg=           0 DoJE=F BraDBF=F KetDBF=F FulRan=T
         wScrn=  0.000000 ICntrl=    2127 IOpCl=  0 I1Cent=           0 NGrid=           0
         NMat0=    1 NMatS0=      1 NMatT0=    0 NMatD0=    1 NMtDS0=    0 NMtDT0=    0
 Symmetry not used in FoFCou.
 Leave Link  703 at Fri Aug 20 15:58:02 2021, MaxMem= 24159191040 cpu:        19.9
 (Enter /public/home/users/caep010/software/Gaussian09/g09/l716.exe)
 Dipole        = 1.69116836D+00-1.10934983D+00 9.76429487D-02
 ***** Axes restored to original set *****
 -------------------------------------------------------------------
 Center     Atomic                   Forces (Hartrees/Bohr)
 Number     Number              X              Y              Z
 -------------------------------------------------------------------
      1        6           0.011959179    0.012462279   -0.006119144
      2        7           0.003229838    0.003008492   -0.003947392
      3        8           0.003638157    0.001576228   -0.011073380
      4        6           0.005719204   -0.030833059   -0.122241576
      5        7          -0.003548783   -0.003883903    0.002135510
      6        6          -0.012579839   -0.018680783    0.002342418
      7        8          -0.001166672   -0.003605719   -0.007878968
      8        6          -0.009333151    0.021074463    0.060447024
      9        6           0.020462343   -0.034234252    0.024720671
     10        1           0.008436164    0.004505597   -0.004881679
     11        1           0.041602536   -0.042877509   -0.022201027
     12        8          -0.001861679    0.002709986    0.014382538
     13        1          -0.026291647    0.050788456   -0.020293486
     14        1          -0.035166157    0.008000755   -0.048254737
     15        1          -0.017635667    0.023456683    0.145725267
     16        7           0.012536176    0.006532287   -0.002862039
 -------------------------------------------------------------------
 Cartesian Forces:  Max     0.145725267 RMS     0.034597624
 Leave Link  716 at Fri Aug 20 15:58:02 2021, MaxMem= 24159191040 cpu:         0.7
 (Enter /public/home/users/caep010/software/Gaussian09/g09/l103.exe)

 GradGradGradGradGradGradGradGradGradGradGradGradGradGradGradGradGradGrad
 Berny optimization.
 FormGI is forming the generalized inverse of G from B-inverse, IUseBI=4.
 Internal  Forces:  Max     0.148417164 RMS     0.020474987
 Search for a local minimum.
 Step number   1 out of a maximum of   96
 All quantities printed in internal units (Hartrees-Bohrs-Radians)
 RMS Force = .20475D-01 SwitMx=.10000D-02 MixMth= 1
 Mixed Optimization -- RFO/linear search
 Second derivative matrix not updated -- first step.
 ITU=  0
     Eigenvalues ---    0.00621   0.01690   0.01692   0.01692   0.01990
     Eigenvalues ---    0.02089   0.02345   0.02486   0.02616   0.04505
     Eigenvalues ---    0.04960   0.05482   0.05775   0.08271   0.08632
     Eigenvalues ---    0.11202   0.11429   0.15981   0.21981   0.23044
     Eigenvalues ---    0.23778   0.24517   0.24812   0.25000   0.25000
     Eigenvalues ---    0.28250   0.33785   0.36555   0.36597   0.44054
     Eigenvalues ---    0.44426   0.44877   0.45184   0.45620   0.46135
     Eigenvalues ---    0.50987   0.54414   0.57488   0.59472   0.61789
     Eigenvalues ---    0.88573   0.93213
 RFO step:  Lambda=-6.21996924D-02 EMin= 6.21316882D-03
 Linear search not attempted -- first point.
 Maximum step size (   0.300) exceeded in Quadratic search.
    -- Step size scaled by   0.902
 Iteration  1 RMS(Cart)=  0.03973364 RMS(Int)=  0.00088983
 Iteration  2 RMS(Cart)=  0.00090532 RMS(Int)=  0.00005979
 Iteration  3 RMS(Cart)=  0.00000148 RMS(Int)=  0.00005977
 Iteration  4 RMS(Cart)=  0.00000000 RMS(Int)=  0.00005977
 ITry= 1 IFail=0 DXMaxC= 2.51D-01 DCOld= 1.00D+10 DXMaxT= 3.00D-01 DXLimC= 3.00D+00 Rises=F
 Variable       Old X    -DE/DX   Delta X   Delta X   Delta X     New X
                                 (Linear)    (Quad)   (Total)
    R1        2.64562   0.00861   0.00000   0.01498   0.01498   2.66060
    R2        2.56813   0.02465   0.00000   0.03723   0.03724   2.60537
    R3        2.61374   0.00835   0.00000   0.01378   0.01376   2.62750
    R4        2.33598   0.01107   0.00000   0.01053   0.01053   2.34651
    R5        2.31487   0.01425   0.00000   0.01293   0.01293   2.32780
    R6        2.58504   0.01163   0.00000   0.01807   0.01809   2.60313
    R7        1.78060   0.14842   0.00000   0.20388   0.20388   1.98449
    R8        2.47686   0.01134   0.00000   0.01464   0.01464   2.49151
    R9        2.51111   0.01024   0.00000   0.01569   0.01569   2.52680
   R10        2.50736   0.02132   0.00000   0.03132   0.03129   2.53865
   R11        2.77389   0.00437   0.00000   0.00760   0.00761   2.78150
   R12        2.90073   0.01744   0.00000   0.04047   0.04048   2.94121
   R13        1.91763   0.06327   0.00000   0.11107   0.11107   2.02869
   R14        1.92118   0.05966   0.00000   0.10536   0.10536   2.02655
   R15        2.03157   0.00982   0.00000   0.02069   0.02069   2.05227
   R16        1.92648   0.05970   0.00000   0.10638   0.10638   2.03287
   R17        2.75375   0.00731   0.00000   0.01512   0.01513   2.76887
    A1        2.27635   0.00325   0.00000   0.00933   0.00933   2.28568
    A2        2.15185  -0.00234   0.00000  -0.00697  -0.00695   2.14490
    A3        1.85065  -0.00093   0.00000  -0.00244  -0.00246   1.84819
    A4        2.05105  -0.00320   0.00000  -0.00926  -0.00927   2.04178
    A5        2.06216  -0.00283   0.00000  -0.00819  -0.00820   2.05396
    A6        2.16997   0.00603   0.00000   0.01741   0.01740   2.18737
    A7        1.93990  -0.00220   0.00000  -0.00693  -0.00694   1.93296
    A8        2.27076  -0.00560   0.00000  -0.02359  -0.02363   2.24713
    A9        2.07137   0.00787   0.00000   0.03115   0.03112   2.10249
   A10        1.78798   0.00394   0.00000   0.01233   0.01235   1.80033
   A11        2.26652   0.00714   0.00000   0.01760   0.01763   2.28415
   A12        2.02329  -0.00324   0.00000  -0.01083  -0.01084   2.01245
   A13        1.99126  -0.00392   0.00000  -0.00681  -0.00683   1.98443
   A14        1.84898   0.00295   0.00000   0.00744   0.00740   1.85639
   A15        1.86105   0.00117   0.00000  -0.00193  -0.00197   1.85908
   A16        1.87304  -0.00194   0.00000  -0.00469  -0.00474   1.86830
   A17        1.83575   0.00205   0.00000   0.01829   0.01829   1.85405
   A18        1.91210   0.00480   0.00000   0.02379   0.02384   1.93593
   A19        1.96434  -0.00042   0.00000  -0.00012  -0.00016   1.96418
   A20        2.00787  -0.00546   0.00000  -0.03403  -0.03397   1.97390
   A21        1.97680  -0.00010   0.00000  -0.00463  -0.00463   1.97217
   A22        1.96309   0.00077   0.00000   0.00546   0.00524   1.96833
   A23        1.73542  -0.00102   0.00000  -0.00571  -0.00574   1.72968
   A24        1.97394  -0.00403   0.00000  -0.02731  -0.02740   1.94654
   A25        1.93932  -0.00037   0.00000   0.00036   0.00034   1.93966
   A26        1.85713   0.00562   0.00000   0.03830   0.03821   1.89534
   A27        1.82114   0.00243   0.00000   0.00782   0.00783   1.82897
   A28        2.46861  -0.00274   0.00000  -0.01024  -0.01028   2.45833
   A29        1.94100   0.00030   0.00000   0.00333   0.00337   1.94436
    D1        3.06576   0.00036   0.00000   0.00516   0.00519   3.07094
    D2       -0.08075  -0.00030   0.00000  -0.00237  -0.00234  -0.08308
    D3        0.03862   0.00066   0.00000   0.00654   0.00651   0.04514
    D4       -3.10788   0.00000   0.00000  -0.00098  -0.00101  -3.10889
    D5       -3.08410   0.00004   0.00000  -0.00090  -0.00091  -3.08501
    D6        0.11079  -0.00156   0.00000  -0.01645  -0.01632   0.09447
    D7       -0.04200  -0.00035   0.00000  -0.00249  -0.00245  -0.04445
    D8       -3.13029  -0.00195   0.00000  -0.01804  -0.01786   3.13503
    D9        3.10582   0.00031   0.00000   0.00111   0.00115   3.10696
   D10       -0.43873   0.00085   0.00000   0.00713   0.00714  -0.43159
   D11        0.05481   0.00027   0.00000   0.00142   0.00140   0.05621
   D12        2.79345   0.00081   0.00000   0.00744   0.00739   2.80084
   D13        0.01063   0.00019   0.00000   0.00260   0.00258   0.01322
   D14        3.10576   0.00117   0.00000   0.01444   0.01477   3.12053
   D15       -3.03880   0.00044   0.00000  -0.00087  -0.00093  -3.03973
   D16        0.02804  -0.00019   0.00000  -0.00218  -0.00217   0.02587
   D17        3.11572   0.00050   0.00000   0.00757   0.00766   3.12338
   D18        0.04777   0.00110   0.00000   0.00902   0.00904   0.05681
   D19       -0.05375  -0.00015   0.00000   0.00046   0.00045  -0.05330
   D20       -2.93005   0.00047   0.00000   0.00046   0.00042  -2.92963
   D21        3.02500  -0.00019   0.00000   0.00047   0.00055   3.02555
   D22        0.14870   0.00043   0.00000   0.00047   0.00052   0.14922
   D23       -0.21100  -0.00163   0.00000  -0.01259  -0.01262  -0.22362
   D24        1.83671   0.00356   0.00000   0.01170   0.01167   1.84838
   D25       -2.30046  -0.00274   0.00000  -0.02063  -0.02071  -2.32117
   D26        2.33338   0.00083   0.00000   0.00660   0.00660   2.33998
   D27       -1.68452  -0.00425   0.00000  -0.03112  -0.03110  -1.71562
   D28        0.27453   0.00189   0.00000   0.01139   0.01137   0.28591
   D29        0.31169   0.00006   0.00000   0.00116   0.00113   0.31282
   D30        2.57698  -0.00502   0.00000  -0.03656  -0.03658   2.54040
   D31       -1.74715   0.00111   0.00000   0.00595   0.00590  -1.74126
   D32       -1.94563   0.00377   0.00000   0.02736   0.02737  -1.91827
   D33        0.31965  -0.00131   0.00000  -0.01036  -0.01034   0.30931
   D34        2.27871   0.00483   0.00000   0.03215   0.03214   2.31084
   D35       -2.97971  -0.00162   0.00000  -0.01344  -0.01341  -2.99312
   D36       -0.25786  -0.00083   0.00000  -0.00682  -0.00682  -0.26468
   D37        1.21677  -0.00081   0.00000  -0.00521  -0.00517   1.21160
   D38       -2.34456  -0.00001   0.00000   0.00141   0.00142  -2.34314
   D39       -0.93889   0.00068   0.00000   0.00304   0.00313  -0.93576
   D40        1.78297   0.00148   0.00000   0.00966   0.00972   1.79268
         Item               Value     Threshold  Converged?
 Maximum Force            0.148417     0.000450     NO 
 RMS     Force            0.020475     0.000300     NO 
 Maximum Displacement     0.250931     0.001800     NO 
 RMS     Displacement     0.040115     0.001200     NO 
 Predicted change in Energy=-3.380704D-02
 Lowest energy point so far.  Saving SCF results.
 GradGradGradGradGradGradGradGradGradGradGradGradGradGradGradGradGradGrad

 Leave Link  103 at Fri Aug 20 15:58:02 2021, MaxMem= 24159191040 cpu:         2.9
 (Enter /public/home/users/caep010/software/Gaussian09/g09/l202.exe)
                          Input orientation:                          
 ---------------------------------------------------------------------
 Center     Atomic      Atomic             Coordinates (Angstroms)
 Number     Number       Type             X           Y           Z
 ---------------------------------------------------------------------
      1          6           0        6.332215    1.037186    1.119820
      2          7           0        7.184600    2.136358    1.337841
      3          8           0        7.799564    2.576528    0.352988
      4          6           0        5.583623    0.285408    2.000309
      5          7           0        4.949976   -0.746949    1.344347
      6          6           0        5.347042   -0.597736    0.095996
      7          8           0        4.984015   -1.238307   -1.020150
      8          6           0        5.746927   -0.622929   -2.118229
      9          6           0        6.365818    0.686244   -1.547711
     10          1           0        7.413392    0.808333   -1.806766
     11          1           0        6.514348   -1.319790   -2.397399
     12          8           0        7.250872    2.591328    2.480639
     13          1           0        5.792646    1.561457   -1.798125
     14          1           0        5.042278   -0.435797   -2.904675
     15          1           0        5.436436    0.432105    3.029687
     16          7           0        6.203549    0.415060   -0.116972
 ---------------------------------------------------------------------
                    Distance matrix (angstroms):
                    1          2          3          4          5
     1  C    0.000000
     2  N    1.407931   0.000000
     3  O    2.260690   1.241719   0.000000
     4  C    1.378703   2.535351   3.587937   0.000000
     5  N    2.268068   3.647881   4.488701   1.377517   0.000000
     6  C    2.166045   3.520520   4.019560   2.112420   1.318448
     7  O    3.402202   4.668088   4.936171   3.435754   2.415250
     8  C    3.685580   4.650266   4.533955   4.220675   3.555269
     9  C    2.690727   3.331613   3.039977   3.655262   3.524577
    10  H    3.128294   3.421190   2.817832   4.256210   4.291483
    11  H    4.237846   5.132855   4.939403   4.773127   4.095859
    12  O    2.260778   1.231819   2.197313   2.885776   4.210626
    13  H    3.013369   3.478840   3.112133   4.012492   3.989230
    14  H    4.475509   5.404116   5.223897   4.987190   4.261399
    15  H    2.194569   2.970336   4.165050   1.050145   2.113571
    16  N    1.390414   2.458009   2.727649   2.209977   2.248813
                    6          7          8          9         10
     6  C    0.000000
     7  O    1.337124   0.000000
     8  C    2.250185   1.471904   0.000000
     9  C    2.321267   2.427261   1.556422   0.000000
    10  H    3.141231   3.272518   2.218699   1.086014   0.000000
    11  H    2.846222   2.060430   1.073539   2.183621   2.384541
    12  O    4.413753   5.662178   5.808862   4.543157   4.646216
    13  H    2.906608   3.016257   2.208188   1.075746   1.787201
    14  H    3.020453   2.049110   1.072403   2.202745   2.894037
    15  H    3.110483   4.404105   5.264080   4.677704   5.238433
    16  N    1.343397   2.244240   2.300207   1.465225   2.115132
                   11         12         13         14         15
    11  H    0.000000
    12  O    6.295599   0.000000
    13  H    3.030110   4.636257   0.000000
    14  H    1.790464   6.560715   2.403441   0.000000
    15  H    5.803817   2.873304   4.970924   6.010430   0.000000
    16  N    2.882125   3.546916   2.075895   3.137483   3.238861
                   16
    16  N    0.000000
 Stoichiometry    C5H5N3O3
 Framework group  C1[X(C5H5N3O3)]
 Deg. of freedom    42
 Full point group                 C1      NOp   1
 RotChk:  IX=0 Diff= 4.42D-03
 Largest Abelian subgroup         C1      NOp   1
 Largest concise Abelian subgroup C1      NOp   1
                         Standard orientation:                         
 ---------------------------------------------------------------------
 Center     Atomic      Atomic             Coordinates (Angstroms)
 Number     Number       Type             X           Y           Z
 ---------------------------------------------------------------------
      1          6           0       -0.858117    0.360241    0.019439
      2          7           0       -2.052927   -0.383678   -0.016397
      3          8           0       -1.945795   -1.618515   -0.091015
      4          6           0       -0.641014    1.721729    0.025656
      5          7           0        0.707497    2.001066   -0.006642
      6          6           0        1.260692    0.805010   -0.048234
      7          8           0        2.543322    0.431703    0.010108
      8          6           0        2.550801   -1.038588   -0.058403
      9          6           0        1.081048   -1.499459    0.164923
     10          1           0        0.761084   -2.256133   -0.545354
     11          1           0        2.891372   -1.306117   -1.040709
     12          8           0       -3.115414    0.236878    0.041994
     13          1           0        0.889447   -1.803602    1.178834
     14          1           0        3.208823   -1.371564    0.720173
     15          1           0       -1.344615    2.499306    0.081547
     16          7           0        0.399220   -0.225391   -0.077458
 ---------------------------------------------------------------------
 Rotational constants (GHZ):      2.3956382      0.9378541      0.6812238
 Leave Link  202 at Fri Aug 20 15:58:02 2021, MaxMem= 24159191040 cpu:         0.6
 (Enter /public/home/users/caep010/software/Gaussian09/g09/l301.exe)
 Standard basis: 6-31G(d,p) (6D, 7F)
 Ernie: Thresh=  0.10000D-02 Tol=  0.10000D-05 Strict=F.
 There are   190 symmetry adapted cartesian basis functions of A   symmetry.
 There are   190 symmetry adapted basis functions of A   symmetry.
   190 basis functions,   343 primitive gaussians,   190 cartesian basis functions
    40 alpha electrons       40 beta electrons
       nuclear repulsion energy       625.5205507383 Hartrees.
 IExCor=  402 DFT=T Ex+Corr=B3LYP ExCW=0 ScaHFX=  0.200000
 ScaDFX=  0.800000  0.720000  1.000000  0.810000 ScalE2=  1.000000  1.000000
 IRadAn=      0 IRanWt=     -1 IRanGd=            0 ICorTp=0 IEmpDi=  4
 NAtoms=   16 NActive=   16 NUniq=   16 SFac= 1.00D+00 NAtFMM=   60 NAOKFM=F Big=F
 Integral buffers will be    131072 words long.
 Raffenetti 2 integral format.
 Two-electron integral symmetry is turned on.
 Leave Link  301 at Fri Aug 20 15:58:02 2021, MaxMem= 24159191040 cpu:         1.9
 (Enter /public/home/users/caep010/software/Gaussian09/g09/l302.exe)
 NPDir=0 NMtPBC=     1 NCelOv=     1 NCel=       1 NClECP=     1 NCelD=      1
         NCelK=      1 NCelE2=     1 NClLst=     1 CellRange=     0.0.
 One-electron integrals computed using PRISM.
 NBasis=   190 RedAO= T EigKep=  1.03D-03  NBF=   190
 NBsUse=   190 1.00D-06 EigRej= -1.00D+00 NBFU=   190
 Precomputing XC quadrature grid using
 IXCGrd= 4 IRadAn=           0 IRanWt=          -1 IRanGd=           0 AccXCQ= 0.00D+00.
 Generated NRdTot=       0 NPtTot=           0 NUsed=           0 NTot=          32
 NSgBfM=   189   189   189   189   189 MxSgAt=    16 MxSgA2=    16.
 Leave Link  302 at Fri Aug 20 15:58:03 2021, MaxMem= 24159191040 cpu:        11.6
 (Enter /public/home/users/caep010/software/Gaussian09/g09/l303.exe)
 DipDrv:  MaxL=1.
 Leave Link  303 at Fri Aug 20 15:58:03 2021, MaxMem= 24159191040 cpu:         0.7
 (Enter /public/home/users/caep010/software/Gaussian09/g09/l401.exe)
 Initial guess from the checkpoint file:  "/public/home/users/caep010/.cache/gau_scr/Gau-13831.chk"
 B after Tr=    -0.000000   -0.000000   -0.000000
         Rot=    0.999998   -0.000723    0.000178   -0.001641 Ang=  -0.21 deg.
 Guess basis will be translated and rotated to current coordinates.
 JPrj=2 DoOrth=T DoCkMO=T.
 Generating alternative initial guess.
 ExpMin= 1.61D-01 ExpMax= 5.48D+03 ExpMxC= 8.25D+02 IAcc=1 IRadAn=         1 AccDes= 0.00D+00
 Harris functional with IExCor=  402 and IRadAn=       1 diagonalized for initial guess.
 HarFok:  IExCor=  402 AccDes= 0.00D+00 IRadAn=         1 IDoV= 1 UseB2=F ITyADJ=14
 ICtDFT=  3500011 ScaDFX=  1.000000  1.000000  1.000000  1.000000
 FoFCou: FMM=F IPFlag=           0 FMFlag=      100000 FMFlg1=           0
         NFxFlg=           0 DoJE=T BraDBF=F KetDBF=T FulRan=T
         wScrn=  0.000000 ICntrl=     500 IOpCl=  0 I1Cent=   200000004 NGrid=           0
         NMat0=    1 NMatS0=      1 NMatT0=    0 NMatD0=    1 NMtDS0=    0 NMtDT0=    0
 Petite list used in FoFCou.
 Harris En= -583.318083428931    
 Leave Link  401 at Fri Aug 20 15:58:03 2021, MaxMem= 24159191040 cpu:        12.7
 (Enter /public/home/users/caep010/software/Gaussian09/g09/l502.exe)
 Closed shell SCF:
 Using DIIS extrapolation, IDIIS=  1040.
 Integral symmetry usage will be decided dynamically.
 Keep R1 ints in memory in canonical form, NReq=168247776.
 IVT=      134351 IEndB=      134351 NGot= 24159191040 MDV= 23994427105
 LenX= 23994427105 LenY= 23994390564
 Requested convergence on RMS density matrix=1.00D-08 within 128 cycles.
 Requested convergence on MAX density matrix=1.00D-06.
 Requested convergence on             energy=1.00D-06.
 No special actions if energy rises.
 FoFCou: FMM=F IPFlag=           0 FMFlag=           0 FMFlg1=           0
         NFxFlg=           0 DoJE=F BraDBF=F KetDBF=F FulRan=T
         wScrn=  0.000000 ICntrl=     600 IOpCl=  0 I1Cent=           0 NGrid=           0
         NMat0=    1 NMatS0=  18145 NMatT0=    0 NMatD0=    1 NMtDS0=    0 NMtDT0=    0
 Symmetry not used in FoFCou.
 Integral accuracy reduced to 1.0D-05 until final iterations.

 Cycle   1  Pass 0  IDiag  1:
 E= -583.338396319971    
 DIIS: error= 3.10D-03 at cycle   1 NSaved=   1.
 NSaved= 1 IEnMin= 1 EnMin= -583.338396319971     IErMin= 1 ErrMin= 3.10D-03
 ErrMax= 3.10D-03  0.00D+00 EMaxC= 1.00D-01 BMatC= 3.34D-03 BMatP= 3.34D-03
 IDIUse=3 WtCom= 9.69D-01 WtEn= 3.10D-02
 Coeff-Com:  0.100D+01
 Coeff-En:   0.100D+01
 Coeff:      0.100D+01
 Gap=     1.393 Goal=   None    Shift=    0.000
 GapD=    1.393 DampG=2.000 DampE=1.000 DampFc=2.0000 IDamp=-1.
 RMSDP=5.73D-04 MaxDP=1.60D-02              OVMax= 1.74D-02

 Cycle   2  Pass 0  IDiag  1:
 E= -583.341700323911     Delta-E=       -0.003304003941 Rises=F Damp=F
 DIIS: error= 1.67D-03 at cycle   2 NSaved=   2.
 NSaved= 2 IEnMin= 2 EnMin= -583.341700323911     IErMin= 2 ErrMin= 1.67D-03
 ErrMax= 1.67D-03  0.00D+00 EMaxC= 1.00D-01 BMatC= 9.78D-04 BMatP= 3.34D-03
 IDIUse=3 WtCom= 9.83D-01 WtEn= 1.67D-02
 Coeff-Com:  0.299D+00 0.701D+00
 Coeff-En:   0.000D+00 0.100D+01
 Coeff:      0.294D+00 0.706D+00
 Gap=     0.163 Goal=   None    Shift=    0.000
 RMSDP=2.64D-04 MaxDP=1.23D-02 DE=-3.30D-03 OVMax= 1.75D-02

 Cycle   3  Pass 0  IDiag  1:
 E= -583.342125081659     Delta-E=       -0.000424757748 Rises=F Damp=F
 DIIS: error= 1.21D-03 at cycle   3 NSaved=   3.
 NSaved= 3 IEnMin= 3 EnMin= -583.342125081659     IErMin= 3 ErrMin= 1.21D-03
 ErrMax= 1.21D-03  0.00D+00 EMaxC= 1.00D-01 BMatC= 6.16D-04 BMatP= 9.78D-04
 IDIUse=3 WtCom= 9.88D-01 WtEn= 1.21D-02
 Coeff-Com:  0.438D-01 0.438D+00 0.519D+00
 Coeff-En:   0.000D+00 0.376D+00 0.624D+00
 Coeff:      0.433D-01 0.437D+00 0.520D+00
 Gap=     0.162 Goal=   None    Shift=    0.000
 RMSDP=1.33D-04 MaxDP=5.68D-03 DE=-4.25D-04 OVMax= 8.93D-03

 Cycle   4  Pass 0  IDiag  1:
 E= -583.342643661387     Delta-E=       -0.000518579728 Rises=F Damp=F
 DIIS: error= 8.41D-04 at cycle   4 NSaved=   4.
 NSaved= 4 IEnMin= 4 EnMin= -583.342643661387     IErMin= 4 ErrMin= 8.41D-04
 ErrMax= 8.41D-04  0.00D+00 EMaxC= 1.00D-01 BMatC= 5.57D-05 BMatP= 6.16D-04
 IDIUse=3 WtCom= 9.92D-01 WtEn= 8.41D-03
 Coeff-Com:  0.868D-02 0.224D+00 0.310D+00 0.457D+00
 Coeff-En:   0.000D+00 0.000D+00 0.000D+00 0.100D+01
 Coeff:      0.861D-02 0.222D+00 0.308D+00 0.462D+00
 Gap=     0.162 Goal=   None    Shift=    0.000
 RMSDP=4.76D-05 MaxDP=2.61D-03 DE=-5.19D-04 OVMax= 3.82D-03

 Cycle   5  Pass 0  IDiag  1:
 E= -583.342673175368     Delta-E=       -0.000029513981 Rises=F Damp=F
 DIIS: error= 6.41D-04 at cycle   5 NSaved=   5.
 NSaved= 5 IEnMin= 5 EnMin= -583.342673175368     IErMin= 5 ErrMin= 6.41D-04
 ErrMax= 6.41D-04  0.00D+00 EMaxC= 1.00D-01 BMatC= 2.14D-05 BMatP= 5.57D-05
 IDIUse=3 WtCom= 9.94D-01 WtEn= 6.41D-03
 Coeff-Com: -0.152D-02 0.925D-01 0.141D+00 0.363D+00 0.405D+00
 Coeff-En:   0.000D+00 0.000D+00 0.000D+00 0.307D+00 0.693D+00
 Coeff:     -0.151D-02 0.919D-01 0.141D+00 0.363D+00 0.407D+00
 Gap=     0.161 Goal=   None    Shift=    0.000
 RMSDP=2.28D-05 MaxDP=1.23D-03 DE=-2.95D-05 OVMax= 2.17D-03

 Cycle   6  Pass 0  IDiag  1:
 E= -583.342688875560     Delta-E=       -0.000015700192 Rises=F Damp=F
 DIIS: error= 1.26D-04 at cycle   6 NSaved=   6.
 NSaved= 6 IEnMin= 6 EnMin= -583.342688875560     IErMin= 6 ErrMin= 1.26D-04
 ErrMax= 1.26D-04  0.00D+00 EMaxC= 1.00D-01 BMatC= 1.74D-06 BMatP= 2.14D-05
 IDIUse=3 WtCom= 9.99D-01 WtEn= 1.26D-03
 Coeff-Com: -0.247D-02 0.251D-01 0.429D-01 0.167D+00 0.273D+00 0.494D+00
 Coeff-En:   0.000D+00 0.000D+00 0.000D+00 0.000D+00 0.717D-01 0.928D+00
 Coeff:     -0.247D-02 0.251D-01 0.429D-01 0.167D+00 0.273D+00 0.495D+00
 Gap=     0.161 Goal=   None    Shift=    0.000
 RMSDP=6.78D-06 MaxDP=3.23D-04 DE=-1.57D-05 OVMax= 4.48D-04

 Initial convergence to 1.0D-05 achieved.  Increase integral accuracy.
 Cycle   7  Pass 1  IDiag  1:
 E= -583.342733421313     Delta-E=       -0.000044545753 Rises=F Damp=F
 DIIS: error= 2.19D-05 at cycle   1 NSaved=   1.
 NSaved= 1 IEnMin= 1 EnMin= -583.342733421313     IErMin= 1 ErrMin= 2.19D-05
 ErrMax= 2.19D-05  0.00D+00 EMaxC= 1.00D-01 BMatC= 1.76D-07 BMatP= 1.76D-07
 IDIUse=1 WtCom= 1.00D+00 WtEn= 0.00D+00
 Coeff-Com:  0.100D+01
 Coeff:      0.100D+01
 Gap=     0.162 Goal=   None    Shift=    0.000
 RMSDP=6.78D-06 MaxDP=3.23D-04 DE=-4.45D-05 OVMax= 2.19D-04

 Cycle   8  Pass 1  IDiag  1:
 E= -583.342733301488     Delta-E=        0.000000119825 Rises=F Damp=F
 DIIS: error= 4.44D-05 at cycle   2 NSaved=   2.
 NSaved= 2 IEnMin= 1 EnMin= -583.342733421313     IErMin= 1 ErrMin= 2.19D-05
 ErrMax= 4.44D-05  0.00D+00 EMaxC= 1.00D-01 BMatC= 3.69D-07 BMatP= 1.76D-07
 IDIUse=1 WtCom= 1.00D+00 WtEn= 0.00D+00
 Coeff-Com:  0.607D+00 0.393D+00
 Coeff:      0.607D+00 0.393D+00
 Gap=     0.162 Goal=   None    Shift=    0.000
 RMSDP=3.14D-06 MaxDP=1.34D-04 DE= 1.20D-07 OVMax= 1.43D-04

 Cycle   9  Pass 1  IDiag  1:
 E= -583.342733575522     Delta-E=       -0.000000274035 Rises=F Damp=F
 DIIS: error= 1.41D-05 at cycle   3 NSaved=   3.
 NSaved= 3 IEnMin= 3 EnMin= -583.342733575522     IErMin= 3 ErrMin= 1.41D-05
 ErrMax= 1.41D-05  0.00D+00 EMaxC= 1.00D-01 BMatC= 2.35D-08 BMatP= 1.76D-07
 IDIUse=1 WtCom= 1.00D+00 WtEn= 0.00D+00
 Coeff-Com:  0.101D+00 0.202D+00 0.696D+00
 Coeff:      0.101D+00 0.202D+00 0.696D+00
 Gap=     0.162 Goal=   None    Shift=    0.000
 RMSDP=1.12D-06 MaxDP=6.84D-05 DE=-2.74D-07 OVMax= 9.53D-05

 Cycle  10  Pass 1  IDiag  1:
 E= -583.342733575857     Delta-E=       -0.000000000334 Rises=F Damp=F
 DIIS: error= 2.00D-05 at cycle   4 NSaved=   4.
 NSaved= 4 IEnMin= 4 EnMin= -583.342733575857     IErMin= 3 ErrMin= 1.41D-05
 ErrMax= 2.00D-05  0.00D+00 EMaxC= 1.00D-01 BMatC= 2.15D-08 BMatP= 2.35D-08
 IDIUse=1 WtCom= 1.00D+00 WtEn= 0.00D+00
 Coeff-Com: -0.374D-03 0.110D+00 0.554D+00 0.336D+00
 Coeff:     -0.374D-03 0.110D+00 0.554D+00 0.336D+00
 Gap=     0.162 Goal=   None    Shift=    0.000
 RMSDP=6.76D-07 MaxDP=3.58D-05 DE=-3.34D-10 OVMax= 6.18D-05

 Cycle  11  Pass 1  IDiag  1:
 E= -583.342733592666     Delta-E=       -0.000000016809 Rises=F Damp=F
 DIIS: error= 2.80D-06 at cycle   5 NSaved=   5.
 NSaved= 5 IEnMin= 5 EnMin= -583.342733592666     IErMin= 5 ErrMin= 2.80D-06
 ErrMax= 2.80D-06  0.00D+00 EMaxC= 1.00D-01 BMatC= 7.57D-10 BMatP= 2.15D-08
 IDIUse=1 WtCom= 1.00D+00 WtEn= 0.00D+00
 Coeff-Com: -0.103D-01 0.503D-01 0.276D+00 0.211D+00 0.473D+00
 Coeff:     -0.103D-01 0.503D-01 0.276D+00 0.211D+00 0.473D+00
 Gap=     0.162 Goal=   None    Shift=    0.000
 RMSDP=1.38D-07 MaxDP=7.07D-06 DE=-1.68D-08 OVMax= 7.57D-06

 Cycle  12  Pass 1  IDiag  1:
 E= -583.342733593266     Delta-E=       -0.000000000600 Rises=F Damp=F
 DIIS: error= 2.47D-07 at cycle   6 NSaved=   6.
 NSaved= 6 IEnMin= 6 EnMin= -583.342733593266     IErMin= 6 ErrMin= 2.47D-07
 ErrMax= 2.47D-07  0.00D+00 EMaxC= 1.00D-01 BMatC= 2.10D-11 BMatP= 7.57D-10
 IDIUse=1 WtCom= 1.00D+00 WtEn= 0.00D+00
 Coeff-Com: -0.520D-02 0.207D-01 0.113D+00 0.916D-01 0.240D+00 0.539D+00
 Coeff:     -0.520D-02 0.207D-01 0.113D+00 0.916D-01 0.240D+00 0.539D+00
 Gap=     0.162 Goal=   None    Shift=    0.000
 RMSDP=2.80D-08 MaxDP=1.32D-06 DE=-6.00D-10 OVMax= 2.59D-06

 Cycle  13  Pass 1  IDiag  1:
 E= -583.342733593286     Delta-E=       -0.000000000020 Rises=F Damp=F
 DIIS: error= 6.37D-08 at cycle   7 NSaved=   7.
 NSaved= 7 IEnMin= 7 EnMin= -583.342733593286     IErMin= 7 ErrMin= 6.37D-08
 ErrMax= 6.37D-08  0.00D+00 EMaxC= 1.00D-01 BMatC= 1.65D-12 BMatP= 2.10D-11
 IDIUse=1 WtCom= 1.00D+00 WtEn= 0.00D+00
 Coeff-Com: -0.101D-02 0.314D-02 0.165D-01 0.148D-01 0.459D-01 0.245D+00
 Coeff-Com:  0.675D+00
 Coeff:     -0.101D-02 0.314D-02 0.165D-01 0.148D-01 0.459D-01 0.245D+00
 Coeff:      0.675D+00
 Gap=     0.162 Goal=   None    Shift=    0.000
 RMSDP=8.42D-09 MaxDP=3.28D-07 DE=-2.02D-11 OVMax= 6.34D-07

 SCF Done:  E(RB3LYP) =  -583.342733593     A.U. after   13 cycles
            NFock= 13  Conv=0.84D-08     -V/T= 2.0085
 KE= 5.784141923988D+02 PE=-2.613287659294D+03 EE= 8.260101825639D+02
 Leave Link  502 at Fri Aug 20 15:58:09 2021, MaxMem= 24159191040 cpu:        75.2
 (Enter /public/home/users/caep010/software/Gaussian09/g09/l701.exe)
 Compute integral first derivatives.
 ... and contract with generalized density number  0.
 Leave Link  701 at Fri Aug 20 15:58:09 2021, MaxMem= 24159191040 cpu:        14.0
 (Enter /public/home/users/caep010/software/Gaussian09/g09/l702.exe)
 L702 exits ... SP integral derivatives will be done elsewhere.
 Leave Link  702 at Fri Aug 20 15:58:10 2021, MaxMem= 24159191040 cpu:         0.4
 (Enter /public/home/users/caep010/software/Gaussian09/g09/l703.exe)
 Compute integral first derivatives, UseDBF=F ICtDFT=           0.
 Integral derivatives from FoFJK, PRISM(SPDF).
 Calling FoFJK, ICntrl=      2127 FMM=F ISym2X=0 I1Cent= 0 IOpClX= 0 NMat=1 NMatS=1 NMatT=0.
 FoFJK:  IHMeth= 1 ICntrl=    2127 DoSepK=F KAlg= 0 I1Cent=   0 FoldK=F
 IRaf=         0 NMat=   1 IRICut=       1 DoRegI=T DoRafI=F ISym2E= 0.
 FoFCou: FMM=F IPFlag=           0 FMFlag=      100000 FMFlg1=         800
         NFxFlg=           0 DoJE=F BraDBF=F KetDBF=F FulRan=T
         wScrn=  0.000000 ICntrl=    2127 IOpCl=  0 I1Cent=           0 NGrid=           0
         NMat0=    1 NMatS0=      1 NMatT0=    0 NMatD0=    1 NMtDS0=    0 NMtDT0=    0
 Symmetry not used in FoFCou.
 Leave Link  703 at Fri Aug 20 15:58:10 2021, MaxMem= 24159191040 cpu:        19.7
 (Enter /public/home/users/caep010/software/Gaussian09/g09/l716.exe)
 Dipole        = 1.65274202D+00-1.07183623D+00 8.66047420D-02
 ***** Axes restored to original set *****
 -------------------------------------------------------------------
 Center     Atomic                   Forces (Hartrees/Bohr)
 Number     Number              X              Y              Z
 -------------------------------------------------------------------
      1        6           0.003874797    0.002360388   -0.000525324
      2        7          -0.000425358    0.000611224   -0.002529281
      3        8           0.000903894    0.000764103   -0.001207216
      4        6          -0.005537934   -0.010225130   -0.023462616
      5        7           0.001008432    0.001326184    0.000794528
      6        6          -0.003623718   -0.004592120    0.003658068
      7        8           0.001064514    0.001101675   -0.004052422
      8        6          -0.004234354    0.005313235    0.020278475
      9        6           0.001615374   -0.009591968    0.012350784
     10        1           0.001288435    0.002691883   -0.002240457
     11        1           0.007209940   -0.008744978   -0.007099050
     12        8           0.000357544    0.000968114    0.002890694
     13        1          -0.002924348    0.010962354   -0.006592444
     14        1          -0.004608916   -0.000302371   -0.011869035
     15        1           0.000635158    0.004725294    0.022788545
     16        7           0.003396539    0.002632115   -0.003183250
 -------------------------------------------------------------------
 Cartesian Forces:  Max     0.023462616 RMS     0.007356884
 Leave Link  716 at Fri Aug 20 15:58:10 2021, MaxMem= 24159191040 cpu:         0.6
 (Enter /public/home/users/caep010/software/Gaussian09/g09/l103.exe)

 GradGradGradGradGradGradGradGradGradGradGradGradGradGradGradGradGradGrad
 Berny optimization.
 Using GEDIIS/GDIIS optimizer.
 FormGI is forming the generalized inverse of G from B-inverse, IUseBI=4.
 Internal  Forces:  Max     0.022908651 RMS     0.003704503
 Search for a local minimum.
 Step number   2 out of a maximum of   96
 All quantities printed in internal units (Hartrees-Bohrs-Radians)
 RMS Force = .37045D-02 SwitMx=.10000D-02 MixMth= 1
 Mixed Optimization -- RFO/linear search
 Update second derivatives using D2CorX and points    1    2
 DE= -3.15D-02 DEPred=-3.38D-02 R= 9.30D-01
 TightC=F SS=  1.41D+00  RLast= 3.11D-01 DXNew= 5.0454D-01 9.3226D-01
 Trust test= 9.30D-01 RLast= 3.11D-01 DXMaxT set to 5.05D-01
 ITU=  1  0
 Use linear search instead of GDIIS.
     Eigenvalues ---    0.00625   0.01692   0.01693   0.01694   0.01987
     Eigenvalues ---    0.02092   0.02346   0.02479   0.02614   0.04481
     Eigenvalues ---    0.04951   0.05498   0.05764   0.08130   0.08600
     Eigenvalues ---    0.11205   0.11477   0.15942   0.21979   0.23016
     Eigenvalues ---    0.23845   0.24490   0.24800   0.25000   0.25044
     Eigenvalues ---    0.28308   0.33780   0.36484   0.36659   0.44015
     Eigenvalues ---    0.44438   0.44888   0.45118   0.45616   0.46370
     Eigenvalues ---    0.51008   0.54430   0.57476   0.60771   0.62334
     Eigenvalues ---    0.88571   0.93163
 RFO step:  Lambda=-2.54944254D-03 EMin= 6.25308868D-03
 Quartic linear search produced a step of  0.30560.
 Iteration  1 RMS(Cart)=  0.03267402 RMS(Int)=  0.00131098
 Iteration  2 RMS(Cart)=  0.00121176 RMS(Int)=  0.00028663
 Iteration  3 RMS(Cart)=  0.00000228 RMS(Int)=  0.00028662
 Iteration  4 RMS(Cart)=  0.00000000 RMS(Int)=  0.00028662
 ITry= 1 IFail=0 DXMaxC= 1.28D-01 DCOld= 1.00D+10 DXMaxT= 5.05D-01 DXLimC= 3.00D+00 Rises=F
 Variable       Old X    -DE/DX   Delta X   Delta X   Delta X     New X
                                 (Linear)    (Quad)   (Total)
[...]
 ! D17   D(5,6,7,8)           -175.8859         -DE/DX =    0.0                 !
 ! D18   D(16,6,7,8)             7.2616         -DE/DX =    0.0                 !
 ! D19   D(5,6,16,1)            -2.2565         -DE/DX =    0.0                 !
 ! D20   D(5,6,16,9)          -171.4988         -DE/DX =    0.0                 !
 ! D21   D(7,6,16,1)           175.1435         -DE/DX =    0.0                 !
 ! D22   D(7,6,16,9)             5.9013         -DE/DX =    0.0                 !
 ! D23   D(6,7,8,9)            -16.5011         -DE/DX =    0.0                 !
 ! D24   D(6,7,8,11)           103.2271         -DE/DX =    0.0                 !
 ! D25   D(6,7,8,14)          -138.5159         -DE/DX =    0.0                 !
 ! D26   D(7,8,9,10)           137.0141         -DE/DX =    0.0                 !
 ! D27   D(7,8,9,13)           -98.6734         -DE/DX =    0.0                 !
 ! D28   D(7,8,9,16)            18.5456         -DE/DX =    0.0                 !
 ! D29   D(11,8,9,10)           19.7068         -DE/DX =    0.0                 !
 ! D30   D(11,8,9,13)          144.0194         -DE/DX =    0.0                 !
 ! D31   D(11,8,9,16)          -98.7616         -DE/DX =    0.0                 !
 ! D32   D(14,8,9,10)         -104.645          -DE/DX =    0.0                 !
 ! D33   D(14,8,9,13)           19.6676         -DE/DX =    0.0                 !
 ! D34   D(14,8,9,16)          136.8866         -DE/DX =    0.0                 !
 ! D35   D(8,9,16,1)          -178.0134         -DE/DX =    0.0                 !
 ! D36   D(8,9,16,6)           -14.9635         -DE/DX =    0.0                 !
 ! D37   D(10,9,16,1)           62.8334         -DE/DX =    0.0                 !
 ! D38   D(10,9,16,6)         -134.1167         -DE/DX =    0.0                 !
 ! D39   D(13,9,16,1)          -58.9617         -DE/DX =    0.0                 !
 ! D40   D(13,9,16,6)          104.0883         -DE/DX =    0.0                 !
 --------------------------------------------------------------------------------
 GradGradGradGradGradGradGradGradGradGradGradGradGradGradGradGradGradGrad

 Leave Link  103 at Fri Aug 20 16:00:00 2021, MaxMem= 24159191040 cpu:         1.2
 (Enter /public/home/users/caep010/software/Gaussian09/g09/l9999.exe)
 1\1\GINC-B1011\Freq\RB3LYP\6-31G(d,p)\C5H5N3O3\ROOT\20-Aug-2021\0\\#P 
 Geom=AllCheck Guess=TCheck SCRF=Check GenChk RB3LYP/6-31G(d,p) Freq\\H
 NIMOZ\\0,1\C,6.3349959991,1.031096614,1.1248973813\N,7.180560792,2.139
 0916533,1.3365195715\O,7.7492487493,2.6145078535,0.3393955929\C,5.5899
 269431,0.2627750719,2.0037738877\N,4.932087674,-0.7461417798,1.3462945
 485\C,5.2975066556,-0.5739622328,0.0920173553\O,4.9276996533,-1.196439
 2835,-1.036715943\C,5.7520987025,-0.62957729,-2.1000333763\C,6.3547189
 625,0.6939281905,-1.5403982185\H,7.4083196,0.819245177,-1.7897981323\H
 ,6.5347372509,-1.3558368337,-2.3376980979\O,7.2907599709,2.5624328874,
 2.4904363354\H,5.8069261655,1.5862543473,-1.8587762604\H,5.1130854089,
 -0.4799352272,-2.9702225177\H,5.5180280614,0.3961631149,3.0729730115\N
 ,6.1565994111,0.4448977372,-0.1210651378\\Version=ES64L-G09RevE.01\Sta
 te=1-A\HF=-583.3451736\RMSD=2.133e-09\RMSF=1.481e-05\ZeroPoint=0.11447
 33\Thermal=0.1229036\Dipole=-0.1428718,-0.5800594,-1.83157\DipoleDeriv
 =-0.3683291,-0.5571642,-0.1271657,-0.5568418,-0.715885,-0.0177,0.06897
 49,0.1917177,0.4116257,1.0556197,0.9179475,0.0460509,0.9250479,1.57370
 94,0.3232948,-0.012756,0.25655,1.443044,-0.5892596,-0.3464907,0.160158
 5,-0.3144154,-0.6537366,0.0951458,0.288234,0.2483933,-0.7390401,0.3502
 489,0.4782675,0.1482363,0.4574069,0.6385425,0.2116197,-0.0190649,0.016
 1209,0.1418729,-0.4112449,-0.135192,0.0449565,-0.2217529,-0.6014233,-0
 .0919008,-0.3405196,-0.5734738,-0.9725008,0.3632534,0.1936699,0.022815
 ,0.1832809,0.5497304,0.2509587,0.3568923,0.7945953,1.6194633,-0.406874
 8,-0.1907662,-0.0599169,-0.1894774,-0.5280051,-0.2600003,-0.1986423,-0
 .6182912,-1.3673346,0.3505146,-0.1096837,-0.2789782,-0.0266664,0.22259
 14,-0.1509776,-0.040835,0.1212705,0.7128219,0.2538786,-0.0372414,-0.03
 31511,-0.0755084,0.1960659,-0.0877487,-0.0669077,-0.1310964,0.5622176,
 -0.0244404,-0.0118454,0.0500514,0.002906,0.0627459,0.0338656,0.0051115
 ,0.0053122,0.0309067,-0.0233896,0.0980652,0.0988197,0.0611294,-0.02654
 31,-0.015172,0.0012568,-0.0308275,-0.0110997,-0.4153872,-0.2035369,-0.
 1173833,-0.2375842,-0.6545221,-0.3287858,-0.2279416,-0.4599806,-0.9977
 22,0.017717,0.0652196,-0.0315975,0.0399998,-0.0554836,0.0538022,0.0096
 829,0.016692,-0.0425904,0.0179035,0.0099633,-0.0627822,0.0173229,0.063
 831,0.0238999,-0.0483044,-0.0177497,-0.0672156,0.1215941,-0.0073279,-0
 .0049739,-0.0102437,0.107479,-0.0186619,-0.0100839,-0.0311766,0.044812
 8,-0.2918042,-0.1638846,0.1448607,-0.0546035,-0.1790968,-0.0216396,0.2
 34903,0.211944,-0.7692619\Polar=61.455275,26.7771741,78.7061776,-1.006
 9942,11.5095041,97.6137444\PG=C01 [X(C5H5N3O3)]\NImag=0\\0.35003533,0.
 31736492,0.51655938,-0.07362110,0.03684299,0.63112237,-0.11114853,-0.0
 7179352,-0.02094274,0.42178899,-0.06475052,-0.15040490,-0.03564144,0.2
 2882700,0.52578265,0.00115352,-0.00624233,-0.09049129,-0.09142432,0.05
 432409,0.91372983,-0.02098657,-0.04015324,0.03750011,-0.18486967,-0.10
 024108,0.15122764,0.17662461,-0.04160382,-0.02437089,0.03904197,-0.104
 40218,-0.17649521,0.12452443,0.13784196,0.16603620,0.03103955,0.030142
 55,-0.01377589,0.13562505,0.10549469,-0.34684720,-0.19805988,-0.149470
 88,0.43916732,-0.13111831,-0.07010496,0.10296764,-0.02689566,-0.023128
 29,0.00063237,0.00764709,0.00130536,-0.00640566,0.30809327,-0.07139393
 ,-0.12796086,0.10033820,-0.02240003,-0.03812479,0.00651086,0.00192300,
 0.00573026,-0.00871467,0.20128347,0.40544976,0.10260656,0.09710698,-0.
 22571443,-0.00148358,0.00363578,0.01703173,-0.00509385,-0.00655661,0.0
 0428246,-0.09449541,0.04274945,0.87522216,-0.01867343,-0.03968640,0.01
 212335,0.00819072,-0.00146089,0.00703865,-0.00384192,-0.00156742,-0.00
 008066,-0.12443828,-0.08649379,-0.03668998,0.24894726,-0.05131214,-0.0
 4701222,0.01282345,0.00166278,0.01380854,0.00697414,-0.00308892,-0.005
 67291,0.00276171,-0.08980328,-0.19315927,-0.06418252,0.18688161,0.3363
 0017,-0.03266963,-0.04725767,0.00186824,0.01880130,0.02359375,0.000402
 83,-0.00567002,-0.00459963,0.00930299,-0.04503185,-0.07399337,-0.13809
 787,-0.06699577,0.02283915,0.55661571,-0.01808353,-0.04695913,-0.02938
 152,0.00378640,0.00584043,0.00229729,-0.00133333,-0.00166963,0.0035064
 5,0.01878575,0.01728007,-0.00354249,-0.11954536,-0.03690720,0.08460763
 ,0.38377485,-0.04267126,-0.05084805,-0.04951945,0.00362753,0.00478343,
 0.00006579,-0.00132028,-0.00032906,0.00311897,0.00512488,0.00677331,-0
 .02702426,-0.03751623,-0.10751840,0.05346588,0.26379437,0.50601607,0.0
 0973921,0.01428106,0.01082392,-0.01722422,-0.02625472,-0.00937620,0.00
 804904,0.00761341,-0.01080050,-0.03303996,-0.06662294,-0.09283166,0.07
 733202,0.03619829,-0.33256805,-0.04988670,0.08384856,0.87850262,-0.000
 45244,-0.00232932,0.00105519,0.00326656,-0.00025650,0.00056755,-0.0004
 3078,-0.00035329,-0.00055383,-0.00179207,-0.00685235,0.00304591,0.0115
 1567,0.01715742,0.00731979,-0.09333507,-0.06948818,-0.03453572,0.21466
 177,-0.00275258,-0.00327076,0.00207031,0.00043162,0.00430310,-0.000479
 73,-0.00057097,-0.00108186,-0.00009705,-0.00512205,-0.00329567,0.00161
 313,0.01290318,0.01464751,-0.00047609,-0.07773308,-0.13879101,-0.07870
 765,0.15209307,0.24748048,-0.01038494,-0.02064715,-0.01564715,0.012553
 92,0.01639087,-0.00169507,-0.00438834,-0.00400787,0.00684156,0.0016854
 8,0.00126832,0.00098502,-0.00728778,-0.01543031,-0.04282776,-0.0682782
 8,-0.12068129,-0.23230973,-0.00267055,0.10339422,0.45667607,-0.0034323
 2,-0.00606750,-0.00258577,0.00220978,0.00353672,-0.00142676,-0.0006744
 3,-0.00123590,0.00150633,0.00140333,-0.00085195,0.00051091,-0.00030958
 ,-0.00363629,-0.00557712,0.00763797,0.01331945,0.01694474,-0.10248268,
 -0.02442107,0.04610696,0.52806953,-0.00537576,-0.00653305,-0.00331956,
 0.00289269,0.00306830,-0.00190838,-0.00111063,-0.00041415,0.00221219,-
 0.00081081,0.00208254,0.00114427,-0.00214528,-0.00261791,-0.00567392,0
 .01466889,0.01219525,0.00895869,-0.02982110,-0.08463521,0.02409334,-0.
 10925308,0.46883732,0.00534535,0.00816151,0.00069004,-0.00272757,-0.00
 363767,-0.00034146,0.00102479,0.00096072,-0.00110939,-0.00057386,-0.00
 133215,-0.00265272,-0.00176410,-0.00171163,0.00595920,0.01340683,-0.00
 160570,-0.07557058,0.02266711,0.00343342,-0.11221516,0.08196923,0.0424
 2678,0.57678507,-0.00499075,0.00959121,-0.00247785,0.00201867,0.002148
 14,-0.00169373,-0.00209634,-0.00046974,0.00087107,0.00055212,-0.001466
 75,-0.00246130,-0.00053751,-0.00565170,0.00245237,-0.00702442,-0.01129
 449,0.01875475,-0.01787406,-0.02227649,0.00942959,-0.08756229,-0.01187
 376,-0.00647853,0.61758159,0.01195140,0.00672442,-0.00963609,0.0018868
 8,0.00199474,-0.00106461,-0.00073730,-0.00229205,-0.00057918,-0.004809
 73,-0.00590802,-0.00336693,-0.00472363,0.00111255,0.00506928,-0.001246
 72,-0.00218208,0.02419664,-0.01487458,-0.01631658,0.00630112,-0.015967
 06,-0.13937341,-0.01871921,-0.02490729,0.53969174,0.00228964,0.0016497
 4,-0.01341180,-0.00261179,-0.00423520,0.00024023,0.00136714,0.00136118
 ,-0.00264203,-0.00195559,-0.00241904,0.00159335,-0.00227390,-0.0019946
 5,0.00615941,0.02571930,0.03504144,-0.01375361,0.00631297,0.01153040,-
 0.01432440,-0.02048353,-0.03792695,-0.07911621,-0.04581257,-0.07645946
 ,0.44406112,0.00014944,-0.00021807,-0.00038266,-0.00068834,-0.00077361
 ,0.00051460,0.00009183,-0.00032602,-0.00141921,-0.00038300,-0.00025836
 ,0.00003455,0.00007656,0.00013546,0.00056789,0.00053303,0.00120614,-0.
 00070048,0.00050523,0.00056262,-0.00097306,-0.00662040,0.00006564,0.00
 122833,-0.31527561,-0.02581261,0.05900207,0.33124937,0.00003092,0.0002
 1735,0.00055640,0.00083593,0.00088743,-0.00107541,-0.00064456,-0.00069
 299,0.00064689,0.00035570,0.00036421,-0.00037715,-0.00006453,-0.000347
 81,0.00001872,-0.00191464,-0.00207013,-0.00098720,-0.00342277,-0.00350
 178,0.00157334,-0.02277125,-0.00166614,0.00692479,-0.02342502,-0.05261
 701,0.00783259,0.02982726,0.05624489,0.00080252,-0.00047844,0.00246908
 ,0.00183475,0.00184819,-0.00225036,-0.00137237,-0.00041330,0.00162829,
 0.00128823,0.00169677,-0.00070206,0.00010332,0.00133654,-0.00284452,-0
 .00114687,-0.00597043,-0.00487765,-0.00129873,-0.00152134,0.00136301,-
 0.01142892,0.00084970,0.00439027,0.04887892,0.00553575,-0.05798417,-0.
 06444642,-0.01061064,0.06925288,0.00069781,0.00135437,0.00053195,-0.00
 073931,-0.00089062,0.00010723,0.00023900,0.00026629,-0.00039763,-0.000
 03382,-0.00043500,-0.00022782,0.00014903,0.00046400,0.00132699,-0.0041
 4673,-0.00241225,-0.00484173,-0.01424657,0.00421465,0.01968227,-0.1843
 1766,0.13076102,0.03023008,0.01046282,-0.01091145,-0.00295926,0.001557
 65,0.00012313,0.00018273,0.20117684,0.00079222,0.00086064,0.00048890,-
 0.00038276,-0.00054136,0.00032339,0.00003947,0.00014416,-0.00047679,-0
 .00001014,-0.00061805,-0.00026637,0.00034059,0.00039554,0.00107741,-0.
 00329344,-0.00141887,-0.00264118,-0.01351652,0.01375591,0.01010094,0.1
 3291860,-0.17361754,-0.03794606,0.01684295,-0.01918605,-0.00183772,0.0
 0007413,0.00122901,0.00023818,-0.13417551,0.18319677,-0.00043196,-0.00
 082150,-0.00032461,0.00051128,0.00050114,0.00008180,-0.00025416,-0.000
 13907,0.00015070,0.00019263,0.00067112,0.00009625,-0.00068698,-0.00031
 100,-0.00180628,0.00480826,0.00211210,0.00364676,0.02646180,-0.0125462
 1,-0.01755951,0.02655821,-0.03377614,-0.06179132,0.00834227,-0.0086280
 3,-0.00001149,0.00006495,0.00066102,0.00118302,-0.04481346,0.03627267,
 0.06810218,0.00553160,-0.01946392,-0.02553777,-0.10408181,-0.04538993,
 -0.04700698,0.02757591,0.01191286,0.03743478,0.00104992,0.00070574,-0.
 00061179,-0.00039290,-0.00066808,-0.00206107,0.00071218,0.00015667,0.0
 0106891,-0.00108951,-0.00046309,-0.00266442,-0.00061230,-0.00035313,0.
 00054283,-0.00041409,-0.00082044,0.00104709,0.00015910,-0.00012570,-0.
 00026495,0.00014561,0.00001747,-0.00011906,0.07089349,-0.01990738,-0.0
 1957577,-0.04153781,-0.04164525,-0.16766118,-0.15563753,0.00645816,0.0
 3800767,0.01889015,0.00337603,0.00424490,-0.00173371,-0.00052104,-0.00
 183635,-0.00434343,0.00045454,0.00086720,0.00296340,-0.00057253,-0.002
 12042,-0.00468426,-0.00098923,-0.00074656,0.00114500,-0.00077802,-0.00
 091050,0.00182647,0.00019531,-0.00002557,-0.00044533,0.00024838,0.0000
 9939,-0.00015223,0.06042217,0.15255446,-0.02826297,-0.04583200,-0.0259
 2311,-0.03032841,-0.13469431,-0.46792696,0.01605643,-0.00813016,-0.090
 99023,0.00914138,0.01095533,-0.00378652,-0.00143617,-0.00317310,-0.005
 78292,0.00064338,0.00097046,0.00546478,-0.00177326,-0.00229783,-0.0046
 8419,-0.00076040,-0.00015495,0.00181774,0.00044730,-0.00047056,0.00071
 689,-0.00015925,0.00075402,0.00065954,0.00027933,0.00001899,-0.0002180
 7,0.03924770,0.18584125,0.58585167,-0.00001188,0.00009224,-0.00000276,
 0.00074687,0.00078023,-0.00078095,0.00012300,-0.00059364,0.00094635,0.
 00016450,0.00044414,-0.00014542,-0.00051688,-0.00006063,-0.00054302,-0
 .00021264,-0.00144328,0.00091210,-0.00092037,0.00032014,0.00052074,0.0
 0851969,-0.01063226,0.00395875,-0.12734880,0.11168370,-0.03675274,-0.0
 1476313,0.02615173,-0.00835740,0.00010343,-0.00221500,-0.00067341,-0.0
 0021574,-0.00002799,0.00034935,0.12624553,-0.00038156,0.00008237,-0.00
 024600,-0.00028823,-0.00028368,0.00017194,-0.00007229,0.00009996,-0.00
 039715,0.00020565,0.00006410,0.00027210,0.00000793,0.00017802,0.000027
 51,0.00047781,0.00034566,0.00003961,-0.00097469,-0.00089849,0.00115265
 ,0.01443671,-0.01773905,0.00326516,0.11061102,-0.22499353,0.05792775,-
 0.00175950,0.00374801,-0.00148165,-0.00244502,-0.00295080,-0.00134430,
 0.00012331,0.00017363,0.00020329,-0.11812146,0.23995167,-0.00167028,0.
 00157185,0.00348076,0.00102237,0.00132196,-0.00140830,-0.00031744,-0.0
 0072986,0.00112618,0.00252389,0.00247146,-0.00103658,0.00117124,-0.001
 51913,-0.00328037,-0.00756061,-0.00439146,-0.00262646,0.00026489,-0.00
 001335,0.00356469,0.00920210,-0.01063542,0.00223674,-0.03446901,0.0542
 7211,-0.06483613,0.00270389,-0.00584088,0.00452146,-0.00146424,-0.0029
 1193,-0.00047365,-0.00031344,-0.00026083,0.00027314,0.03877853,-0.0665
 2370,0.08132841,0.00048459,0.00083866,0.00051870,-0.00018920,-0.000269
 57,0.00009689,0.00008346,0.00002660,-0.00022549,-0.00040060,-0.0001551
 2,-0.00003298,0.00037751,0.00103630,0.00108462,-0.00169815,-0.00435735
 ,0.00189019,0.01250689,-0.00384566,0.02514811,-0.15729967,0.02640576,-
 0.14077064,-0.00329711,0.00406368,-0.00607026,-0.00006543,-0.00069233,
 -0.00025392,-0.01129920,0.00246784,-0.01846034,0.00001742,0.00002648,0
 .00003630,0.00115691,0.00003782,0.00018573,0.16024782,0.00059473,0.001
 55793,0.00017099,-0.00013456,-0.00017824,0.00011713,0.00004077,-0.0000
 7289,-0.00028598,-0.00050055,-0.00041325,-0.00050342,0.00039286,0.0007
 6644,0.00093340,-0.00163287,-0.00474447,-0.00200225,0.00305497,0.00068
 386,0.01651114,0.02523660,-0.05731613,0.02734454,-0.01449562,0.0061878
 6,-0.02036523,-0.00107090,-0.00148532,-0.00067224,0.01417728,-0.001022
 16,0.01701440,0.00000033,-0.00005906,-0.00000587,0.00049113,0.00160522
 ,0.00014414,-0.02424938,0.05859614,-0.00058369,-0.00056250,-0.00001427
 ,0.00039180,0.00064131,0.00000737,-0.00017238,-0.00022904,0.00013125,0
 .00049708,0.00026834,-0.00024278,-0.00034120,-0.00100203,-0.00127851,0
 .00148888,0.00520820,-0.00022192,-0.00594203,0.00373523,-0.02701306,-0
 .12975017,0.02875771,-0.21619034,-0.00599423,0.00070635,-0.00398334,0.
 00000487,-0.00099830,-0.00084558,0.00294036,-0.00149365,0.00816256,-0.
 00009085,-0.00023036,-0.00023372,0.00048019,0.00006023,0.00099256,0.13
 737395,-0.03429338,0.24078966,0.00401527,0.00359101,0.01371822,-0.0009
 9183,0.00218196,0.00119435,-0.00017704,-0.00007893,-0.00058680,-0.0448
 3453,-0.00925339,0.02923315,0.00078492,0.00167773,-0.01633635,0.001808
 97,-0.00433205,-0.00190067,0.00117763,-0.00022593,-0.00095350,-0.00038
 867,-0.00020014,0.00023682,0.00187806,-0.00014668,-0.00003545,-0.00003
 268,-0.00000323,-0.00024529,0.00008251,0.00004578,0.00000653,-0.000140
 36,-0.00027684,-0.00115749,0.00000950,0.00006732,0.00028456,0.00005915
 ,0.00010895,-0.00006341,0.03684484,0.00032930,0.00720617,0.01436926,0.
 00186161,0.00039156,0.00177248,0.00004516,-0.00030260,-0.00061446,-0.0
 0908640,-0.05092313,-0.03053217,0.00424359,-0.00268908,-0.02289172,-0.
 00498507,-0.00225348,-0.00265997,0.00042184,0.00113371,-0.00153881,-0.
 00035426,-0.00058841,0.00027391,-0.00093579,0.00152115,-0.00014099,0.0
 0000469,0.00005752,0.00024629,0.00004657,0.00006172,-0.00008912,-0.000
 16233,-0.00066304,-0.00124471,0.00002491,-0.00005136,-0.00018986,0.000
 13248,0.00012179,-0.00009773,0.01132195,0.04723540,-0.00130105,-0.0044
 6660,-0.00820739,-0.00021336,-0.00023834,-0.00237215,0.00010394,0.0002
 8082,0.00041517,0.02831477,-0.03226857,-0.35619066,-0.00163958,-0.0029
 0776,-0.00696129,-0.00069273,-0.00167380,0.00014049,0.00048145,0.00021
 870,-0.00005235,-0.00016402,-0.00006334,-0.00020991,0.00025484,-0.0005
 8017,0.00037040,-0.00000283,0.00000423,-0.00009333,0.00001486,-0.00000
 481,-0.00003961,-0.00061886,-0.00046054,0.00131898,-0.00000137,0.00000
 797,0.00007538,0.00003908,-0.00003964,-0.00004796,-0.02580255,0.040589
 47,0.37202696,-0.05201629,-0.03605635,-0.01348302,-0.01240363,-0.00615
 346,-0.02249735,0.00202516,0.00094752,-0.00320042,-0.00779969,-0.02207
 575,0.00935355,-0.00178581,-0.01788708,0.05872426,-0.17165991,-0.11239
 367,0.00743850,-0.01101018,-0.03311437,-0.01752619,-0.00414029,-0.0032
 1805,-0.00829540,-0.06607228,-0.02462816,0.02321689,0.00350639,-0.0042
 6063,0.03572442,0.00016858,0.00005431,-0.00150654,0.00086147,-0.006462
 78,-0.00232321,0.00692000,-0.00192481,-0.01034220,-0.00068441,-0.00201
 374,-0.00023918,-0.00009575,-0.00290826,0.00122740,0.31418664,-0.03091
 455,-0.10323174,-0.06680212,-0.00097950,-0.02133040,-0.02837625,0.0015
 9075,0.00170635,-0.00263099,-0.00827488,-0.00430605,-0.01197858,-0.030
 59055,-0.00635483,0.05221072,-0.12617435,-0.22082536,0.00177623,-0.030
 26548,-0.02809279,-0.01379625,-0.00390047,-0.00093585,-0.02898341,-0.0
 2161863,-0.09345323,0.02820965,-0.00185218,-0.00034167,0.00984197,-0.0
 0038582,-0.00038832,0.00057515,-0.00589193,-0.00234882,-0.00273985,-0.
 00689398,0.00066828,0.03323490,-0.00146620,-0.00422772,-0.00047037,-0.
 00447749,-0.00025792,0.00160238,0.27209527,0.48372008,-0.00405072,-0.0
 6344848,-0.25694446,-0.00378448,-0.00305008,-0.00878480,-0.00000064,0.
 00049388,0.00311931,0.03425885,0.01842087,-0.07795567,0.02142753,0.009
 29887,-0.04486081,0.02401117,0.02703499,-0.12364220,-0.02140254,-0.029
 85617,-0.00110197,-0.01062178,-0.01498401,-0.04268196,0.00995611,0.023
 42300,-0.20307822,0.00396277,0.00091758,-0.01586989,-0.00059165,-0.000
 94197,0.00080127,-0.00005212,-0.00118025,0.00344297,0.00131106,0.00686
 457,-0.02393782,-0.00055994,-0.00406773,-0.00001192,0.00240788,0.00274
 813,-0.00017274,-0.05627150,0.02832680,0.79167891\\-0.00001614,-0.0000
 0181,0.00000161,0.00000652,0.00001479,0.00002069,-0.00000065,-0.000003
 08,-0.00000130,0.00002637,0.00000965,-0.00001681,-0.00000916,-0.000002
 88,-0.00000298,0.00001336,-0.00000752,-0.00002859,-0.00002192,-0.00001
 835,0.00002430,0.00003802,0.00004232,-0.00001570,-0.00000768,-0.000032
 45,0.00001996,0.00000138,0.00000450,0.00000133,-0.00000061,-0.00000623
 ,0.00000261,-0.00000453,-0.00000471,-0.00001253,-0.00000219,0.00000506
 ,-0.00000232,-0.00000509,-0.00000686,-0.00000043,-0.00000714,0.0000011
 8,0.00001730,-0.00001053,0.00000641,-0.00000713\\\@


 "WOULD YOU TELL ME PLEASE, WHICH WAY I OUGHT TO WALK FROM HERE?"
 "THAT DEPENDS A GREAT DEAL ON WHERE YOU WANT TO GO," SAID THE CAT.
 "I DON'T MUCH CARE WHERE -- ", SAID ALICE.
 "THEN IT DOESN'T MATTER WHICH WAY YOU WALK," SAID THE CAT.

                                      -- LEWIS CARROLL
 Job cpu time:       0 days  0 hours 10 minutes 39.9 seconds.
 File lengths (MBytes):  RWF=     73 Int=      0 D2E=      0 Chk=      4 Scr=      1
 Normal termination of Gaussian 09 at Fri Aug 20 16:00:00 2021.
