 Entering Gaussian System, Link 0=g09
 Input=B3LYP6-31G.ISAJAN.gjf
 Output=B3LYP6-31G.ISAJAN.log
 Initial command:
 /public/home/users/caep010/software/Gaussian09/g09/l1.exe "/public/home/users/caep010/.cache/gau_scr/Gau-107183.inp" -scrdir="/public/home/users/caep010/.cache/gau_scr/"
 Entering Link 1 = /public/home/users/caep010/software/Gaussian09/g09/l1.exe PID=    107184.
  
 Copyright (c) 1988,1990,1992,1993,1995,1998,2003,2009,2015,
            Gaussian, Inc.  All Rights Reserved.
  
 This is part of the Gaussian(R) 09 program.  It is based on
 the Gaussian(R) 03 system (copyright 2003, Gaussian, Inc.),
 the Gaussian(R) 98 system (copyright 1998, Gaussian, Inc.),
 the Gaussian(R) 94 system (copyright 1995, Gaussian, Inc.),
 the Gaussian 92(TM) system (copyright 1992, Gaussian, Inc.),
 the Gaussian 90(TM) system (copyright 1990, Gaussian, Inc.),
 the Gaussian 88(TM) system (copyright 1988, Gaussian, Inc.),
 the Gaussian 86(TM) system (copyright 1986, Carnegie Mellon
 University), and the Gaussian 82(TM) system (copyright 1983,
 Carnegie Mellon University). Gaussian is a federally registered
 trademark of Gaussian, Inc.
  
 This software contains proprietary and confidential information,
 including trade secrets, belonging to Gaussian, Inc.
  
 This software is provided under written license and may be
 used, copied, transmitted, or stored only in accord with that
 written license.
  
 The following legend is applicable only to US Government
 contracts under FAR:
  
                    RESTRICTED RIGHTS LEGEND
  
 Use, reproduction and disclosure by the US Government is
 subject to restrictions as set forth in subparagraphs (a)
 and (c) of the Commercial Computer Software - Restricted
 Rights clause in FAR 52.227-19.
  
 Gaussian, Inc.
 340 Quinnipiac St., Bldg. 40, Wallingford CT 06492
  
  
 ---------------------------------------------------------------
 Warning -- This program may not be used in any manner that
 competes with the business of Gaussian, Inc. or will provide
 assistance to any competitor of Gaussian, Inc.  The licensee
 of this program is prohibited from giving any competitor of
 Gaussian, Inc. access to this program.  By using this program,
 the user acknowledges that Gaussian, Inc. is engaged in the
 business of creating and licensing software in the field of
 computational chemistry and represents and warrants to the
 licensee that it is not a competitor of Gaussian, Inc. and that
 it will not use this program in any manner prohibited above.
 ---------------------------------------------------------------
  

 Cite this work as:
 Gaussian 09, Revision E.01,
 M. J. Frisch, G. W. Trucks, H. B. Schlegel, G. E. Scuseria, 
 M. A. Robb, J. R. Cheeseman, G. Scalmani, V. Barone, B. Mennucci, 
 G. A. Petersson, H. Nakatsuji, M. Caricato, X. Li, H. P. Hratchian, 
 A. F. Izmaylov, J. Bloino, G. Zheng, J. L. Sonnenberg, M. Hada, 
 M. Ehara, K. Toyota, R. Fukuda, J. Hasegawa, M. Ishida, T. Nakajima, 
 Y. Honda, O. Kitao, H. Nakai, T. Vreven, J. A. Montgomery, Jr., 
 J. E. Peralta, F. Ogliaro, M. Bearpark, J. J. Heyd, E. Brothers, 
 K. N. Kudin, V. N. Staroverov, T. Keith, R. Kobayashi, J. Normand, 
 K. Raghavachari, A. Rendell, J. C. Burant, S. S. Iyengar, J. Tomasi, 
 M. Cossi, N. Rega, J. M. Millam, M. Klene, J. E. Knox, J. B. Cross, 
 V. Bakken, C. Adamo, J. Jaramillo, R. Gomperts, R. E. Stratmann, 
 O. Yazyev, A. J. Austin, R. Cammi, C. Pomelli, J. W. Ochterski, 
 R. L. Martin, K. Morokuma, V. G. Zakrzewski, G. A. Voth, 
 P. Salvador, J. J. Dannenberg, S. Dapprich, A. D. Daniels, 
 O. Farkas, J. B. Foresman, J. V. Ortiz, J. Cioslowski, 
 and D. J. Fox, Gaussian, Inc., Wallingford CT, 2013.
 
 ******************************************
 Gaussian 09:  ES64L-G09RevE.01 30-Nov-2015
                20-Aug-2021 
 ******************************************
 %nproc=32
 Will use up to   32 processors via shared memory.
 %mem=180GB
 -------------------------
 #P OPT Freq B3LYP/6-31G**
 -------------------------
 1/14=-1,18=20,19=15,26=3,38=1/1,3;
 2/9=110,12=2,17=6,18=5,40=1/2;
 3/5=1,6=6,7=101,11=2,16=1,25=1,30=1,71=1,74=-5/1,2,3;
 4//1;
 5/5=2,38=5/2;
 6/7=2,8=2,9=2,10=2,28=1/1;
 7//1,2,3,16;
 1/14=-1,18=20,19=15,26=3/3(2);
 2/9=110/2;
 99//99;
 2/9=110/2;
 3/5=1,6=6,7=101,11=2,16=1,25=1,30=1,71=1,74=-5/1,2,3;
 4/5=5,16=3,69=1/1;
 5/5=2,38=5/2;
 7//1,2,3,16;
 1/14=-1,18=20,19=15,26=3/3(-5);
 2/9=110/2;
 6/7=2,8=2,9=2,10=2,19=2,28=1/1;
 99/9=1/99;
 Leave Link    1 at Fri Aug 20 15:57:58 2021, MaxMem= 24159191040 cpu:         3.2
 (Enter /public/home/users/caep010/software/Gaussian09/g09/l101.exe)
 ------
 ISAJAN
 ------
 Symbolic Z-matrix:
 Charge =  0 Multiplicity = 1
 O                     3.0461   -1.6385    9.5701 
 C                     3.4145   -0.9695    8.6435 
 N                     4.0413   -1.5085    7.5001 
 C                     3.2076    0.4959    8.5343 
 N                     4.0517   -2.7689    7.5153 
 N                     4.1187   -3.8725    7.4225 
 C                     2.8786    1.2637    9.6524 
 N                     2.9873    0.7101    11.0095 
 O                     4.0689    0.3361    11.3922 
 O                     1.9764    0.7209    11.6899 
 C                     2.5056    2.5834    9.5607 
 H                     2.2786    3.0626    10.3256 
 C                     3.1801    1.1304    7.2954 
 C                     2.8265    2.4641    7.1956 
 H                     3.4011    0.6542    6.5276 
 C                     2.4729    3.187     8.3209 
 H                     2.2138    4.0768    8.2413 
 H                     2.8265    2.8786    6.3642 
 
 NAtoms=     18 NQM=       18 NQMF=       0 NMMI=      0 NMMIF=      0
                NMic=       0 NMicF=      0.
                    Isotopes and Nuclear Properties:
 (Nuclear quadrupole moments (NQMom) in fm**2, nuclear magnetic moments (NMagM)
  in nuclear magnetons)

  Atom         1           2           3           4           5           6           7           8           9          10
 IAtWgt=          16          12          14          12          14          14          12          14          16          16
 AtmWgt=  15.9949146  12.0000000  14.0030740  12.0000000  14.0030740  14.0030740  12.0000000  14.0030740  15.9949146  15.9949146
 NucSpn=           0           0           2           0           2           2           0           2           0           0
 AtZEff=   0.0000000   0.0000000   0.0000000   0.0000000   0.0000000   0.0000000   0.0000000   0.0000000   0.0000000   0.0000000
 NQMom=    0.0000000   0.0000000   2.0440000   0.0000000   2.0440000   2.0440000   0.0000000   2.0440000   0.0000000   0.0000000
 NMagM=    0.0000000   0.0000000   0.4037610   0.0000000   0.4037610   0.4037610   0.0000000   0.4037610   0.0000000   0.0000000
 AtZNuc=   8.0000000   6.0000000   7.0000000   6.0000000   7.0000000   7.0000000   6.0000000   7.0000000   8.0000000   8.0000000

  Atom        11          12          13          14          15          16          17          18
 IAtWgt=          12           1          12          12           1          12           1           1
 AtmWgt=  12.0000000   1.0078250  12.0000000  12.0000000   1.0078250  12.0000000   1.0078250   1.0078250
 NucSpn=           0           1           0           0           1           0           1           1
 AtZEff=   0.0000000   0.0000000   0.0000000   0.0000000   0.0000000   0.0000000   0.0000000   0.0000000
 NQMom=    0.0000000   0.0000000   0.0000000   0.0000000   0.0000000   0.0000000   0.0000000   0.0000000
 NMagM=    0.0000000   2.7928460   0.0000000   0.0000000   2.7928460   0.0000000   2.7928460   2.7928460
 AtZNuc=   6.0000000   1.0000000   6.0000000   6.0000000   1.0000000   6.0000000   1.0000000   1.0000000
 Leave Link  101 at Fri Aug 20 15:57:58 2021, MaxMem= 24159191040 cpu:        10.3
 (Enter /public/home/users/caep010/software/Gaussian09/g09/l103.exe)

 GradGradGradGradGradGradGradGradGradGradGradGradGradGradGradGradGradGrad
 Berny optimization.
 Initialization pass.
                           ----------------------------
                           !    Initial Parameters    !
                           ! (Angstroms and Degrees)  !
 --------------------------                            --------------------------
 ! Name  Definition              Value          Derivative Info.                !
 --------------------------------------------------------------------------------
 ! R1    R(1,2)                  1.2008         estimate D2E/DX2                !
 ! R2    R(2,3)                  1.4109         estimate D2E/DX2                !
 ! R3    R(2,4)                  1.484          estimate D2E/DX2                !
 ! R4    R(3,5)                  1.2605         estimate D2E/DX2                !
 ! R5    R(4,7)                  1.3957         estimate D2E/DX2                !
 ! R6    R(4,13)                 1.3922         estimate D2E/DX2                !
 ! R7    R(5,6)                  1.1095         estimate D2E/DX2                !
 ! R8    R(7,8)                  1.4697         estimate D2E/DX2                !
 ! R9    R(7,11)                 1.3745         estimate D2E/DX2                !
 ! R10   R(8,9)                  1.2067         estimate D2E/DX2                !
 ! R11   R(8,10)                 1.2186         estimate D2E/DX2                !
 ! R12   R(11,12)                0.9307         estimate D2E/DX2                !
 ! R13   R(11,16)                1.3793         estimate D2E/DX2                !
 ! R14   R(13,14)                1.3834         estimate D2E/DX2                !
 ! R15   R(13,15)                0.9301         estimate D2E/DX2                !
 ! R16   R(14,16)                1.3834         estimate D2E/DX2                !
 ! R17   R(14,18)                0.929          estimate D2E/DX2                !
 ! R18   R(16,17)                0.9302         estimate D2E/DX2                !
 ! A1    A(1,2,3)              123.2849         estimate D2E/DX2                !
 ! A2    A(1,2,4)              124.3454         estimate D2E/DX2                !
 ! A3    A(3,2,4)              112.3053         estimate D2E/DX2                !
 ! A4    A(2,3,5)              112.0779         estimate D2E/DX2                !
 ! A5    A(2,4,7)              121.1422         estimate D2E/DX2                !
 ! A6    A(2,4,13)             121.2178         estimate D2E/DX2                !
 ! A7    A(7,4,13)             117.2275         estimate D2E/DX2                !
 ! A8    A(4,7,8)              121.0033         estimate D2E/DX2                !
 ! A9    A(4,7,11)             122.5975         estimate D2E/DX2                !
 ! A10   A(8,7,11)             116.3175         estimate D2E/DX2                !
 ! A11   A(7,8,9)              118.4164         estimate D2E/DX2                !
 ! A12   A(7,8,10)             116.8            estimate D2E/DX2                !
 ! A13   A(9,8,10)             124.6955         estimate D2E/DX2                !
 ! A14   A(7,11,12)            120.3789         estimate D2E/DX2                !
 ! A15   A(7,11,16)            119.1158         estimate D2E/DX2                !
 ! A16   A(12,11,16)           120.5053         estimate D2E/DX2                !
 ! A17   A(4,13,14)            120.5728         estimate D2E/DX2                !
 ! A18   A(4,13,15)            119.7726         estimate D2E/DX2                !
 ! A19   A(14,13,15)           119.6546         estimate D2E/DX2                !
 ! A20   A(13,14,16)           120.6918         estimate D2E/DX2                !
 ! A21   A(13,14,18)           119.6512         estimate D2E/DX2                !
 ! A22   A(16,14,18)           119.6569         estimate D2E/DX2                !
 ! A23   A(11,16,14)           119.7624         estimate D2E/DX2                !
 ! A24   A(11,16,17)           120.1418         estimate D2E/DX2                !
 ! A25   A(14,16,17)           120.0958         estimate D2E/DX2                !
 ! A26   L(3,5,6,1,-1)         186.2458         estimate D2E/DX2                !
 ! A27   L(3,5,6,1,-2)         180.3728         estimate D2E/DX2                !
 ! D1    D(1,2,3,5)              6.1966         estimate D2E/DX2                !
 ! D2    D(4,2,3,5)           -170.9957         estimate D2E/DX2                !
 ! D3    D(1,2,4,7)             16.9979         estimate D2E/DX2                !
 ! D4    D(1,2,4,13)          -155.4257         estimate D2E/DX2                !
 ! D5    D(3,2,4,7)           -165.8449         estimate D2E/DX2                !
 ! D6    D(3,2,4,13)            21.7316         estimate D2E/DX2                !
 ! D7    D(2,4,7,8)             12.3589         estimate D2E/DX2                !
 ! D8    D(2,4,7,11)          -171.0493         estimate D2E/DX2                !
 ! D9    D(13,4,7,8)          -174.9262         estimate D2E/DX2                !
 ! D10   D(13,4,7,11)            1.6655         estimate D2E/DX2                !
 ! D11   D(2,4,13,14)          172.1155         estimate D2E/DX2                !
 ! D12   D(2,4,13,15)           -7.8743         estimate D2E/DX2                !
 ! D13   D(7,4,13,14)           -0.5934         estimate D2E/DX2                !
 ! D14   D(7,4,13,15)          179.4168         estimate D2E/DX2                !
 ! D15   D(4,7,8,9)             60.3586         estimate D2E/DX2                !
 ! D16   D(4,7,8,10)          -122.893          estimate D2E/DX2                !
 ! D17   D(11,7,8,9)          -116.4383         estimate D2E/DX2                !
 ! D18   D(11,7,8,10)           60.3102         estimate D2E/DX2                !
 ! D19   D(4,7,11,12)          178.9588         estimate D2E/DX2                !
 ! D20   D(4,7,11,16)           -1.0638         estimate D2E/DX2                !
 ! D21   D(8,7,11,12)           -4.3002         estimate D2E/DX2                !
 ! D22   D(8,7,11,16)          175.6772         estimate D2E/DX2                !
 ! D23   D(7,11,16,14)          -0.6352         estimate D2E/DX2                !
 ! D24   D(7,11,16,17)         179.3437         estimate D2E/DX2                !
 ! D25   D(12,11,16,14)        179.3422         estimate D2E/DX2                !
 ! D26   D(12,11,16,17)         -0.6789         estimate D2E/DX2                !
 ! D27   D(4,13,14,16)          -1.0448         estimate D2E/DX2                !
 ! D28   D(4,13,14,18)         178.9554         estimate D2E/DX2                !
 ! D29   D(15,13,14,16)        178.945          estimate D2E/DX2                !
 ! D30   D(15,13,14,18)         -1.0547         estimate D2E/DX2                !
 ! D31   D(13,14,16,11)          1.6788         estimate D2E/DX2                !
 ! D32   D(13,14,16,17)       -178.3001         estimate D2E/DX2                !
 ! D33   D(18,14,16,11)       -178.3215         estimate D2E/DX2                !
 ! D34   D(18,14,16,17)          1.6996         estimate D2E/DX2                !
 --------------------------------------------------------------------------------
 Trust Radius=3.00D-01 FncErr=1.00D-07 GrdErr=1.00D-06
 Number of steps in this run=     89 maximum allowed number of steps=    108.
 GradGradGradGradGradGradGradGradGradGradGradGradGradGradGradGradGradGrad

 Leave Link  103 at Fri Aug 20 15:57:59 2021, MaxMem= 24159191040 cpu:         0.5
 (Enter /public/home/users/caep010/software/Gaussian09/g09/l202.exe)
                          Input orientation:                          
 ---------------------------------------------------------------------
 Center     Atomic      Atomic             Coordinates (Angstroms)
 Number     Number       Type             X           Y           Z
 ---------------------------------------------------------------------
      1          8           0        3.046100   -1.638500    9.570100
      2          6           0        3.414500   -0.969500    8.643500
      3          7           0        4.041300   -1.508500    7.500100
      4          6           0        3.207600    0.495900    8.534300
      5          7           0        4.051700   -2.768900    7.515300
      6          7           0        4.118700   -3.872500    7.422500
      7          6           0        2.878600    1.263700    9.652400
      8          7           0        2.987300    0.710100   11.009500
      9          8           0        4.068900    0.336100   11.392200
     10          8           0        1.976400    0.720900   11.689900
     11          6           0        2.505600    2.583400    9.560700
     12          1           0        2.278600    3.062600   10.325600
     13          6           0        3.180100    1.130400    7.295400
     14          6           0        2.826500    2.464100    7.195600
     15          1           0        3.401100    0.654200    6.527600
     16          6           0        2.472900    3.187000    8.320900
     17          1           0        2.213800    4.076800    8.241300
     18          1           0        2.826500    2.878600    6.364200
 ---------------------------------------------------------------------
                    Distance matrix (angstroms):
                    1          2          3          4          5
     1  O    0.000000
     2  C    1.200778   0.000000
     3  N    2.300483   1.410944   0.000000
     4  C    2.377946   1.483957   2.404630   0.000000
     5  N    2.551713   2.217363   1.260535   3.522752   0.000000
     6  N    3.279240   3.227096   2.366539   4.598817   1.109520
     7  C    2.908194   2.508436   3.697210   1.395674   4.712242
     8  N    2.755223   2.932833   4.283572   2.494199   5.044385
     9  O    2.874928   3.112585   4.307175   2.989141   4.967059
    10  O    3.347324   3.769103   5.175757   3.394744   5.823475
    11  C    4.256368   3.780272   4.831986   2.429806   5.934745
    12  H    4.822881   4.514151   5.655574   3.264927   6.711785
    13  C    3.585948   2.506371   2.783408   1.392200   4.001573
    14  C    4.745293   3.772501   4.165334   2.410636   5.384014
    15  H    3.826134   2.667136   2.456193   2.022213   3.621663
    16  C    5.017421   4.274011   5.018098   2.797739   6.214044
    17  H    5.926473   5.202748   5.923235   3.727778   7.125206
    18  H    5.543484   4.510967   4.691765   3.245278   5.892402
                    6          7          8          9         10
     6  N    0.000000
     7  C    5.735055   0.000000
     8  N    5.928479   1.469697   0.000000
     9  O    5.785613   2.303076   1.206729   0.000000
    10  O    6.625668   2.293470   1.218597   2.148314   0.000000
    11  C    6.989466   1.374462   2.416673   3.293730   2.877925
    12  H    7.740127   2.012272   2.550339   3.431707   2.726939
    13  C    5.091771   2.379941   3.742775   4.266691   4.574737
    14  C    6.470994   2.734875   4.200977   4.866559   4.894910
    15  H    4.669776   3.226278   4.501309   4.920516   5.355704
    16  C    7.304267   2.374146   3.691641   4.484164   4.204560
    17  H    8.215257   3.216628   4.426726   5.230908   4.817807
    18  H    6.954648   3.663724   5.129041   5.769632   5.808737
                   11         12         13         14         15
    11  C    0.000000
    12  H    0.930717   0.000000
    13  C    2.774481   3.705160   0.000000
    14  C    2.389750   3.233465   1.383383   0.000000
    15  H    3.704515   4.635213   0.930121   2.012990   0.000000
    16  C    1.379314   2.017932   2.404451   1.383444   3.239222
    17  H    2.014003   2.318859   3.241872   2.017348   4.007573
    18  H    3.226102   4.003341   2.012056   0.928997   2.303220
                   16         17         18
    16  C    0.000000
    17  H    0.930168   0.000000
    18  H    2.012168   2.309673   0.000000
 Stoichiometry    C7H4N4O3
 Framework group  C1[X(C7H4N4O3)]
 Deg. of freedom    48
 Full point group                 C1      NOp   1
 Largest Abelian subgroup         C1      NOp   1
 Largest concise Abelian subgroup C1      NOp   1
                         Standard orientation:                         
 ---------------------------------------------------------------------
 Center     Atomic      Atomic             Coordinates (Angstroms)
 Number     Number       Type             X           Y           Z
 ---------------------------------------------------------------------
      1          8           0        1.394517   -1.167930   -0.492039
      2          6           0        1.193859   -0.060936   -0.072316
      3          7           0        2.226779    0.823883    0.303097
      4          6           0       -0.149524    0.557727    0.048951
      5          7           0        3.367825    0.363730    0.028835
      6          7           0        4.417321    0.060633   -0.165392
      7          6           0       -1.308152   -0.219507    0.011616
      8          7           0       -1.241495   -1.683549    0.121830
      9          8           0       -0.766383   -2.163089    1.122082
     10          8           0       -1.731888   -2.326088   -0.790112
     11          6           0       -2.566165    0.329581   -0.059458
     12          1           0       -3.317474   -0.218448   -0.097312
     13          6           0       -0.309884    1.940660    0.047138
     14          6           0       -1.573066    2.502470   -0.002737
     15          1           0        0.438214    2.492403    0.079578
     16          6           0       -2.699459    1.702368   -0.073404
     17          1           0       -3.543484    2.089133   -0.130405
     18          1           0       -1.665886    3.426711    0.011370
 ---------------------------------------------------------------------
 Rotational constants (GHZ):      1.1152245      0.5555973      0.3916185
 Leave Link  202 at Fri Aug 20 15:57:59 2021, MaxMem= 24159191040 cpu:         1.0
 (Enter /public/home/users/caep010/software/Gaussian09/g09/l301.exe)
 Standard basis: 6-31G(d,p) (6D, 7F)
 Ernie: Thresh=  0.10000D-02 Tol=  0.10000D-05 Strict=F.
 There are   230 symmetry adapted cartesian basis functions of A   symmetry.
 There are   230 symmetry adapted basis functions of A   symmetry.
   230 basis functions,   420 primitive gaussians,   230 cartesian basis functions
    49 alpha electrons       49 beta electrons
       nuclear repulsion energy       839.4935319077 Hartrees.
 IExCor=  402 DFT=T Ex+Corr=B3LYP ExCW=0 ScaHFX=  0.200000
 ScaDFX=  0.800000  0.720000  1.000000  0.810000 ScalE2=  1.000000  1.000000
 IRadAn=      0 IRanWt=     -1 IRanGd=            0 ICorTp=0 IEmpDi=  4
 NAtoms=   18 NActive=   18 NUniq=   18 SFac= 1.00D+00 NAtFMM=   60 NAOKFM=F Big=F
 Integral buffers will be    131072 words long.
 Raffenetti 2 integral format.
 Two-electron integral symmetry is turned on.
 Leave Link  301 at Fri Aug 20 15:57:59 2021, MaxMem= 24159191040 cpu:         2.2
 (Enter /public/home/users/caep010/software/Gaussian09/g09/l302.exe)
 NPDir=0 NMtPBC=     1 NCelOv=     1 NCel=       1 NClECP=     1 NCelD=      1
         NCelK=      1 NCelE2=     1 NClLst=     1 CellRange=     0.0.
 One-electron integrals computed using PRISM.
 NBasis=   230 RedAO= T EigKep=  3.16D-04  NBF=   230
 NBsUse=   230 1.00D-06 EigRej= -1.00D+00 NBFU=   230
 Precomputing XC quadrature grid using
 IXCGrd= 4 IRadAn=           0 IRanWt=          -1 IRanGd=           0 AccXCQ= 0.00D+00.
 Generated NRdTot=       0 NPtTot=           0 NUsed=           0 NTot=          32
 NSgBfM=   229   229   229   229   229 MxSgAt=    18 MxSgA2=    18.
 Leave Link  302 at Fri Aug 20 15:57:59 2021, MaxMem= 24159191040 cpu:        12.6
 (Enter /public/home/users/caep010/software/Gaussian09/g09/l303.exe)
 DipDrv:  MaxL=1.
 Leave Link  303 at Fri Aug 20 15:57:59 2021, MaxMem= 24159191040 cpu:         0.9
 (Enter /public/home/users/caep010/software/Gaussian09/g09/l401.exe)
 ExpMin= 1.61D-01 ExpMax= 5.48D+03 ExpMxC= 8.25D+02 IAcc=1 IRadAn=         1 AccDes= 0.00D+00
 Harris functional with IExCor=  402 and IRadAn=       1 diagonalized for initial guess.
 HarFok:  IExCor=  402 AccDes= 0.00D+00 IRadAn=         1 IDoV= 1 UseB2=F ITyADJ=14
 ICtDFT=  3500011 ScaDFX=  1.000000  1.000000  1.000000  1.000000
 FoFCou: FMM=F IPFlag=           0 FMFlag=      100000 FMFlg1=           0
         NFxFlg=           0 DoJE=T BraDBF=F KetDBF=T FulRan=T
         wScrn=  0.000000 ICntrl=     500 IOpCl=  0 I1Cent=   200000004 NGrid=           0
         NMat0=    1 NMatS0=      1 NMatT0=    0 NMatD0=    1 NMtDS0=    0 NMtDT0=    0
 Petite list used in FoFCou.
 Harris En= -713.644748317206    
 JPrj=0 DoOrth=F DoCkMO=F.
 Leave Link  401 at Fri Aug 20 15:58:00 2021, MaxMem= 24159191040 cpu:        15.5
 (Enter /public/home/users/caep010/software/Gaussian09/g09/l502.exe)
 Closed shell SCF:
 Using DIIS extrapolation, IDIIS=  1040.
 Integral symmetry usage will be decided dynamically.
 Keep R1 ints in memory in canonical form, NReq=359212299.
 IVT=      186324 IEndB=      186324 NGot= 24159191040 MDV= 23806141822
 LenX= 23806141822 LenY= 23806088481
 Requested convergence on RMS density matrix=1.00D-08 within 128 cycles.
 Requested convergence on MAX density matrix=1.00D-06.
 Requested convergence on             energy=1.00D-06.
 No special actions if energy rises.
 FoFCou: FMM=F IPFlag=           0 FMFlag=           0 FMFlg1=           0
         NFxFlg=           0 DoJE=F BraDBF=F KetDBF=F FulRan=T
         wScrn=  0.000000 ICntrl=     600 IOpCl=  0 I1Cent=           0 NGrid=           0
         NMat0=    1 NMatS0=  26565 NMatT0=    0 NMatD0=    1 NMtDS0=    0 NMtDT0=    0
 Symmetry not used in FoFCou.
 Integral accuracy reduced to 1.0D-05 until final iterations.

 Cycle   1  Pass 0  IDiag  1:
 E= -713.162251873292    
 DIIS: error= 2.99D-02 at cycle   1 NSaved=   1.
 NSaved= 1 IEnMin= 1 EnMin= -713.162251873292     IErMin= 1 ErrMin= 2.99D-02
 ErrMax= 2.99D-02  0.00D+00 EMaxC= 1.00D-01 BMatC= 5.00D-01 BMatP= 5.00D-01
 IDIUse=3 WtCom= 7.01D-01 WtEn= 2.99D-01
 Coeff-Com:  0.100D+01
 Coeff-En:   0.100D+01
 Coeff:      0.100D+01
 Gap=     0.303 Goal=   None    Shift=    0.000
 GapD=    0.303 DampG=1.000 DampE=0.500 DampFc=0.5000 IDamp=-1.
 Damping current iteration by 5.00D-01
 RMSDP=7.89D-03 MaxDP=2.43D-01              OVMax= 3.70D-01

 Cycle   2  Pass 0  IDiag  1:
 E= -713.215706991587     Delta-E=       -0.053455118295 Rises=F Damp=T
 DIIS: error= 1.32D-02 at cycle   2 NSaved=   2.
 NSaved= 2 IEnMin= 2 EnMin= -713.215706991587     IErMin= 2 ErrMin= 1.32D-02
 ErrMax= 1.32D-02  0.00D+00 EMaxC= 1.00D-01 BMatC= 1.22D-01 BMatP= 5.00D-01
 IDIUse=3 WtCom= 8.68D-01 WtEn= 1.32D-01
 Coeff-Com:  0.296D+00 0.704D+00
 Coeff-En:   0.444D+00 0.556D+00
 Coeff:      0.316D+00 0.684D+00
 Gap=     0.215 Goal=   None    Shift=    0.000
 RMSDP=2.49D-03 MaxDP=9.98D-02 DE=-5.35D-02 OVMax= 2.13D-01

 Cycle   3  Pass 0  IDiag  1:
 E= -713.546664721555     Delta-E=       -0.330957729968 Rises=F Damp=F
 DIIS: error= 9.36D-03 at cycle   3 NSaved=   3.
 NSaved= 3 IEnMin= 3 EnMin= -713.546664721555     IErMin= 3 ErrMin= 9.36D-03
 ErrMax= 9.36D-03  0.00D+00 EMaxC= 1.00D-01 BMatC= 3.63D-02 BMatP= 1.22D-01
 IDIUse=3 WtCom= 9.06D-01 WtEn= 9.36D-02
 Coeff-Com:  0.109D+00 0.359D+00 0.532D+00
 Coeff-En:   0.000D+00 0.000D+00 0.100D+01
 Coeff:      0.991D-01 0.325D+00 0.575D+00
 Gap=     0.195 Goal=   None    Shift=    0.000
 RMSDP=1.37D-03 MaxDP=4.15D-02 DE=-3.31D-01 OVMax= 6.97D-02

 Cycle   4  Pass 0  IDiag  1:
 E= -713.560053332203     Delta-E=       -0.013388610648 Rises=F Damp=F
 DIIS: error= 8.67D-03 at cycle   4 NSaved=   4.
 NSaved= 4 IEnMin= 4 EnMin= -713.560053332203     IErMin= 4 ErrMin= 8.67D-03
 ErrMax= 8.67D-03  0.00D+00 EMaxC= 1.00D-01 BMatC= 2.43D-02 BMatP= 3.63D-02
 IDIUse=3 WtCom= 9.13D-01 WtEn= 8.67D-02
 Coeff-Com:  0.402D-01 0.138D+00 0.428D+00 0.395D+00
 Coeff-En:   0.000D+00 0.000D+00 0.401D+00 0.599D+00
 Coeff:      0.367D-01 0.126D+00 0.425D+00 0.412D+00
 Gap=     0.185 Goal=   None    Shift=    0.000
 RMSDP=6.94D-04 MaxDP=2.70D-02 DE=-1.34D-02 OVMax= 4.49D-02

 Cycle   5  Pass 0  IDiag  1:
 E= -713.578004493645     Delta-E=       -0.017951161442 Rises=F Damp=F
 DIIS: error= 2.54D-03 at cycle   5 NSaved=   5.
 NSaved= 5 IEnMin= 5 EnMin= -713.578004493645     IErMin= 5 ErrMin= 2.54D-03
 ErrMax= 2.54D-03  0.00D+00 EMaxC= 1.00D-01 BMatC= 3.29D-03 BMatP= 2.43D-02
 IDIUse=3 WtCom= 9.75D-01 WtEn= 2.54D-02
 Coeff-Com:  0.117D-01 0.348D-01 0.216D+00 0.300D+00 0.437D+00
 Coeff-En:   0.000D+00 0.000D+00 0.000D+00 0.133D+00 0.867D+00
 Coeff:      0.114D-01 0.339D-01 0.211D+00 0.296D+00 0.448D+00
 Gap=     0.183 Goal=   None    Shift=    0.000
 RMSDP=2.70D-04 MaxDP=1.05D-02 DE=-1.80D-02 OVMax= 1.61D-02

 Cycle   6  Pass 0  IDiag  1:
 E= -713.580583165095     Delta-E=       -0.002578671449 Rises=F Damp=F
 DIIS: error= 1.11D-03 at cycle   6 NSaved=   6.
 NSaved= 6 IEnMin= 6 EnMin= -713.580583165095     IErMin= 6 ErrMin= 1.11D-03
 ErrMax= 1.11D-03  0.00D+00 EMaxC= 1.00D-01 BMatC= 3.81D-04 BMatP= 3.29D-03
 IDIUse=3 WtCom= 9.89D-01 WtEn= 1.11D-02
 Coeff-Com:  0.182D-02 0.978D-03 0.769D-01 0.134D+00 0.301D+00 0.486D+00
 Coeff-En:   0.000D+00 0.000D+00 0.000D+00 0.000D+00 0.102D+00 0.898D+00
 Coeff:      0.180D-02 0.967D-03 0.761D-01 0.133D+00 0.298D+00 0.490D+00
 Gap=     0.183 Goal=   None    Shift=    0.000
 RMSDP=8.02D-05 MaxDP=3.11D-03 DE=-2.58D-03 OVMax= 5.50D-03

 Cycle   7  Pass 0  IDiag  1:
 E= -713.580856087933     Delta-E=       -0.000272922838 Rises=F Damp=F
 DIIS: error= 3.95D-04 at cycle   7 NSaved=   7.
 NSaved= 7 IEnMin= 7 EnMin= -713.580856087933     IErMin= 7 ErrMin= 3.95D-04
 ErrMax= 3.95D-04  0.00D+00 EMaxC= 1.00D-01 BMatC= 4.63D-05 BMatP= 3.81D-04
 IDIUse=3 WtCom= 9.96D-01 WtEn= 3.95D-03
 Coeff-Com:  0.150D-03-0.208D-02 0.297D-01 0.564D-01 0.149D+00 0.331D+00
 Coeff-Com:  0.436D+00
 Coeff-En:   0.000D+00 0.000D+00 0.000D+00 0.000D+00 0.000D+00 0.870D-01
 Coeff-En:   0.913D+00
 Coeff:      0.149D-03-0.208D-02 0.296D-01 0.562D-01 0.148D+00 0.330D+00
 Coeff:      0.438D+00
 Gap=     0.183 Goal=   None    Shift=    0.000
 RMSDP=2.99D-05 MaxDP=1.22D-03 DE=-2.73D-04 OVMax= 2.05D-03

 Cycle   8  Pass 0  IDiag  1:
 E= -713.580889825726     Delta-E=       -0.000033737794 Rises=F Damp=F
 DIIS: error= 1.42D-04 at cycle   8 NSaved=   8.
 NSaved= 8 IEnMin= 8 EnMin= -713.580889825726     IErMin= 8 ErrMin= 1.42D-04
 ErrMax= 1.42D-04  0.00D+00 EMaxC= 1.00D-01 BMatC= 3.62D-06 BMatP= 4.63D-05
 IDIUse=3 WtCom= 9.99D-01 WtEn= 1.42D-03
 Coeff-Com: -0.542D-04-0.150D-02 0.118D-01 0.229D-01 0.659D-01 0.170D+00
 Coeff-Com:  0.269D+00 0.462D+00
 Coeff-En:   0.000D+00 0.000D+00 0.000D+00 0.000D+00 0.000D+00 0.000D+00
 Coeff-En:   0.000D+00 0.100D+01
 Coeff:     -0.541D-04-0.150D-02 0.117D-01 0.229D-01 0.658D-01 0.170D+00
 Coeff:      0.268D+00 0.463D+00
 Gap=     0.183 Goal=   None    Shift=    0.000
 RMSDP=9.84D-06 MaxDP=5.02D-04 DE=-3.37D-05 OVMax= 9.80D-04

 Initial convergence to 1.0D-05 achieved.  Increase integral accuracy.
 Cycle   9  Pass 1  IDiag  1:
 E= -713.580890069787     Delta-E=       -0.000000244061 Rises=F Damp=F
 DIIS: error= 1.04D-04 at cycle   1 NSaved=   1.
 NSaved= 1 IEnMin= 1 EnMin= -713.580890069787     IErMin= 1 ErrMin= 1.04D-04
 ErrMax= 1.04D-04  0.00D+00 EMaxC= 1.00D-01 BMatC= 1.45D-06 BMatP= 1.45D-06
 IDIUse=3 WtCom= 9.99D-01 WtEn= 1.04D-03
 Coeff-Com:  0.100D+01
 Coeff-En:   0.100D+01
 Coeff:      0.100D+01
 Gap=     0.183 Goal=   None    Shift=    0.000
 RMSDP=9.84D-06 MaxDP=5.02D-04 DE=-2.44D-07 OVMax= 1.68D-03

 Cycle  10  Pass 1  IDiag  1:
 E= -713.580881645034     Delta-E=        0.000008424754 Rises=F Damp=F
 DIIS: error= 3.21D-04 at cycle   2 NSaved=   2.
 NSaved= 2 IEnMin= 1 EnMin= -713.580890069787     IErMin= 1 ErrMin= 1.04D-04
 ErrMax= 3.21D-04  0.00D+00 EMaxC= 1.00D-01 BMatC= 1.21D-05 BMatP= 1.45D-06
 IDIUse=3 WtCom= 3.58D-01 WtEn= 6.42D-01
 Coeff-Com:  0.747D+00 0.253D+00
 Coeff-En:   0.828D+00 0.172D+00
 Coeff:      0.799D+00 0.201D+00
 Gap=     0.183 Goal=   None    Shift=    0.000
 RMSDP=9.31D-06 MaxDP=5.07D-04 DE= 8.42D-06 OVMax= 1.05D-03

 Cycle  11  Pass 1  IDiag  1:
 E= -713.580890955712     Delta-E=       -0.000009310679 Rises=F Damp=F
 DIIS: error= 5.60D-05 at cycle   3 NSaved=   3.
 NSaved= 3 IEnMin= 3 EnMin= -713.580890955712     IErMin= 3 ErrMin= 5.60D-05
 ErrMax= 5.60D-05  0.00D+00 EMaxC= 1.00D-01 BMatC= 4.31D-07 BMatP= 1.45D-06
 IDIUse=1 WtCom= 1.00D+00 WtEn= 0.00D+00
 Coeff-Com:  0.288D+00-0.422D-01 0.755D+00
 Coeff:      0.288D+00-0.422D-01 0.755D+00
 Gap=     0.183 Goal=   None    Shift=    0.000
 RMSDP=2.44D-06 MaxDP=1.17D-04 DE=-9.31D-06 OVMax= 2.03D-04

 Cycle  12  Pass 1  IDiag  1:
 E= -713.580891295782     Delta-E=       -0.000000340070 Rises=F Damp=F
 DIIS: error= 5.82D-06 at cycle   4 NSaved=   4.
 NSaved= 4 IEnMin= 4 EnMin= -713.580891295782     IErMin= 4 ErrMin= 5.82D-06
 ErrMax= 5.82D-06  0.00D+00 EMaxC= 1.00D-01 BMatC= 1.29D-08 BMatP= 4.31D-07
 IDIUse=1 WtCom= 1.00D+00 WtEn= 0.00D+00
 Coeff-Com:  0.155D-01-0.771D-01 0.444D+00 0.618D+00
 Coeff:      0.155D-01-0.771D-01 0.444D+00 0.618D+00
 Gap=     0.183 Goal=   None    Shift=    0.000
 RMSDP=5.55D-07 MaxDP=2.33D-05 DE=-3.40D-07 OVMax= 3.01D-05

 Cycle  13  Pass 1  IDiag  1:
 E= -713.580891304445     Delta-E=       -0.000000008663 Rises=F Damp=F
 DIIS: error= 3.97D-06 at cycle   5 NSaved=   5.
 NSaved= 5 IEnMin= 5 EnMin= -713.580891304445     IErMin= 5 ErrMin= 3.97D-06
 ErrMax= 3.97D-06  0.00D+00 EMaxC= 1.00D-01 BMatC= 3.58D-09 BMatP= 1.29D-08
 IDIUse=1 WtCom= 1.00D+00 WtEn= 0.00D+00
 Coeff-Com: -0.113D-01-0.506D-01 0.252D+00 0.438D+00 0.371D+00
 Coeff:     -0.113D-01-0.506D-01 0.252D+00 0.438D+00 0.371D+00
 Gap=     0.183 Goal=   None    Shift=    0.000
 RMSDP=2.42D-07 MaxDP=9.85D-06 DE=-8.66D-09 OVMax= 1.44D-05

 Cycle  14  Pass 1  IDiag  1:
 E= -713.580891307060     Delta-E=       -0.000000002615 Rises=F Damp=F
 DIIS: error= 9.17D-07 at cycle   6 NSaved=   6.
 NSaved= 6 IEnMin= 6 EnMin= -713.580891307060     IErMin= 6 ErrMin= 9.17D-07
 ErrMax= 9.17D-07  0.00D+00 EMaxC= 1.00D-01 BMatC= 3.61D-10 BMatP= 3.58D-09
 IDIUse=1 WtCom= 1.00D+00 WtEn= 0.00D+00
 Coeff-Com: -0.100D-01-0.288D-01 0.137D+00 0.256D+00 0.269D+00 0.377D+00
 Coeff:     -0.100D-01-0.288D-01 0.137D+00 0.256D+00 0.269D+00 0.377D+00
 Gap=     0.183 Goal=   None    Shift=    0.000
 RMSDP=8.29D-08 MaxDP=4.03D-06 DE=-2.61D-09 OVMax= 6.80D-06

 Cycle  15  Pass 1  IDiag  1:
 E= -713.580891307339     Delta-E=       -0.000000000279 Rises=F Damp=F
 DIIS: error= 2.44D-07 at cycle   7 NSaved=   7.
 NSaved= 7 IEnMin= 7 EnMin= -713.580891307339     IErMin= 7 ErrMin= 2.44D-07
 ErrMax= 2.44D-07  0.00D+00 EMaxC= 1.00D-01 BMatC= 2.31D-11 BMatP= 3.61D-10
 IDIUse=1 WtCom= 1.00D+00 WtEn= 0.00D+00
 Coeff-Com: -0.316D-02-0.623D-02 0.280D-01 0.613D-01 0.801D-01 0.227D+00
 Coeff-Com:  0.614D+00
 Coeff:     -0.316D-02-0.623D-02 0.280D-01 0.613D-01 0.801D-01 0.227D+00
 Coeff:      0.614D+00
 Gap=     0.183 Goal=   None    Shift=    0.000
 RMSDP=2.94D-08 MaxDP=7.20D-07 DE=-2.79D-10 OVMax= 1.55D-06

 Cycle  16  Pass 1  IDiag  1:
 E= -713.580891307386     Delta-E=       -0.000000000047 Rises=F Damp=F
 DIIS: error= 5.69D-08 at cycle   8 NSaved=   8.
 NSaved= 8 IEnMin= 8 EnMin= -713.580891307386     IErMin= 8 ErrMin= 5.69D-08
 ErrMax= 5.69D-08  0.00D+00 EMaxC= 1.00D-01 BMatC= 3.17D-12 BMatP= 2.31D-11
 IDIUse=1 WtCom= 1.00D+00 WtEn= 0.00D+00
 Coeff-Com: -0.358D-03 0.898D-03-0.532D-02-0.459D-02 0.425D-02 0.665D-01
 Coeff-Com:  0.341D+00 0.598D+00
 Coeff:     -0.358D-03 0.898D-03-0.532D-02-0.459D-02 0.425D-02 0.665D-01
 Coeff:      0.341D+00 0.598D+00
 Gap=     0.183 Goal=   None    Shift=    0.000
 RMSDP=1.19D-08 MaxDP=2.73D-07 DE=-4.68D-11 OVMax= 6.76D-07

 Cycle  17  Pass 1  IDiag  1:
 E= -713.580891307338     Delta-E=        0.000000000048 Rises=F Damp=F
 DIIS: error= 3.54D-08 at cycle   9 NSaved=   9.
 NSaved= 9 IEnMin= 8 EnMin= -713.580891307386     IErMin= 9 ErrMin= 3.54D-08
 ErrMax= 3.54D-08  0.00D+00 EMaxC= 1.00D-01 BMatC= 1.08D-12 BMatP= 3.17D-12
 IDIUse=1 WtCom= 1.00D+00 WtEn= 0.00D+00
 Coeff-Com:  0.388D-03 0.183D-02-0.899D-02-0.150D-01-0.120D-01 0.182D-02
 Coeff-Com:  0.124D+00 0.409D+00 0.499D+00
 Coeff:      0.388D-03 0.183D-02-0.899D-02-0.150D-01-0.120D-01 0.182D-02
 Coeff:      0.124D+00 0.409D+00 0.499D+00
 Gap=     0.183 Goal=   None    Shift=    0.000
 RMSDP=4.55D-09 MaxDP=2.17D-07 DE= 4.77D-11 OVMax= 3.70D-07

 SCF Done:  E(RB3LYP) =  -713.580891307     A.U. after   17 cycles
            NFock= 17  Conv=0.45D-08     -V/T= 2.0067
 KE= 7.088092956973D+02 PE=-3.344818690154D+03 EE= 1.082934971242D+03
 Leave Link  502 at Fri Aug 20 15:58:13 2021, MaxMem= 24159191040 cpu:       120.0
 (Enter /public/home/users/caep010/software/Gaussian09/g09/l601.exe)
 Copying SCF densities to generalized density rwf, IOpCl= 0 IROHF=0.

 **********************************************************************

            Population analysis using the SCF density.

 **********************************************************************

 Orbital symmetries:
       Occupied  (A) (A) (A) (A) (A) (A) (A) (A) (A) (A) (A) (A)
                 (A) (A) (A) (A) (A) (A) (A) (A) (A) (A) (A) (A)
                 (A) (A) (A) (A) (A) (A) (A) (A) (A) (A) (A) (A)
                 (A) (A) (A) (A) (A) (A) (A) (A) (A) (A) (A) (A)
                 (A)
       Virtual   (A) (A) (A) (A) (A) (A) (A) (A) (A) (A) (A) (A)
                 (A) (A) (A) (A) (A) (A) (A) (A) (A) (A) (A) (A)
                 (A) (A) (A) (A) (A) (A) (A) (A) (A) (A) (A) (A)
                 (A) (A) (A) (A) (A) (A) (A) (A) (A) (A) (A) (A)
                 (A) (A) (A) (A) (A) (A) (A) (A) (A) (A) (A) (A)
                 (A) (A) (A) (A) (A) (A) (A) (A) (A) (A) (A) (A)
                 (A) (A) (A) (A) (A) (A) (A) (A) (A) (A) (A) (A)
                 (A) (A) (A) (A) (A) (A) (A) (A) (A) (A) (A) (A)
                 (A) (A) (A) (A) (A) (A) (A) (A) (A) (A) (A) (A)
                 (A) (A) (A) (A) (A) (A) (A) (A) (A) (A) (A) (A)
                 (A) (A) (A) (A) (A) (A) (A) (A) (A) (A) (A) (A)
                 (A) (A) (A) (A) (A) (A) (A) (A) (A) (A) (A) (A)
                 (A) (A) (A) (A) (A) (A) (A) (A) (A) (A) (A) (A)
                 (A) (A) (A) (A) (A) (A) (A) (A) (A) (A) (A) (A)
                 (A) (A) (A) (A) (A) (A) (A) (A) (A) (A) (A) (A)
                 (A)
 The electronic state is 1-A.
 Alpha  occ. eigenvalues --  -19.18456 -19.18164 -19.16092 -14.57505 -14.55329
 Alpha  occ. eigenvalues --  -14.46003 -14.41397 -10.33239 -10.26872 -10.24155
 Alpha  occ. eigenvalues --  -10.21524 -10.21466 -10.21279 -10.20816  -1.24180
 Alpha  occ. eigenvalues --   -1.19575  -1.09019  -1.06333  -1.00909  -0.91493
 Alpha  occ. eigenvalues --   -0.82857  -0.81984  -0.74434  -0.70831  -0.67630
 Alpha  occ. eigenvalues --   -0.62602  -0.58769  -0.55895  -0.55579  -0.54738
 Alpha  occ. eigenvalues --   -0.54205  -0.51417  -0.51398  -0.49765  -0.49208
 Alpha  occ. eigenvalues --   -0.48020  -0.46473  -0.44427  -0.42596  -0.40764
 Alpha  occ. eigenvalues --   -0.39947  -0.36986  -0.31609  -0.31395  -0.30724
 Alpha  occ. eigenvalues --   -0.30238  -0.29541  -0.28836  -0.27396
 Alpha virt. eigenvalues --   -0.09078  -0.06408  -0.05577  -0.03515  -0.02155
 Alpha virt. eigenvalues --    0.04844   0.10121   0.13673   0.14610   0.15636
 Alpha virt. eigenvalues --    0.16300   0.18945   0.20587   0.22917   0.24272
 Alpha virt. eigenvalues --    0.27095   0.29159   0.30709   0.31811   0.34406
 Alpha virt. eigenvalues --    0.36983   0.39265   0.44341   0.46074   0.47745
 Alpha virt. eigenvalues --    0.49695   0.51306   0.51486   0.52236   0.53430
 Alpha virt. eigenvalues --    0.55802   0.56704   0.57088   0.57682   0.58356
 Alpha virt. eigenvalues --    0.58706   0.59590   0.61349   0.62426   0.64435
 Alpha virt. eigenvalues --    0.65914   0.68458   0.69062   0.70572   0.72046
 Alpha virt. eigenvalues --    0.73324   0.74435   0.76839   0.77586   0.80340
 Alpha virt. eigenvalues --    0.81724   0.82582   0.84749   0.85555   0.87343
 Alpha virt. eigenvalues --    0.87503   0.88541   0.89691   0.92331   0.93201
 Alpha virt. eigenvalues --    0.94588   0.95797   0.98661   1.00802   1.02825
 Alpha virt. eigenvalues --    1.03654   1.04379   1.04931   1.06263   1.08761
 Alpha virt. eigenvalues --    1.09369   1.12081   1.15809   1.17734   1.20641
 Alpha virt. eigenvalues --    1.23523   1.24317   1.27423   1.30456   1.31631
 Alpha virt. eigenvalues --    1.34105   1.35696   1.36674   1.37571   1.39237
 Alpha virt. eigenvalues --    1.41562   1.44005   1.45785   1.46172   1.46491
 Alpha virt. eigenvalues --    1.49278   1.55479   1.56071   1.63368   1.66213
 Alpha virt. eigenvalues --    1.68009   1.71610   1.74710   1.75024   1.76865
 Alpha virt. eigenvalues --    1.80249   1.81361   1.81637   1.82954   1.85417
 Alpha virt. eigenvalues --    1.88340   1.89158   1.91425   1.91726   1.94640
 Alpha virt. eigenvalues --    1.96466   1.96913   1.97932   1.99641   2.01041
 Alpha virt. eigenvalues --    2.02272   2.02504   2.05347   2.06277   2.08301
 Alpha virt. eigenvalues --    2.09988   2.11140   2.11989   2.17330   2.25771
 Alpha virt. eigenvalues --    2.26565   2.28954   2.32441   2.37172   2.41448
 Alpha virt. eigenvalues --    2.44022   2.44679   2.46266   2.49362   2.49972
 Alpha virt. eigenvalues --    2.50961   2.52980   2.56704   2.58362   2.59486
 Alpha virt. eigenvalues --    2.61029   2.64501   2.66149   2.68467   2.71659
 Alpha virt. eigenvalues --    2.72406   2.72968   2.79865   2.81490   2.85743
 Alpha virt. eigenvalues --    2.88083   2.89603   2.91192   2.94537   2.96654
 Alpha virt. eigenvalues --    3.00368   3.07843   3.10735   3.18180   3.21058
 Alpha virt. eigenvalues --    3.25018   3.35675   3.51717   3.59481   3.70521
 Alpha virt. eigenvalues --    3.77158   3.79488   3.83440   3.84039   3.90118
 Alpha virt. eigenvalues --    3.94778   4.04889   4.09651   4.13024   4.16972
 Alpha virt. eigenvalues --    4.18995   4.25392   4.41337   4.45259   4.59035
 Alpha virt. eigenvalues --    4.88554
          Condensed to atoms (all electrons):
               1          2          3          4          5          6
     1  O    8.040219   0.598131  -0.108809  -0.083885   0.000620   0.003033
     2  C    0.598131   4.539934   0.166333   0.283041  -0.030234   0.000036
     3  N   -0.108809   0.166333   7.403267  -0.114951   0.219023  -0.117011
     4  C   -0.083885   0.283041  -0.114951   5.060445   0.003097  -0.000394
     5  N    0.000620  -0.030234   0.219023   0.003097   5.679912   0.620086
     6  N    0.003033   0.000036  -0.117011  -0.000394   0.620086   6.701890
     7  C    0.002856  -0.045694   0.005385   0.448611  -0.000191  -0.000001
     8  N    0.001411  -0.016686  -0.000060  -0.040980  -0.000011  -0.000000
     9  O   -0.004296   0.002593  -0.000127   0.000988   0.000001   0.000000
    10  O   -0.001234   0.000093  -0.000004   0.001622  -0.000000   0.000000
    11  C    0.000565   0.008476  -0.000033  -0.025810   0.000002   0.000000
    12  H    0.000015  -0.000090   0.000002   0.008373  -0.000000   0.000000
    13  C    0.002486  -0.051275  -0.006714   0.500684   0.000485   0.000016
    14  C   -0.000037   0.006303   0.000185  -0.014930  -0.000012  -0.000000
    15  H    0.000153  -0.015644   0.016087  -0.043822  -0.000507  -0.000007
    16  C   -0.000023  -0.000293  -0.000024  -0.051287   0.000000  -0.000000
    17  H   -0.000000   0.000015  -0.000000   0.001583  -0.000000  -0.000000
    18  H    0.000001  -0.000226   0.000001   0.006720   0.000000   0.000000
               7          8          9         10         11         12
     1  O    0.002856   0.001411  -0.004296  -0.001234   0.000565   0.000015
     2  C   -0.045694  -0.016686   0.002593   0.000093   0.008476  -0.000090
     3  N    0.005385  -0.000060  -0.000127  -0.000004  -0.000033   0.000002
     4  C    0.448611  -0.040980   0.000988   0.001622  -0.025810   0.008373
     5  N   -0.000191  -0.000011   0.000001  -0.000000   0.000002  -0.000000
     6  N   -0.000001  -0.000000   0.000000   0.000000   0.000000   0.000000
     7  C    5.021186   0.160254  -0.078631  -0.084877   0.497475  -0.048919
     8  N    0.160254   6.005730   0.297403   0.283936  -0.059582  -0.012195
     9  O   -0.078631   0.297403   8.249234  -0.094844  -0.000383   0.000264
    10  O   -0.084877   0.283936  -0.094844   8.257478   0.004078   0.006692
    11  C    0.497475  -0.059582  -0.000383   0.004078   4.802710   0.381597
    12  H   -0.048919  -0.012195   0.000264   0.006692   0.381597   0.626280
    13  C   -0.024745   0.005847   0.000051  -0.000119  -0.056955   0.000534
    14  C   -0.054185  -0.000155  -0.000000  -0.000003  -0.019717   0.007271
    15  H    0.008656  -0.000098   0.000004   0.000002   0.000722   0.000032
    16  C   -0.006185   0.004779  -0.000126   0.000344   0.511067  -0.047898
    17  H    0.006650  -0.000156   0.000002   0.000001  -0.047628  -0.009473
    18  H    0.001190   0.000005  -0.000000  -0.000000   0.007393  -0.000350
              13         14         15         16         17         18
     1  O    0.002486  -0.000037   0.000153  -0.000023  -0.000000   0.000001
     2  C   -0.051275   0.006303  -0.015644  -0.000293   0.000015  -0.000226
     3  N   -0.006714   0.000185   0.016087  -0.000024  -0.000000   0.000001
     4  C    0.500684  -0.014930  -0.043822  -0.051287   0.001583   0.006720
     5  N    0.000485  -0.000012  -0.000507   0.000000  -0.000000   0.000000
     6  N    0.000016  -0.000000  -0.000007  -0.000000  -0.000000   0.000000
     7  C   -0.024745  -0.054185   0.008656  -0.006185   0.006650   0.001190
     8  N    0.005847  -0.000155  -0.000098   0.004779  -0.000156   0.000005
     9  O    0.000051  -0.000000   0.000004  -0.000126   0.000002  -0.000000
    10  O   -0.000119  -0.000003   0.000002   0.000344   0.000001  -0.000000
    11  C   -0.056955  -0.019717   0.000722   0.511067  -0.047628   0.007393
    12  H    0.000534   0.007271   0.000032  -0.047898  -0.009473  -0.000350
    13  C    4.857261   0.507486   0.382367  -0.012312   0.006609  -0.048117
    14  C    0.507486   4.779628  -0.051257   0.534960  -0.051798   0.388890
    15  H    0.382367  -0.051257   0.618551   0.006962  -0.000360  -0.009902
    16  C   -0.012312   0.534960   0.006962   4.770975   0.386589  -0.054433
    17  H    0.006609  -0.051798  -0.000360   0.386589   0.640672  -0.009781
    18  H   -0.048117   0.388890  -0.009902  -0.054433  -0.009781   0.647160
 Mulliken charges:
               1
     1  O   -0.451205
     2  C    0.555189
     3  N   -0.462547
     4  C    0.060896
     5  N    0.507730
     6  N   -0.207646
     7  C    0.191164
     8  N    0.370559
     9  O   -0.372135
    10  O   -0.373165
    11  C   -0.003978
    12  H    0.087865
    13  C   -0.063589
    14  C   -0.032628
    15  H    0.088062
    16  C   -0.043096
    17  H    0.077077
    18  H    0.071449
 Sum of Mulliken charges =  -0.00000
 Mulliken charges with hydrogens summed into heavy atoms:
               1
     1  O   -0.451205
     2  C    0.555189
     3  N   -0.462547
     4  C    0.060896
     5  N    0.507730
     6  N   -0.207646
     7  C    0.191164
     8  N    0.370559
     9  O   -0.372135
    10  O   -0.373165
    11  C    0.083886
    13  C    0.024473
    14  C    0.038820
    16  C    0.033980
 Electronic spatial extent (au):  <R**2>=           2625.1616
 Charge=              0.0000 electrons
 Dipole moment (field-independent basis, Debye):
    X=             -1.3693    Y=              5.7418    Z=              0.1924  Tot=              5.9059
 Quadrupole moment (field-independent basis, Debye-Ang):
   XX=            -67.7564   YY=            -79.8435   ZZ=            -79.2167
   XY=             -4.1439   XZ=             -0.3363   YZ=             -1.5404
 Traceless Quadrupole moment (field-independent basis, Debye-Ang):
   XX=              7.8491   YY=             -4.2379   ZZ=             -3.6112
   XY=             -4.1439   XZ=             -0.3363   YZ=             -1.5404
 Octapole moment (field-independent basis, Debye-Ang**2):
  XXX=            -33.9456  YYY=             23.5818  ZZZ=             -1.9549  XYY=             -0.4168
  XXY=             14.0328  XXZ=              6.1982  XZZ=              8.5224  YZZ=             -4.2802
  YYZ=              0.2557  XYZ=              0.8080
 Hexadecapole moment (field-independent basis, Debye-Ang**3):
 XXXX=          -2096.2208 YYYY=          -1023.7181 ZZZZ=           -143.0527 XXXY=              7.5860
 XXXZ=             15.3526 YYYX=            -38.4809 YYYZ=             -1.5710 ZZZX=             -2.1437
 ZZZY=              1.0016 XXYY=           -511.7728 XXZZ=           -381.7433 YYZZ=           -213.6012
 XXYZ=            -15.5040 YYXZ=             -5.9235 ZZXY=              5.0125
 N-N= 8.394935319077D+02 E-N=-3.344818685739D+03  KE= 7.088092956973D+02
 No NMR shielding tensors so no spin-rotation constants.
 Leave Link  601 at Fri Aug 20 15:58:13 2021, MaxMem= 24159191040 cpu:        11.7
 (Enter /public/home/users/caep010/software/Gaussian09/g09/l701.exe)
 Compute integral first derivatives.
 ... and contract with generalized density number  0.
 Leave Link  701 at Fri Aug 20 15:58:13 2021, MaxMem= 24159191040 cpu:        11.4
 (Enter /public/home/users/caep010/software/Gaussian09/g09/l702.exe)
 L702 exits ... SP integral derivatives will be done elsewhere.
 Leave Link  702 at Fri Aug 20 15:58:14 2021, MaxMem= 24159191040 cpu:         0.6
 (Enter /public/home/users/caep010/software/Gaussian09/g09/l703.exe)
 Compute integral first derivatives, UseDBF=F ICtDFT=           0.
 Integral derivatives from FoFJK, PRISM(SPDF).
 Calling FoFJK, ICntrl=      2127 FMM=F ISym2X=0 I1Cent= 0 IOpClX= 0 NMat=1 NMatS=1 NMatT=0.
 FoFJK:  IHMeth= 1 ICntrl=    2127 DoSepK=F KAlg= 0 I1Cent=   0 FoldK=F
 IRaf=         0 NMat=   1 IRICut=       1 DoRegI=T DoRafI=F ISym2E= 0.
 FoFCou: FMM=F IPFlag=           0 FMFlag=      100000 FMFlg1=         800
         NFxFlg=           0 DoJE=F BraDBF=F KetDBF=F FulRan=T
         wScrn=  0.000000 ICntrl=    2127 IOpCl=  0 I1Cent=           0 NGrid=           0
         NMat0=    1 NMatS0=      1 NMatT0=    0 NMatD0=    1 NMtDS0=    0 NMtDT0=    0
 Symmetry not used in FoFCou.
 Leave Link  703 at Fri Aug 20 15:58:15 2021, MaxMem= 24159191040 cpu:        27.3
 (Enter /public/home/users/caep010/software/Gaussian09/g09/l716.exe)
 Dipole        =-5.38710701D-01 2.25898461D+00 7.56833932D-02
 ***** Axes restored to original set *****
 -------------------------------------------------------------------
 Center     Atomic                   Forces (Hartrees/Bohr)
 Number     Number              X              Y              Z
 -------------------------------------------------------------------
      1        8          -0.008598756   -0.011996614    0.020409641
      2        6           0.003304521    0.012110959   -0.008997216
      3        7           0.002465187   -0.010452711   -0.008745049
      4        6          -0.000648520   -0.000283336    0.001763671
      5        7           0.000756559    0.059028113    0.001274355
      6        7           0.002917919   -0.053901036   -0.004068239
      7        6           0.005204444   -0.009819796    0.003296310
      8        7          -0.013181179    0.002077062   -0.001748816
      9        8           0.028933209   -0.007412477    0.002064674
     10        8          -0.017578076    0.003806289    0.005763556
     11        6           0.035295902   -0.078480183   -0.124100461
     12        1          -0.040709285    0.084990178    0.139758772
     13        6          -0.035339464    0.080036547    0.131276006
     14        6           0.000627003   -0.069077064    0.140749009
     15        1           0.039489028   -0.088590681   -0.138871925
     16        6           0.044527511   -0.150766031    0.008320491
     17        1          -0.046610049    0.163015883   -0.013597891
     18        1          -0.000855955    0.075714897   -0.154546888
 -------------------------------------------------------------------
 Cartesian Forces:  Max     0.163015883 RMS     0.064084496
 Leave Link  716 at Fri Aug 20 15:58:15 2021, MaxMem= 24159191040 cpu:         0.7
 (Enter /public/home/users/caep010/software/Gaussian09/g09/l103.exe)

 GradGradGradGradGradGradGradGradGradGradGradGradGradGradGradGradGradGrad
 Berny optimization.
 FormGI is forming the generalized inverse of G from B-inverse, IUseBI=4.
 Internal  Forces:  Max     0.172093045 RMS     0.039305524
 Search for a local minimum.
 Step number   1 out of a maximum of   89
 All quantities printed in internal units (Hartrees-Bohrs-Radians)
 RMS Force = .39306D-01 SwitMx=.10000D-02 MixMth= 1
 Mixed Optimization -- RFO/linear search
 Second derivative matrix not updated -- first step.
 ITU=  0
     Eigenvalues ---    0.00770   0.00794   0.00978   0.01176   0.01547
     Eigenvalues ---    0.01825   0.01859   0.02193   0.02248   0.02300
     Eigenvalues ---    0.02308   0.02336   0.02363   0.02396   0.05137
     Eigenvalues ---    0.05137   0.16000   0.16000   0.16000   0.16000
     Eigenvalues ---    0.21997   0.22478   0.24414   0.24770   0.24965
     Eigenvalues ---    0.24983   0.25000   0.25000   0.25000   0.25000
     Eigenvalues ---    0.34120   0.35777   0.43145   0.43772   0.43854
     Eigenvalues ---    0.47176   0.47938   0.48813   0.49669   0.62281
     Eigenvalues ---    0.62418   0.62430   0.62714   0.79463   0.96007
     Eigenvalues ---    1.01514   1.04433   1.67459
 RFO step:  Lambda=-1.54641017D-01 EMin= 7.69823563D-03
 Linear search not attempted -- first point.
 Maximum step size (   0.300) exceeded in Quadratic search.
    -- Step size scaled by   0.674
 Iteration  1 RMS(Cart)=  0.03951213 RMS(Int)=  0.00022837
 Iteration  2 RMS(Cart)=  0.00028788 RMS(Int)=  0.00000351
 Iteration  3 RMS(Cart)=  0.00000007 RMS(Int)=  0.00000351
 ITry= 1 IFail=0 DXMaxC= 1.51D-01 DCOld= 1.00D+10 DXMaxT= 3.00D-01 DXLimC= 3.00D+00 Rises=F
 Variable       Old X    -DE/DX   Delta X   Delta X   Delta X     New X
                                 (Linear)    (Quad)   (Total)
    R1        2.26914   0.02507   0.00000   0.01409   0.01409   2.28323
    R2        2.66630   0.01411   0.00000   0.01603   0.01603   2.68233
    R3        2.80427   0.00526   0.00000   0.00714   0.00714   2.81141
    R4        2.38207  -0.00513   0.00000  -0.00364  -0.00364   2.37842
    R5        2.63744   0.00765   0.00000   0.00807   0.00807   2.64551
    R6        2.63088   0.01022   0.00000   0.01070   0.01070   2.64158
    R7        2.09669   0.05413   0.00000   0.01994   0.01994   2.11663
    R8        2.77732   0.00606   0.00000   0.00796   0.00796   2.78529
    R9        2.59736   0.01395   0.00000   0.01438   0.01438   2.61174
   R10        2.28039   0.02889   0.00000   0.01664   0.01664   2.29703
   R11        2.30282   0.01783   0.00000   0.01078   0.01078   2.31360
   R12        1.75880   0.16855   0.00000   0.14609   0.14609   1.90489
   R13        2.60653   0.01822   0.00000   0.01930   0.01930   2.62583
   R14        2.61422   0.01277   0.00000   0.01340   0.01340   2.62761
   R15        1.75767   0.16938   0.00000   0.14652   0.14652   1.90420
   R16        2.61433   0.01327   0.00000   0.01425   0.01425   2.62858
   R17        1.75555   0.17209   0.00000   0.14833   0.14833   1.90389
   R18        1.75776   0.17009   0.00000   0.14716   0.14716   1.90493
    A1        2.15173   0.00468   0.00000   0.00785   0.00785   2.15957
    A2        2.17024  -0.00072   0.00000  -0.00115  -0.00115   2.16908
    A3        1.96010  -0.00389   0.00000  -0.00643  -0.00644   1.95366
    A4        1.95613   0.00873   0.00000   0.01453   0.01453   1.97066
    A5        2.11433  -0.00016   0.00000   0.00028   0.00028   2.11461
    A6        2.11565  -0.00320   0.00000  -0.00481  -0.00481   2.11084
    A7        2.04601   0.00345   0.00000   0.00490   0.00490   2.05090
    A8        2.11191   0.00255   0.00000   0.00440   0.00440   2.11631
    A9        2.13973  -0.00155   0.00000  -0.00288  -0.00288   2.13685
   A10        2.03012  -0.00099   0.00000  -0.00151  -0.00151   2.02862
   A11        2.06676  -0.00729   0.00000  -0.01219  -0.01220   2.05456
   A12        2.03854  -0.00344   0.00000  -0.00578  -0.00579   2.03275
   A13        2.17635   0.01064   0.00000   0.01767   0.01766   2.19401
   A14        2.10101  -0.00149   0.00000  -0.00369  -0.00369   2.09732
   A15        2.07896  -0.00091   0.00000  -0.00096  -0.00096   2.07800
   A16        2.10321   0.00240   0.00000   0.00465   0.00465   2.10787
   A17        2.10439   0.00106   0.00000   0.00125   0.00125   2.10564
   A18        2.09043  -0.00223   0.00000  -0.00427  -0.00427   2.08616
   A19        2.08837   0.00117   0.00000   0.00302   0.00302   2.09138
   A20        2.10647  -0.00250   0.00000  -0.00413  -0.00413   2.10234
   A21        2.08831   0.00047   0.00000   0.00039   0.00039   2.08870
   A22        2.08841   0.00203   0.00000   0.00374   0.00374   2.09214
   A23        2.09025   0.00046   0.00000   0.00185   0.00185   2.09210
   A24        2.09687  -0.00099   0.00000  -0.00254  -0.00255   2.09432
   A25        2.09607   0.00053   0.00000   0.00070   0.00069   2.09676
   A26        3.25060  -0.00120   0.00000  -0.00391  -0.00391   3.24669
   A27        3.14810  -0.00022   0.00000  -0.00073  -0.00073   3.14737
    D1        0.10815  -0.00138   0.00000  -0.00527  -0.00526   0.10289
    D2       -2.98444  -0.00276   0.00000  -0.01112  -0.01113  -2.99557
    D3        0.29667  -0.00001   0.00000  -0.00042  -0.00041   0.29626
    D4       -2.71269  -0.00116   0.00000  -0.00418  -0.00417  -2.71686
    D5       -2.89454   0.00156   0.00000   0.00580   0.00579  -2.88875
    D6        0.37929   0.00041   0.00000   0.00204   0.00204   0.38133
    D7        0.21570  -0.00075   0.00000  -0.00332  -0.00333   0.21237
    D8       -2.98537  -0.00070   0.00000  -0.00308  -0.00309  -2.98846
    D9       -3.05304  -0.00012   0.00000  -0.00040  -0.00040  -3.05344
   D10        0.02907  -0.00007   0.00000  -0.00016  -0.00016   0.02891
   D11        3.00398   0.00092   0.00000   0.00341   0.00341   3.00739
   D12       -0.13743   0.00125   0.00000   0.00477   0.00476  -0.13267
   D13       -0.01036   0.00006   0.00000   0.00009   0.00009  -0.01027
   D14        3.13141   0.00038   0.00000   0.00145   0.00145   3.13286
   D15        1.05346  -0.00026   0.00000  -0.00103  -0.00104   1.05242
   D16       -2.14489  -0.00146   0.00000  -0.00603  -0.00603  -2.15092
   D17       -2.03223  -0.00028   0.00000  -0.00120  -0.00120  -2.03343
   D18        1.05261  -0.00148   0.00000  -0.00620  -0.00620   1.04641
   D19        3.12342   0.00008   0.00000   0.00033   0.00032   3.12374
   D20       -0.01857  -0.00015   0.00000  -0.00067  -0.00067  -0.01924
   D21       -0.07505   0.00025   0.00000   0.00075   0.00075  -0.07430
   D22        3.06615   0.00001   0.00000  -0.00025  -0.00025   3.06590
   D23       -0.01109   0.00044   0.00000   0.00162   0.00162  -0.00946
   D24        3.13014   0.00033   0.00000   0.00133   0.00133   3.13147
   D25        3.13011   0.00020   0.00000   0.00062   0.00061   3.13073
   D26       -0.01185   0.00010   0.00000   0.00032   0.00032  -0.01153
   D27       -0.01823   0.00019   0.00000   0.00083   0.00083  -0.01741
   D28        3.12336   0.00040   0.00000   0.00164   0.00164   3.12501
   D29        3.12318  -0.00014   0.00000  -0.00053  -0.00053   3.12265
   D30       -0.01841   0.00007   0.00000   0.00029   0.00028  -0.01813
   D31        0.02930  -0.00049   0.00000  -0.00175  -0.00175   0.02755
   D32       -3.11192  -0.00039   0.00000  -0.00145  -0.00145  -3.11338
   D33       -3.11230  -0.00071   0.00000  -0.00256  -0.00256  -3.11486
   D34        0.02966  -0.00060   0.00000  -0.00227  -0.00227   0.02739
         Item               Value     Threshold  Converged?
 Maximum Force            0.172093     0.000450     NO 
 RMS     Force            0.039306     0.000300     NO 
 Maximum Displacement     0.150752     0.001800     NO 
 RMS     Displacement     0.039533     0.001200     NO 
 Predicted change in Energy=-7.608279D-02
 Lowest energy point so far.  Saving SCF results.
 GradGradGradGradGradGradGradGradGradGradGradGradGradGradGradGradGradGrad

 Leave Link  103 at Fri Aug 20 15:58:15 2021, MaxMem= 24159191040 cpu:         3.1
 (Enter /public/home/users/caep010/software/Gaussian09/g09/l202.exe)
                          Input orientation:                          
 ---------------------------------------------------------------------
 Center     Atomic      Atomic             Coordinates (Angstroms)
 Number     Number       Type             X           Y           Z
 ---------------------------------------------------------------------
      1          8           0        3.035210   -1.654680    9.587731
      2          6           0        3.404453   -0.983635    8.653285
      3          7           0        4.036623   -1.517923    7.500173
      4          6           0        3.200419    0.486032    8.544613
      5          7           0        4.067746   -2.776143    7.497102
      6          7           0        4.151137   -3.888042    7.390860
      7          6           0        2.876400    1.257293    9.667117
      8          7           0        2.982744    0.706423   11.030071
      9          8           0        4.075911    0.327850   11.403156
     10          8           0        1.965539    0.734365   11.710827
     11          6           0        2.508357    2.586083    9.572295
     12          1           0        2.267054    3.105324   10.401917
     13          6           0        3.175439    1.117964    7.297994
     14          6           0        2.827661    2.459945    7.190512
     15          1           0        3.410882    0.593393    6.470488
     16          6           0        2.478537    3.190574    8.321501
     17          1           0        2.203726    4.156574    8.235051
     18          1           0        2.828362    2.904504    6.286406
 ---------------------------------------------------------------------
                    Distance matrix (angstroms):
                    1          2          3          4          5
     1  O    0.000000
     2  C    1.208234   0.000000
     3  N    2.319359   1.419426   0.000000
     4  C    2.387056   1.487737   2.409550   0.000000
     5  N    2.587381   2.233787   1.258608   3.534306   0.000000
     6  N    3.325574   3.253742   2.375400   4.622503   1.120072
     7  C    2.917381   2.515642   3.707235   1.399945   4.732534
     8  N    2.767292   2.946735   4.303320   2.504687   5.078126
     9  O    2.882577   3.119717   4.317603   2.993790   4.989198
    10  O    3.370351   3.790852   5.204978   3.407567   5.873535
    11  C    4.273392   3.793475   4.844807   2.438297   5.957481
    12  H    4.889847   4.590313   5.738110   3.343866   6.802360
    13  C    3.598626   2.511171   2.780362   1.397862   3.999990
    14  C    4.766536   3.785582   4.169042   2.422575   5.389659
    15  H    3.861627   2.692891   2.430939   2.087538   3.583181
    16  C    5.038820   4.288522   5.027142   2.808102   6.229521
    17  H    6.024266   5.295132   6.008285   3.816033   7.216766
    18  H    5.632734   4.588205   4.742467   3.329705   5.938991
                    6          7          8          9         10
     6  N    0.000000
     7  C    5.768949   0.000000
     8  N    5.976463   1.473911   0.000000
     9  O    5.820474   2.305758   1.215534   0.000000
    10  O    6.693698   2.297798   1.224302   2.171080   0.000000
    11  C    7.026498   1.382074   2.425547   3.302861   2.880422
    12  H    7.843685   2.080013   2.580992   3.462485   2.724996
    13  C    5.101049   2.391982   3.759640   4.276386   4.591742
    14  C    6.487578   2.753600   4.223873   4.883679   4.914685
    15  H    4.634472   3.308303   4.581035   4.984374   5.437834
    16  C    7.332836   2.388839   3.709661   4.499265   4.217068
    17  H    8.319911   3.302898   4.508054   5.310470   4.883571
    18  H    7.007727   3.760960   5.230464   5.863160   5.905786
                   11         12         13         14         15
    11  C    0.000000
    12  H    1.008024   0.000000
    13  C    2.787977   3.795932   0.000000
    14  C    2.406399   3.323239   1.390473   0.000000
    15  H    3.795599   4.803569   1.007658   2.083889   0.000000
    16  C    1.389527   2.092875   2.414322   1.390986   3.322779
    17  H    2.085058   2.409242   3.324975   2.087800   4.155378
    18  H    3.316755   4.158465   2.082186   1.007493   2.390491
                   16         17         18
    16  C    0.000000
    17  H    1.008044   0.000000
    18  H    2.084664   2.398972   0.000000
 Stoichiometry    C7H4N4O3
 Framework group  C1[X(C7H4N4O3)]
 Deg. of freedom    48
 Full point group                 C1      NOp   1
 RotChk:  IX=0 Diff= 1.27D-02
 Largest Abelian subgroup         C1      NOp   1
 Largest concise Abelian subgroup C1      NOp   1
                         Standard orientation:                         
 ---------------------------------------------------------------------
 Center     Atomic      Atomic             Coordinates (Angstroms)
 Number     Number       Type             X           Y           Z
 ---------------------------------------------------------------------
      1          8           0        1.385819   -1.197222   -0.506082
      2          6           0        1.196700   -0.080171   -0.086247
      3          7           0        2.238450    0.806640    0.292031
      4          6           0       -0.144333    0.551375    0.040801
      5          7           0        3.384472    0.354336    0.034837
      6          7           0        4.447178    0.051606   -0.148386
      7          6           0       -1.313206   -0.218533    0.012128
      8          7           0       -1.264246   -1.687517    0.122146
      9          8           0       -0.781193   -2.163110    1.131103
     10          8           0       -1.779060   -2.320540   -0.790632
     11          6           0       -2.572395    0.347728   -0.050499
     12          1           0       -3.390840   -0.239695   -0.085047
     13          6           0       -0.286960    1.941941    0.039422
     14          6           0       -1.548633    2.524949   -0.001796
     15          1           0        0.534111    2.525413    0.067283
     16          6           0       -2.689964    1.732213   -0.063234
     17          1           0       -3.601055    2.160139   -0.117492
     18          1           0       -1.634983    3.528636    0.012297
 ---------------------------------------------------------------------
 Rotational constants (GHZ):      1.1038410      0.5497775      0.3875493
 Leave Link  202 at Fri Aug 20 15:58:15 2021, MaxMem= 24159191040 cpu:         0.4
 (Enter /public/home/users/caep010/software/Gaussian09/g09/l301.exe)
 Standard basis: 6-31G(d,p) (6D, 7F)
 Ernie: Thresh=  0.10000D-02 Tol=  0.10000D-05 Strict=F.
 There are   230 symmetry adapted cartesian basis functions of A   symmetry.
 There are   230 symmetry adapted basis functions of A   symmetry.
   230 basis functions,   420 primitive gaussians,   230 cartesian basis functions
    49 alpha electrons       49 beta electrons
       nuclear repulsion energy       833.7922553464 Hartrees.
 IExCor=  402 DFT=T Ex+Corr=B3LYP ExCW=0 ScaHFX=  0.200000
 ScaDFX=  0.800000  0.720000  1.000000  0.810000 ScalE2=  1.000000  1.000000
 IRadAn=      0 IRanWt=     -1 IRanGd=            0 ICorTp=0 IEmpDi=  4
 NAtoms=   18 NActive=   18 NUniq=   18 SFac= 1.00D+00 NAtFMM=   60 NAOKFM=F Big=F
 Integral buffers will be    131072 words long.
 Raffenetti 2 integral format.
 Two-electron integral symmetry is turned on.
 Leave Link  301 at Fri Aug 20 15:58:15 2021, MaxMem= 24159191040 cpu:         2.2
 (Enter /public/home/users/caep010/software/Gaussian09/g09/l302.exe)
 NPDir=0 NMtPBC=     1 NCelOv=     1 NCel=       1 NClECP=     1 NCelD=      1
         NCelK=      1 NCelE2=     1 NClLst=     1 CellRange=     0.0.
 One-electron integrals computed using PRISM.
 NBasis=   230 RedAO= T EigKep=  3.45D-04  NBF=   230
 NBsUse=   230 1.00D-06 EigRej= -1.00D+00 NBFU=   230
 Precomputing XC quadrature grid using
 IXCGrd= 4 IRadAn=           0 IRanWt=          -1 IRanGd=           0 AccXCQ= 0.00D+00.
 Generated NRdTot=       0 NPtTot=           0 NUsed=           0 NTot=          32
 NSgBfM=   229   229   229   229   229 MxSgAt=    18 MxSgA2=    18.
 Leave Link  302 at Fri Aug 20 15:58:16 2021, MaxMem= 24159191040 cpu:        15.9
 (Enter /public/home/users/caep010/software/Gaussian09/g09/l303.exe)
 DipDrv:  MaxL=1.
 Leave Link  303 at Fri Aug 20 15:58:16 2021, MaxMem= 24159191040 cpu:         0.8
 (Enter /public/home/users/caep010/software/Gaussian09/g09/l401.exe)
 Initial guess from the checkpoint file:  "/public/home/users/caep010/.cache/gau_scr/Gau-107184.chk"
 B after Tr=    -0.000000   -0.000000    0.000000
         Rot=    0.999993    0.000152   -0.000425    0.003844 Ang=   0.44 deg.
 Guess basis will be translated and rotated to current coordinates.
 JPrj=2 DoOrth=T DoCkMO=T.
 Generating alternative initial guess.
 ExpMin= 1.61D-01 ExpMax= 5.48D+03 ExpMxC= 8.25D+02 IAcc=1 IRadAn=         1 AccDes= 0.00D+00
 Harris functional with IExCor=  402 and IRadAn=       1 diagonalized for initial guess.
 HarFok:  IExCor=  402 AccDes= 0.00D+00 IRadAn=         1 IDoV= 1 UseB2=F ITyADJ=14
 ICtDFT=  3500011 ScaDFX=  1.000000  1.000000  1.000000  1.000000
 FoFCou: FMM=F IPFlag=           0 FMFlag=      100000 FMFlg1=           0
         NFxFlg=           0 DoJE=T BraDBF=F KetDBF=T FulRan=T
         wScrn=  0.000000 ICntrl=     500 IOpCl=  0 I1Cent=   200000004 NGrid=           0
         NMat0=    1 NMatS0=      1 NMatT0=    0 NMatD0=    1 NMtDS0=    0 NMtDT0=    0
 Petite list used in FoFCou.
 Harris En= -713.683470813292    
 Leave Link  401 at Fri Aug 20 15:58:16 2021, MaxMem= 24159191040 cpu:        13.8
 (Enter /public/home/users/caep010/software/Gaussian09/g09/l502.exe)
 Closed shell SCF:
 Using DIIS extrapolation, IDIIS=  1040.
 Integral symmetry usage will be decided dynamically.
 Keep R1 ints in memory in canonical form, NReq=359212299.
 IVT=      186324 IEndB=      186324 NGot= 24159191040 MDV= 23806141822
 LenX= 23806141822 LenY= 23806088481
 Requested convergence on RMS density matrix=1.00D-08 within 128 cycles.
 Requested convergence on MAX density matrix=1.00D-06.
 Requested convergence on             energy=1.00D-06.
 No special actions if energy rises.
 FoFCou: FMM=F IPFlag=           0 FMFlag=           0 FMFlg1=           0
         NFxFlg=           0 DoJE=F BraDBF=F KetDBF=F FulRan=T
         wScrn=  0.000000 ICntrl=     600 IOpCl=  0 I1Cent=           0 NGrid=           0
         NMat0=    1 NMatS0=  26565 NMatT0=    0 NMatD0=    1 NMtDS0=    0 NMtDT0=    0
 Symmetry not used in FoFCou.
 Integral accuracy reduced to 1.0D-05 until final iterations.

 Cycle   1  Pass 0  IDiag  1:
 E= -713.646070623889    
 DIIS: error= 3.64D-03 at cycle   1 NSaved=   1.
 NSaved= 1 IEnMin= 1 EnMin= -713.646070623889     IErMin= 1 ErrMin= 3.64D-03
 ErrMax= 3.64D-03  0.00D+00 EMaxC= 1.00D-01 BMatC= 4.10D-03 BMatP= 4.10D-03
 IDIUse=3 WtCom= 9.64D-01 WtEn= 3.64D-02
 Coeff-Com:  0.100D+01
 Coeff-En:   0.100D+01
 Coeff:      0.100D+01
 Gap=     1.862 Goal=   None    Shift=    0.000
 GapD=    1.862 DampG=2.000 DampE=1.000 DampFc=2.0000 IDamp=-1.
 RMSDP=6.17D-04 MaxDP=1.36D-02              OVMax= 1.46D-02

 Cycle   2  Pass 0  IDiag  1:
 E= -713.650707389228     Delta-E=       -0.004636765339 Rises=F Damp=F
 DIIS: error= 1.08D-03 at cycle   2 NSaved=   2.
 NSaved= 2 IEnMin= 2 EnMin= -713.650707389228     IErMin= 2 ErrMin= 1.08D-03
 ErrMax= 1.08D-03  0.00D+00 EMaxC= 1.00D-01 BMatC= 5.50D-04 BMatP= 4.10D-03
 IDIUse=3 WtCom= 9.89D-01 WtEn= 1.08D-02
 Coeff-Com:  0.195D+00 0.805D+00
 Coeff-En:   0.000D+00 0.100D+01
 Coeff:      0.193D+00 0.807D+00
 Gap=     0.183 Goal=   None    Shift=    0.000
 RMSDP=2.24D-04 MaxDP=6.14D-03 DE=-4.64D-03 OVMax= 1.60D-02

 Cycle   3  Pass 0  IDiag  1:
 E= -713.650666178149     Delta-E=        0.000041211079 Rises=F Damp=F
 DIIS: error= 1.17D-03 at cycle   3 NSaved=   3.
 NSaved= 3 IEnMin= 2 EnMin= -713.650707389228     IErMin= 2 ErrMin= 1.08D-03
 ErrMax= 1.17D-03  0.00D+00 EMaxC= 1.00D-01 BMatC= 5.90D-04 BMatP= 5.50D-04
 IDIUse=3 WtCom= 9.88D-01 WtEn= 1.17D-02
 Coeff-Com:  0.473D-01 0.506D+00 0.446D+00
 Coeff-En:   0.000D+00 0.515D+00 0.485D+00
 Coeff:      0.468D-01 0.506D+00 0.447D+00
 Gap=     0.182 Goal=   None    Shift=    0.000
 RMSDP=1.33D-04 MaxDP=4.46D-03 DE= 4.12D-05 OVMax= 9.83D-03

 Cycle   4  Pass 0  IDiag  1:
 E= -713.651289722415     Delta-E=       -0.000623544266 Rises=F Damp=F
 DIIS: error= 2.36D-04 at cycle   4 NSaved=   4.
 NSaved= 4 IEnMin= 4 EnMin= -713.651289722415     IErMin= 4 ErrMin= 2.36D-04
 ErrMax= 2.36D-04  0.00D+00 EMaxC= 1.00D-01 BMatC= 3.78D-05 BMatP= 5.50D-04
 IDIUse=3 WtCom= 9.98D-01 WtEn= 2.36D-03
 Coeff-Com:  0.452D-02 0.182D+00 0.243D+00 0.571D+00
 Coeff-En:   0.000D+00 0.000D+00 0.000D+00 0.100D+01
 Coeff:      0.450D-02 0.182D+00 0.242D+00 0.572D+00
 Gap=     0.182 Goal=   None    Shift=    0.000
 RMSDP=3.83D-05 MaxDP=1.08D-03 DE=-6.24D-04 OVMax= 2.10D-03

 Cycle   5  Pass 0  IDiag  1:
 E= -713.651316960809     Delta-E=       -0.000027238394 Rises=F Damp=F
 DIIS: error= 1.98D-04 at cycle   5 NSaved=   5.
 NSaved= 5 IEnMin= 5 EnMin= -713.651316960809     IErMin= 5 ErrMin= 1.98D-04
 ErrMax= 1.98D-04  0.00D+00 EMaxC= 1.00D-01 BMatC= 1.48D-05 BMatP= 3.78D-05
 IDIUse=3 WtCom= 9.98D-01 WtEn= 1.98D-03
 Coeff-Com: -0.265D-02 0.731D-01 0.123D+00 0.410D+00 0.397D+00
 Coeff-En:   0.000D+00 0.000D+00 0.000D+00 0.250D+00 0.750D+00
 Coeff:     -0.264D-02 0.730D-01 0.123D+00 0.409D+00 0.397D+00
 Gap=     0.182 Goal=   None    Shift=    0.000
 RMSDP=1.61D-05 MaxDP=7.50D-04 DE=-2.72D-05 OVMax= 1.24D-03

 Cycle   6  Pass 0  IDiag  1:
 E= -713.651327759165     Delta-E=       -0.000010798356 Rises=F Damp=F
 DIIS: error= 6.76D-05 at cycle   6 NSaved=   6.
 NSaved= 6 IEnMin= 6 EnMin= -713.651327759165     IErMin= 6 ErrMin= 6.76D-05
 ErrMax= 6.76D-05  0.00D+00 EMaxC= 1.00D-01 BMatC= 2.25D-06 BMatP= 1.48D-05
 IDIUse=1 WtCom= 1.00D+00 WtEn= 0.00D+00
 Coeff-Com: -0.247D-02 0.293D-01 0.589D-01 0.225D+00 0.290D+00 0.399D+00
 Coeff:     -0.247D-02 0.293D-01 0.589D-01 0.225D+00 0.290D+00 0.399D+00
 Gap=     0.182 Goal=   None    Shift=    0.000
 RMSDP=6.49D-06 MaxDP=2.43D-04 DE=-1.08D-05 OVMax= 4.66D-04

 Initial convergence to 1.0D-05 achieved.  Increase integral accuracy.
 Cycle   7  Pass 1  IDiag  1:
 E= -713.651284622802     Delta-E=        0.000043136363 Rises=F Damp=F
 DIIS: error= 2.12D-05 at cycle   1 NSaved=   1.
 NSaved= 1 IEnMin= 1 EnMin= -713.651284622802     IErMin= 1 ErrMin= 2.12D-05
 ErrMax= 2.12D-05  0.00D+00 EMaxC= 1.00D-01 BMatC= 2.61D-07 BMatP= 2.61D-07
 IDIUse=1 WtCom= 1.00D+00 WtEn= 0.00D+00
 Coeff-Com:  0.100D+01
 Coeff:      0.100D+01
 Gap=     0.182 Goal=   None    Shift=    0.000
 RMSDP=6.49D-06 MaxDP=2.43D-04 DE= 4.31D-05 OVMax= 3.23D-04

 Cycle   8  Pass 1  IDiag  1:
 E= -713.651283885224     Delta-E=        0.000000737578 Rises=F Damp=F
 DIIS: error= 5.79D-05 at cycle   2 NSaved=   2.
 NSaved= 2 IEnMin= 1 EnMin= -713.651284622802     IErMin= 1 ErrMin= 2.12D-05
 ErrMax= 5.79D-05  0.00D+00 EMaxC= 1.00D-01 BMatC= 1.22D-06 BMatP= 2.61D-07
 IDIUse=1 WtCom= 1.00D+00 WtEn= 0.00D+00
 Coeff-Com:  0.700D+00 0.300D+00
 Coeff:      0.700D+00 0.300D+00
 Gap=     0.182 Goal=   None    Shift=    0.000
 RMSDP=4.11D-06 MaxDP=1.76D-04 DE= 7.38D-07 OVMax= 3.11D-04

 Cycle   9  Pass 1  IDiag  1:
 E= -713.651284824048     Delta-E=       -0.000000938824 Rises=F Damp=F
 DIIS: error= 1.18D-05 at cycle   3 NSaved=   3.
 NSaved= 3 IEnMin= 3 EnMin= -713.651284824048     IErMin= 3 ErrMin= 1.18D-05
 ErrMax= 1.18D-05  0.00D+00 EMaxC= 1.00D-01 BMatC= 5.11D-08 BMatP= 2.61D-07
 IDIUse=1 WtCom= 1.00D+00 WtEn= 0.00D+00
 Coeff-Com:  0.247D+00 0.181D+00 0.571D+00
 Coeff:      0.247D+00 0.181D+00 0.571D+00
 Gap=     0.182 Goal=   None    Shift=    0.000
 RMSDP=1.22D-06 MaxDP=5.34D-05 DE=-9.39D-07 OVMax= 8.28D-05

 Cycle  10  Pass 1  IDiag  1:
 E= -713.651284845912     Delta-E=       -0.000000021864 Rises=F Damp=F
 DIIS: error= 8.09D-06 at cycle   4 NSaved=   4.
 NSaved= 4 IEnMin= 4 EnMin= -713.651284845912     IErMin= 4 ErrMin= 8.09D-06
 ErrMax= 8.09D-06  0.00D+00 EMaxC= 1.00D-01 BMatC= 2.55D-08 BMatP= 5.11D-08
 IDIUse=1 WtCom= 1.00D+00 WtEn= 0.00D+00
 Coeff-Com: -0.105D-02 0.603D-01 0.462D+00 0.478D+00
 Coeff:     -0.105D-02 0.603D-01 0.462D+00 0.478D+00
 Gap=     0.182 Goal=   None    Shift=    0.000
 RMSDP=6.12D-07 MaxDP=2.36D-05 DE=-2.19D-08 OVMax= 3.25D-05

 Cycle  11  Pass 1  IDiag  1:
 E= -713.651284866655     Delta-E=       -0.000000020744 Rises=F Damp=F
 DIIS: error= 1.16D-06 at cycle   5 NSaved=   5.
 NSaved= 5 IEnMin= 5 EnMin= -713.651284866655     IErMin= 5 ErrMin= 1.16D-06
 ErrMax= 1.16D-06  0.00D+00 EMaxC= 1.00D-01 BMatC= 7.18D-10 BMatP= 2.55D-08
 IDIUse=1 WtCom= 1.00D+00 WtEn= 0.00D+00
 Coeff-Com: -0.116D-01 0.263D-01 0.239D+00 0.279D+00 0.467D+00
 Coeff:     -0.116D-01 0.263D-01 0.239D+00 0.279D+00 0.467D+00
 Gap=     0.182 Goal=   None    Shift=    0.000
 RMSDP=1.38D-07 MaxDP=5.49D-06 DE=-2.07D-08 OVMax= 8.13D-06

 Cycle  12  Pass 1  IDiag  1:
 E= -713.651284867308     Delta-E=       -0.000000000652 Rises=F Damp=F
 DIIS: error= 3.10D-07 at cycle   6 NSaved=   6.
 NSaved= 6 IEnMin= 6 EnMin= -713.651284867308     IErMin= 6 ErrMin= 3.10D-07
 ErrMax= 3.10D-07  0.00D+00 EMaxC= 1.00D-01 BMatC= 4.50D-11 BMatP= 7.18D-10
 IDIUse=1 WtCom= 1.00D+00 WtEn= 0.00D+00
 Coeff-Com: -0.624D-02 0.996D-02 0.967D-01 0.119D+00 0.263D+00 0.518D+00
 Coeff:     -0.624D-02 0.996D-02 0.967D-01 0.119D+00 0.263D+00 0.518D+00
 Gap=     0.182 Goal=   None    Shift=    0.000
 RMSDP=3.59D-08 MaxDP=1.39D-06 DE=-6.52D-10 OVMax= 2.74D-06

 Cycle  13  Pass 1  IDiag  1:
 E= -713.651284867330     Delta-E=       -0.000000000022 Rises=F Damp=F
 DIIS: error= 2.73D-07 at cycle   7 NSaved=   7.
 NSaved= 7 IEnMin= 7 EnMin= -713.651284867330     IErMin= 7 ErrMin= 2.73D-07
 ErrMax= 2.73D-07  0.00D+00 EMaxC= 1.00D-01 BMatC= 2.02D-11 BMatP= 4.50D-11
 IDIUse=1 WtCom= 1.00D+00 WtEn= 0.00D+00
 Coeff-Com: -0.302D-02 0.381D-02 0.393D-01 0.511D-01 0.136D+00 0.403D+00
 Coeff-Com:  0.371D+00
 Coeff:     -0.302D-02 0.381D-02 0.393D-01 0.511D-01 0.136D+00 0.403D+00
 Coeff:      0.371D+00
 Gap=     0.182 Goal=   None    Shift=    0.000
 RMSDP=1.86D-08 MaxDP=8.80D-07 DE=-2.21D-11 OVMax= 1.93D-06

 Cycle  14  Pass 1  IDiag  1:
 E= -713.651284867335     Delta-E=       -0.000000000005 Rises=F Damp=F
 DIIS: error= 9.50D-08 at cycle   8 NSaved=   8.
 NSaved= 8 IEnMin= 8 EnMin= -713.651284867335     IErMin= 8 ErrMin= 9.50D-08
 ErrMax= 9.50D-08  0.00D+00 EMaxC= 1.00D-01 BMatC= 1.85D-12 BMatP= 2.02D-11
 IDIUse=1 WtCom= 1.00D+00 WtEn= 0.00D+00
 Coeff-Com: -0.339D-03-0.259D-03-0.475D-03 0.129D-02 0.188D-01 0.127D+00
 Coeff-Com:  0.249D+00 0.605D+00
 Coeff:     -0.339D-03-0.259D-03-0.475D-03 0.129D-02 0.188D-01 0.127D+00
 Coeff:      0.249D+00 0.605D+00
 Gap=     0.182 Goal=   None    Shift=    0.000
 RMSDP=7.82D-09 MaxDP=2.56D-07 DE=-5.23D-12 OVMax= 5.75D-07

 SCF Done:  E(RB3LYP) =  -713.651284867     A.U. after   14 cycles
            NFock= 14  Conv=0.78D-08     -V/T= 2.0081
 KE= 7.079228669981D+02 PE=-3.332905473211D+03 EE= 1.077539066000D+03
 Leave Link  502 at Fri Aug 20 15:58:27 2021, MaxMem= 24159191040 cpu:        98.6
 (Enter /public/home/users/caep010/software/Gaussian09/g09/l701.exe)
 Compute integral first derivatives.
 ... and contract with generalized density number  0.
 Leave Link  701 at Fri Aug 20 15:58:27 2021, MaxMem= 24159191040 cpu:        10.8
 (Enter /public/home/users/caep010/software/Gaussian09/g09/l702.exe)
 L702 exits ... SP integral derivatives will be done elsewhere.
 Leave Link  702 at Fri Aug 20 15:58:27 2021, MaxMem= 24159191040 cpu:         0.6
 (Enter /public/home/users/caep010/software/Gaussian09/g09/l703.exe)
 Compute integral first derivatives, UseDBF=F ICtDFT=           0.
 Integral derivatives from FoFJK, PRISM(SPDF).
 Calling FoFJK, ICntrl=      2127 FMM=F ISym2X=0 I1Cent= 0 IOpClX= 0 NMat=1 NMatS=1 NMatT=0.
 FoFJK:  IHMeth= 1 ICntrl=    2127 DoSepK=F KAlg= 0 I1Cent=   0 FoldK=F
 IRaf=         0 NMat=   1 IRICut=       1 DoRegI=T DoRafI=F ISym2E= 0.
[...]
 031307,0.0383195,-0.1204405,0.0315411,-0.0044597,0.1519555,0.0963864,-
 0.0168252,0.2368151,-0.0987989,1.0443897,-0.485082,-0.1835487,-0.54900
 96,0.6864408,-0.2447653,-0.2111821,-0.1519315,1.5337958,-0.645709,0.31
 95513,0.0067299,0.3433651,-0.5297738,0.1062531,-0.1023924,0.1524233,-0
 .6242903,-0.5715277,0.2001427,0.1757882,0.1825002,-0.3477149,0.0069655
 ,0.3236312,-0.1109956,-0.8977074,-0.0493487,-0.0249266,0.0520741,0.033
 4337,-0.1745419,-0.0249889,-0.0457813,0.1424118,-0.0102604,0.1136754,0
 .0365093,-0.0159302,0.0011419,0.086195,-0.0276798,0.0109569,-0.0327571
 ,0.042776,-0.0836787,0.0817368,-0.0478666,-0.0082935,-0.0854744,0.1414
 791,-0.0185543,0.0330769,-0.0195015,-0.0763512,-0.0200675,0.012137,-0.
 0115195,0.016652,-0.1428683,0.0020119,-0.0993242,0.0996103,0.1120253,-
 0.0127371,0.0222205,0.0097927,0.0648595,-0.0448312,0.0219695,-0.069437
 5,0.0142139,-0.0728556,-0.0549892,0.0081856,-0.0516229,0.1399201,-0.00
 93568,0.0222635,-0.1173781,-0.0687132,0.1063823,0.0406736,-0.0001065,0
 .0379281,-0.0565642,0.0166425,0.0004121,0.0053442,0.0637657,0.1136734,
 0.0114514,-0.0009562,0.0109892,0.032509,0.0484744,-0.0015046,0.0652197
 ,-0.0379981\Polar=58.9538332,-31.1334076,156.2893785,-13.2123833,3.164
 4944,112.1689568\PG=C01 [X(C7H4N4O3)]\NImag=0\\0.28091792,0.23587208,0
 .35587946,-0.28154651,-0.26921626,0.35057545,-0.25610474,-0.19783716,0
 .21776604,0.42465057,-0.20705690,-0.34596416,0.23440671,0.12940048,0.7
 1815217,0.21498239,0.22663434,-0.30993718,-0.26885669,-0.18277230,0.50
 823190,-0.03352700,-0.00950106,0.05922816,-0.09708522,0.01607699,0.052
 60344,0.19130868,0.00654998,0.02884017,-0.00678244,0.01736990,-0.07459
 395,-0.01359280,-0.11000711,0.61496171,0.05938480,0.00853658,-0.039260
 67,0.04957954,-0.01176951,-0.10216423,-0.13779013,0.05352629,0.1911873
 7,0.01074987,-0.02508083,0.00952159,-0.07212455,0.01852076,0.00381716,
 -0.00142718,0.02181468,0.00686505,0.17243329,-0.01347215,-0.03670817,0
 .02640505,0.01955985,-0.19115609,-0.01539989,0.01001217,-0.02235464,-0
 .00812825,-0.07698199,0.62433384,0.01030248,0.03459146,0.00829007,-0.0
 0224558,-0.00079604,-0.09645648,0.00818935,-0.02162218,0.00161088,-0.0
 6086789,-0.00293488,0.66269068,-0.00167454,-0.00229876,-0.00033400,-0.
 00979730,0.04788551,-0.00414237,-0.08481376,0.04917358,0.02315989,0.00
 118633,0.00087745,0.00850029,0.19259960,-0.03050870,-0.00374963,0.0314
 5059,0.05830660,-0.09651622,-0.05371814,0.06570117,-0.42911564,-0.0282
 8109,0.00506750,0.00216588,-0.00762202,-0.31167278,1.68487573,0.001501
 50,0.00228992,-0.00407826,-0.00286011,-0.04314544,-0.00100605,0.020999
 21,-0.01137706,-0.07923737,0.00662544,-0.00056713,-0.00150266,-0.04377
 869,0.16866867,0.15087647,-0.00035263,-0.00054361,-0.00000887,0.004975
 29,-0.00562101,0.00100692,0.02556601,0.01078764,-0.00120458,-0.0009019
 4,0.00002724,-0.00144350,-0.09729047,0.21355290,0.01758529,0.06800267,
 0.01001605,0.00798689,-0.01081753,-0.03226499,0.01920469,0.03325869,0.
 02465606,-0.10529250,-0.01421787,0.00064552,-0.00061036,-0.00058492,0.
 21459712,-1.15903841,-0.11465585,-0.21802235,1.23913700,-0.00076489,-0
 .00016301,0.00046114,0.00328490,0.00493140,0.00141452,-0.00197096,-0.0
 0171214,0.02764593,-0.00125686,0.00001131,0.00008169,0.01700871,-0.110
 70256,-0.06676221,-0.01619320,0.10723274,0.03765332,-0.00052852,-0.001
 93119,0.00144805,-0.00064857,0.00835492,0.00243209,0.00138933,-0.00056
 005,-0.00030953,-0.06628943,0.03227695,0.02114512,-0.00051844,0.002466
 47,0.00039348,0.00011216,-0.00063477,-0.00016664,0.19550018,0.00208260
 ,0.00296441,-0.00072091,0.00643339,-0.02231108,-0.02480901,-0.00035954
 ,-0.00263041,0.00094409,0.02495540,-0.18070547,-0.06644072,0.00262498,
 -0.00235359,-0.00055127,-0.00064513,0.00050512,0.00009585,-0.14178168,
 0.65881218,0.00085241,0.00311321,-0.00432600,0.00285698,-0.01170845,0.
 00984104,-0.00208160,0.00415210,0.00170238,0.03434175,-0.11372687,-0.2
 3095178,-0.00056857,-0.00106465,0.00061903,-0.00008324,0.00154879,-0.0
 0012750,-0.03883220,0.05401713,0.57679892,-0.00148873,0.00079499,-0.00
 664954,-0.00430164,-0.00501473,0.00700696,-0.00016438,0.00011687,-0.00
 009371,-0.00249365,-0.00001905,0.00035545,0.00042318,0.00151785,0.0008
 7954,-0.00010678,-0.00022311,-0.00014442,-0.07019018,0.00015916,-0.010
 16768,0.67427456,-0.00027391,-0.00365448,0.00682532,0.00075904,0.00720
 842,-0.00988435,-0.00060930,0.00003170,0.00123997,-0.00608417,0.016084
 43,-0.00716113,-0.00043383,-0.00124123,-0.00037883,0.00016666,0.000045
 55,-0.00001833,0.00283359,-0.11193247,0.00320584,-0.34288542,0.5338615
 3,-0.00068583,0.00281914,-0.00295542,0.00165774,-0.00865359,-0.0000647
 2,-0.00163096,0.00442554,0.00087981,0.00216198,0.00959147,-0.03403504,
 0.00041180,-0.00324312,0.00055412,-0.00040291,0.00220475,0.00004913,-0
 .00240958,0.00895018,-0.12711090,-0.13015459,-0.00718011,0.67225125,0.
 00002624,-0.00208012,0.00089700,-0.00076715,0.00205301,-0.00402725,0.0
 0052710,-0.00028295,0.00022193,0.00040546,-0.00078158,0.00415870,-0.00
 012818,-0.00056942,-0.00046854,0.00003909,-0.00006384,0.00006114,-0.00
 912846,0.02944037,-0.01657817,-0.34203896,0.23215264,-0.05883366,0.409
 11958,-0.00175558,0.00074143,-0.01024683,-0.00244375,-0.00747178,0.006
 27445,0.00063539,-0.00006860,-0.00094337,0.00226639,-0.00126093,-0.001
 69179,0.00029881,0.00129895,0.00041715,-0.00012054,-0.00017539,-0.0000
 2974,0.03093739,-0.01195438,0.02486196,0.23890280,-0.27809480,0.062166
 89,-0.31872893,0.30546683,-0.00153385,-0.00349833,-0.00305258,-0.00240
 259,0.00189821,-0.00094475,0.00053431,-0.00155393,-0.00049648,-0.00141
 913,0.00064513,-0.00114097,-0.00015834,0.00154136,-0.00013005,0.000153
 92,-0.00097287,-0.00002431,-0.03024881,0.03535687,-0.00491522,-0.06616
 855,0.07270634,-0.14807881,0.05554960,-0.06643482,0.13201742,0.0012481
 9,-0.00048836,0.00196996,-0.00036984,0.00086315,-0.00258048,0.00013189
 ,0.00044742,0.00006261,0.00281645,-0.00295256,0.00101591,-0.00009112,-
 0.00086559,-0.00030514,-0.00001811,0.00027225,0.00005781,0.00551000,0.
 00482383,0.02563055,-0.26235319,0.10270921,0.19549118,-0.05970819,0.05
 248900,0.04609632,0.31386964,-0.00014693,0.00092391,-0.00109384,0.0009
 7912,-0.00151280,0.00135743,-0.00020285,0.00010378,-0.00009371,0.00005
 746,-0.00112464,0.00147654,0.00006706,0.00016111,0.00014513,-0.0000219
 6,0.00007359,-0.00000719,0.00130689,0.02015725,0.00283679,0.10071499,-
 0.13812579,-0.08072416,0.05984125,-0.01062795,-0.03984679,-0.16027098,
 0.13136288,-0.00087370,-0.00136144,0.00047623,0.00066606,0.00454789,0.
 00076921,0.00058641,-0.00221068,-0.00042814,-0.00071228,0.00599931,-0.
 00163375,-0.00022059,0.00196385,-0.00006330,0.00021281,-0.00115098,-0.
 00006195,0.03417550,-0.01004231,-0.05136966,0.20509655,-0.08768178,-0.
 36270449,0.02478700,-0.01941689,0.03258528,-0.26499659,0.11018974,0.39
 165702,-0.00024143,0.00094682,-0.00171873,0.00571276,-0.00181775,0.002
 32445,-0.00036434,-0.00000094,-0.00006307,0.00452634,0.01107693,0.0129
 3847,-0.00000526,-0.00040680,-0.00031469,0.00000752,0.00012352,0.00007
 766,-0.07463714,0.06152158,0.00008100,0.00010496,0.00451427,-0.0087282
 1,0.00254461,-0.00025967,-0.00036602,-0.00067742,0.00010796,0.00269657
 ,0.16368576,-0.00117778,-0.00057931,0.00260687,0.00136445,0.00660998,-
 0.00459681,0.00071718,-0.00180568,-0.00035842,0.01625860,-0.03191156,-
 0.06440713,-0.00076073,0.00086382,-0.00033134,0.00037412,-0.00089733,0
 .00001510,0.05717260,-0.32440369,0.02961461,-0.00134543,-0.01428203,0.
 02452666,-0.00087057,0.00239241,-0.00350218,0.00498051,-0.00591486,-0.
 00270084,-0.12257414,0.66597681,-0.00009508,0.00059227,-0.00029861,0.0
 0205639,-0.00329856,-0.00437993,-0.00016036,-0.00084819,0.00018097,-0.
 00140898,-0.01967531,0.03664698,0.00117609,-0.00079049,-0.00003325,-0.
 00031240,0.00012531,-0.00000183,0.01530351,-0.03091437,-0.11728178,-0.
 00514754,0.03939361,-0.00660818,-0.00370102,0.00129229,-0.00562797,-0.
 00240844,0.00213016,-0.00362219,-0.05016600,0.02331121,0.74009546,-0.0
 0012253,-0.00002898,-0.00009305,0.00090595,0.00004914,0.00045677,-0.00
 013247,0.00013149,0.00001175,0.00511812,0.00235523,0.00026736,-0.00010
 600,-0.00024952,-0.00005217,0.00003336,0.00006312,0.00002019,0.0034012
 7,0.00367424,0.00369454,-0.00439402,-0.00153804,0.00219244,-0.00066532
 ,0.00131668,-0.00055565,0.00044289,-0.00086129,0.00044372,-0.04783210,
 0.03282177,0.04349310,0.03800380,-0.00010121,-0.00020549,0.00037192,0.
 00034035,0.00066570,-0.00139669,0.00009849,-0.00052775,-0.00009245,0.0
 0194193,-0.00481111,0.00207308,0.00015256,-0.00003688,-0.00011846,-0.0
 0001215,-0.00012578,0.00002251,0.00541258,-0.01190196,-0.02629517,0.00
 176690,-0.00095687,-0.00413334,-0.00133385,0.00074038,0.00025067,-0.00
 133415,0.00158210,0.00234234,0.03257523,-0.13472995,-0.12499324,-0.036
 49130,0.13827324,-0.00003308,-0.00000133,-0.00011880,0.00015954,0.0001
 6097,0.00034595,-0.00005203,0.00008360,0.00001962,0.00001788,0.0012270
 3,0.00097281,-0.00004017,-0.00002738,0.00000350,0.00000743,0.00004228,
 0.00000024,-0.00000969,0.00167023,0.00493537,-0.00039868,0.00006457,-0
 .00006852,0.00039602,0.00010392,0.00018412,-0.00050634,0.00186064,-0.0
 0155325,0.04391463,-0.12762928,-0.26178374,-0.04799086,0.13421381,0.27
 575087,0.00201470,0.00139434,-0.00057031,0.00263974,-0.00371659,-0.004
 65939,-0.00109840,0.00354559,0.00064467,-0.06557324,0.01497488,0.00900
 930,0.00051259,-0.00221873,-0.00036151,-0.00020578,0.00093497,0.000046
 86,0.00838787,-0.00856785,0.00175268,0.00657479,0.00402403,0.00085134,
 -0.00023541,-0.00162847,0.00003871,-0.00055050,-0.00093748,-0.00132471
 ,-0.00636399,0.00699965,-0.00556230,-0.00084183,-0.00016866,-0.0003192
 8,0.16229143,-0.00046490,-0.00393599,-0.00280172,-0.00043594,-0.017787
 16,0.03271648,0.00210326,-0.00504461,-0.00031849,0.02017747,-0.1566208
 3,0.05111483,-0.00097221,0.00208466,-0.00009269,0.00022422,-0.00080580
 ,0.00016108,-0.01608874,0.05709983,0.02012624,-0.00052556,0.00063768,-
 0.00767604,0.00150106,-0.00138222,-0.00068106,0.00113601,0.00031733,0.
 00005061,0.00604359,-0.04562871,0.02753529,0.00024706,-0.00047315,0.00
 097836,-0.11438718,0.67737290,-0.00160350,-0.00639784,0.00142380,-0.00
 233142,0.01613034,0.00529938,0.00085167,-0.00033002,-0.00332604,-0.003
 18728,0.10659006,-0.28517731,0.00037360,-0.00104699,-0.00079450,0.0000
 5869,-0.00006280,0.00033073,0.01167825,-0.02764063,-0.05871293,0.00468
 095,-0.00764329,0.00178770,-0.00187126,0.00175256,0.00143277,-0.000234
 85,0.00119375,-0.00282960,-0.00577908,0.03064452,-0.02053255,-0.000609
 14,0.00075658,-0.00000591,-0.05234255,0.03097170,0.70525363,-0.0008185
 8,0.00186892,-0.00098277,0.00742342,-0.00009814,0.00026706,-0.00001400
 ,-0.00074196,-0.00009455,0.00751263,0.00320690,-0.01450358,-0.00025684
 ,0.00027922,-0.00048957,0.00010373,-0.00017674,0.00013690,-0.00905057,
 0.01210392,0.00585815,-0.00185401,0.00036587,-0.00009190,0.00030543,0.
 00005699,-0.00046384,0.00035421,-0.00001382,0.00038737,0.00819770,-0.0
 1348536,0.01207253,0.00678664,0.00150828,0.00012618,-0.07360411,0.0533
 7750,0.00732214,0.16259298,-0.00023906,-0.00141579,-0.00024739,0.00152
 202,0.00303129,0.00273023,-0.00043402,-0.00002821,-0.00030705,-0.00304
 834,-0.02118696,0.07599279,0.00060499,0.00016306,-0.00002585,-0.000198
 42,0.00021305,0.00005507,0.01464078,-0.05089861,-0.02587452,0.00218891
 ,-0.00328226,0.00021819,-0.00112358,0.00066316,0.00150902,-0.00074391,
 0.00057389,-0.00117179,-0.01031674,0.06337302,-0.02901997,0.00095999,-
 0.00086990,0.00342545,0.05754935,-0.32569050,-0.01764938,-0.11269191,0
 .65960724,0.00083096,0.00139973,0.00090378,0.00024831,0.00053222,-0.00
 648649,0.00020630,-0.00083566,0.00096564,-0.00917254,0.03055014,0.0237
 4795,-0.00021656,0.00103988,0.00056561,0.00011964,-0.00054104,-0.00025
 506,0.00732615,-0.02436684,-0.01328997,0.00137251,-0.00186694,0.000015
 22,-0.00032805,0.00052408,0.00036915,-0.00086081,0.00090742,-0.0007131
 6,0.00203946,0.01521871,-0.05600418,-0.00011293,0.00324207,-0.00294031
 ,-0.00559934,0.04892507,-0.13045472,-0.04578283,-0.03872913,0.73470501
 ,-0.00011882,-0.00107740,0.00084654,-0.00353015,0.00054078,-0.00030448
 ,-0.00020698,0.00127868,-0.00039414,0.00366160,-0.00159036,-0.00195787
 ,-0.00015680,-0.00031394,0.00046052,0.00009467,-0.00006632,-0.00015759
 ,0.00570946,0.00123611,0.00014734,0.00114113,0.00027433,0.00013069,-0.
 00015075,-0.00004481,-0.00003960,-0.00027191,0.00003437,-0.00030991,-0
 .00061800,-0.00049718,0.00003189,-0.00072272,-0.00016973,-0.00003413,-
 0.04690985,0.02976104,0.04384636,0.00260931,0.00361611,0.00537860,0.03
 681224,0.00049426,-0.00005764,-0.00003196,-0.00174164,0.00100392,0.001
 27196,0.00050141,-0.00145252,0.00051821,-0.00231900,0.01044693,0.01219
 163,0.00006981,-0.00044090,-0.00035103,-0.00004142,0.00030862,0.000170
 60,0.00155996,-0.00078552,0.00270005,0.00008263,0.00097260,0.00064311,
 -0.00000393,-0.00020223,-0.00001896,-0.00017283,-0.00014491,0.00033269
 ,-0.00008420,-0.00075439,0.00102584,-0.00016937,0.00002281,-0.00009888
 ,0.02979763,-0.14134646,-0.12783301,0.00492938,-0.01073498,-0.02610050
 ,-0.03456402,0.14761400,-0.00022846,0.00029666,0.00034661,0.00071923,-
 0.00234012,-0.00137799,-0.00000435,-0.00071312,0.00070280,0.00509299,-
 0.01490291,-0.01948203,-0.00043585,0.00147201,0.00111055,0.00022109,-0
 .00095769,-0.00040167,-0.00043666,0.00374109,-0.00281172,0.00053100,-0
 .00147578,0.00010504,-0.00016382,0.00032328,-0.00012526,0.00015418,0.0
 0020212,-0.00075230,-0.00026075,0.00062985,0.00009035,-0.00003010,-0.0
 0007952,-0.00000536,0.04320261,-0.12634909,-0.25357729,-0.00115804,0.0
 0376382,0.00690460,-0.04701586,0.13506655,0.26728793,-0.00001020,-0.00
 015201,-0.00006883,-0.00080856,-0.00037539,0.00031988,0.00001094,0.000
 12960,-0.00006338,-0.00517035,-0.00092310,0.00538023,0.00005228,0.0000
 3696,0.00011217,-0.00003355,0.00006036,-0.00002190,0.00422124,0.001664
 80,-0.00733348,0.00769960,0.00465520,-0.00013417,-0.00003085,-0.002219
 89,0.00078524,-0.00039809,-0.00062256,-0.00079676,-0.06373509,0.016967
 02,-0.00678340,0.00374387,-0.00302884,0.00491747,0.00302743,0.01426686
 ,0.00323118,-0.07343232,0.03514703,0.04817337,0.00635619,0.00233792,0.
 00020462,0.16648966,0.00042205,-0.00019581,-0.00007966,-0.00091820,0.0
 0038487,0.00019054,0.00039722,-0.00052431,0.00008271,-0.00050946,-0.00
 007033,-0.00338295,-0.00021762,0.00040667,0.00008817,0.00006358,-0.000
 23744,-0.00005840,0.00255196,-0.01979491,0.03107329,0.00365066,-0.0067
 6085,-0.00303268,0.00084520,-0.00008604,0.00217519,-0.00072349,0.00203
 548,-0.00007201,0.01360164,-0.16856834,0.11845245,-0.00119480,0.012378
 97,-0.01520623,0.01034507,-0.03033928,-0.02543591,0.04008098,-0.189266
 28,-0.12535645,0.00248835,-0.00477977,0.00137456,-0.13054847,0.7226750
 9,-0.00038417,0.00030288,0.00142502,-0.00048783,0.00227932,-0.00294636
 ,0.00060448,-0.00076633,-0.00011858,0.00892764,-0.00553288,-0.06392660
 ,-0.00070921,0.00041074,-0.00018412,0.00028095,-0.00049039,0.00001657,
 -0.02239375,0.08005617,0.02125863,-0.00082996,-0.00155128,0.00503475,0
 .00040420,0.00075236,-0.00136904,0.00140010,-0.00049510,0.00050970,0.0
 0782805,0.05149336,-0.30028842,-0.00070649,0.01360894,-0.01600884,0.01
 309626,-0.07083430,0.04176953,0.03420898,-0.05999259,-0.27585452,-0.00
 037437,0.00168507,0.00108355,-0.04456189,-0.01300961,0.66826844,0.0001
 4494,-0.00015026,0.00021640,-0.00103167,0.00001282,-0.00019216,-0.0000
 1801,0.00016628,0.00002334,-0.00082268,-0.00030479,-0.00023616,0.00004
 348,-0.00017515,0.00005052,-0.00001934,0.00007959,-0.00001204,0.006973
 84,0.00055041,0.00045542,0.00038592,-0.00003337,0.00002049,-0.00010908
 ,-0.00005056,0.00024697,-0.00000712,-0.00005754,0.00005558,0.00307751,
 0.00048680,-0.00014426,-0.00366390,-0.00096136,-0.00042153,0.00679374,
 0.00173460,0.00212171,0.00239205,0.00581132,-0.00119075,-0.00006844,0.
 00032178,-0.00008898,-0.05162015,0.06289252,-0.00206766,0.04121604,0.0
 0000239,-0.00009941,0.00002136,-0.00024589,0.00011062,0.00000053,0.000
 05937,-0.00015775,-0.00001237,-0.00029761,0.00058046,-0.00021031,-0.00
 000681,0.00016748,0.00004823,0.00001327,-0.00009714,-0.00002201,0.0011
 1913,0.00116686,0.00243131,0.00017381,-0.00026267,-0.00087534,0.000130
 12,-0.00019155,0.00038150,-0.00006878,0.00002402,0.00027198,0.00273221
 ,-0.00874252,-0.00124208,-0.00098961,0.00051830,-0.00009107,0.00176278
 ,0.00050593,-0.00286635,0.00285788,-0.01108724,0.00372700,0.00008939,-
 0.00055923,0.00027314,0.06293362,-0.32895106,0.01877490,-0.06929614,0.
 34649201,-0.00003872,-0.00006890,0.00015085,-0.00003891,0.00006530,-0.
 00012402,0.00000030,-0.00005594,0.00006452,0.00013495,-0.00004997,-0.0
 0131830,-0.00004456,0.00010973,0.00005484,0.00001848,-0.00006315,-0.00
 002385,0.00069020,0.00163297,-0.00460638,-0.00023126,0.00153717,0.0009
 7029,-0.00038955,0.00019660,-0.00063297,0.00007794,-0.00022061,-0.0002
 6204,-0.00619989,0.02900981,0.00195971,-0.00028423,-0.00050245,0.00103
 925,0.00166670,-0.00235924,-0.00417466,0.00557351,-0.02647026,0.006776
 90,0.00019839,-0.00127966,0.00023497,-0.00216192,0.01859969,-0.0610070
 2,0.00153747,-0.02045114,0.05996886,-0.00011412,0.00029259,0.00007887,
 0.00026166,-0.00005706,-0.00045429,-0.00008223,0.00008128,0.00005950,0
 .00639293,0.00265795,-0.00000808,0.00002127,0.00005196,0.00002275,-0.0
 0000588,0.00000352,-0.00000567,-0.00021404,0.00008341,-0.00002587,-0.0
 0121859,-0.00059679,0.00015415,-0.00000517,0.00034874,-0.00004869,0.00
 007222,0.00002632,0.00012697,0.00661761,0.00256850,0.00175628,0.000045
 00,-0.00019508,0.00026664,0.00314081,0.00230185,-0.00620548,-0.0392476
 8,0.00675547,-0.00243149,-0.00363017,-0.00099839,-0.00030285,0.0036379
 5,-0.00322718,0.00576466,-0.00366713,-0.00096912,-0.00050890,0.0279955
 6,-0.00024228,-0.00077040,-0.00004926,-0.00014765,0.00094156,0.0017353
 5,0.00015517,-0.00034079,-0.00032528,0.00261570,-0.00509047,-0.0005862
 5,0.00001085,0.00030518,-0.00006232,0.00001696,-0.00019436,0.00001771,
 0.00036322,-0.00103355,-0.00101166,-0.00005629,-0.00024845,-0.00002754
 ,-0.00012486,0.00021271,0.00004465,-0.00010075,0.00013562,0.00011033,0
 .00221648,-0.00099769,-0.00307622,-0.00009583,0.00045732,-0.00077669,0
 .00029666,-0.00896363,0.02886672,0.00657209,-0.11316398,0.11173023,-0.
 00099541,0.00088968,-0.00032485,-0.00032912,0.01169335,-0.01669126,-0.
 00102697,0.00058289,0.00037005,-0.00912797,0.11558503,-0.00006675,0.00
 013093,-0.00002544,0.00022839,-0.00046832,-0.00001381,-0.00011326,0.00
 021296,0.00007158,0.00051853,-0.00010140,0.00158385,0.00001853,-0.0001
 6038,0.00000767,-0.00001653,0.00010254,0.00000510,0.00021454,-0.000978
 53,0.00034848,0.00006296,-0.00013099,-0.00002126,-0.00011429,0.0000979
 1,-0.00005035,-0.00006390,0.00018168,-0.00000360,0.00169617,-0.0035447
 2,-0.00251084,-0.00014524,0.00072940,-0.00076702,0.00043028,-0.0014670
 4,0.00228798,-0.00238574,0.11179337,-0.28895544,-0.00045238,0.00010830
 ,0.00066722,-0.00119843,0.01359730,-0.01766269,-0.00037436,-0.00015929
 ,0.00092905,0.00176150,-0.11994372,0.30410949\\0.00001923,-0.00001320,
 -0.00000092,-0.00003035,-0.00000894,-0.00000675,0.00002137,-0.00001154
 ,0.00001513,0.00001036,0.00002951,0.00000712,-0.00004176,0.00004617,-0
 .00002903,0.00002591,-0.00003779,0.00001525,0.00000184,0.00001287,-0.0
 0000738,-0.00000431,-0.00000386,-0.00002506,0.00000611,-0.00000005,0.0
 0001142,-0.00000138,0.00000238,0.00002074,-0.00000230,-0.00003691,-0.0
 0002920,-0.00000396,0.00002593,0.00004212,-0.00000214,-0.00000620,0.00
 004943,-0.00001299,0.00002083,0.00005512,0.00000617,-0.00002750,-0.000
 04149,0.00002665,-0.00005162,-0.00003789,-0.00001420,0.00004315,0.0000
 0274,-0.00000425,0.00001676,-0.00004136\\\@


 ALL OUR THINKING ABOUT NATURE MUST NECESSARILY MOVE IN CIRCLES OR SPIRALS;
 FOR WE CAN ONLY UNDERSTAND NATURE IF WE THINK ABOUT HER, AND WE CAN ONLY
 THINK BECAUSE OUR BRAIN IS BUILT IN ACCORDANCE WITH NATURE'S LAWS.

                                             -- TIMOTHY FERRIS, "GALAXIES"
 Job cpu time:       0 days  0 hours 15 minutes 41.7 seconds.
 File lengths (MBytes):  RWF=    118 Int=      0 D2E=      0 Chk=      5 Scr=      1
 Normal termination of Gaussian 09 at Fri Aug 20 16:01:54 2021.
