 Entering Gaussian System, Link 0=g09
 Input=B3LYP6-31G.TITKUC.gjf
 Output=B3LYP6-31G.TITKUC.log
 Initial command:
 /public/home/users/caep010/software/Gaussian09/g09/l1.exe "/public/home/users/caep010/.cache/gau_scr/Gau-79750.inp" -scrdir="/public/home/users/caep010/.cache/gau_scr/"
 Entering Link 1 = /public/home/users/caep010/software/Gaussian09/g09/l1.exe PID=     79751.
  
 Copyright (c) 1988,1990,1992,1993,1995,1998,2003,2009,2015,
            Gaussian, Inc.  All Rights Reserved.
  
 This is part of the Gaussian(R) 09 program.  It is based on
 the Gaussian(R) 03 system (copyright 2003, Gaussian, Inc.),
 the Gaussian(R) 98 system (copyright 1998, Gaussian, Inc.),
 the Gaussian(R) 94 system (copyright 1995, Gaussian, Inc.),
 the Gaussian 92(TM) system (copyright 1992, Gaussian, Inc.),
 the Gaussian 90(TM) system (copyright 1990, Gaussian, Inc.),
 the Gaussian 88(TM) system (copyright 1988, Gaussian, Inc.),
 the Gaussian 86(TM) system (copyright 1986, Carnegie Mellon
 University), and the Gaussian 82(TM) system (copyright 1983,
 Carnegie Mellon University). Gaussian is a federally registered
 trademark of Gaussian, Inc.
  
 This software contains proprietary and confidential information,
 including trade secrets, belonging to Gaussian, Inc.
  
 This software is provided under written license and may be
 used, copied, transmitted, or stored only in accord with that
 written license.
  
 The following legend is applicable only to US Government
 contracts under FAR:
  
                    RESTRICTED RIGHTS LEGEND
  
 Use, reproduction and disclosure by the US Government is
 subject to restrictions as set forth in subparagraphs (a)
 and (c) of the Commercial Computer Software - Restricted
 Rights clause in FAR 52.227-19.
  
 Gaussian, Inc.
 340 Quinnipiac St., Bldg. 40, Wallingford CT 06492
  
  
 ---------------------------------------------------------------
 Warning -- This program may not be used in any manner that
 competes with the business of Gaussian, Inc. or will provide
 assistance to any competitor of Gaussian, Inc.  The licensee
 of this program is prohibited from giving any competitor of
 Gaussian, Inc. access to this program.  By using this program,
 the user acknowledges that Gaussian, Inc. is engaged in the
 business of creating and licensing software in the field of
 computational chemistry and represents and warrants to the
 licensee that it is not a competitor of Gaussian, Inc. and that
 it will not use this program in any manner prohibited above.
 ---------------------------------------------------------------
  

 Cite this work as:
 Gaussian 09, Revision E.01,
 M. J. Frisch, G. W. Trucks, H. B. Schlegel, G. E. Scuseria, 
 M. A. Robb, J. R. Cheeseman, G. Scalmani, V. Barone, B. Mennucci, 
 G. A. Petersson, H. Nakatsuji, M. Caricato, X. Li, H. P. Hratchian, 
 A. F. Izmaylov, J. Bloino, G. Zheng, J. L. Sonnenberg, M. Hada, 
 M. Ehara, K. Toyota, R. Fukuda, J. Hasegawa, M. Ishida, T. Nakajima, 
 Y. Honda, O. Kitao, H. Nakai, T. Vreven, J. A. Montgomery, Jr., 
 J. E. Peralta, F. Ogliaro, M. Bearpark, J. J. Heyd, E. Brothers, 
 K. N. Kudin, V. N. Staroverov, T. Keith, R. Kobayashi, J. Normand, 
 K. Raghavachari, A. Rendell, J. C. Burant, S. S. Iyengar, J. Tomasi, 
 M. Cossi, N. Rega, J. M. Millam, M. Klene, J. E. Knox, J. B. Cross, 
 V. Bakken, C. Adamo, J. Jaramillo, R. Gomperts, R. E. Stratmann, 
 O. Yazyev, A. J. Austin, R. Cammi, C. Pomelli, J. W. Ochterski, 
 R. L. Martin, K. Morokuma, V. G. Zakrzewski, G. A. Voth, 
 P. Salvador, J. J. Dannenberg, S. Dapprich, A. D. Daniels, 
 O. Farkas, J. B. Foresman, J. V. Ortiz, J. Cioslowski, 
 and D. J. Fox, Gaussian, Inc., Wallingford CT, 2013.
 
 ******************************************
 Gaussian 09:  ES64L-G09RevE.01 30-Nov-2015
                20-Aug-2021 
 ******************************************
 %nproc=32
 Will use up to   32 processors via shared memory.
 %mem=180GB
 -------------------------
 #P OPT Freq B3LYP/6-31G**
 -------------------------
 1/14=-1,18=20,19=15,26=3,38=1/1,3;
 2/9=110,12=2,17=6,18=5,40=1/2;
 3/5=1,6=6,7=101,11=2,16=1,25=1,30=1,71=1,74=-5/1,2,3;
 4//1;
 5/5=2,38=5/2;
 6/7=2,8=2,9=2,10=2,28=1/1;
 7//1,2,3,16;
 1/14=-1,18=20,19=15,26=3/3(2);
 2/9=110/2;
 99//99;
 2/9=110/2;
 3/5=1,6=6,7=101,11=2,16=1,25=1,30=1,71=1,74=-5/1,2,3;
 4/5=5,16=3,69=1/1;
 5/5=2,38=5/2;
 7//1,2,3,16;
 1/14=-1,18=20,19=15,26=3/3(-5);
 2/9=110/2;
 6/7=2,8=2,9=2,10=2,19=2,28=1/1;
 99/9=1/99;
 Leave Link    1 at Fri Aug 20 15:46:18 2021, MaxMem= 24159191040 cpu:         2.8
 (Enter /public/home/users/caep010/software/Gaussian09/g09/l101.exe)
 ------
 TITKUC
 ------
 Symbolic Z-matrix:
 Charge =  0 Multiplicity = 1
 O                     5.7887    0.8497    10.403 
 N                     5.7208    0.9332    9.1442 
 C                     4.414     0.9029    8.5825 
 C                     4.3165    0.8725    7.2509 
 C                     3.2849    1.0015    9.5396 
 C                     3.1529    0.9104    6.4395 
 H                     2.2965    0.9772    6.8493 
 H                     3.354     1.8103    10.0306 
 C                     3.2652    0.8573    5.0767 
 N                     2.2829    0.9104    4.1945 
 C                     0.8724    1.0318    4.5461 
 H                     0.7194    1.7966    5.085 
 C                     0.1691    1.1608    3.1833 
 C                     1.1365    0.7056    2.1846 
 H                     1.0403    1.2223    1.394 
 H                     4.145     0.7731    4.7323 
 H                     0.5713    0.2542    5.008 
 H                    -0.0679    2.0697    3.0221 
 H                     0.9835   -0.2079    1.9932 
 H                     3.3108    0.2633    10.1336 
 H                     2.4655    0.9924    9.0569 
 H                    -0.6108    0.6229    3.1573 
 O                     6.7093    0.9332    8.4056 
 C                     2.5272    0.8877    2.736 
 H                     3.0875    0.1571    2.4967 
 H                     2.9172    1.6972    2.4395 
 H                     5.1396    0.8202    6.7776 
 
 NAtoms=     27 NQM=       27 NQMF=       0 NMMI=      0 NMMIF=      0
                NMic=       0 NMicF=      0.
                    Isotopes and Nuclear Properties:
 (Nuclear quadrupole moments (NQMom) in fm**2, nuclear magnetic moments (NMagM)
  in nuclear magnetons)

  Atom         1           2           3           4           5           6           7           8           9          10
 IAtWgt=          16          14          12          12          12          12           1           1          12          14
 AtmWgt=  15.9949146  14.0030740  12.0000000  12.0000000  12.0000000  12.0000000   1.0078250   1.0078250  12.0000000  14.0030740
 NucSpn=           0           2           0           0           0           0           1           1           0           2
 AtZEff=   0.0000000   0.0000000   0.0000000   0.0000000   0.0000000   0.0000000   0.0000000   0.0000000   0.0000000   0.0000000
 NQMom=    0.0000000   2.0440000   0.0000000   0.0000000   0.0000000   0.0000000   0.0000000   0.0000000   0.0000000   2.0440000
 NMagM=    0.0000000   0.4037610   0.0000000   0.0000000   0.0000000   0.0000000   2.7928460   2.7928460   0.0000000   0.4037610
 AtZNuc=   8.0000000   7.0000000   6.0000000   6.0000000   6.0000000   6.0000000   1.0000000   1.0000000   6.0000000   7.0000000

  Atom        11          12          13          14          15          16          17          18          19          20
 IAtWgt=          12           1          12          12           1           1           1           1           1           1
 AtmWgt=  12.0000000   1.0078250  12.0000000  12.0000000   1.0078250   1.0078250   1.0078250   1.0078250   1.0078250   1.0078250
 NucSpn=           0           1           0           0           1           1           1           1           1           1
 AtZEff=   0.0000000   0.0000000   0.0000000   0.0000000   0.0000000   0.0000000   0.0000000   0.0000000   0.0000000   0.0000000
 NQMom=    0.0000000   0.0000000   0.0000000   0.0000000   0.0000000   0.0000000   0.0000000   0.0000000   0.0000000   0.0000000
 NMagM=    0.0000000   2.7928460   0.0000000   0.0000000   2.7928460   2.7928460   2.7928460   2.7928460   2.7928460   2.7928460
 AtZNuc=   6.0000000   1.0000000   6.0000000   6.0000000   1.0000000   1.0000000   1.0000000   1.0000000   1.0000000   1.0000000

  Atom        21          22          23          24          25          26          27
 IAtWgt=           1           1          16          12           1           1           1
 AtmWgt=   1.0078250   1.0078250  15.9949146  12.0000000   1.0078250   1.0078250   1.0078250
 NucSpn=           1           1           0           0           1           1           1
 AtZEff=   0.0000000   0.0000000   0.0000000   0.0000000   0.0000000   0.0000000   0.0000000
 NQMom=    0.0000000   0.0000000   0.0000000   0.0000000   0.0000000   0.0000000   0.0000000
 NMagM=    2.7928460   2.7928460   0.0000000   0.0000000   2.7928460   2.7928460   2.7928460
 AtZNuc=   1.0000000   1.0000000   8.0000000   6.0000000   1.0000000   1.0000000   1.0000000
 Leave Link  101 at Fri Aug 20 15:46:18 2021, MaxMem= 24159191040 cpu:        10.5
 (Enter /public/home/users/caep010/software/Gaussian09/g09/l103.exe)

 GradGradGradGradGradGradGradGradGradGradGradGradGradGradGradGradGradGrad
 Berny optimization.
 Initialization pass.
                           ----------------------------
                           !    Initial Parameters    !
                           ! (Angstroms and Degrees)  !
 --------------------------                            --------------------------
 ! Name  Definition              Value          Derivative Info.                !
 --------------------------------------------------------------------------------
 ! R1    R(1,2)                  1.2634         estimate D2E/DX2                !
 ! R2    R(2,3)                  1.4227         estimate D2E/DX2                !
 ! R3    R(2,23)                 1.234          estimate D2E/DX2                !
 ! R4    R(3,4)                  1.3355         estimate D2E/DX2                !
 ! R5    R(3,5)                  1.4835         estimate D2E/DX2                !
 ! R6    R(4,6)                  1.4191         estimate D2E/DX2                !
 ! R7    R(4,27)                 0.9509         estimate D2E/DX2                !
 ! R8    R(5,8)                  0.9487         estimate D2E/DX2                !
 ! R9    R(5,20)                 0.9479         estimate D2E/DX2                !
 ! R10   R(5,21)                 0.9511         estimate D2E/DX2                !
 ! R11   R(6,7)                  0.9517         estimate D2E/DX2                !
 ! R12   R(6,9)                  1.3684         estimate D2E/DX2                !
 ! R13   R(9,10)                 1.3214         estimate D2E/DX2                !
 ! R14   R(9,16)                 0.9486         estimate D2E/DX2                !
 ! R15   R(10,11)                1.4587         estimate D2E/DX2                !
 ! R16   R(10,24)                1.479          estimate D2E/DX2                !
 ! R17   R(11,12)                0.948          estimate D2E/DX2                !
 ! R18   R(11,13)                1.539          estimate D2E/DX2                !
 ! R19   R(11,17)                0.9532         estimate D2E/DX2                !
 ! R20   R(13,14)                1.463          estimate D2E/DX2                !
 ! R21   R(13,18)                0.953          estimate D2E/DX2                !
 ! R22   R(13,22)                0.9478         estimate D2E/DX2                !
 ! R23   R(14,15)                0.9494         estimate D2E/DX2                !
 ! R24   R(14,19)                0.9458         estimate D2E/DX2                !
 ! R25   R(14,24)                1.5071         estimate D2E/DX2                !
 ! R26   R(24,25)                0.9513         estimate D2E/DX2                !
 ! R27   R(24,26)                0.9462         estimate D2E/DX2                !
 ! A1    A(1,2,3)              116.1886         estimate D2E/DX2                !
 ! A2    A(1,2,23)             123.5958         estimate D2E/DX2                !
 ! A3    A(3,2,23)             119.9663         estimate D2E/DX2                !
 ! A4    A(2,3,4)              117.464          estimate D2E/DX2                !
 ! A5    A(2,3,5)              116.2938         estimate D2E/DX2                !
 ! A6    A(4,3,5)              126.1032         estimate D2E/DX2                !
 ! A7    A(3,4,6)              129.003          estimate D2E/DX2                !
 ! A8    A(3,4,27)             115.7428         estimate D2E/DX2                !
 ! A9    A(6,4,27)             115.254          estimate D2E/DX2                !
 ! A10   A(3,5,8)              109.5814         estimate D2E/DX2                !
 ! A11   A(3,5,20)             109.3755         estimate D2E/DX2                !
 ! A12   A(3,5,21)             109.1277         estimate D2E/DX2                !
 ! A13   A(8,5,20)             109.7329         estimate D2E/DX2                !
 ! A14   A(8,5,21)             109.4871         estimate D2E/DX2                !
 ! A15   A(20,5,21)            109.5211         estimate D2E/DX2                !
 ! A16   A(4,6,7)              119.5712         estimate D2E/DX2                !
 ! A17   A(4,6,9)              120.0724         estimate D2E/DX2                !
 ! A18   A(7,6,9)              120.3556         estimate D2E/DX2                !
 ! A19   A(6,9,10)             127.0363         estimate D2E/DX2                !
 ! A20   A(6,9,16)             116.1767         estimate D2E/DX2                !
 ! A21   A(10,9,16)            116.787          estimate D2E/DX2                !
 ! A22   A(9,10,11)            124.1418         estimate D2E/DX2                !
 ! A23   A(9,10,24)            122.3426         estimate D2E/DX2                !
 ! A24   A(11,10,24)           113.4963         estimate D2E/DX2                !
 ! A25   A(10,11,12)           111.113          estimate D2E/DX2                !
 ! A26   A(10,11,13)           103.6163         estimate D2E/DX2                !
 ! A27   A(10,11,17)           110.7525         estimate D2E/DX2                !
 ! A28   A(12,11,13)           111.2228         estimate D2E/DX2                !
 ! A29   A(12,11,17)           109.3698         estimate D2E/DX2                !
 ! A30   A(13,11,17)           110.6776         estimate D2E/DX2                !
 ! A31   A(11,13,14)           106.0347         estimate D2E/DX2                !
 ! A32   A(11,13,18)           110.0821         estimate D2E/DX2                !
 ! A33   A(11,13,22)           110.6567         estimate D2E/DX2                !
 ! A34   A(14,13,18)           110.2247         estimate D2E/DX2                !
 ! A35   A(14,13,22)           110.4142         estimate D2E/DX2                !
 ! A36   A(18,13,22)           109.3898         estimate D2E/DX2                !
 ! A37   A(13,14,15)           109.3979         estimate D2E/DX2                !
 ! A38   A(13,14,19)           109.3712         estimate D2E/DX2                !
 ! A39   A(13,14,24)           108.8337         estimate D2E/DX2                !
 ! A40   A(15,14,19)           109.9231         estimate D2E/DX2                !
 ! A41   A(15,14,24)           109.4167         estimate D2E/DX2                !
 ! A42   A(19,14,24)           109.8784         estimate D2E/DX2                !
 ! A43   A(10,24,14)           102.1362         estimate D2E/DX2                !
 ! A44   A(10,24,25)           110.9246         estimate D2E/DX2                !
 ! A45   A(10,24,26)           111.344          estimate D2E/DX2                !
 ! A46   A(14,24,25)           111.0185         estimate D2E/DX2                !
 ! A47   A(14,24,26)           111.6583         estimate D2E/DX2                !
 ! A48   A(25,24,26)           109.6002         estimate D2E/DX2                !
 ! D1    D(1,2,3,4)           -174.3372         estimate D2E/DX2                !
 ! D2    D(1,2,3,5)              9.6845         estimate D2E/DX2                !
 ! D3    D(23,2,3,4)             0.1321         estimate D2E/DX2                !
 ! D4    D(23,2,3,5)          -175.8461         estimate D2E/DX2                !
 ! D5    D(2,3,4,6)           -176.2749         estimate D2E/DX2                !
 ! D6    D(2,3,4,27)             3.5691         estimate D2E/DX2                !
 ! D7    D(5,3,4,6)             -0.7384         estimate D2E/DX2                !
 ! D8    D(5,3,4,27)           179.1056         estimate D2E/DX2                !
 ! D9    D(2,3,5,8)             58.7775         estimate D2E/DX2                !
 ! D10   D(2,3,5,20)           -61.5521         estimate D2E/DX2                !
 ! D11   D(2,3,5,21)           178.654          estimate D2E/DX2                !
 ! D12   D(4,3,5,8)           -116.8051         estimate D2E/DX2                !
 ! D13   D(4,3,5,20)           122.8653         estimate D2E/DX2                !
 ! D14   D(4,3,5,21)             3.0714         estimate D2E/DX2                !
 ! D15   D(3,4,6,7)              0.8396         estimate D2E/DX2                !
 ! D16   D(3,4,6,9)           -179.4614         estimate D2E/DX2                !
 ! D17   D(27,4,6,7)          -179.005          estimate D2E/DX2                !
 ! D18   D(27,4,6,9)             0.694          estimate D2E/DX2                !
 ! D19   D(4,6,9,10)          -178.4891         estimate D2E/DX2                !
 ! D20   D(4,6,9,16)             1.5233         estimate D2E/DX2                !
 ! D21   D(7,6,9,10)             1.2075         estimate D2E/DX2                !
 ! D22   D(7,6,9,16)          -178.78           estimate D2E/DX2                !
 ! D23   D(6,9,10,11)           -0.3237         estimate D2E/DX2                !
 ! D24   D(6,9,10,24)          177.9708         estimate D2E/DX2                !
 ! D25   D(16,9,10,11)         179.6638         estimate D2E/DX2                !
 ! D26   D(16,9,10,24)          -2.0418         estimate D2E/DX2                !
 ! D27   D(9,10,11,12)          56.2199         estimate D2E/DX2                !
 ! D28   D(9,10,11,13)         175.7444         estimate D2E/DX2                !
 ! D29   D(9,10,11,17)         -65.5498         estimate D2E/DX2                !
 ! D30   D(24,10,11,12)       -122.2089         estimate D2E/DX2                !
 ! D31   D(24,10,11,13)         -2.6844         estimate D2E/DX2                !
 ! D32   D(24,10,11,17)        116.0214         estimate D2E/DX2                !
 ! D33   D(9,10,24,14)         169.8059         estimate D2E/DX2                !
 ! D34   D(9,10,24,25)          51.4469         estimate D2E/DX2                !
 ! D35   D(9,10,24,26)         -70.8969         estimate D2E/DX2                !
 ! D36   D(11,10,24,14)        -11.7332         estimate D2E/DX2                !
 ! D37   D(11,10,24,25)       -130.0922         estimate D2E/DX2                !
 ! D38   D(11,10,24,26)        107.5639         estimate D2E/DX2                !
 ! D39   D(10,11,13,14)         16.6702         estimate D2E/DX2                !
 ! D40   D(10,11,13,18)       -102.5425         estimate D2E/DX2                !
 ! D41   D(10,11,13,22)        136.4199         estimate D2E/DX2                !
 ! D42   D(12,11,13,14)        136.1195         estimate D2E/DX2                !
 ! D43   D(12,11,13,18)         16.9068         estimate D2E/DX2                !
 ! D44   D(12,11,13,22)       -104.1308         estimate D2E/DX2                !
 ! D45   D(17,11,13,14)       -102.0872         estimate D2E/DX2                !
 ! D46   D(17,11,13,18)        138.7001         estimate D2E/DX2                !
 ! D47   D(17,11,13,22)         17.6624         estimate D2E/DX2                !
 ! D48   D(11,13,14,15)       -144.4559         estimate D2E/DX2                !
 ! D49   D(11,13,14,19)         95.0969         estimate D2E/DX2                !
 ! D50   D(11,13,14,24)        -24.9521         estimate D2E/DX2                !
 ! D51   D(18,13,14,15)        -25.3369         estimate D2E/DX2                !
 ! D52   D(18,13,14,19)       -145.7842         estimate D2E/DX2                !
 ! D53   D(18,13,14,24)         94.1668         estimate D2E/DX2                !
 ! D54   D(22,13,14,15)         95.6361         estimate D2E/DX2                !
 ! D55   D(22,13,14,19)        -24.8112         estimate D2E/DX2                !
 ! D56   D(22,13,14,24)       -144.8602         estimate D2E/DX2                !
 ! D57   D(13,14,24,10)         22.4745         estimate D2E/DX2                !
 ! D58   D(13,14,24,25)        140.7668         estimate D2E/DX2                !
 ! D59   D(13,14,24,26)        -96.601          estimate D2E/DX2                !
 ! D60   D(15,14,24,10)        141.9666         estimate D2E/DX2                !
 ! D61   D(15,14,24,25)        -99.7412         estimate D2E/DX2                !
 ! D62   D(15,14,24,26)         22.8911         estimate D2E/DX2                !
 ! D63   D(19,14,24,10)        -97.2598         estimate D2E/DX2                !
 ! D64   D(19,14,24,25)         21.0324         estimate D2E/DX2                !
 ! D65   D(19,14,24,26)        143.6647         estimate D2E/DX2                !
 --------------------------------------------------------------------------------
 Trust Radius=3.00D-01 FncErr=1.00D-07 GrdErr=1.00D-06
 Number of steps in this run=    150 maximum allowed number of steps=    162.
 GradGradGradGradGradGradGradGradGradGradGradGradGradGradGradGradGradGrad

 Leave Link  103 at Fri Aug 20 15:46:18 2021, MaxMem= 24159191040 cpu:         0.6
 (Enter /public/home/users/caep010/software/Gaussian09/g09/l202.exe)
                          Input orientation:                          
 ---------------------------------------------------------------------
 Center     Atomic      Atomic             Coordinates (Angstroms)
 Number     Number       Type             X           Y           Z
 ---------------------------------------------------------------------
      1          8           0        5.788700    0.849700   10.403000
      2          7           0        5.720800    0.933200    9.144200
      3          6           0        4.414000    0.902900    8.582500
      4          6           0        4.316500    0.872500    7.250900
      5          6           0        3.284900    1.001500    9.539600
      6          6           0        3.152900    0.910400    6.439500
      7          1           0        2.296500    0.977200    6.849300
      8          1           0        3.354000    1.810300   10.030600
      9          6           0        3.265200    0.857300    5.076700
     10          7           0        2.282900    0.910400    4.194500
     11          6           0        0.872400    1.031800    4.546100
     12          1           0        0.719400    1.796600    5.085000
     13          6           0        0.169100    1.160800    3.183300
     14          6           0        1.136500    0.705600    2.184600
     15          1           0        1.040300    1.222300    1.394000
     16          1           0        4.145000    0.773100    4.732300
     17          1           0        0.571300    0.254200    5.008000
     18          1           0       -0.067900    2.069700    3.022100
     19          1           0        0.983500   -0.207900    1.993200
     20          1           0        3.310800    0.263300   10.133600
     21          1           0        2.465500    0.992400    9.056900
     22          1           0       -0.610800    0.622900    3.157300
     23          8           0        6.709300    0.933200    8.405600
     24          6           0        2.527200    0.887700    2.736000
     25          1           0        3.087500    0.157100    2.496700
     26          1           0        2.917200    1.697200    2.439500
     27          1           0        5.139600    0.820200    6.777600
 ---------------------------------------------------------------------
                    Distance matrix (angstroms):
                    1          2          3          4          5
     1  O    0.000000
     2  N    1.263392   0.000000
     3  C    2.281852   1.422727   0.000000
     4  C    3.479027   2.358035   1.335511   0.000000
     5  C    2.652832   2.468727   1.483452   2.513760   0.000000
     6  C    4.760300   3.729616   2.486539   1.419074   3.104246
     7  H    4.984025   4.122418   2.737391   2.062194   2.866224
     8  H    2.643709   2.675211   2.010962   3.087492   0.948690
     9  C    5.893860   4.751872   3.689506   2.415079   4.465272
    10  N    7.130203   6.026542   4.878134   3.671314   5.438970
    11  C    7.648950   6.682756   5.371412   4.382139   5.545820
    12  H    7.407803   6.498967   5.165392   4.299327   5.201676
    13  C    9.154275   8.148957   6.872921   5.816306   7.080688
    14  C    9.444884   8.336884   7.191249   5.983949   7.668064
    15  H   10.190594   9.058491   7.947226   6.720054   8.452087
    16  H    5.904613   4.687605   3.861768   2.526388   4.888975
    17  H    7.528739   6.639770   5.288119   4.409016   5.334555
    18  H    9.500834   8.501811   7.236498   6.207979   7.406762
    19  H    9.743367   8.653376   7.511397   6.318193   7.981682
    20  H    2.560553   2.689940   2.007996   3.113281   0.947864
    21  H    3.588315   3.257008   2.007416   2.588863   0.951051
    22  H    9.669809   8.719428   7.399987   6.410784   7.486893
    23  O    2.200928   1.233962   2.302306   2.657538   3.607927
    24  C    8.331969   7.160040   6.143436   4.856557   6.846607
    25  H    8.383660   7.192069   6.273180   4.962324   7.096085
    26  H    8.507708   7.307316   6.372423   5.078163   7.143572
    27  H    3.683168   2.439541   1.947049   0.950916   3.331880
                    6          7          8          9         10
     6  C    0.000000
     7  H    0.951745   0.000000
     8  H    3.707595   3.454422   0.000000
     9  C    1.368450   2.023578   5.045515   0.000000
    10  N    2.407680   2.655675   6.001428   1.321367   0.000000
    11  C    2.966544   2.708463   6.069937   2.457128   1.458722
    12  H    2.922660   2.504279   5.603594   2.713568   2.005710
    13  C    4.423641   4.242534   7.579641   3.641828   2.356560
    14  C    4.712959   4.814436   8.227842   3.594248   2.322902
    15  H    5.478817   5.603428   8.960458   4.318065   3.079633
    16  H    1.979304   2.817853   5.456505   0.948551   1.943064
    17  H    3.023979   2.624772   5.949065   2.761439   2.005481
    18  H    4.836957   4.629406   7.803574   4.098884   2.871369
    19  H    5.072127   5.168185   8.619292   3.981052   2.790118
    20  H    3.753671   3.510710   1.551027   5.091871   6.062031
    21  H    2.707402   2.214112   1.551285   4.061990   4.866518
    22  H    5.002093   4.712620   8.023205   4.331560   3.087384
    23  O    4.063748   4.679403   3.829878   4.790528   6.109574
    24  C    3.756052   4.120737   7.399053   2.454474   1.478993
    25  H    4.014649   4.499263   7.717755   2.679227   2.024195
    26  H    4.083455   4.511098   7.604498   2.789509   2.025195
    27  H    2.017281   2.848334   3.840661   2.531366   3.852438
                   11         12         13         14         15
    11  C    0.000000
    12  H    0.948020   0.000000
    13  C    1.538992   2.079311   0.000000
    14  C    2.398507   3.126751   1.463035   0.000000
    15  H    3.162312   3.749170   1.991072   0.949359   0.000000
    16  H    3.288086   3.592587   4.284565   3.942893   4.580959
    17  H    0.953244   1.551406   2.076829   2.914584   3.770699
    18  H    2.069777   2.224855   0.953023   2.003186   2.144039
    19  H    2.840158   3.694184   1.988196   0.945793   1.551689
    20  H    6.144635   5.878327   7.680004   8.252867   9.080499
    21  H    4.784019   4.412663   6.308802   7.005498   7.797697
    22  H    2.072642   2.619739   0.947764   2.001510   2.488903
    23  O    6.998204   6.902952   8.372481   8.355163   9.021290
    24  C    2.456744   3.100329   2.415636   1.507066   2.030712
    25  H    3.141943   3.872358   3.161628   2.050527   2.557660
    26  H    3.010270   3.440767   2.897070   2.054054   2.200308
    27  H    4.820100   4.832848   6.143360   6.093734   6.778576
                   16         17         18         19         20
    16  H    0.000000
    17  H    3.621685   0.000000
    18  H    4.728053   2.765577   0.000000
    19  H    4.296523   3.077737   2.711372   0.000000
    20  H    5.489064   5.811774   8.077879   8.479650   0.000000
    21  H    4.644457   4.530621   6.633061   7.316618   1.550936
    22  H    5.012067   2.226744   1.551209   2.141763   8.011056
    23  O    4.482678   7.048388   8.729499   8.672126   3.870989
    24  C    2.572085   3.064123   2.865924   2.033495   7.465145
    25  H    2.548660   3.556307   3.727014   2.193981   7.640902
    26  H    2.760142   3.765991   3.064148   2.750961   7.836464
    27  H    2.274797   4.931653   6.540878   6.420330   3.862303
                   21         22         23         24         25
    21  H    0.000000
    22  H    6.663740   0.000000
    23  O    4.293895   9.012480   0.000000
    24  C    6.322068   3.177209   7.045310   0.000000
    25  H    6.642352   3.785602   6.973870   0.951303   0.000000
    26  H    6.670139   3.757145   7.110420   0.946204   1.550542
    27  H    3.517907   6.797985   2.264312   4.812870   4.793425
                   26         27
    26  H    0.000000
    27  H    4.952505   0.000000
 Stoichiometry    C9H14N2O2
 Framework group  C1[X(C9H14N2O2)]
 Deg. of freedom    75
 Full point group                 C1      NOp   1
 Largest Abelian subgroup         C1      NOp   1
 Largest concise Abelian subgroup C1      NOp   1
                         Standard orientation:                         
 ---------------------------------------------------------------------
 Center     Atomic      Atomic             Coordinates (Angstroms)
 Number     Number       Type             X           Y           Z
 ---------------------------------------------------------------------
      1          8           0       -4.826559    0.202667   -0.075695
      2          7           0       -3.737568   -0.426607    0.043772
      3          6           0       -2.549999    0.352808   -0.035885
      4          6           0       -1.384145   -0.298599   -0.029341
      5          6           0       -2.728556    1.825438   -0.025539
      6          6           0       -0.066591    0.228477   -0.025715
      7          1           0        0.062041    1.171439   -0.015893
      8          1           0       -3.175114    2.085990    0.769894
      9          6           0        1.009941   -0.616339   -0.030078
     10          7           0        2.286994   -0.278366    0.000255
     11          6           0        2.768970    1.097914    0.037964
     12          1           0        2.404417    1.567284    0.776568
     13          6           0        4.294241    0.944057    0.173502
     14          6           0        4.595750   -0.438049   -0.199790
     15          1           0        5.310046   -0.760681    0.335908
     16          1           0        0.813781   -1.543962   -0.058125
     17          1           0        2.547156    1.555680   -0.768214
     18          1           0        4.560956    1.107872    1.073659
     19          1           0        4.837967   -0.470511   -1.113465
     20          1           0       -3.240411    2.085446   -0.779758
     21          1           0       -1.874891    2.243123   -0.061499
     22          1           0        4.743672    1.547653   -0.402640
     23          8           0       -3.664040   -1.656153    0.117754
     24          6           0        3.370956   -1.283933    0.036024
     25          1           0        3.261396   -1.926388   -0.656959
     26          1           0        3.405796   -1.723118    0.873404
     27          1           0       -1.441399   -1.247777   -0.024402
 ---------------------------------------------------------------------
 Rotational constants (GHZ):      2.7211428      0.2626062      0.2412260
 Leave Link  202 at Fri Aug 20 15:46:18 2021, MaxMem= 24159191040 cpu:         1.2
 (Enter /public/home/users/caep010/software/Gaussian09/g09/l301.exe)
 Standard basis: 6-31G(d,p) (6D, 7F)
 Ernie: Thresh=  0.10000D-02 Tol=  0.10000D-05 Strict=F.
 There are   265 symmetry adapted cartesian basis functions of A   symmetry.
 There are   265 symmetry adapted basis functions of A   symmetry.
   265 basis functions,   462 primitive gaussians,   265 cartesian basis functions
    49 alpha electrons       49 beta electrons
       nuclear repulsion energy       776.2726544901 Hartrees.
 IExCor=  402 DFT=T Ex+Corr=B3LYP ExCW=0 ScaHFX=  0.200000
 ScaDFX=  0.800000  0.720000  1.000000  0.810000 ScalE2=  1.000000  1.000000
 IRadAn=      0 IRanWt=     -1 IRanGd=            0 ICorTp=0 IEmpDi=  4
 NAtoms=   27 NActive=   27 NUniq=   27 SFac= 1.00D+00 NAtFMM=   60 NAOKFM=F Big=F
 Integral buffers will be    131072 words long.
 Raffenetti 2 integral format.
 Two-electron integral symmetry is turned on.
 Leave Link  301 at Fri Aug 20 15:46:19 2021, MaxMem= 24159191040 cpu:         2.3
 (Enter /public/home/users/caep010/software/Gaussian09/g09/l302.exe)
 NPDir=0 NMtPBC=     1 NCelOv=     1 NCel=       1 NClECP=     1 NCelD=      1
         NCelK=      1 NCelE2=     1 NClLst=     1 CellRange=     0.0.
 One-electron integrals computed using PRISM.
 NBasis=   265 RedAO= T EigKep=  8.64D-04  NBF=   265
 NBsUse=   265 1.00D-06 EigRej= -1.00D+00 NBFU=   265
 Precomputing XC quadrature grid using
 IXCGrd= 4 IRadAn=           0 IRanWt=          -1 IRanGd=           0 AccXCQ= 0.00D+00.
 Generated NRdTot=       0 NPtTot=           0 NUsed=           0 NTot=          32
 NSgBfM=   263   263   263   263   263 MxSgAt=    27 MxSgA2=    27.
 Leave Link  302 at Fri Aug 20 15:46:19 2021, MaxMem= 24159191040 cpu:        13.0
 (Enter /public/home/users/caep010/software/Gaussian09/g09/l303.exe)
 DipDrv:  MaxL=1.
 Leave Link  303 at Fri Aug 20 15:46:19 2021, MaxMem= 24159191040 cpu:         1.1
 (Enter /public/home/users/caep010/software/Gaussian09/g09/l401.exe)
 ExpMin= 1.61D-01 ExpMax= 5.48D+03 ExpMxC= 8.25D+02 IAcc=1 IRadAn=         1 AccDes= 0.00D+00
 Harris functional with IExCor=  402 and IRadAn=       1 diagonalized for initial guess.
 HarFok:  IExCor=  402 AccDes= 0.00D+00 IRadAn=         1 IDoV= 1 UseB2=F ITyADJ=14
 ICtDFT=  3500011 ScaDFX=  1.000000  1.000000  1.000000  1.000000
 FoFCou: FMM=F IPFlag=           0 FMFlag=      100000 FMFlg1=           0
         NFxFlg=           0 DoJE=T BraDBF=F KetDBF=T FulRan=T
         wScrn=  0.000000 ICntrl=     500 IOpCl=  0 I1Cent=   200000004 NGrid=           0
         NMat0=    1 NMatS0=      1 NMatT0=    0 NMatD0=    1 NMtDS0=    0 NMtDT0=    0
 Petite list used in FoFCou.
 Harris En= -611.240311437302    
 JPrj=0 DoOrth=F DoCkMO=F.
 Leave Link  401 at Fri Aug 20 15:46:20 2021, MaxMem= 24159191040 cpu:        13.3
 (Enter /public/home/users/caep010/software/Gaussian09/g09/l502.exe)
 Closed shell SCF:
 Using DIIS extrapolation, IDIIS=  1040.
 Integral symmetry usage will be decided dynamically.
 Keep R1 ints in memory in canonical form, NReq=630772758.
 IVT=      239708 IEndB=      239708 NGot= 24159191040 MDV= 23537828698
 LenX= 23537828698 LenY= 23537758032
 Requested convergence on RMS density matrix=1.00D-08 within 128 cycles.
 Requested convergence on MAX density matrix=1.00D-06.
 Requested convergence on             energy=1.00D-06.
 No special actions if energy rises.
 FoFCou: FMM=F IPFlag=           0 FMFlag=           0 FMFlg1=           0
         NFxFlg=           0 DoJE=F BraDBF=F KetDBF=F FulRan=T
         wScrn=  0.000000 ICntrl=     600 IOpCl=  0 I1Cent=           0 NGrid=           0
         NMat0=    1 NMatS0=  35245 NMatT0=    0 NMatD0=    1 NMtDS0=    0 NMtDT0=    0
 Symmetry not used in FoFCou.
 Integral accuracy reduced to 1.0D-05 until final iterations.

 Cycle   1  Pass 0  IDiag  1:
 E= -610.452833966773    
 DIIS: error= 5.03D-02 at cycle   1 NSaved=   1.
 NSaved= 1 IEnMin= 1 EnMin= -610.452833966773     IErMin= 1 ErrMin= 5.03D-02
 ErrMax= 5.03D-02  0.00D+00 EMaxC= 1.00D-01 BMatC= 5.84D-01 BMatP= 5.84D-01
 IDIUse=3 WtCom= 4.97D-01 WtEn= 5.03D-01
 Coeff-Com:  0.100D+01
 Coeff-En:   0.100D+01
 Coeff:      0.100D+01
 Gap=     0.103 Goal=   None    Shift=    0.000
 GapD=    0.103 DampG=1.000 DampE=0.500 DampFc=0.5000 IDamp=-1.
 Damping current iteration by 5.00D-01
 RMSDP=5.70D-03 MaxDP=2.46D-01              OVMax= 3.32D-01

 Cycle   2  Pass 0  IDiag  1:
 E= -610.649148697110     Delta-E=       -0.196314730337 Rises=F Damp=T
 DIIS: error= 1.80D-02 at cycle   2 NSaved=   2.
 NSaved= 2 IEnMin= 2 EnMin= -610.649148697110     IErMin= 2 ErrMin= 1.80D-02
 ErrMax= 1.80D-02  0.00D+00 EMaxC= 1.00D-01 BMatC= 7.19D-02 BMatP= 5.84D-01
 IDIUse=3 WtCom= 8.20D-01 WtEn= 1.80D-01
 Coeff-Com:  0.175D+00 0.825D+00
 Coeff-En:   0.247D+00 0.753D+00
 Coeff:      0.188D+00 0.812D+00
 Gap=     0.147 Goal=   None    Shift=    0.000
 RMSDP=1.68D-03 MaxDP=9.29D-02 DE=-1.96D-01 OVMax= 2.15D-01

 Cycle   3  Pass 0  IDiag  1:
 E= -610.954628732349     Delta-E=       -0.305480035238 Rises=F Damp=F
 DIIS: error= 1.74D-02 at cycle   3 NSaved=   3.
 NSaved= 3 IEnMin= 3 EnMin= -610.954628732349     IErMin= 3 ErrMin= 1.74D-02
 ErrMax= 1.74D-02  0.00D+00 EMaxC= 1.00D-01 BMatC= 4.65D-02 BMatP= 7.19D-02
 IDIUse=3 WtCom= 8.26D-01 WtEn= 1.74D-01
 Coeff-Com:  0.360D-01 0.439D+00 0.525D+00
 Coeff-En:   0.000D+00 0.000D+00 0.100D+01
 Coeff:      0.297D-01 0.363D+00 0.608D+00
 Gap=     0.135 Goal=   None    Shift=    0.000
 RMSDP=1.07D-03 MaxDP=5.54D-02 DE=-3.05D-01 OVMax= 7.03D-02

 Cycle   4  Pass 0  IDiag  1:
 E= -610.981569819107     Delta-E=       -0.026941086759 Rises=F Damp=F
 DIIS: error= 9.63D-03 at cycle   4 NSaved=   4.
 NSaved= 4 IEnMin= 4 EnMin= -610.981569819107     IErMin= 4 ErrMin= 9.63D-03
 ErrMax= 9.63D-03  0.00D+00 EMaxC= 1.00D-01 BMatC= 1.58D-02 BMatP= 4.65D-02
 IDIUse=3 WtCom= 9.04D-01 WtEn= 9.63D-02
 Coeff-Com:  0.199D-01 0.126D+00 0.375D+00 0.479D+00
 Coeff-En:   0.000D+00 0.000D+00 0.268D+00 0.732D+00
 Coeff:      0.180D-01 0.114D+00 0.365D+00 0.503D+00
 Gap=     0.133 Goal=   None    Shift=    0.000
 RMSDP=5.20D-04 MaxDP=3.74D-02 DE=-2.69D-02 OVMax= 6.57D-02

 Cycle   5  Pass 0  IDiag  1:
 E= -610.991037757862     Delta-E=       -0.009467938755 Rises=F Damp=F
 DIIS: error= 8.65D-03 at cycle   5 NSaved=   5.
 NSaved= 5 IEnMin= 5 EnMin= -610.991037757862     IErMin= 5 ErrMin= 8.65D-03
 ErrMax= 8.65D-03  0.00D+00 EMaxC= 1.00D-01 BMatC= 4.09D-03 BMatP= 1.58D-02
 IDIUse=3 WtCom= 9.13D-01 WtEn= 8.65D-02
 Coeff-Com:  0.107D-01 0.233D-01 0.209D+00 0.400D+00 0.357D+00
 Coeff-En:   0.000D+00 0.000D+00 0.000D+00 0.209D+00 0.791D+00
 Coeff:      0.977D-02 0.212D-01 0.191D+00 0.384D+00 0.395D+00
 Gap=     0.134 Goal=   None    Shift=    0.000
 RMSDP=2.53D-04 MaxDP=1.79D-02 DE=-9.47D-03 OVMax= 3.87D-02

 Cycle   6  Pass 0  IDiag  1:
 E= -610.993959415793     Delta-E=       -0.002921657931 Rises=F Damp=F
 DIIS: error= 2.71D-03 at cycle   6 NSaved=   6.
 NSaved= 6 IEnMin= 6 EnMin= -610.993959415793     IErMin= 6 ErrMin= 2.71D-03
 ErrMax= 2.71D-03  0.00D+00 EMaxC= 1.00D-01 BMatC= 4.66D-04 BMatP= 4.09D-03
 IDIUse=3 WtCom= 9.73D-01 WtEn= 2.71D-02
 Coeff-Com:  0.330D-02-0.111D-02 0.731D-01 0.178D+00 0.282D+00 0.465D+00
 Coeff-En:   0.000D+00 0.000D+00 0.000D+00 0.000D+00 0.144D+00 0.856D+00
 Coeff:      0.321D-02-0.108D-02 0.712D-01 0.173D+00 0.278D+00 0.475D+00
 Gap=     0.135 Goal=   None    Shift=    0.000
 RMSDP=8.02D-05 MaxDP=5.31D-03 DE=-2.92D-03 OVMax= 9.65D-03

 Cycle   7  Pass 0  IDiag  1:
 E= -610.994330000074     Delta-E=       -0.000370584281 Rises=F Damp=F
 DIIS: error= 2.37D-04 at cycle   7 NSaved=   7.
 NSaved= 7 IEnMin= 7 EnMin= -610.994330000074     IErMin= 7 ErrMin= 2.37D-04
 ErrMax= 2.37D-04  0.00D+00 EMaxC= 1.00D-01 BMatC= 1.76D-05 BMatP= 4.66D-04
 IDIUse=3 WtCom= 9.98D-01 WtEn= 2.37D-03
 Coeff-Com:  0.110D-02-0.303D-02 0.226D-01 0.643D-01 0.126D+00 0.274D+00
 Coeff-Com:  0.515D+00
 Coeff-En:   0.000D+00 0.000D+00 0.000D+00 0.000D+00 0.000D+00 0.000D+00
 Coeff-En:   0.100D+01
 Coeff:      0.109D-02-0.302D-02 0.225D-01 0.641D-01 0.126D+00 0.274D+00
 Coeff:      0.516D+00
 Gap=     0.135 Goal=   None    Shift=    0.000
 RMSDP=2.01D-05 MaxDP=1.14D-03 DE=-3.71D-04 OVMax= 2.56D-03

 Cycle   8  Pass 0  IDiag  1:
 E= -610.994344262835     Delta-E=       -0.000014262761 Rises=F Damp=F
 DIIS: error= 6.93D-05 at cycle   8 NSaved=   8.
 NSaved= 8 IEnMin= 8 EnMin= -610.994344262835     IErMin= 8 ErrMin= 6.93D-05
 ErrMax= 6.93D-05  0.00D+00 EMaxC= 1.00D-01 BMatC= 1.89D-06 BMatP= 1.76D-05
 IDIUse=1 WtCom= 1.00D+00 WtEn= 0.00D+00
 Coeff-Com:  0.393D-03-0.189D-02 0.772D-02 0.246D-01 0.534D-01 0.128D+00
 Coeff-Com:  0.321D+00 0.467D+00
 Coeff:      0.393D-03-0.189D-02 0.772D-02 0.246D-01 0.534D-01 0.128D+00
 Coeff:      0.321D+00 0.467D+00
 Gap=     0.135 Goal=   None    Shift=    0.000
 RMSDP=7.81D-06 MaxDP=3.46D-04 DE=-1.43D-05 OVMax= 1.13D-03

 Initial convergence to 1.0D-05 achieved.  Increase integral accuracy.
 Cycle   9  Pass 1  IDiag  1:
 E= -610.994332895228     Delta-E=        0.000011367607 Rises=F Damp=F
 DIIS: error= 2.54D-05 at cycle   1 NSaved=   1.
 NSaved= 1 IEnMin= 1 EnMin= -610.994332895228     IErMin= 1 ErrMin= 2.54D-05
 ErrMax= 2.54D-05  0.00D+00 EMaxC= 1.00D-01 BMatC= 3.02D-07 BMatP= 3.02D-07
 IDIUse=1 WtCom= 1.00D+00 WtEn= 0.00D+00
 Coeff-Com:  0.100D+01
 Coeff:      0.100D+01
 Gap=     0.135 Goal=   None    Shift=    0.000
 RMSDP=7.81D-06 MaxDP=3.46D-04 DE= 1.14D-05 OVMax= 7.78D-04

 Cycle  10  Pass 1  IDiag  1:
 E= -610.994332298185     Delta-E=        0.000000597043 Rises=F Damp=F
 DIIS: error= 5.97D-05 at cycle   2 NSaved=   2.
 NSaved= 2 IEnMin= 1 EnMin= -610.994332895228     IErMin= 1 ErrMin= 2.54D-05
 ErrMax= 5.97D-05  0.00D+00 EMaxC= 1.00D-01 BMatC= 9.34D-07 BMatP= 3.02D-07
 IDIUse=1 WtCom= 1.00D+00 WtEn= 0.00D+00
 Coeff-Com:  0.648D+00 0.352D+00
 Coeff:      0.648D+00 0.352D+00
 Gap=     0.135 Goal=   None    Shift=    0.000
 RMSDP=4.28D-06 MaxDP=2.78D-04 DE= 5.97D-07 OVMax= 6.37D-04

 Cycle  11  Pass 1  IDiag  1:
 E= -610.994333165892     Delta-E=       -0.000000867707 Rises=F Damp=F
 DIIS: error= 8.03D-06 at cycle   3 NSaved=   3.
 NSaved= 3 IEnMin= 3 EnMin= -610.994333165892     IErMin= 3 ErrMin= 8.03D-06
 ErrMax= 8.03D-06  0.00D+00 EMaxC= 1.00D-01 BMatC= 2.11D-08 BMatP= 3.02D-07
 IDIUse=1 WtCom= 1.00D+00 WtEn= 0.00D+00
 Coeff-Com:  0.123D+00 0.149D+00 0.727D+00
 Coeff:      0.123D+00 0.149D+00 0.727D+00
 Gap=     0.135 Goal=   None    Shift=    0.000
 RMSDP=9.10D-07 MaxDP=4.79D-05 DE=-8.68D-07 OVMax= 1.20D-04

 Cycle  12  Pass 1  IDiag  1:
 E= -610.994333179729     Delta-E=       -0.000000013838 Rises=F Damp=F
 DIIS: error= 4.36D-06 at cycle   4 NSaved=   4.
 NSaved= 4 IEnMin= 4 EnMin= -610.994333179729     IErMin= 4 ErrMin= 4.36D-06
 ErrMax= 4.36D-06  0.00D+00 EMaxC= 1.00D-01 BMatC= 8.20D-09 BMatP= 2.11D-08
 IDIUse=1 WtCom= 1.00D+00 WtEn= 0.00D+00
 Coeff-Com: -0.678D-02 0.502D-01 0.474D+00 0.482D+00
 Coeff:     -0.678D-02 0.502D-01 0.474D+00 0.482D+00
 Gap=     0.135 Goal=   None    Shift=    0.000
 RMSDP=3.89D-07 MaxDP=2.38D-05 DE=-1.38D-08 OVMax= 3.98D-05

 Cycle  13  Pass 1  IDiag  1:
 E= -610.994333187106     Delta-E=       -0.000000007377 Rises=F Damp=F
 DIIS: error= 2.87D-06 at cycle   5 NSaved=   5.
 NSaved= 5 IEnMin= 5 EnMin= -610.994333187106     IErMin= 5 ErrMin= 2.87D-06
 ErrMax= 2.87D-06  0.00D+00 EMaxC= 1.00D-01 BMatC= 5.38D-10 BMatP= 8.20D-09
 IDIUse=1 WtCom= 1.00D+00 WtEn= 0.00D+00
 Coeff-Com: -0.930D-02 0.258D-01 0.272D+00 0.311D+00 0.400D+00
 Coeff:     -0.930D-02 0.258D-01 0.272D+00 0.311D+00 0.400D+00
 Gap=     0.135 Goal=   None    Shift=    0.000
 RMSDP=1.00D-07 MaxDP=6.62D-06 DE=-7.38D-09 OVMax= 1.47D-05

 Cycle  14  Pass 1  IDiag  1:
 E= -610.994333187446     Delta-E=       -0.000000000340 Rises=F Damp=F
 DIIS: error= 1.49D-06 at cycle   6 NSaved=   6.
 NSaved= 6 IEnMin= 6 EnMin= -610.994333187446     IErMin= 6 ErrMin= 1.49D-06
 ErrMax= 1.49D-06  0.00D+00 EMaxC= 1.00D-01 BMatC= 1.30D-10 BMatP= 5.38D-10
 IDIUse=1 WtCom= 1.00D+00 WtEn= 0.00D+00
 Coeff-Com: -0.573D-02 0.974D-02 0.115D+00 0.145D+00 0.314D+00 0.422D+00
 Coeff:     -0.573D-02 0.974D-02 0.115D+00 0.145D+00 0.314D+00 0.422D+00
 Gap=     0.135 Goal=   None    Shift=    0.000
 RMSDP=4.14D-08 MaxDP=2.86D-06 DE=-3.40D-10 OVMax= 5.83D-06

 Cycle  15  Pass 1  IDiag  1:
 E= -610.994333187557     Delta-E=       -0.000000000111 Rises=F Damp=F
 DIIS: error= 1.78D-07 at cycle   7 NSaved=   7.
 NSaved= 7 IEnMin= 7 EnMin= -610.994333187557     IErMin= 7 ErrMin= 1.78D-07
 ErrMax= 1.78D-07  0.00D+00 EMaxC= 1.00D-01 BMatC= 5.71D-12 BMatP= 1.30D-10
 IDIUse=1 WtCom= 1.00D+00 WtEn= 0.00D+00
 Coeff-Com: -0.274D-02 0.373D-02 0.473D-01 0.635D-01 0.153D+00 0.253D+00
 Coeff-Com:  0.482D+00
 Coeff:     -0.274D-02 0.373D-02 0.473D-01 0.635D-01 0.153D+00 0.253D+00
 Coeff:      0.482D+00
 Gap=     0.135 Goal=   None    Shift=    0.000
 RMSDP=8.72D-09 MaxDP=5.11D-07 DE=-1.11D-10 OVMax= 7.03D-07

 SCF Done:  E(RB3LYP) =  -610.994333188     A.U. after   15 cycles
            NFock= 15  Conv=0.87D-08     -V/T= 2.0029
 KE= 6.092353694534D+02 PE=-2.977029016205D+03 EE= 9.805266590743D+02
 Leave Link  502 at Fri Aug 20 15:46:40 2021, MaxMem= 24159191040 cpu:       151.9
 (Enter /public/home/users/caep010/software/Gaussian09/g09/l601.exe)
 Copying SCF densities to generalized density rwf, IOpCl= 0 IROHF=0.

 **********************************************************************

            Population analysis using the SCF density.

 **********************************************************************

 Orbital symmetries:
       Occupied  (A) (A) (A) (A) (A) (A) (A) (A) (A) (A) (A) (A)
                 (A) (A) (A) (A) (A) (A) (A) (A) (A) (A) (A) (A)
                 (A) (A) (A) (A) (A) (A) (A) (A) (A) (A) (A) (A)
                 (A) (A) (A) (A) (A) (A) (A) (A) (A) (A) (A) (A)
                 (A)
       Virtual   (A) (A) (A) (A) (A) (A) (A) (A) (A) (A) (A) (A)
                 (A) (A) (A) (A) (A) (A) (A) (A) (A) (A) (A) (A)
                 (A) (A) (A) (A) (A) (A) (A) (A) (A) (A) (A) (A)
                 (A) (A) (A) (A) (A) (A) (A) (A) (A) (A) (A) (A)
                 (A) (A) (A) (A) (A) (A) (A) (A) (A) (A) (A) (A)
                 (A) (A) (A) (A) (A) (A) (A) (A) (A) (A) (A) (A)
                 (A) (A) (A) (A) (A) (A) (A) (A) (A) (A) (A) (A)
                 (A) (A) (A) (A) (A) (A) (A) (A) (A) (A) (A) (A)
                 (A) (A) (A) (A) (A) (A) (A) (A) (A) (A) (A) (A)
                 (A) (A) (A) (A) (A) (A) (A) (A) (A) (A) (A) (A)
                 (A) (A) (A) (A) (A) (A) (A) (A) (A) (A) (A) (A)
                 (A) (A) (A) (A) (A) (A) (A) (A) (A) (A) (A) (A)
                 (A) (A) (A) (A) (A) (A) (A) (A) (A) (A) (A) (A)
                 (A) (A) (A) (A) (A) (A) (A) (A) (A) (A) (A) (A)
                 (A) (A) (A) (A) (A) (A) (A) (A) (A) (A) (A) (A)
                 (A) (A) (A) (A) (A) (A) (A) (A) (A) (A) (A) (A)
                 (A) (A) (A) (A) (A) (A) (A) (A) (A) (A) (A) (A)
                 (A) (A) (A) (A) (A) (A) (A) (A) (A) (A) (A) (A)
 The electronic state is 1-A.
 Alpha  occ. eigenvalues --  -19.13346 -19.12974 -14.52232 -14.38068 -10.22743
 Alpha  occ. eigenvalues --  -10.21421 -10.21232 -10.20437 -10.17911 -10.17704
 Alpha  occ. eigenvalues --  -10.17434 -10.16664 -10.13163  -1.16787  -0.99349
 Alpha  occ. eigenvalues --   -0.99014  -0.85978  -0.83815  -0.79682  -0.77873
 Alpha  occ. eigenvalues --   -0.72500  -0.70651  -0.65459  -0.64743  -0.60330
 Alpha  occ. eigenvalues --   -0.57026  -0.55829  -0.52162  -0.51432  -0.49311
 Alpha  occ. eigenvalues --   -0.48893  -0.48014  -0.47062  -0.46697  -0.43872
 Alpha  occ. eigenvalues --   -0.43018  -0.42262  -0.40972  -0.40185  -0.39158
 Alpha  occ. eigenvalues --   -0.37971  -0.37279  -0.36606  -0.35252  -0.28764
 Alpha  occ. eigenvalues --   -0.26534  -0.26243  -0.24350  -0.19071
 Alpha virt. eigenvalues --   -0.05576   0.02522   0.07835   0.09963   0.10098
 Alpha virt. eigenvalues --    0.12266   0.12680   0.13061   0.13905   0.15617
 Alpha virt. eigenvalues --    0.16835   0.17737   0.18167   0.20035   0.20541
 Alpha virt. eigenvalues --    0.22045   0.22733   0.23103   0.23967   0.24047
 Alpha virt. eigenvalues --    0.25214   0.26195   0.28600   0.30174   0.31159
 Alpha virt. eigenvalues --    0.33486   0.35733   0.39777   0.41310   0.45321
 Alpha virt. eigenvalues --    0.47309   0.48963   0.49641   0.50075   0.50555
 Alpha virt. eigenvalues --    0.51385   0.54642   0.55224   0.56303   0.58327
 Alpha virt. eigenvalues --    0.59000   0.61106   0.61522   0.63367   0.63664
 Alpha virt. eigenvalues --    0.65649   0.66712   0.67893   0.68984   0.70114
 Alpha virt. eigenvalues --    0.71893   0.74274   0.77480   0.79810   0.80689
 Alpha virt. eigenvalues --    0.81111   0.82994   0.83453   0.87270   0.88395
 Alpha virt. eigenvalues --    0.88488   0.90132   0.90390   0.91025   0.92915
 Alpha virt. eigenvalues --    0.93525   0.94445   0.97114   0.97282   0.99188
 Alpha virt. eigenvalues --    0.99944   1.00421   1.01030   1.02858   1.02993
 Alpha virt. eigenvalues --    1.04424   1.04889   1.05699   1.06265   1.08364
 Alpha virt. eigenvalues --    1.08959   1.10250   1.13834   1.16753   1.22291
 Alpha virt. eigenvalues --    1.25054   1.26873   1.28316   1.29144   1.31182
 Alpha virt. eigenvalues --    1.33321   1.35305   1.38618   1.43486   1.44167
 Alpha virt. eigenvalues --    1.45692   1.47994   1.49450   1.50672   1.58971
 Alpha virt. eigenvalues --    1.62705   1.65216   1.66647   1.67337   1.68527
 Alpha virt. eigenvalues --    1.69196   1.72133   1.74049   1.74972   1.75915
 Alpha virt. eigenvalues --    1.79790   1.82750   1.83537   1.85304   1.85967
 Alpha virt. eigenvalues --    1.86220   1.89579   1.91508   1.92935   1.93787
 Alpha virt. eigenvalues --    1.95511   1.99943   2.01330   2.03100   2.03408
 Alpha virt. eigenvalues --    2.05651   2.06365   2.07489   2.09024   2.11616
 Alpha virt. eigenvalues --    2.13352   2.13490   2.14234   2.20099   2.21893
 Alpha virt. eigenvalues --    2.23623   2.26572   2.27755   2.28494   2.30444
 Alpha virt. eigenvalues --    2.32525   2.33424   2.34632   2.35816   2.38644
 Alpha virt. eigenvalues --    2.40016   2.40386   2.42141   2.45520   2.46585
 Alpha virt. eigenvalues --    2.47813   2.49449   2.51570   2.52438   2.53433
 Alpha virt. eigenvalues --    2.56848   2.59594   2.60394   2.61582   2.65548
 Alpha virt. eigenvalues --    2.67182   2.68661   2.71430   2.72840   2.76419
 Alpha virt. eigenvalues --    2.77476   2.79702   2.80476   2.82971   2.83773
 Alpha virt. eigenvalues --    2.88034   2.89627   2.90958   2.92316   2.93330
 Alpha virt. eigenvalues --    2.95311   2.98129   3.01054   3.03885   3.04862
 Alpha virt. eigenvalues --    3.10933   3.15266   3.17173   3.19282   3.27281
 Alpha virt. eigenvalues --    3.29389   3.32632   3.37859   3.38359   3.68189
 Alpha virt. eigenvalues --    3.71589   3.73006   3.74301   3.74438   3.77746
 Alpha virt. eigenvalues --    3.80092   3.82085   3.83192   3.83923   3.85032
 Alpha virt. eigenvalues --    3.85300   3.89893   3.91106   3.94593   3.95516
 Alpha virt. eigenvalues --    3.98516   4.10204   4.14437   4.23823   4.32159
 Alpha virt. eigenvalues --    4.38794   4.42364   4.54060   4.66271   4.73754
 Alpha virt. eigenvalues --    4.78315
          Condensed to atoms (all electrons):
               1          2          3          4          5          6
     1  O    8.320036   0.287812  -0.103665   0.007272   0.002785  -0.000035
     2  N    0.287812   5.903708   0.227687  -0.012476  -0.061623   0.004299
     3  C   -0.103665   0.227687   5.041418   0.526392   0.410478  -0.039269
     4  C    0.007272  -0.012476   0.526392   4.888242  -0.092235   0.435158
     5  C    0.002785  -0.061623   0.410478  -0.092235   4.880960  -0.011468
     6  C   -0.000035   0.004299  -0.039269   0.435158  -0.011468   4.918666
     7  H   -0.000001  -0.000031  -0.013544  -0.050329   0.002720   0.381369
     8  H    0.004371  -0.003830  -0.026124   0.002523   0.398435   0.000630
     9  C    0.000000  -0.000149   0.004537   0.008619   0.000453   0.574489
    10  N   -0.000000   0.000000  -0.000138   0.002725  -0.000000  -0.040515
    11  C    0.000000  -0.000000  -0.000004   0.000118   0.000000  -0.007748
    12  H    0.000000  -0.000000  -0.000012   0.000073   0.000004   0.005207
    13  C    0.000000  -0.000000  -0.000000  -0.000008  -0.000000   0.000163
    14  C   -0.000000   0.000000  -0.000000   0.000003   0.000000  -0.000369
    15  H    0.000000  -0.000000   0.000000  -0.000000   0.000000   0.000010
    16  H   -0.000000  -0.000002   0.000383  -0.013097  -0.000005  -0.055663
    17  H    0.000000   0.000000  -0.000007   0.000047   0.000001   0.003724
    18  H   -0.000000   0.000000  -0.000000   0.000000   0.000000  -0.000005
    19  H   -0.000000   0.000000   0.000000  -0.000000  -0.000000  -0.000002
    20  H    0.009081  -0.005696  -0.017888   0.004917   0.385184   0.000387
    21  H    0.001772   0.005319  -0.022788  -0.011846   0.366896   0.001653
    22  H    0.000000   0.000000  -0.000000   0.000000   0.000000   0.000011
    23  O   -0.094609   0.293749  -0.099513  -0.015175   0.006264   0.001403
    24  C    0.000000  -0.000000   0.000001  -0.000058   0.000000   0.004404
    25  H    0.000000   0.000000  -0.000000   0.000005  -0.000000   0.000148
    26  H   -0.000000  -0.000000  -0.000000   0.000006   0.000000   0.000034
    27  H    0.000659  -0.023290  -0.040286   0.356538   0.010024  -0.061371
               7          8          9         10         11         12
     1  O   -0.000001   0.004371   0.000000  -0.000000   0.000000   0.000000
     2  N   -0.000031  -0.003830  -0.000149   0.000000  -0.000000  -0.000000
     3  C   -0.013544  -0.026124   0.004537  -0.000138  -0.000004  -0.000012
     4  C   -0.050329   0.002523   0.008619   0.002725   0.000118   0.000073
     5  C    0.002720   0.398435   0.000453  -0.000000   0.000000   0.000004
     6  C    0.381369   0.000630   0.574489  -0.040515  -0.007748   0.005207
     7  H    0.683706  -0.000090  -0.064827  -0.012260   0.007222   0.000467
     8  H   -0.000090   0.559275  -0.000009  -0.000000  -0.000000   0.000001
     9  C   -0.064827  -0.000009   4.626131   0.366386  -0.041856  -0.002965
    10  N   -0.012260  -0.000000   0.366386   6.868127   0.330853  -0.045312
    11  C    0.007222  -0.000000  -0.041856   0.330853   4.685669   0.402607
    12  H    0.000467   0.000001  -0.002965  -0.045312   0.402607   0.610898
    13  C   -0.000059  -0.000000   0.006580  -0.050837   0.391498  -0.030171
    14  C    0.000010   0.000000   0.004724  -0.053881  -0.064553   0.005301
    15  H   -0.000000   0.000000  -0.000125   0.004352   0.007000  -0.000110
    16  H    0.010531   0.000000   0.386805  -0.060732   0.006668  -0.000192
    17  H    0.000326  -0.000000  -0.002821  -0.045067   0.404927  -0.065078
    18  H    0.000004   0.000000  -0.000203  -0.000456  -0.031137  -0.010818
    19  H   -0.000000  -0.000000  -0.000138   0.000446   0.002022  -0.000099
    20  H   -0.000112  -0.033490  -0.000007  -0.000000   0.000000  -0.000000
    21  H    0.001645  -0.035665   0.000197   0.000003  -0.000014  -0.000001
    22  H    0.000005  -0.000000  -0.000238   0.003301  -0.029474   0.003477
    23  O   -0.000003   0.000040  -0.000042  -0.000000   0.000000   0.000000
    24  C   -0.000054  -0.000000  -0.034735   0.323274  -0.081788   0.004559
    25  H   -0.000002  -0.000000  -0.002362  -0.041391   0.004847  -0.000554
    26  H   -0.000005   0.000000  -0.001503  -0.045486   0.004130   0.000830
    27  H    0.009150  -0.000289  -0.013348   0.000229   0.000015   0.000000
              13         14         15         16         17         18
     1  O    0.000000  -0.000000   0.000000  -0.000000   0.000000  -0.000000
     2  N   -0.000000   0.000000  -0.000000  -0.000002   0.000000   0.000000
     3  C   -0.000000  -0.000000   0.000000   0.000383  -0.000007  -0.000000
     4  C   -0.000008   0.000003  -0.000000  -0.013097   0.000047   0.000000
     5  C   -0.000000   0.000000   0.000000  -0.000005   0.000001   0.000000
     6  C    0.000163  -0.000369   0.000010  -0.055663   0.003724  -0.000005
     7  H   -0.000059   0.000010  -0.000000   0.010531   0.000326   0.000004
     8  H   -0.000000   0.000000   0.000000   0.000000  -0.000000   0.000000
     9  C    0.006580   0.004724  -0.000125   0.386805  -0.002821  -0.000203
    10  N   -0.050837  -0.053881   0.004352  -0.060732  -0.045067  -0.000456
    11  C    0.391498  -0.064553   0.007000   0.006668   0.404927  -0.031137
    12  H   -0.030171   0.005301  -0.000110  -0.000192  -0.065078  -0.010818
    13  C    4.849938   0.410573  -0.035786  -0.000304  -0.031256   0.410421
    14  C    0.410573   4.834757   0.401323   0.000293  -0.001883  -0.040542
    15  H   -0.035786   0.401323   0.601780  -0.000006  -0.000359  -0.014845
    16  H   -0.000304   0.000293  -0.000006   0.638011  -0.000236   0.000004
    17  H   -0.031256  -0.001883  -0.000359  -0.000236   0.610531   0.006471
    18  H    0.410421  -0.040542  -0.014845   0.000004   0.006471   0.593394
    19  H   -0.042014   0.413231  -0.041123  -0.000008   0.000863   0.008816
    20  H    0.000000  -0.000000  -0.000000   0.000000   0.000001  -0.000000
    21  H    0.000000  -0.000000   0.000000   0.000007  -0.000000  -0.000000
    22  H    0.404565  -0.032229   0.003572   0.000008  -0.009151  -0.044193
    23  O    0.000000  -0.000000   0.000000  -0.000027   0.000000   0.000000
    24  C   -0.063403   0.400359  -0.032759  -0.006949   0.004847   0.001991
    25  H    0.005867  -0.025579   0.003377   0.002465   0.000359  -0.000207
    26  H   -0.003295  -0.034791  -0.009312   0.001094  -0.000526   0.001342
    27  H    0.000000   0.000000   0.000000   0.004899   0.000002  -0.000000
              19         20         21         22         23         24
     1  O   -0.000000   0.009081   0.001772   0.000000  -0.094609   0.000000
     2  N    0.000000  -0.005696   0.005319   0.000000   0.293749  -0.000000
     3  C    0.000000  -0.017888  -0.022788  -0.000000  -0.099513   0.000001
     4  C   -0.000000   0.004917  -0.011846   0.000000  -0.015175  -0.000058
     5  C   -0.000000   0.385184   0.366896   0.000000   0.006264   0.000000
     6  C   -0.000002   0.000387   0.001653   0.000011   0.001403   0.004404
     7  H   -0.000000  -0.000112   0.001645   0.000005  -0.000003  -0.000054
     8  H   -0.000000  -0.033490  -0.035665  -0.000000   0.000040  -0.000000
     9  C   -0.000138  -0.000007   0.000197  -0.000238  -0.000042  -0.034735
    10  N    0.000446  -0.000000   0.000003   0.003301  -0.000000   0.323274
    11  C    0.002022   0.000000  -0.000014  -0.029474   0.000000  -0.081788
    12  H   -0.000099  -0.000000  -0.000001   0.003477   0.000000   0.004559
    13  C   -0.042014   0.000000   0.000000   0.404565   0.000000  -0.063403
    14  C    0.413231  -0.000000  -0.000000  -0.032229  -0.000000   0.400359
    15  H   -0.041123  -0.000000   0.000000   0.003572   0.000000  -0.032759
    16  H   -0.000008   0.000000   0.000007   0.000008  -0.000027  -0.006949
    17  H    0.000863   0.000001  -0.000000  -0.009151   0.000000   0.004847
    18  H    0.008816  -0.000000  -0.000000  -0.044193   0.000000   0.001991
    19  H    0.592434   0.000000   0.000000  -0.015414  -0.000000  -0.034612
    20  H    0.000000   0.555083  -0.033736   0.000000  -0.000015   0.000000
    21  H    0.000000  -0.033736   0.634651  -0.000000  -0.000065  -0.000000
    22  H   -0.015414   0.000000  -0.000000   0.594364  -0.000000   0.006663
    23  O   -0.000000  -0.000015  -0.000065  -0.000000   8.317327   0.000000
    24  C   -0.034612   0.000000  -0.000000   0.006663   0.000000   4.695452
    25  H   -0.012999   0.000000   0.000000  -0.000181   0.000000   0.404674
    26  H    0.007728  -0.000000  -0.000000  -0.000328   0.000000   0.406353
    27  H   -0.000000  -0.000326  -0.000354   0.000000   0.034353  -0.000005
              25         26         27
     1  O    0.000000  -0.000000   0.000659
     2  N    0.000000  -0.000000  -0.023290
     3  C   -0.000000  -0.000000  -0.040286
     4  C    0.000005   0.000006   0.356538
     5  C   -0.000000   0.000000   0.010024
     6  C    0.000148   0.000034  -0.061371
     7  H   -0.000002  -0.000005   0.009150
     8  H   -0.000000   0.000000  -0.000289
     9  C   -0.002362  -0.001503  -0.013348
    10  N   -0.041391  -0.045486   0.000229
    11  C    0.004847   0.004130   0.000015
    12  H   -0.000554   0.000830   0.000000
    13  C    0.005867  -0.003295   0.000000
    14  C   -0.025579  -0.034791   0.000000
    15  H    0.003377  -0.009312   0.000000
    16  H    0.002465   0.001094   0.004899
    17  H    0.000359  -0.000526   0.000002
    18  H   -0.000207   0.001342  -0.000000
    19  H   -0.012999   0.007728  -0.000000
    20  H    0.000000  -0.000000  -0.000326
    21  H    0.000000  -0.000000  -0.000354
    22  H   -0.000181  -0.000328   0.000000
    23  O    0.000000   0.000000   0.034353
    24  C    0.404674   0.406353  -0.000005
    25  H    0.599379  -0.060651   0.000000
    26  H   -0.060651   0.609944  -0.000002
    27  H    0.000000  -0.000002   0.639734
 Mulliken charges:
               1
     1  O   -0.435478
     2  N    0.384525
     3  C    0.152342
     4  C   -0.037413
     5  C   -0.298874
     6  C   -0.115311
     7  H    0.044160
     8  H    0.134223
     9  C    0.186408
    10  N   -0.503619
    11  C    0.008997
    12  H    0.121887
    13  C   -0.222473
    14  C   -0.216747
    15  H    0.113012
    16  H    0.086052
    17  H    0.124286
    18  H    0.119964
    19  H    0.120869
    20  H    0.136617
    21  H    0.092325
    22  H    0.115242
    23  O   -0.443688
    24  C    0.001785
    25  H    0.122804
    26  H    0.124436
    27  H    0.083667
 Sum of Mulliken charges =  -0.00000
 Mulliken charges with hydrogens summed into heavy atoms:
               1
     1  O   -0.435478
     2  N    0.384525
     3  C    0.152342
     4  C    0.046254
     5  C    0.064291
     6  C   -0.071150
     9  C    0.272460
    10  N   -0.503619
    11  C    0.255169
    13  C    0.012733
    14  C    0.017135
    23  O   -0.443688
    24  C    0.249026
 Electronic spatial extent (au):  <R**2>=           4288.6231
 Charge=             -0.0000 electrons
 Dipole moment (field-independent basis, Debye):
    X=             10.9909    Y=              1.6168    Z=              0.0342  Tot=             11.1092
 Quadrupole moment (field-independent basis, Debye-Ang):
   XX=            -92.0921   YY=            -73.4466   ZZ=            -75.3001
   XY=             -8.0101   XZ=             -0.0262   YZ=              0.4030
 Traceless Quadrupole moment (field-independent basis, Debye-Ang):
   XX=            -11.8125   YY=              6.8330   ZZ=              4.9795
   XY=             -8.0101   XZ=             -0.0262   YZ=              0.4030
 Octapole moment (field-independent basis, Debye-Ang**2):
  XXX=            221.2992  YYY=              2.2536  ZZZ=              0.6239  XYY=             16.2810
  XXY=             21.1730  XXZ=              2.2948  XZZ=             -5.4268  YZZ=             -1.1052
  YYZ=             -0.9608  XYZ=             -2.0156
 Hexadecapole moment (field-independent basis, Debye-Ang**3):
 XXXX=          -5286.0682 YYYY=           -542.6599 ZZZZ=            -96.4428 XXXY=            -75.3089
 XXXZ=             -3.9725 YYYX=            -25.1243 YYYZ=              0.6518 ZZZX=             -0.9255
 ZZZY=             -0.2834 XXYY=           -893.4665 XXZZ=           -772.6957 YYZZ=           -103.2652
 XXYZ=              1.1381 YYXZ=              1.2870 ZZXY=              3.9077
 N-N= 7.762726544901D+02 E-N=-2.977029035326D+03  KE= 6.092353694534D+02
 No NMR shielding tensors so no spin-rotation constants.
 Leave Link  601 at Fri Aug 20 15:46:40 2021, MaxMem= 24159191040 cpu:        11.7
 (Enter /public/home/users/caep010/software/Gaussian09/g09/l701.exe)
 Compute integral first derivatives.
 ... and contract with generalized density number  0.
 Leave Link  701 at Fri Aug 20 15:46:40 2021, MaxMem= 24159191040 cpu:        11.4
 (Enter /public/home/users/caep010/software/Gaussian09/g09/l702.exe)
 L702 exits ... SP integral derivatives will be done elsewhere.
 Leave Link  702 at Fri Aug 20 15:46:41 2021, MaxMem= 24159191040 cpu:         0.5
 (Enter /public/home/users/caep010/software/Gaussian09/g09/l703.exe)
 Compute integral first derivatives, UseDBF=F ICtDFT=           0.
 Integral derivatives from FoFJK, PRISM(SPDF).
 Calling FoFJK, ICntrl=      2127 FMM=F ISym2X=0 I1Cent= 0 IOpClX= 0 NMat=1 NMatS=1 NMatT=0.
 FoFJK:  IHMeth= 1 ICntrl=    2127 DoSepK=F KAlg= 0 I1Cent=   0 FoldK=F
 IRaf=         0 NMat=   1 IRICut=       1 DoRegI=T DoRafI=F ISym2E= 0.
 FoFCou: FMM=F IPFlag=           0 FMFlag=      100000 FMFlg1=         800
         NFxFlg=           0 DoJE=F BraDBF=F KetDBF=F FulRan=T
         wScrn=  0.000000 ICntrl=    2127 IOpCl=  0 I1Cent=           0 NGrid=           0
         NMat0=    1 NMatS0=      1 NMatT0=    0 NMatD0=    1 NMtDS0=    0 NMtDT0=    0
 Symmetry not used in FoFCou.
 Leave Link  703 at Fri Aug 20 15:46:42 2021, MaxMem= 24159191040 cpu:        30.7
 (Enter /public/home/users/caep010/software/Gaussian09/g09/l716.exe)
 Dipole        = 4.32414204D+00 6.36103642D-01 1.34441322D-02
 ***** Axes restored to original set *****
 -------------------------------------------------------------------
 Center     Atomic                   Forces (Hartrees/Bohr)
 Number     Number              X              Y              Z
 -------------------------------------------------------------------
      1        8           0.000943850    0.007264758   -0.019564368
      2        7           0.002250419   -0.018420263    0.026218965
      3        6          -0.005795816    0.009063225    0.010765111
      4        6          -0.105628901    0.005089392    0.036121500
      5        6           0.098463482   -0.010108765   -0.087840864
      6        6           0.105650589   -0.009747719   -0.047628720
      7        1          -0.123289093    0.010029455    0.058136419
      8        1           0.009826546    0.122445855    0.078478811
      9        6          -0.105932409    0.011378540    0.070147091
     10        7          -0.004814225    0.000186843   -0.017523287
     11        6           0.059628523   -0.004732117   -0.145126086
     12        1          -0.021446348    0.119451872    0.084417391
     13        6           0.120104965   -0.030218271    0.056478718
     14        6           0.050090846    0.047067703    0.098073514
     15        1          -0.014514744    0.072943226   -0.124183102
     16        1           0.131157795   -0.011987839   -0.057950142
     17        1          -0.041172834   -0.115869372    0.068964066
     18        1          -0.035684519    0.132980182   -0.020119542
     19        1          -0.021163609   -0.144337526   -0.033032489
     20        1           0.002885892   -0.111756100    0.094891487
     21        1          -0.121455201   -0.001288457   -0.071193416
     22        1          -0.122110249   -0.080257102   -0.002242764
     23        8           0.008073449    0.004547973   -0.001643742
     24        6          -0.134019022   -0.018329314    0.089516484
     25        1           0.084833503   -0.109277066   -0.032723369
     26        1           0.061503294    0.130690427   -0.043414882
     27        1           0.121613818   -0.006809541   -0.068022784
 -------------------------------------------------------------------
 Cartesian Forces:  Max     0.145126086 RMS     0.073357863
 Leave Link  716 at Fri Aug 20 15:46:42 2021, MaxMem= 24159191040 cpu:         0.7
 (Enter /public/home/users/caep010/software/Gaussian09/g09/l103.exe)

 GradGradGradGradGradGradGradGradGradGradGradGradGradGradGradGradGradGrad
 Berny optimization.
 FormGI is forming the generalized inverse of G from B-inverse, IUseBI=4.
 Internal  Forces:  Max     0.150762949 RMS     0.046103633
 Search for a local minimum.
 Step number   1 out of a maximum of  150
 All quantities printed in internal units (Hartrees-Bohrs-Radians)
 RMS Force = .46104D-01 SwitMx=.10000D-02 MixMth= 1
 Mixed Optimization -- RFO/linear search
 Second derivative matrix not updated -- first step.
 ITU=  0
     Eigenvalues ---    0.00632   0.00874   0.00985   0.01197   0.01391
     Eigenvalues ---    0.01455   0.01691   0.01836   0.02174   0.02391
     Eigenvalues ---    0.02506   0.02620   0.02732   0.02942   0.02950
     Eigenvalues ---    0.03165   0.04745   0.05166   0.05403   0.05781
     Eigenvalues ---    0.05997   0.06183   0.06655   0.07470   0.07652
     Eigenvalues ---    0.07707   0.07945   0.07970   0.08229   0.09274
     Eigenvalues ---    0.10099   0.11662   0.16000   0.16000   0.16000
     Eigenvalues ---    0.16000   0.16000   0.16000   0.21377   0.22000
     Eigenvalues ---    0.22000   0.22000   0.22580   0.24941   0.24960
     Eigenvalues ---    0.24984   0.25000   0.25000   0.27706   0.30536
     Eigenvalues ---    0.33015   0.34177   0.35099   0.36627   0.42052
     Eigenvalues ---    0.42600   0.51276   0.56952   0.57001   0.57287
     Eigenvalues ---    0.57387   0.57444   0.57474   0.57827   0.57979
     Eigenvalues ---    0.58011   0.58132   0.58168   0.58191   0.58223
     Eigenvalues ---    0.58550   0.58645   0.61592   0.78478   0.89455
 RFO step:  Lambda=-3.30087317D-01 EMin= 6.31991655D-03
 Linear search not attempted -- first point.
 Maximum step size (   0.300) exceeded in Quadratic search.
    -- Step size scaled by   0.496
 Iteration  1 RMS(Cart)=  0.02972279 RMS(Int)=  0.00010507
 Iteration  2 RMS(Cart)=  0.00012555 RMS(Int)=  0.00001115
 Iteration  3 RMS(Cart)=  0.00000001 RMS(Int)=  0.00001115
 ITry= 1 IFail=0 DXMaxC= 1.04D-01 DCOld= 1.00D+10 DXMaxT= 3.00D-01 DXLimC= 3.00D+00 Rises=F
 Variable       Old X    -DE/DX   Delta X   Delta X   Delta X     New X
                                 (Linear)    (Quad)   (Total)
    R1        2.38747  -0.01992   0.00000  -0.00886  -0.00886   2.37861
    R2        2.68856   0.01218   0.00000   0.00804   0.00804   2.69661
    R3        2.33185   0.00745   0.00000   0.00301   0.00301   2.33486
    R4        2.52375   0.02973   0.00000   0.01615   0.01615   2.53990
    R5        2.80332   0.01704   0.00000   0.01257   0.01257   2.81589
    R6        2.68166   0.00812   0.00000   0.00533   0.00533   2.68699
    R7        1.79697   0.13950   0.00000   0.07643   0.07643   1.87340
    R8        1.79276   0.14573   0.00000   0.07940   0.07940   1.87216
    R9        1.79120   0.14658   0.00000   0.07970   0.07970   1.87090
   R10        1.79723   0.14079   0.00000   0.07716   0.07716   1.87439
   R11        1.79854   0.13668   0.00000   0.07503   0.07503   1.87357
   R12        2.58600   0.00925   0.00000   0.00544   0.00544   2.59143
   R13        2.49702   0.02791   0.00000   0.01463   0.01463   2.51165
   R14        1.79250   0.14376   0.00000   0.07830   0.07830   1.87080
   R15        2.75659   0.00940   0.00000   0.00595   0.00592   2.76251
   R16        2.79489   0.00349   0.00000   0.00203   0.00202   2.79691
   R17        1.79150   0.14781   0.00000   0.08040   0.08040   1.87189
   R18        2.90827   0.00970   0.00000   0.00788   0.00787   2.91614
   R19        1.80137   0.14094   0.00000   0.07766   0.07766   1.87903
   R20        2.76474   0.05508   0.00000   0.04005   0.04007   2.80480
   R21        1.80095   0.13910   0.00000   0.07661   0.07661   1.87756
   R22        1.79101   0.14609   0.00000   0.07941   0.07941   1.87042
   R23        1.79403   0.14459   0.00000   0.07891   0.07891   1.87294
   R24        1.78729   0.14952   0.00000   0.08087   0.08087   1.86816
   R25        2.84794   0.02265   0.00000   0.01772   0.01774   2.86568
   R26        1.79770   0.14213   0.00000   0.07794   0.07794   1.87564
   R27        1.78807   0.15076   0.00000   0.08163   0.08163   1.86969
    A1        2.02787   0.00123   0.00000   0.00125   0.00120   2.02908
    A2        2.15715  -0.00434   0.00000  -0.00351  -0.00356   2.15360
    A3        2.09381   0.00414   0.00000   0.00374   0.00369   2.09750
    A4        2.05013  -0.00089   0.00000  -0.00075  -0.00075   2.04939
    A5        2.02971  -0.00440   0.00000  -0.00375  -0.00375   2.02596
    A6        2.20092   0.00537   0.00000   0.00461   0.00461   2.20552
    A7        2.25153  -0.00868   0.00000  -0.00782  -0.00782   2.24370
    A8        2.02009   0.00285   0.00000   0.00241   0.00241   2.02250
    A9        2.01156   0.00583   0.00000   0.00542   0.00542   2.01698
   A10        1.91256   0.00235   0.00000   0.00232   0.00232   1.91487
   A11        1.90896   0.00322   0.00000   0.00322   0.00322   1.91218
   A12        1.90464  -0.00013   0.00000  -0.00002  -0.00003   1.90461
   A13        1.91520  -0.00405   0.00000  -0.00430  -0.00430   1.91090
   A14        1.91091  -0.00059   0.00000  -0.00052  -0.00052   1.91039
   A15        1.91150  -0.00078   0.00000  -0.00067  -0.00067   1.91083
   A16        2.08691   0.00261   0.00000   0.00243   0.00243   2.08934
   A17        2.09566  -0.00382   0.00000  -0.00344  -0.00344   2.09222
   A18        2.10060   0.00121   0.00000   0.00102   0.00102   2.10162
   A19        2.21720  -0.00286   0.00000  -0.00258  -0.00258   2.21462
   A20        2.02767   0.00694   0.00000   0.00687   0.00687   2.03453
   A21        2.03832  -0.00408   0.00000  -0.00429  -0.00429   2.03403
   A22        2.16668  -0.00480   0.00000  -0.00347  -0.00345   2.16323
   A23        2.13528   0.00192   0.00000   0.00222   0.00224   2.13752
   A24        1.98088   0.00287   0.00000   0.00124   0.00120   1.98209
   A25        1.93929  -0.00372   0.00000  -0.00362  -0.00360   1.93569
   A26        1.80845   0.00605   0.00000   0.00483   0.00480   1.81324
   A27        1.93300  -0.00276   0.00000  -0.00268  -0.00268   1.93031
   A28        1.94120  -0.00173   0.00000  -0.00084  -0.00082   1.94038
   A29        1.90886   0.00108   0.00000   0.00077   0.00076   1.90962
   A30        1.93169   0.00117   0.00000   0.00160   0.00162   1.93331
   A31        1.85065  -0.00323   0.00000  -0.00185  -0.00183   1.84882
   A32        1.92129  -0.00105   0.00000  -0.00151  -0.00151   1.91978
   A33        1.93132   0.00066   0.00000  -0.00022  -0.00022   1.93110
   A34        1.92378   0.00337   0.00000   0.00324   0.00323   1.92701
   A35        1.92709   0.00165   0.00000   0.00168   0.00168   1.92877
   A36        1.90921  -0.00138   0.00000  -0.00131  -0.00131   1.90790
   A37        1.90935   0.00635   0.00000   0.00581   0.00580   1.91516
   A38        1.90889   0.00603   0.00000   0.00565   0.00563   1.91452
   A39        1.89951  -0.01537   0.00000  -0.01292  -0.01287   1.88663
   A40        1.91852  -0.00453   0.00000  -0.00414  -0.00415   1.91437
   A41        1.90968   0.00529   0.00000   0.00437   0.00438   1.91406
   A42        1.91774   0.00216   0.00000   0.00117   0.00117   1.91891
   A43        1.78261   0.00901   0.00000   0.00808   0.00809   1.79070
   A44        1.93600  -0.00382   0.00000  -0.00408  -0.00409   1.93191
   A45        1.94332  -0.00486   0.00000  -0.00459  -0.00460   1.93872
   A46        1.93764  -0.00226   0.00000  -0.00096  -0.00095   1.93669
   A47        1.94881   0.00007   0.00000   0.00006   0.00006   1.94887
   A48        1.91288   0.00197   0.00000   0.00162   0.00161   1.91449
    D1       -3.04276  -0.00575   0.00000  -0.00835  -0.00836  -3.05112
    D2        0.16903  -0.00716   0.00000  -0.01021  -0.01021   0.15882
    D3        0.00231   0.00540   0.00000   0.00769   0.00769   0.00999
    D4       -3.06909   0.00400   0.00000   0.00583   0.00583  -3.06326
    D5       -3.07658  -0.00171   0.00000  -0.00244  -0.00244  -3.07902
    D6        0.06229  -0.00147   0.00000  -0.00210  -0.00211   0.06019
    D7       -0.01289  -0.00062   0.00000  -0.00079  -0.00078  -0.01367
    D8        3.12598  -0.00038   0.00000  -0.00045  -0.00045   3.12554
    D9        1.02586  -0.00012   0.00000  -0.00002  -0.00001   1.02585
   D10       -1.07429   0.00140   0.00000   0.00184   0.00184  -1.07244
   D11        3.11810   0.00049   0.00000   0.00074   0.00074   3.11884
   D12       -2.03863  -0.00133   0.00000  -0.00177  -0.00177  -2.04040
   D13        2.14440   0.00019   0.00000   0.00009   0.00009   2.14449
   D14        0.05361  -0.00071   0.00000  -0.00101  -0.00101   0.05259
   D15        0.01465  -0.00003   0.00000  -0.00004  -0.00004   0.01461
   D16       -3.13219   0.00005   0.00000   0.00008   0.00008  -3.13212
   D17       -3.12423  -0.00026   0.00000  -0.00037  -0.00037  -3.12460
   D18        0.01211  -0.00018   0.00000  -0.00026  -0.00026   0.01186
   D19       -3.11522  -0.00064   0.00000  -0.00089  -0.00089  -3.11612
   D20        0.02659  -0.00052   0.00000  -0.00072  -0.00072   0.02586
   D21        0.02107  -0.00055   0.00000  -0.00077  -0.00077   0.02030
   D22       -3.12030  -0.00043   0.00000  -0.00060  -0.00060  -3.12090
   D23       -0.00565   0.00050   0.00000   0.00059   0.00059  -0.00506
   D24        3.10618   0.00003   0.00000   0.00016   0.00016   3.10633
   D25        3.13572   0.00038   0.00000   0.00042   0.00042   3.13614
   D26       -0.03564  -0.00009   0.00000  -0.00001  -0.00001  -0.03565
   D27        0.98122  -0.00201   0.00000  -0.00205  -0.00204   0.97918
   D28        3.06732  -0.00238   0.00000  -0.00203  -0.00203   3.06529
   D29       -1.14406   0.00107   0.00000   0.00129   0.00128  -1.14278
   D30       -2.13295  -0.00158   0.00000  -0.00168  -0.00167  -2.13462
   D31       -0.04685  -0.00195   0.00000  -0.00165  -0.00166  -0.04851
   D32        2.02496   0.00150   0.00000   0.00166   0.00165   2.02660
   D33        2.96367  -0.00214   0.00000  -0.00155  -0.00155   2.96212
   D34        0.89792  -0.00276   0.00000  -0.00304  -0.00303   0.89489
   D35       -1.23738   0.00080   0.00000   0.00097   0.00096  -1.23642
   D36       -0.20478  -0.00268   0.00000  -0.00202  -0.00201  -0.20680
   D37       -2.27054  -0.00330   0.00000  -0.00351  -0.00350  -2.27403
   D38        1.87734   0.00026   0.00000   0.00050   0.00050   1.87784
   D39        0.29095   0.00189   0.00000   0.00195   0.00194   0.29289
   D40       -1.78970   0.00031   0.00000  -0.00003  -0.00004  -1.78974
   D41        2.38098   0.00229   0.00000   0.00275   0.00274   2.38372
   D42        2.37573   0.00016   0.00000   0.00008   0.00007   2.37580
   D43        0.29508  -0.00143   0.00000  -0.00191  -0.00191   0.29317
   D44       -1.81743   0.00056   0.00000   0.00087   0.00087  -1.81656
   D45       -1.78176   0.00116   0.00000   0.00160   0.00159  -1.78017
   D46        2.42077  -0.00043   0.00000  -0.00039  -0.00039   2.42039
   D47        0.30827   0.00156   0.00000   0.00239   0.00239   0.31066
   D48       -2.52123   0.00066   0.00000   0.00019   0.00020  -2.52103
   D49        1.65975  -0.00140   0.00000  -0.00179  -0.00180   1.65795
   D50       -0.43550   0.00165   0.00000   0.00121   0.00120  -0.43430
   D51       -0.44221  -0.00067   0.00000  -0.00096  -0.00095  -0.44316
   D52       -2.54441  -0.00273   0.00000  -0.00294  -0.00295  -2.54736
   D53        1.64352   0.00032   0.00000   0.00006   0.00006   1.64358
   D54        1.66916   0.00089   0.00000   0.00063   0.00064   1.66980
   D55       -0.43304  -0.00116   0.00000  -0.00135  -0.00136  -0.43440
   D56       -2.52829   0.00188   0.00000   0.00165   0.00164  -2.52664
   D57        0.39225  -0.00077   0.00000  -0.00044  -0.00042   0.39183
   D58        2.45684  -0.00125   0.00000  -0.00116  -0.00114   2.45570
   D59       -1.68600  -0.00028   0.00000   0.00029   0.00029  -1.68571
   D60        2.47778   0.00087   0.00000   0.00148   0.00148   2.47927
   D61       -1.74081   0.00039   0.00000   0.00076   0.00076  -1.74005
[...]
 .00000403,-0.00000564,-0.00000467,-0.00000554,0.00000083,0.00000249,-0
 .00000044,0.00000585,-0.00000406,-0.00001513,-0.00000351,0.00001094,0.
 00001115,-0.00000981,-0.00000080,-0.00000114,0.00000071,0.00000077,0.0
 0000271,-0.00000121,-0.00232696,0.23493315,-0.00074289,-0.00058811,0.0
 0153342,-0.00148377,-0.00012297,-0.00226035,0.00363953,0.01546193,-0.0
 1798273,0.00333705,0.00077039,0.00135054,-0.00176607,0.12905394,-0.137
 42441,-0.00035039,0.00027330,-0.00073245,0.00003584,0.00006233,0.00018
 092,-0.00028650,-0.01554501,0.01163012,0.00031792,0.00000551,0.0006920
 6,-0.00049158,0.00004049,-0.00047857,0.00020848,0.00006321,-0.00008220
 ,-0.00002418,0.00000491,0.00003302,0.00000654,-0.00002628,0.00002166,0
 .00002018,0.00002661,-0.00001055,-0.00001234,-0.00000243,-0.00001548,-
 0.00001945,-0.00010444,-0.00001524,-0.00003221,-0.00002495,0.00002805,
 0.00000187,0.00000359,-0.00000257,-0.00000385,-0.00000858,0.00000105,-
 0.00296268,-0.13947237,0.15256564,-0.00080160,0.00010589,0.00122506,-0
 .00244981,0.00016680,0.00112856,-0.01845016,0.00075232,-0.01253266,-0.
 00082465,0.00002665,-0.00265035,-0.25288495,0.00977272,-0.11213592,0.0
 0029395,-0.00001960,0.00024863,0.00121339,-0.00001734,0.00030127,-0.00
 128042,-0.00027360,-0.00057660,0.00074257,-0.00005189,-0.00069734,0.00
 048734,0.00000600,0.00046343,-0.00024561,0.00004062,0.00011304,0.00003
 659,-0.00006955,-0.00002794,0.00002461,-0.00000177,-0.00000496,-0.0000
 2763,0.00000419,-0.00001542,0.00000882,-0.00000318,-0.00000211,-0.0000
 1827,-0.00000328,-0.00027641,0.00004312,0.00004803,-0.00003338,-0.0000
 0216,0.00000125,-0.00000707,0.00000212,-0.00000038,-0.00000031,0.00117
 131,0.00044113,0.00056585,0.27479507,0.00006383,0.00117769,-0.00005459
 ,0.00014588,0.00023610,-0.00011097,0.00092521,-0.00218365,0.00071768,0
 .00003949,0.00014556,0.00012160,0.00975656,-0.04908876,0.00536529,0.00
 001600,-0.00006446,-0.00003449,-0.00002633,0.00066964,-0.00005741,-0.0
 2391351,0.00285177,-0.01153475,-0.00004844,-0.00015399,0.00004546,-0.0
 0003044,0.00001723,-0.00002952,0.00002137,0.00008501,0.00000769,0.0000
 0244,-0.00000299,-0.00000865,0.00000192,-0.00001457,0.00000211,-0.0000
 0021,0.00000594,-0.00000085,0.00000014,-0.00000149,-0.00000027,-0.0000
 0037,-0.00000798,0.00001483,-0.00001589,-0.00003075,-0.00000478,0.0000
 0315,-0.00000511,0.00001077,-0.00000096,-0.00000518,-0.00000319,0.0239
 3629,0.00046217,0.01144550,-0.01097984,0.04577154,-0.00200112,0.000097
 77,0.00115367,0.00408121,-0.00023854,-0.00549068,0.01838162,-0.0008602
 5,0.01287388,-0.00108850,0.00003588,0.00038499,-0.11558101,0.00553327,
 -0.11346560,0.00106488,-0.00006469,-0.00186956,-0.00011920,-0.00003705
 ,-0.00199590,-0.01522950,0.00307453,-0.00877527,-0.00028807,0.00001601
 ,-0.00021065,0.00016598,-0.00000139,0.00014152,-0.00005460,-0.00000748
 ,0.00003135,-0.00000699,0.00001603,-0.00000693,-0.00001906,0.00001489,
 -0.00001051,-0.00000374,-0.00001456,0.00001266,0.00000525,0.00000211,0
 .00000942,-0.00001840,-0.00000242,-0.00000280,0.00000630,-0.00000403,-
 0.00001101,-0.00000076,-0.00000554,0.00000745,0.00000167,0.00000285,-0
 .00000124,-0.01572793,-0.00160121,-0.00887789,0.12505352,-0.00590523,0
 .12467397,-0.00006486,0.00000259,-0.00019991,0.00041766,-0.00001970,0.
 00021807,-0.00029018,0.00001322,-0.00026217,0.00029621,-0.00002831,0.0
 0029399,-0.00002802,0.00000597,-0.00000614,-0.00024922,0.00001970,-0.0
 0041450,0.00002862,-0.00000993,0.00000585,0.00001292,-0.00000662,-0.00
 001625,-0.00003531,0.00017712,0.00107789,-0.00160848,0.00006986,-0.002
 04192,-0.00951249,-0.00491784,0.00240225,-0.00042525,0.00020218,-0.000
 52873,-0.26968764,-0.10348056,-0.00032941,-0.01409448,-0.00692107,-0.0
 0128789,-0.00019749,0.00008307,0.00035452,-0.00007196,0.00001524,-0.00
 018732,0.00079315,0.00039640,0.00017791,0.00446807,0.00134866,0.000151
 17,0.00094551,0.00018041,-0.00047381,0.00001219,0.00000605,-0.00002092
 ,0.00000547,-0.00000406,0.00001302,0.29164581,-0.00000776,-0.00000015,
 -0.00002023,0.00004745,-0.00000235,0.00002574,-0.00003055,0.00000090,-
 0.00002068,0.00002270,-0.00000501,0.00004880,-0.00000111,0.00000178,-0
 .00000072,-0.00005457,-0.00002641,-0.00001611,-0.00001648,0.00001656,0
 .00003570,-0.00000019,-0.00000218,-0.00000061,0.00052349,0.00004433,-0
 .00014998,0.00209556,0.00033273,0.00040087,0.00467720,0.00068825,-0.00
 004345,-0.00012133,0.00008722,-0.00003395,-0.10677732,-0.09814524,0.00
 113005,0.01432593,0.00587106,0.00101183,-0.00029903,0.00005266,-0.0000
 3628,0.00005698,-0.00000775,0.00012753,0.00026060,0.00079668,-0.000145
 28,-0.02937924,-0.01268030,-0.00000483,-0.00010503,0.00108033,0.000549
 30,0.00000166,0.00000124,-0.00000007,-0.00000052,0.00000160,0.00000271
 ,0.11120744,0.10238495,-0.00003188,0.00000196,-0.00009326,0.00021006,-
 0.00001604,0.00009866,-0.00013755,0.00000776,-0.00013706,0.00013983,0.
 00001587,0.00016022,-0.00001476,0.00000859,-0.00000535,-0.00015915,0.0
 0001370,-0.00007774,0.00006484,-0.00005188,0.00004954,0.00000551,-0.00
 000300,-0.00000788,-0.00108286,0.00030994,0.00148793,-0.00339699,-0.00
 009182,-0.00533719,-0.02478046,-0.01206109,0.00289341,-0.00019157,-0.0
 0019997,-0.00105817,0.00165460,0.00167227,-0.04794922,0.02056532,0.010
 91426,0.00141597,-0.00008204,0.00026234,-0.00023010,-0.00043424,0.0000
 3818,-0.00033993,0.00045874,0.00027783,0.00160356,0.00611262,0.0025491
 9,-0.00002842,-0.00107377,0.00016099,0.00120255,0.00000613,0.00000267,
 -0.00001179,0.00000137,-0.00000356,0.00000813,-0.00067302,-0.00143622,
 0.04995160,0.01587079,0.00077472,0.04268881,-0.39107664,0.01657839,0.1
 7879632,-0.06510771,0.00392429,0.00711974,0.00048766,0.00025127,0.0172
 4169,-0.00403881,0.00038045,-0.00488646,-0.00358442,0.00003869,-0.0103
 2885,0.00005826,-0.00000213,0.00017268,-0.00054413,0.00000958,0.000184
 17,0.00220098,0.00004759,0.00952884,-0.00578210,-0.00008437,-0.0062833
 6,0.00222126,-0.00025449,-0.00060600,-0.00024636,0.00018656,0.00026199
 ,0.00016307,-0.00016442,0.00025248,0.00020846,0.00022736,-0.00008328,-
 0.00012426,0.00000114,-0.00020117,0.00006017,-0.00001362,-0.00015203,-
 0.00038998,-0.00015279,0.00038592,-0.00000171,0.00007047,-0.00008242,-
 0.00001883,-0.00005175,0.00005207,-0.00049256,0.00001161,0.00017422,-0
 .00187567,0.00011177,0.00137020,-0.00016566,-0.00001885,-0.00008699,0.
 45756557,0.00104558,0.02523863,-0.00283777,0.01642613,-0.07694803,-0.0
 0990933,0.00396234,0.01534779,-0.00028954,0.00002779,0.00260005,-0.000
 98445,0.00040445,0.00462211,0.00017782,0.00013545,-0.00082497,0.000569
 59,-0.00001606,-0.00006758,-0.00001214,-0.00067210,-0.00023244,0.00014
 224,-0.00012819,-0.00036980,-0.00048541,0.00029748,0.00017169,0.000307
 26,-0.00011905,-0.00007157,0.00003421,0.00000597,-0.00000356,-0.000007
 99,-0.00000916,0.00000634,-0.00001406,-0.00001768,-0.00001674,0.000019
 61,0.00000981,0.00000018,0.00001059,-0.00000716,-0.00009916,0.00001004
 ,0.00002630,0.00001861,-0.00002074,-0.00000345,0.00000256,-0.00000085,
 0.00000611,0.00001049,-0.00000045,0.00069714,-0.00031578,-0.00015486,0
 .00009671,0.00022573,-0.00005573,0.00000996,0.00000100,0.00000566,-0.0
 2241570,0.03065967,0.07616321,-0.00445876,-0.07665082,0.16004666,-0.00
 902325,-0.24316938,0.01223970,-0.00053414,0.02300396,-0.00952725,0.000
 30610,-0.01653960,-0.00131787,0.00000540,-0.00184889,0.00052999,0.0000
 5150,0.00837098,-0.00115121,0.00004525,-0.00060103,-0.00034140,0.00082
 123,0.00040112,-0.00009654,-0.00004292,-0.00393928,0.00157114,0.000050
 37,0.00197968,-0.00073006,0.00011686,0.00006217,0.00009579,-0.00011312
 ,-0.00008618,-0.00004353,0.00002398,-0.00007219,-0.00007676,-0.0000407
 1,0.00001854,0.00003157,-0.00000159,0.00003976,-0.00001115,0.00000554,
 0.00030303,0.00012736,0.00007066,-0.00011930,-0.00000120,-0.00000941,0
 .00001126,0.00000268,0.00000810,-0.00001558,-0.00042314,-0.00076538,0.
 00041027,0.00013829,0.00000086,0.00104519,0.00002604,0.00000279,0.0000
 1739,-0.23301950,0.01337172,0.30502125,-0.00026437,0.00004554,-0.00040
 811,0.00118114,-0.00017019,0.00035963,-0.00106948,-0.00000666,-0.00040
 419,0.00107625,0.00018068,-0.00067084,-0.00006263,0.00002625,-0.000027
 67,-0.00451194,0.00111918,-0.00118517,0.00014985,0.00013679,-0.0000292
 9,0.00004499,-0.00001845,-0.00004111,0.00761272,-0.00199289,-0.0284605
 9,-0.10249861,0.00107331,0.02141331,-0.00855308,0.00091111,0.02634618,
 -0.00321130,-0.00031954,0.00019005,-0.03886196,-0.00152064,0.00537568,
 -0.15978155,-0.02889435,-0.02388335,-0.00043166,-0.00041036,0.00123041
 ,0.00044309,-0.00095744,-0.00185476,-0.00232920,0.00055899,0.00064084,
 0.00088000,-0.00036822,-0.00069361,-0.00706477,-0.00107526,-0.00060875
 ,0.00004047,0.00001128,-0.00005574,-0.00000258,0.00000246,0.00003552,-
 0.00144431,0.00252472,0.00215838,-0.00053151,0.00004882,0.00007521,0.5
 6810694,0.00008761,0.00024204,0.00030326,-0.00081594,-0.00092623,-0.00
 028650,0.00053650,-0.00029299,0.00064709,-0.00056814,0.00323825,-0.000
 72385,0.00007718,0.00017484,-0.00001934,0.00137516,0.00323815,0.001439
 70,-0.00002030,-0.00109797,-0.00004081,-0.00004594,-0.00000116,0.00001
 765,-0.00315327,-0.00761049,-0.00205195,0.00531443,-0.05178958,0.00590
 830,0.00304881,-0.00219765,-0.00306083,0.00333169,-0.00110057,-0.00154
 020,0.01409347,0.00680255,0.00194694,-0.02731894,-0.09144762,-0.007561
 33,0.01060525,0.00125470,0.00295203,0.00040029,-0.00132467,0.00027035,
 -0.00255444,-0.00079111,0.00067989,0.00075336,-0.00002922,0.00007104,-
 0.03334503,-0.00647323,-0.01015990,0.00000154,-0.00001929,0.00001826,-
 0.00003946,0.00001024,0.00000026,0.00215585,-0.00088067,-0.00263079,0.
 00030789,0.00005868,-0.00016184,-0.04013466,0.58035825,0.00092605,-0.0
 0002493,0.00215536,-0.00582307,0.00025260,-0.00243838,0.00389272,-0.00
 014592,0.00362011,-0.00405065,0.00027333,-0.00422589,0.00029026,-0.000
 02095,-0.00003453,0.00330564,-0.00029064,0.00975225,0.00017747,-0.0001
 8462,-0.00025379,-0.00017021,0.00009011,0.00018887,-0.01061155,-0.0000
 9309,-0.03197153,0.02749913,0.00486411,-0.18474542,0.02136633,-0.00303
 214,-0.01342153,-0.00078885,0.00108072,-0.00020099,0.01310976,0.005649
 35,0.00460468,-0.03663320,-0.00908803,-0.08331303,-0.02632635,-0.00787
 501,-0.00640147,0.00234162,0.00018816,0.00063183,-0.00187178,-0.000637
 44,-0.00048554,-0.00050052,0.00028059,-0.00006204,0.00214942,0.0014172
 9,-0.00003364,-0.00017926,-0.00006927,0.00019099,-0.00007787,0.0000015
 1,-0.00008721,0.00209018,-0.00160822,-0.00458931,0.00249971,-0.0001203
 4,-0.00064622,-0.05671400,-0.01829839,0.43872806,0.00006157,0.00000180
 ,0.00008761,-0.00031335,-0.00001574,-0.00011188,0.00021510,-0.00001160
 ,0.00013409,-0.00016841,0.00024878,-0.00012952,0.00000573,-0.00000873,
 -0.00000157,0.00034112,-0.00022190,0.00041872,-0.00000149,-0.00027556,
 -0.00011435,-0.00001600,0.00000469,0.00000166,-0.00004923,-0.00056811,
 -0.00129335,-0.00152288,0.00029243,0.00238037,-0.00074182,0.00100621,-
 0.00039626,-0.00021259,-0.00005820,0.00028335,-0.00416274,-0.00176649,
 -0.00116798,-0.01622478,0.01707471,0.00743365,-0.00073094,-0.00008381,
 -0.00041830,0.00047762,0.00038380,-0.00005049,-0.00003153,-0.00003639,
 0.00006596,0.00004026,0.00013181,-0.00012060,0.00151072,-0.00012214,0.
 00049585,-0.00000641,-0.00000406,0.00001692,-0.00000090,0.00000364,-0.
 00000366,-0.00074619,0.00068447,0.00094279,0.00014490,-0.00001083,-0.0
 0002673,-0.17727019,0.12328037,0.04292998,0.19204516,-0.00007398,-0.00
 000127,-0.00016125,0.00053007,-0.00000682,0.00017102,-0.00036441,0.000
 01851,-0.00034409,0.00042653,-0.00010556,0.00035792,-0.00002792,0.0000
 0287,0.00001279,-0.00072350,-0.00004472,-0.00074594,-0.00002236,0.0000
 5612,0.00011109,0.00001464,-0.00000686,-0.00000800,0.00162704,0.000816
 25,0.00099440,-0.00324330,0.00494112,-0.00268364,-0.00125015,-0.000754
 74,0.00059307,-0.00003024,-0.00002884,0.00005676,-0.00203908,0.0001548
 6,-0.00007201,-0.00805333,0.00672896,0.00378917,0.00017093,0.00002015,
 -0.00020993,-0.00053932,-0.00015609,-0.00026904,-0.00023105,-0.0000349
 6,0.00004964,-0.00032802,0.00025919,0.00013543,0.00012529,0.00130046,0
 .00024194,0.00001484,0.00000600,-0.00001132,0.00001483,-0.00000080,0.0
 0000152,-0.00037938,0.00029286,0.00027957,-0.00023254,0.00001043,0.000
 09830,0.12682983,-0.17174324,-0.03958155,-0.13383782,0.17862852,-0.000
 10850,0.00003331,-0.00030129,0.00082141,-0.00015367,0.00030313,-0.0005
 6015,-0.00000382,-0.00065276,0.00074863,0.00041938,0.00077564,-0.00003
 750,0.00000990,0.00003132,-0.00093134,0.00035901,-0.00174262,-0.000035
 73,-0.00035045,0.00015234,0.00001287,-0.00000919,-0.00002378,0.0044448
 7,-0.00046739,0.00393303,0.02578944,-0.01849763,-0.01967643,-0.0012995
 7,-0.00316910,-0.00361952,0.00169682,-0.00012944,-0.00056978,-0.002603
 45,-0.00122253,-0.00223083,-0.00839569,0.01023248,0.00573610,0.0000461
 4,0.00012596,-0.00027270,-0.00084070,-0.00023340,0.00004316,0.00006329
 ,-0.00001111,-0.00007588,0.00021194,-0.00010297,-0.00006883,0.00087521
 ,-0.00007448,0.00049587,0.00002419,0.00000851,-0.00002099,0.00001788,-
 0.00000386,0.00000654,-0.00038622,0.00022158,0.00089889,-0.00035023,0.
 00003805,0.00014621,0.03702081,-0.03565250,-0.06057140,-0.04930251,0.0
 4272502,0.07292773,0.00008003,-0.00000619,0.00017281,-0.00048773,0.000
 03616,-0.00021781,0.00034864,-0.00000757,0.00024619,-0.00032881,-0.000
 06520,-0.00028349,0.00002761,0.00000267,0.00000561,0.00011890,-0.00014
 355,0.00053794,0.00000708,0.00008374,0.00001138,-0.00001700,0.00000767
 ,0.00001907,-0.00003313,0.00005574,-0.00076308,0.00216027,-0.00262431,
 0.00406319,-0.00063277,-0.00009424,0.00047326,0.00004264,-0.00004741,0
 .00001298,0.00126513,-0.00062134,-0.00004279,-0.00736816,-0.02800150,0
 .00696764,0.00158402,0.00030901,0.00006586,-0.00006081,0.00005250,-0.0
 0001348,-0.00005413,0.00009167,0.00017556,-0.00036719,0.00057792,0.000
 10591,-0.00506612,-0.00097408,-0.00111388,-0.00002102,-0.00000560,0.00
 001547,-0.00000983,-0.00000130,-0.00000826,-0.00001601,0.00039175,-0.0
 0018834,0.00020567,-0.00001504,-0.00003945,-0.07162223,-0.05739378,0.0
 2106493,0.00733184,0.02165571,-0.00687698,0.07289367,0.00010060,-0.000
 00802,0.00018567,-0.00057671,0.00005636,-0.00022124,0.00039146,0.00000
 163,0.00030255,-0.00040358,-0.00015771,-0.00033683,0.00002291,-0.00000
 223,-0.00000196,0.00042160,-0.00018045,0.00065812,0.00001767,0.0001355
 2,-0.00004909,-0.00001462,0.00001032,0.00002246,-0.00101943,0.00056112
 ,-0.00065826,0.00150653,0.01080919,0.00439414,0.00037556,-0.00074439,-
 0.00024757,-0.00015070,-0.00004467,0.00010035,0.00025801,0.00039559,0.
 00028933,-0.00198147,-0.00746348,0.00040004,-0.00018226,0.00059406,-0.
 00039113,0.00011441,-0.00032738,0.00017233,-0.00015303,-0.00006636,0.0
 0000351,-0.00027494,0.00029230,0.00033163,-0.00160413,0.00116168,-0.00
 060496,-0.00002211,-0.00000585,0.00001070,-0.00000555,-0.00000380,-0.0
 0000792,-0.00012370,0.00009570,-0.00001966,0.00025775,-0.00000207,-0.0
 0006198,-0.05761964,-0.25776213,0.06699363,-0.00608815,-0.02035373,0.0
 0591904,0.06673058,0.27302599,-0.00026231,-0.00004874,-0.00068783,0.00
 180472,0.00012691,0.00071828,-0.00123053,0.00009623,-0.00127400,0.0014
 5529,-0.00076187,0.00145231,-0.00009975,-0.00002040,0.00003098,-0.0017
 3364,-0.00075360,-0.00326059,0.00001053,0.00034930,0.00008030,0.000051
 35,-0.00002419,-0.00005979,0.00592658,0.00180053,0.00499014,0.00872207
 ,0.02541087,-0.03101301,-0.00224482,0.00234120,-0.00116141,-0.00001170
 ,0.00014474,-0.00009450,0.00023278,0.00006029,-0.00029152,-0.00354035,
 -0.01345307,0.00400408,0.00047816,-0.00017468,0.00062935,-0.00057150,0
 .00040444,0.00005350,0.00130543,0.00009388,-0.00045793,0.00016703,0.00
 004894,0.00033894,-0.00345106,-0.00085155,0.00014401,0.00004661,0.0000
 1881,-0.00005418,0.00003728,0.00000213,0.00002098,0.00001375,-0.000033
 70,0.00008401,-0.00075587,0.00000468,0.00025136,0.02015198,0.06791120,
 -0.06644214,-0.00206559,-0.00550182,0.00440598,-0.02439540,-0.07719520
 ,0.08760783,-0.00017766,0.00006589,0.00097191,0.00026726,-0.00038094,0
 .00007518,0.00293618,0.00020872,0.00210205,-0.27018918,0.01185535,0.11
 917761,0.00014005,0.00041447,-0.00150193,-0.01952246,0.00117462,0.0099
 3900,-0.00152118,0.00028219,-0.00256282,0.00011537,-0.00009096,0.00002
 414,0.00104176,-0.00014533,0.00273076,0.00004245,-0.00002909,-0.000743
 81,-0.00001196,0.00004194,0.00016506,0.00000615,-0.00008904,-0.0000061
 0,0.00014048,-0.00000537,-0.00000541,-0.00002652,0.00000688,-0.0000275
 0,0.00001365,-0.00000423,-0.00000657,0.00036996,-0.00001067,-0.0013904
 5,0.00000874,0.00005462,0.00002134,-0.00000311,0.00000032,-0.00000940,
 0.00000763,0.00000202,0.00000059,0.00025466,0.00003829,-0.00008728,0.0
 0004986,-0.00000883,-0.00002834,0.00001194,-0.00000799,0.00001341,-0.0
 0520644,0.00021439,-0.00424185,-0.00002406,0.00002050,0.00010413,0.000
 02544,-0.00003334,-0.00004492,0.00001943,0.00002295,-0.00004106,0.2912
 3153,0.00005026,0.00103621,-0.00003513,-0.00034895,-0.00780571,0.00001
 533,0.00046732,0.00701378,-0.00029276,0.01183182,-0.04373332,-0.006256
 93,0.00041436,0.00905970,-0.00002316,0.00097209,0.00374708,-0.00044667
 ,0.00026543,0.00473064,0.00007430,-0.00145139,-0.00025794,0.00116642,-
 0.00020043,-0.00290341,-0.00007307,-0.00003750,0.00006347,0.00005871,-
 0.00000779,-0.00001854,-0.00007507,0.00007027,0.00000774,0.00008062,-0
 .00001118,-0.00001450,0.00001242,-0.00000020,0.00000777,0.00000490,0.0
 0000371,-0.00000032,-0.00000042,-0.00000210,0.00029368,0.00006157,-0.0
 0004536,0.00001977,-0.00004264,0.00000541,-0.00000420,0.00000606,-0.00
 000665,-0.00000687,-0.00000290,0.00140867,-0.00042747,-0.00117928,-0.0
 0001119,-0.00009668,0.00000821,-0.00000254,0.00000022,-0.00000674,0.00
 021114,-0.00002228,0.00023443,0.00001934,0.00011012,-0.00002084,-0.000
 00317,0.00000132,-0.00001071,0.00000600,-0.00001720,0.00000467,-0.0135
 9738,0.02921694,-0.00096114,0.00005406,0.00208367,0.00617326,-0.000260
 44,-0.00330973,0.03108906,-0.00164809,-0.01429040,0.11455241,-0.006057
 83,-0.11838454,-0.00306029,0.00003666,-0.00362172,-0.01591339,0.000788
 18,0.00942836,-0.00269802,0.00006548,-0.00194202,0.00069682,0.00006768
 ,-0.00069474,-0.00218425,0.00014956,0.00129852,0.00004726,-0.00000943,
 -0.00001418,-0.00013467,0.00005612,-0.00008543,0.00004948,-0.00006566,
 -0.00002347,0.00004439,-0.00000587,0.00001277,-0.00002609,-0.00000710,
 -0.00000472,0.00001483,-0.00000185,-0.00000347,0.00032104,-0.00001732,
 -0.00027061,0.00004833,0.00003123,0.00000944,-0.00000341,0.00000157,-0
 .00000921,0.00000740,0.00000236,0.00000091,0.00065350,-0.00013585,-0.0
 0066835,-0.00025585,0.00001670,0.00043548,0.00000353,-0.00000659,-0.00
 000643,-0.00389268,0.00020220,0.00260631,0.00003919,0.00002226,0.00005
 191,0.00001184,-0.00002904,-0.00002914,0.00000514,0.00001232,-0.000015
 15,-0.12462772,0.00673866,0.12744596\\-0.00001274,0.00000051,0.0000060
 7,-0.00002877,0.00000263,0.00000021,0.00002355,-0.00000101,0.00002306,
 -0.00001042,0.00000156,-0.00001172,-0.00000372,-0.00001154,-0.00000503
 ,0.00000235,0.00000048,0.00000862,0.00000128,-0.00000058,-0.00000297,-
 0.00000570,0.00000392,0.00000410,-0.00000082,0.00000027,-0.00000758,0.
 00000561,0.00000277,0.00000568,-0.00000329,0.00000210,-0.00000431,0.00
 000045,-0.00000420,-0.00000061,0.00000633,-0.00000719,-0.00000004,0.00
 000248,0.00000714,0.00000320,0.00000303,-0.00000038,-0.00000173,-0.000
 00048,0.00000234,0.00000241,0.00000114,-0.00000026,-0.00000348,0.00000
 053,-0.00000182,-0.00000190,0.00000290,-0.00000225,-0.00000290,-0.0000
 0082,0.00000468,-0.00000204,0.00000133,-0.00000161,0.00000235,0.000001
 29,-0.00000027,-0.00000320,0.00001126,0.00000095,-0.00001078,0.0000019
 7,0.00000239,-0.00000212,0.00000242,0.00000233,-0.00000039,0.00000045,
 -0.00000468,0.00000200,-0.00000162,0.00000172,0.00000312\\\@


 The theorems and results in mathematical physics are
 not theorems and results about Nature, but about our
 description of it.
                   --Gerard 't Hooft
 Job cpu time:       0 days  0 hours 23 minutes 11.2 seconds.
 File lengths (MBytes):  RWF=    208 Int=      0 D2E=      0 Chk=      7 Scr=      1
 Normal termination of Gaussian 09 at Fri Aug 20 15:52:09 2021.
