 Entering Gaussian System, Link 0=g09
 Input=B3LYP6-31Gxx.DUMPEG.gjf
 Output=B3LYP6-31Gxx.DUMPEG.log
 Initial command:
 /public/home/users/caep010/software/Gaussian09/g09/l1.exe "/public/home/users/caep010/.cache/gau_scr/Gau-56745.inp" -scrdir="/public/home/users/caep010/.cache/gau_scr/"
 Entering Link 1 = /public/home/users/caep010/software/Gaussian09/g09/l1.exe PID=     56746.
  
 Copyright (c) 1988,1990,1992,1993,1995,1998,2003,2009,2015,
            Gaussian, Inc.  All Rights Reserved.
  
 This is part of the Gaussian(R) 09 program.  It is based on
 the Gaussian(R) 03 system (copyright 2003, Gaussian, Inc.),
 the Gaussian(R) 98 system (copyright 1998, Gaussian, Inc.),
 the Gaussian(R) 94 system (copyright 1995, Gaussian, Inc.),
 the Gaussian 92(TM) system (copyright 1992, Gaussian, Inc.),
 the Gaussian 90(TM) system (copyright 1990, Gaussian, Inc.),
 the Gaussian 88(TM) system (copyright 1988, Gaussian, Inc.),
 the Gaussian 86(TM) system (copyright 1986, Carnegie Mellon
 University), and the Gaussian 82(TM) system (copyright 1983,
 Carnegie Mellon University). Gaussian is a federally registered
 trademark of Gaussian, Inc.
  
 This software contains proprietary and confidential information,
 including trade secrets, belonging to Gaussian, Inc.
  
 This software is provided under written license and may be
 used, copied, transmitted, or stored only in accord with that
 written license.
  
 The following legend is applicable only to US Government
 contracts under FAR:
  
                    RESTRICTED RIGHTS LEGEND
  
 Use, reproduction and disclosure by the US Government is
 subject to restrictions as set forth in subparagraphs (a)
 and (c) of the Commercial Computer Software - Restricted
 Rights clause in FAR 52.227-19.
  
 Gaussian, Inc.
 340 Quinnipiac St., Bldg. 40, Wallingford CT 06492
  
  
 ---------------------------------------------------------------
 Warning -- This program may not be used in any manner that
 competes with the business of Gaussian, Inc. or will provide
 assistance to any competitor of Gaussian, Inc.  The licensee
 of this program is prohibited from giving any competitor of
 Gaussian, Inc. access to this program.  By using this program,
 the user acknowledges that Gaussian, Inc. is engaged in the
 business of creating and licensing software in the field of
 computational chemistry and represents and warrants to the
 licensee that it is not a competitor of Gaussian, Inc. and that
 it will not use this program in any manner prohibited above.
 ---------------------------------------------------------------
  

 Cite this work as:
 Gaussian 09, Revision E.01,
 M. J. Frisch, G. W. Trucks, H. B. Schlegel, G. E. Scuseria, 
 M. A. Robb, J. R. Cheeseman, G. Scalmani, V. Barone, B. Mennucci, 
 G. A. Petersson, H. Nakatsuji, M. Caricato, X. Li, H. P. Hratchian, 
 A. F. Izmaylov, J. Bloino, G. Zheng, J. L. Sonnenberg, M. Hada, 
 M. Ehara, K. Toyota, R. Fukuda, J. Hasegawa, M. Ishida, T. Nakajima, 
 Y. Honda, O. Kitao, H. Nakai, T. Vreven, J. A. Montgomery, Jr., 
 J. E. Peralta, F. Ogliaro, M. Bearpark, J. J. Heyd, E. Brothers, 
 K. N. Kudin, V. N. Staroverov, T. Keith, R. Kobayashi, J. Normand, 
 K. Raghavachari, A. Rendell, J. C. Burant, S. S. Iyengar, J. Tomasi, 
 M. Cossi, N. Rega, J. M. Millam, M. Klene, J. E. Knox, J. B. Cross, 
 V. Bakken, C. Adamo, J. Jaramillo, R. Gomperts, R. E. Stratmann, 
 O. Yazyev, A. J. Austin, R. Cammi, C. Pomelli, J. W. Ochterski, 
 R. L. Martin, K. Morokuma, V. G. Zakrzewski, G. A. Voth, 
 P. Salvador, J. J. Dannenberg, S. Dapprich, A. D. Daniels, 
 O. Farkas, J. B. Foresman, J. V. Ortiz, J. Cioslowski, 
 and D. J. Fox, Gaussian, Inc., Wallingford CT, 2013.
 
 ******************************************
 Gaussian 09:  ES64L-G09RevE.01 30-Nov-2015
                22-Aug-2021 
 ******************************************
 %nproc=32
 Will use up to   32 processors via shared memory.
 %mem=180GB
 --------------------------------
 #P OPT=calcfc Freq B3LYP/6-31G**
 --------------------------------
 1/10=4,14=-1,18=20,19=15,26=3,38=1/1,3;
 2/9=110,12=2,17=6,18=5,40=1/2;
 3/5=1,6=6,7=101,11=2,16=1,25=1,30=1,71=2,74=-5,140=1/1,2,3;
 4//1;
 5/5=2,38=5/2;
 8/6=4,10=90,11=11/1;
 11/6=1,8=1,9=11,15=111,16=1/1,2,10;
 10/6=1,13=1/2;
 6/7=2,8=2,9=2,10=2,28=1/1;
 7/10=1,18=20,25=1/1,2,3,16;
 1/10=4,14=-1,18=20,19=15,26=3/3(2);
 2/9=110/2;
 99//99;
 2/9=110/2;
 3/5=1,6=6,7=101,11=2,16=1,25=1,30=1,71=1,74=-5/1,2,3;
 4/5=5,16=3,69=1/1;
 5/5=2,38=5/2;
 7//1,2,3,16;
 1/14=-1,18=20,19=15,26=3/3(-5);
 2/9=110/2;
 6/7=2,8=2,9=2,10=2,19=2,28=1/1;
 99/9=1/99;
 Leave Link    1 at Sun Aug 22 16:32:18 2021, MaxMem= 24159191040 cpu:         2.0
 (Enter /public/home/users/caep010/software/Gaussian09/g09/l101.exe)
 ------
 DUMPEG
 ------
 Symbolic Z-matrix:
 Charge =  0 Multiplicity = 1
 O                     0.0439    3.3244   -0.0176 
 C                    -0.0068    1.1695    0.0065 
 C                    -0.5003    2.3234   -0.9044 
 C                     0.5008    2.3204    0.9139 
 H                    -0.0534    2.3644   -1.9057 
 H                     0.0055    2.4016    1.8901 
 C                    -1.1034    0.3256    0.6438 
 C                     1.0933    0.3307   -0.6349 
 O                    -1.6935   -0.4328   -0.4381 
 O                     1.6837   -0.433     0.4415 
 H                    -1.5911    2.3947   -1.001 
 H                     1.5871    2.3498    1.0644 
 H                    -0.7022   -0.3551    1.3986 
 H                     0.6926   -0.3453   -1.3951 
 H                    -1.866     0.9596    1.1046 
 H                     1.8538    0.9704   -1.0917 
 N                    -2.7519   -1.2919   -0.0296 
 N                     2.7457   -1.2868    0.0275 
 O                    -3.0475   -1.2861    1.1468 
 O                     3.0415   -1.2722   -1.1489 
 O                    -3.218    -1.9194   -0.9465 
 O                     3.2122   -1.9192    0.9405 
 
 Add atom     17 valence  3 ND=      2 dihedral       9     17     19     21
 Add atom     18 valence  3 ND=      2 dihedral      10     18     20     22
 NAtoms=     22 NQM=       22 NQMF=       0 NMMI=      0 NMMIF=      0
                NMic=       0 NMicF=      0.
                    Isotopes and Nuclear Properties:
 (Nuclear quadrupole moments (NQMom) in fm**2, nuclear magnetic moments (NMagM)
  in nuclear magnetons)

  Atom         1           2           3           4           5           6           7           8           9          10
 IAtWgt=          16          12          12          12           1           1          12          12          16          16
 AtmWgt=  15.9949146  12.0000000  12.0000000  12.0000000   1.0078250   1.0078250  12.0000000  12.0000000  15.9949146  15.9949146
 NucSpn=           0           0           0           0           1           1           0           0           0           0
 AtZEff=   0.0000000   0.0000000   0.0000000   0.0000000   0.0000000   0.0000000   0.0000000   0.0000000   0.0000000   0.0000000
 NQMom=    0.0000000   0.0000000   0.0000000   0.0000000   0.0000000   0.0000000   0.0000000   0.0000000   0.0000000   0.0000000
 NMagM=    0.0000000   0.0000000   0.0000000   0.0000000   2.7928460   2.7928460   0.0000000   0.0000000   0.0000000   0.0000000
 AtZNuc=   8.0000000   6.0000000   6.0000000   6.0000000   1.0000000   1.0000000   6.0000000   6.0000000   8.0000000   8.0000000

  Atom        11          12          13          14          15          16          17          18          19          20
 IAtWgt=           1           1           1           1           1           1          14          14          16          16
 AtmWgt=   1.0078250   1.0078250   1.0078250   1.0078250   1.0078250   1.0078250  14.0030740  14.0030740  15.9949146  15.9949146
 NucSpn=           1           1           1           1           1           1           2           2           0           0
 AtZEff=   0.0000000   0.0000000   0.0000000   0.0000000   0.0000000   0.0000000   0.0000000   0.0000000   0.0000000   0.0000000
 NQMom=    0.0000000   0.0000000   0.0000000   0.0000000   0.0000000   0.0000000   2.0440000   2.0440000   0.0000000   0.0000000
 NMagM=    2.7928460   2.7928460   2.7928460   2.7928460   2.7928460   2.7928460   0.4037610   0.4037610   0.0000000   0.0000000
 AtZNuc=   1.0000000   1.0000000   1.0000000   1.0000000   1.0000000   1.0000000   7.0000000   7.0000000   8.0000000   8.0000000

  Atom        21          22
 IAtWgt=          16          16
 AtmWgt=  15.9949146  15.9949146
 NucSpn=           0           0
 AtZEff=   0.0000000   0.0000000
 NQMom=    0.0000000   0.0000000
 NMagM=    0.0000000   0.0000000
 AtZNuc=   8.0000000   8.0000000
 Leave Link  101 at Sun Aug 22 16:32:18 2021, MaxMem= 24159191040 cpu:        11.8
 (Enter /public/home/users/caep010/software/Gaussian09/g09/l103.exe)

 GradGradGradGradGradGradGradGradGradGradGradGradGradGradGradGradGradGrad
 Berny optimization.
 Initialization pass.
                           ----------------------------
                           !    Initial Parameters    !
                           ! (Angstroms and Degrees)  !
 --------------------------                            --------------------------
 ! Name  Definition              Value          Derivative Info.                !
 --------------------------------------------------------------------------------
 ! R1    R(1,3)                  1.4438         calculate D2E/DX2 analytically  !
 ! R2    R(1,4)                  1.4438         calculate D2E/DX2 analytically  !
 ! R3    R(2,3)                  1.5507         calculate D2E/DX2 analytically  !
 ! R4    R(2,4)                  1.551          calculate D2E/DX2 analytically  !
 ! R5    R(2,7)                  1.5234         calculate D2E/DX2 analytically  !
 ! R6    R(2,8)                  1.5249         calculate D2E/DX2 analytically  !
 ! R7    R(3,5)                  1.0973         calculate D2E/DX2 analytically  !
 ! R8    R(3,11)                 1.0974         calculate D2E/DX2 analytically  !
 ! R9    R(4,6)                  1.0977         calculate D2E/DX2 analytically  !
 ! R10   R(4,12)                 1.0971         calculate D2E/DX2 analytically  !
 ! R11   R(7,9)                  1.447          calculate D2E/DX2 analytically  !
 ! R12   R(7,13)                 1.0927         calculate D2E/DX2 analytically  !
 ! R13   R(7,15)                 1.0935         calculate D2E/DX2 analytically  !
 ! R14   R(8,10)                 1.4458         calculate D2E/DX2 analytically  !
 ! R15   R(8,14)                 1.0934         calculate D2E/DX2 analytically  !
 ! R16   R(8,16)                 1.0937         calculate D2E/DX2 analytically  !
 ! R17   R(9,17)                 1.4231         calculate D2E/DX2 analytically  !
 ! R18   R(10,18)                1.4242         calculate D2E/DX2 analytically  !
 ! R19   R(17,19)                1.213          calculate D2E/DX2 analytically  !
 ! R20   R(17,21)                1.2049         calculate D2E/DX2 analytically  !
 ! R21   R(18,20)                1.2131         calculate D2E/DX2 analytically  !
 ! R22   R(18,22)                1.2046         calculate D2E/DX2 analytically  !
 ! A1    A(3,1,4)               91.916          calculate D2E/DX2 analytically  !
 ! A2    A(3,2,4)               84.0105         calculate D2E/DX2 analytically  !
 ! A3    A(3,2,7)              115.3943         calculate D2E/DX2 analytically  !
 ! A4    A(3,2,8)              113.0684         calculate D2E/DX2 analytically  !
 ! A5    A(4,2,7)              113.6961         calculate D2E/DX2 analytically  !
 ! A6    A(4,2,8)              114.7184         calculate D2E/DX2 analytically  !
 ! A7    A(7,2,8)              112.9891         calculate D2E/DX2 analytically  !
 ! A8    A(1,3,2)               92.0145         calculate D2E/DX2 analytically  !
 ! A9    A(1,3,5)              112.4            calculate D2E/DX2 analytically  !
 ! A10   A(1,3,11)             112.5618         calculate D2E/DX2 analytically  !
 ! A11   A(2,3,5)              115.7354         calculate D2E/DX2 analytically  !
 ! A12   A(2,3,11)             114.6062         calculate D2E/DX2 analytically  !
 ! A13   A(5,3,11)             108.7889         calculate D2E/DX2 analytically  !
 ! A14   A(1,4,2)               92.0048         calculate D2E/DX2 analytically  !
 ! A15   A(1,4,6)              112.3058         calculate D2E/DX2 analytically  !
 ! A16   A(1,4,12)             112.5339         calculate D2E/DX2 analytically  !
 ! A17   A(2,4,6)              115.3101         calculate D2E/DX2 analytically  !
 ! A18   A(2,4,12)             115.1003         calculate D2E/DX2 analytically  !
 ! A19   A(6,4,12)             108.8332         calculate D2E/DX2 analytically  !
 ! A20   A(2,7,9)              105.7296         calculate D2E/DX2 analytically  !
 ! A21   A(2,7,13)             111.7003         calculate D2E/DX2 analytically  !
 ! A22   A(2,7,15)             110.9219         calculate D2E/DX2 analytically  !
 ! A23   A(9,7,13)             109.8582         calculate D2E/DX2 analytically  !
 ! A24   A(9,7,15)             109.5438         calculate D2E/DX2 analytically  !
 ! A25   A(13,7,15)            109.0341         calculate D2E/DX2 analytically  !
 ! A26   A(2,8,10)             105.7836         calculate D2E/DX2 analytically  !
 ! A27   A(2,8,14)             111.6024         calculate D2E/DX2 analytically  !
 ! A28   A(2,8,16)             110.8292         calculate D2E/DX2 analytically  !
 ! A29   A(10,8,14)            109.9197         calculate D2E/DX2 analytically  !
 ! A30   A(10,8,16)            109.6297         calculate D2E/DX2 analytically  !
 ! A31   A(14,8,16)            109.0295         calculate D2E/DX2 analytically  !
 ! A32   A(7,9,17)             113.896          calculate D2E/DX2 analytically  !
 ! A33   A(8,10,18)            113.8756         calculate D2E/DX2 analytically  !
 ! A34   A(9,17,19)            117.1781         calculate D2E/DX2 analytically  !
 ! A35   A(9,17,21)            112.5614         calculate D2E/DX2 analytically  !
 ! A36   A(19,17,21)           130.2602         calculate D2E/DX2 analytically  !
 ! A37   A(10,18,20)           117.1627         calculate D2E/DX2 analytically  !
 ! A38   A(10,18,22)           112.5312         calculate D2E/DX2 analytically  !
 ! A39   A(20,18,22)           130.306          calculate D2E/DX2 analytically  !
 ! D1    D(4,1,3,2)             -1.8218         calculate D2E/DX2 analytically  !
 ! D2    D(4,1,3,5)           -120.7976         calculate D2E/DX2 analytically  !
 ! D3    D(4,1,3,11)           115.939          calculate D2E/DX2 analytically  !
 ! D4    D(3,1,4,2)              1.8214         calculate D2E/DX2 analytically  !
 ! D5    D(3,1,4,6)           -116.6512         calculate D2E/DX2 analytically  !
 ! D6    D(3,1,4,12)           120.1204         calculate D2E/DX2 analytically  !
 ! D7    D(4,2,3,1)              1.7041         calculate D2E/DX2 analytically  !
 ! D8    D(4,2,3,5)            117.8239         calculate D2E/DX2 analytically  !
 ! D9    D(4,2,3,11)          -114.2959         calculate D2E/DX2 analytically  !
 ! D10   D(7,2,3,1)            115.1264         calculate D2E/DX2 analytically  !
 ! D11   D(7,2,3,5)           -128.7539         calculate D2E/DX2 analytically  !
 ! D12   D(7,2,3,11)            -0.8736         calculate D2E/DX2 analytically  !
 ! D13   D(8,2,3,1)           -112.6461         calculate D2E/DX2 analytically  !
 ! D14   D(8,2,3,5)              3.4736         calculate D2E/DX2 analytically  !
 ! D15   D(8,2,3,11)           131.3539         calculate D2E/DX2 analytically  !
 ! D16   D(3,2,4,1)             -1.7042         calculate D2E/DX2 analytically  !
 ! D17   D(3,2,4,6)            114.187          calculate D2E/DX2 analytically  !
 ! D18   D(3,2,4,12)          -117.7985         calculate D2E/DX2 analytically  !
 ! D19   D(7,2,4,1)           -116.8456         calculate D2E/DX2 analytically  !
 ! D20   D(7,2,4,6)             -0.9544         calculate D2E/DX2 analytically  !
 ! D21   D(7,2,4,12)           127.0601         calculate D2E/DX2 analytically  !
 ! D22   D(8,2,4,1)            110.9658         calculate D2E/DX2 analytically  !
 ! D23   D(8,2,4,6)           -133.143          calculate D2E/DX2 analytically  !
 ! D24   D(8,2,4,12)            -5.1285         calculate D2E/DX2 analytically  !
 ! D25   D(3,2,7,9)             70.1524         calculate D2E/DX2 analytically  !
 ! D26   D(3,2,7,13)          -170.3814         calculate D2E/DX2 analytically  !
 ! D27   D(3,2,7,15)           -48.5164         calculate D2E/DX2 analytically  !
 ! D28   D(4,2,7,9)            164.8677         calculate D2E/DX2 analytically  !
 ! D29   D(4,2,7,13)           -75.6662         calculate D2E/DX2 analytically  !
 ! D30   D(4,2,7,15)            46.1988         calculate D2E/DX2 analytically  !
 ! D31   D(8,2,7,9)            -62.1122         calculate D2E/DX2 analytically  !
 ! D32   D(8,2,7,13)            57.3539         calculate D2E/DX2 analytically  !
 ! D33   D(8,2,7,15)           179.219          calculate D2E/DX2 analytically  !
 ! D34   D(3,2,8,10)           164.6385         calculate D2E/DX2 analytically  !
 ! D35   D(3,2,8,14)           -75.8416         calculate D2E/DX2 analytically  !
 ! D36   D(3,2,8,16)            45.8844         calculate D2E/DX2 analytically  !
 ! D37   D(4,2,8,10)            70.5559         calculate D2E/DX2 analytically  !
 ! D38   D(4,2,8,14)          -169.9242         calculate D2E/DX2 analytically  !
 ! D39   D(4,2,8,16)           -48.1982         calculate D2E/DX2 analytically  !
 ! D40   D(7,2,8,10)           -61.9674         calculate D2E/DX2 analytically  !
 ! D41   D(7,2,8,14)            57.5525         calculate D2E/DX2 analytically  !
 ! D42   D(7,2,8,16)           179.2785         calculate D2E/DX2 analytically  !
 ! D43   D(2,7,9,17)           179.9845         calculate D2E/DX2 analytically  !
 ! D44   D(13,7,9,17)           59.311          calculate D2E/DX2 analytically  !
 ! D45   D(15,7,9,17)          -60.4349         calculate D2E/DX2 analytically  !
 ! D46   D(2,8,10,18)         -179.96           calculate D2E/DX2 analytically  !
 ! D47   D(14,8,10,18)          59.4183         calculate D2E/DX2 analytically  !
 ! D48   D(16,8,10,18)         -60.4133         calculate D2E/DX2 analytically  !
 ! D49   D(7,9,17,19)            0.7464         calculate D2E/DX2 analytically  !
 ! D50   D(7,9,17,21)         -179.4251         calculate D2E/DX2 analytically  !
 ! D51   D(8,10,18,20)           0.6912         calculate D2E/DX2 analytically  !
 ! D52   D(8,10,18,22)        -179.4253         calculate D2E/DX2 analytically  !
 ! D53   D(9,17,19,21)         179.7925         calculate D2E/DX2 analytically  !
 ! D54   D(10,18,20,22)        179.8588         calculate D2E/DX2 analytically  !
 --------------------------------------------------------------------------------
 Trust Radius=3.00D-01 FncErr=1.00D-07 GrdErr=1.00D-06
 Number of steps in this run=    125 maximum allowed number of steps=    132.
 GradGradGradGradGradGradGradGradGradGradGradGradGradGradGradGradGradGrad

 Leave Link  103 at Sun Aug 22 16:32:19 2021, MaxMem= 24159191040 cpu:         0.5
 (Enter /public/home/users/caep010/software/Gaussian09/g09/l202.exe)
                          Input orientation:                          
 ---------------------------------------------------------------------
 Center     Atomic      Atomic             Coordinates (Angstroms)
 Number     Number       Type             X           Y           Z
 ---------------------------------------------------------------------
      1          8           0        0.043900    3.324400   -0.017600
      2          6           0       -0.006800    1.169500    0.006500
      3          6           0       -0.500300    2.323400   -0.904400
      4          6           0        0.500800    2.320400    0.913900
      5          1           0       -0.053400    2.364400   -1.905700
      6          1           0        0.005500    2.401600    1.890100
      7          6           0       -1.103400    0.325600    0.643800
      8          6           0        1.093300    0.330700   -0.634900
      9          8           0       -1.693500   -0.432800   -0.438100
     10          8           0        1.683700   -0.433000    0.441500
     11          1           0       -1.591100    2.394700   -1.001000
     12          1           0        1.587100    2.349800    1.064400
     13          1           0       -0.702200   -0.355100    1.398600
     14          1           0        0.692600   -0.345300   -1.395100
     15          1           0       -1.866000    0.959600    1.104600
     16          1           0        1.853800    0.970400   -1.091700
     17          7           0       -2.751900   -1.291900   -0.029600
     18          7           0        2.745700   -1.286800    0.027500
     19          8           0       -3.047500   -1.286100    1.146800
     20          8           0        3.041500   -1.272200   -1.148900
     21          8           0       -3.218000   -1.919400   -0.946500
     22          8           0        3.212200   -1.919200    0.940500
 ---------------------------------------------------------------------
                    Distance matrix (angstroms):
                    1          2          3          4          5
     1  O    0.000000
     2  C    2.155631   0.000000
     3  C    1.443804   1.550731   0.000000
     4  C    1.443768   1.551001   2.075675   0.000000
     5  H    2.120375   2.255320   1.097270   2.873885   0.000000
     6  H    2.119517   2.250816   2.840982   1.097671   3.796439
     7  C    3.278193   1.523434   2.598434   2.574032   3.429163
     8  C    3.231801   1.524860   2.565744   2.590124   2.658155
     9  O    4.160761   2.368542   3.039375   3.771335   3.559228
    10  O    4.125260   2.369604   3.765507   3.033748   4.043799
    11  H    2.122414   2.241914   1.097388   2.836972   1.784355
    12  H    2.121800   2.247838   2.869514   1.097070   3.393073
    13  H    4.012606   2.178515   3.538211   2.973288   4.328397
    14  H    3.973036   2.179051   2.964078   3.531887   2.856519
    15  H    3.240267   2.169448   2.785887   2.736765   3.784295
    16  H    3.157649   2.169681   2.721668   2.770477   2.498648
    17  N    5.396931   3.687190   4.348031   4.951662   4.916318
    18  N    5.344616   3.689188   4.943531   4.340181   4.990339
    19  O    5.671798   4.071377   4.870743   5.064733   5.622147
    20  O    5.603051   4.072957   5.052966   4.859740   4.834875
    21  O    6.245021   4.556459   5.038752   5.938558   5.411626
    22  O    6.200921   4.557893   5.931776   5.032555   6.092145
                    6          7          8          9         10
     6  H    0.000000
     7  C    2.663212   0.000000
     8  C    3.442029   2.541769   0.000000
     9  O    4.042393   1.447030   2.896190   0.000000
    10  O    3.598577   2.895570   1.445838   3.489868   0.000000
    11  H    3.302671   2.687823   3.405896   2.884805   4.560812
    12  H    1.784915   3.393093   2.684814   4.556611   2.853298
    13  H    2.888219   1.092720   2.798082   2.088583   2.571892
    14  H    4.337062   2.798720   1.093362   2.572349   2.088796
    15  H    2.489756   1.093550   3.489818   2.085295   3.870324
    16  H    3.788889   3.488948   1.093729   3.870336   2.085466
    17  N    4.993040   2.405686   4.217201   1.423073   4.542487
    18  N    4.958051   4.218439   2.405308   4.544513   1.424154
    19  O    4.844836   2.574900   4.789021   2.252409   4.858959
    20  O    5.652400   4.790296   2.574678   4.861075   2.253275
    21  O    6.091658   3.469959   4.873126   2.189189   5.306844
    22  O    5.463879   4.873557   3.468958   5.308090   2.189544
                   11         12         13         14         15
    11  H    0.000000
    12  H    3.790626   0.000000
    13  H    3.756278   3.559363   0.000000
    14  H    3.588621   3.756705   3.122551   0.000000
    15  H    2.562935   3.722657   1.780254   3.807584   0.000000
    16  H    3.728833   2.573449   3.806794   1.780872   4.319810
    17  N    3.985235   5.769379   2.668074   3.824294   2.672168
    18  N    5.780925   3.955044   3.825702   2.669351   5.241587
    19  O    4.503602   5.891186   2.535862   4.618951   2.537891
    20  O    5.910077   4.486966   4.620186   2.537142   5.843180
    21  O    4.610990   6.734892   3.778330   4.239319   3.784647
    22  O    6.741724   4.569536   4.240141   3.778965   5.839737
                   16         17         18         19         20
    16  H    0.000000
    17  N    5.240089   0.000000
    18  N    2.672648   5.497899   0.000000
    19  O    5.841696   1.212984   5.900339   0.000000
    20  O    2.538338   5.900568   1.213107   6.507408   0.000000
    21  O    5.839108   1.204870   6.075737   2.193637   6.296124
    22  O    3.784822   6.074956   1.204625   6.295015   2.193933
                   21         22
    21  O    0.000000
    22  O    6.701361   0.000000
 Stoichiometry    C5H8N2O7
 Framework group  C1[X(C5H8N2O7)]
 Deg. of freedom    60
 Full point group                 C1      NOp   1
 Largest Abelian subgroup         C1      NOp   1
 Largest concise Abelian subgroup C1      NOp   1
                         Standard orientation:                         
 ---------------------------------------------------------------------
 Center     Atomic      Atomic             Coordinates (Angstroms)
 Number     Number       Type             X           Y           Z
 ---------------------------------------------------------------------
      1          8           0        0.071865    3.323927   -0.015035
      2          6           0        0.003261    1.169504    0.007279
      3          6           0       -0.480610    2.328219   -0.902674
      4          6           0        0.520383    2.315395    0.915642
      5          1           0       -0.033359    2.366333   -1.903931
      6          1           0        0.025749    2.399899    1.891899
      7          6           0       -1.100330    0.334217    0.643859
      8          6           0        1.096370    0.322123   -0.634795
      9          8           0       -1.696683   -0.418357   -0.438681
     10          8           0        1.680376   -0.447347    0.440983
     11          1           0       -1.570778    2.408660   -0.999236
     12          1           0        1.606886    2.335643    1.066187
     13          1           0       -0.704819   -0.350418    1.398102
     14          1           0        0.690087   -0.349894   -1.395562
     15          1           0       -1.857647    0.974150    1.105169
     16          1           0        1.862171    0.955860   -1.091050
     17          7           0       -2.762195   -1.268971   -0.030913
     18          7           0        2.735256   -1.309599    0.026297
     19          8           0       -3.057767   -1.261689    1.145486
     20          8           0        3.031197   -1.296483   -1.150085
     21          8           0       -3.233469   -1.891817   -0.948341
     22          8           0        3.196461   -1.946609    0.938781
 ---------------------------------------------------------------------
 Rotational constants (GHZ):      0.7276920      0.4592871      0.3259806
 Leave Link  202 at Sun Aug 22 16:32:19 2021, MaxMem= 24159191040 cpu:         1.2
 (Enter /public/home/users/caep010/software/Gaussian09/g09/l301.exe)
 Standard basis: 6-31G(d,p) (6D, 7F)
 Ernie: Thresh=  0.10000D-02 Tol=  0.10000D-05 Strict=F.
 There are   250 symmetry adapted cartesian basis functions of A   symmetry.
 There are   250 symmetry adapted basis functions of A   symmetry.
   250 basis functions,   448 primitive gaussians,   250 cartesian basis functions
    54 alpha electrons       54 beta electrons
       nuclear repulsion energy       964.2401521984 Hartrees.
 IExCor=  402 DFT=T Ex+Corr=B3LYP ExCW=0 ScaHFX=  0.200000
 ScaDFX=  0.800000  0.720000  1.000000  0.810000 ScalE2=  1.000000  1.000000
 IRadAn=      0 IRanWt=     -1 IRanGd=            0 ICorTp=0 IEmpDi=  4
 NAtoms=   22 NActive=   22 NUniq=   22 SFac= 1.00D+00 NAtFMM=   60 NAOKFM=F Big=F
 Integral buffers will be    131072 words long.
 Raffenetti 2 integral format.
 Two-electron integral symmetry is turned on.
 Leave Link  301 at Sun Aug 22 16:32:19 2021, MaxMem= 24159191040 cpu:         1.9
 (Enter /public/home/users/caep010/software/Gaussian09/g09/l302.exe)
 NPDir=0 NMtPBC=     1 NCelOv=     1 NCel=       1 NClECP=     1 NCelD=      1
         NCelK=      1 NCelE2=     1 NClLst=     1 CellRange=     0.0.
 One-electron integrals computed using PRISM.
 NBasis=   250 RedAO= T EigKep=  2.16D-03  NBF=   250
 NBsUse=   250 1.00D-06 EigRej= -1.00D+00 NBFU=   250
 Precomputing XC quadrature grid using
 IXCGrd= 4 IRadAn=           0 IRanWt=          -1 IRanGd=           0 AccXCQ= 0.00D+00.
 Generated NRdTot=       0 NPtTot=           0 NUsed=           0 NTot=          32
 NSgBfM=   248   248   248   248   248 MxSgAt=    22 MxSgA2=    22.
 Leave Link  302 at Sun Aug 22 16:32:19 2021, MaxMem= 24159191040 cpu:        12.4
 (Enter /public/home/users/caep010/software/Gaussian09/g09/l303.exe)
 DipDrv:  MaxL=1.
 Leave Link  303 at Sun Aug 22 16:32:19 2021, MaxMem= 24159191040 cpu:         1.2
 (Enter /public/home/users/caep010/software/Gaussian09/g09/l401.exe)
 ExpMin= 1.61D-01 ExpMax= 5.48D+03 ExpMxC= 8.25D+02 IAcc=1 IRadAn=         1 AccDes= 0.00D+00
 Harris functional with IExCor=  402 and IRadAn=       1 diagonalized for initial guess.
 HarFok:  IExCor=  402 AccDes= 0.00D+00 IRadAn=         1 IDoV= 1 UseB2=F ITyADJ=14
 ICtDFT=  3500011 ScaDFX=  1.000000  1.000000  1.000000  1.000000
 FoFCou: FMM=F IPFlag=           0 FMFlag=      100000 FMFlg1=           0
         NFxFlg=           0 DoJE=T BraDBF=F KetDBF=T FulRan=T
         wScrn=  0.000000 ICntrl=     500 IOpCl=  0 I1Cent=   200000004 NGrid=           0
         NMat0=    1 NMatS0=      1 NMatT0=    0 NMatD0=    1 NMtDS0=    0 NMtDT0=    0
 Petite list used in FoFCou.
 Harris En= -831.164568959484    
 JPrj=0 DoOrth=F DoCkMO=F.
 Leave Link  401 at Sun Aug 22 16:32:20 2021, MaxMem= 24159191040 cpu:        12.1
 (Enter /public/home/users/caep010/software/Gaussian09/g09/l502.exe)
 Closed shell SCF:
 Using DIIS extrapolation, IDIIS=  1040.
 Integral symmetry usage will be decided dynamically.
 Keep R1 ints in memory in canonical form, NReq=500333424.
 IVT=      215924 IEndB=      215924 NGot= 24159191040 MDV= 23666764117
 LenX= 23666764117 LenY= 23666701176
 Requested convergence on RMS density matrix=1.00D-08 within 128 cycles.
 Requested convergence on MAX density matrix=1.00D-06.
 Requested convergence on             energy=1.00D-06.
 No special actions if energy rises.
 FoFCou: FMM=F IPFlag=           0 FMFlag=           0 FMFlg1=           0
         NFxFlg=           0 DoJE=F BraDBF=F KetDBF=F FulRan=T
         wScrn=  0.000000 ICntrl=     600 IOpCl=  0 I1Cent=           0 NGrid=           0
         NMat0=    1 NMatS0=  31375 NMatT0=    0 NMatD0=    1 NMtDS0=    0 NMtDT0=    0
 Symmetry not used in FoFCou.
 Integral accuracy reduced to 1.0D-05 until final iterations.

 Cycle   1  Pass 0  IDiag  1:
 E= -830.626251719418    
 DIIS: error= 2.91D-02 at cycle   1 NSaved=   1.
 NSaved= 1 IEnMin= 1 EnMin= -830.626251719418     IErMin= 1 ErrMin= 2.91D-02
 ErrMax= 2.91D-02  0.00D+00 EMaxC= 1.00D-01 BMatC= 6.38D-01 BMatP= 6.38D-01
 IDIUse=3 WtCom= 7.09D-01 WtEn= 2.91D-01
 Coeff-Com:  0.100D+01
 Coeff-En:   0.100D+01
 Coeff:      0.100D+01
 Gap=     0.014 Goal=   None    Shift=    0.000
 GapD=    0.014 DampG=0.250 DampE=0.500 DampFc=0.2500 IDamp=-1.
 Damping current iteration by 2.50D-01
 RMSDP=5.92D-03 MaxDP=2.67D-01              OVMax= 3.72D-01

 Cycle   2  Pass 0  IDiag  1:
 E= -830.798025837653     Delta-E=       -0.171774118236 Rises=F Damp=T
 DIIS: error= 1.22D-02 at cycle   2 NSaved=   2.
 NSaved= 2 IEnMin= 2 EnMin= -830.798025837653     IErMin= 2 ErrMin= 1.22D-02
 ErrMax= 1.22D-02  0.00D+00 EMaxC= 1.00D-01 BMatC= 7.69D-02 BMatP= 6.38D-01
 IDIUse=3 WtCom= 8.78D-01 WtEn= 1.22D-01
 Coeff-Com: -0.383D+00 0.138D+01
 Coeff-En:   0.000D+00 0.100D+01
 Coeff:     -0.336D+00 0.134D+01
 Gap=     0.156 Goal=   None    Shift=    0.000
 RMSDP=1.29D-03 MaxDP=3.88D-02 DE=-1.72D-01 OVMax= 2.37D-01

 Cycle   3  Pass 0  IDiag  1:
 E= -831.077605966402     Delta-E=       -0.279580128749 Rises=F Damp=F
 DIIS: error= 5.19D-03 at cycle   3 NSaved=   3.
 NSaved= 3 IEnMin= 3 EnMin= -831.077605966402     IErMin= 3 ErrMin= 5.19D-03
 ErrMax= 5.19D-03  0.00D+00 EMaxC= 1.00D-01 BMatC= 2.59D-02 BMatP= 7.69D-02
 IDIUse=3 WtCom= 9.48D-01 WtEn= 5.19D-02
 Coeff-Com: -0.186D+00 0.660D+00 0.526D+00
 Coeff-En:   0.000D+00 0.000D+00 0.100D+01
 Coeff:     -0.176D+00 0.626D+00 0.551D+00
 Gap=     0.204 Goal=   None    Shift=    0.000
 RMSDP=8.92D-04 MaxDP=3.20D-02 DE=-2.80D-01 OVMax= 4.49D-02

 Cycle   4  Pass 0  IDiag  1:
 E= -831.089056255632     Delta-E=       -0.011450289230 Rises=F Damp=F
 DIIS: error= 4.00D-03 at cycle   4 NSaved=   4.
 NSaved= 4 IEnMin= 4 EnMin= -831.089056255632     IErMin= 4 ErrMin= 4.00D-03
 ErrMax= 4.00D-03  0.00D+00 EMaxC= 1.00D-01 BMatC= 1.28D-02 BMatP= 2.59D-02
 IDIUse=3 WtCom= 9.60D-01 WtEn= 4.00D-02
 Coeff-Com: -0.495D-01 0.171D+00 0.394D+00 0.484D+00
 Coeff-En:   0.000D+00 0.000D+00 0.350D+00 0.650D+00
 Coeff:     -0.475D-01 0.164D+00 0.392D+00 0.491D+00
 Gap=     0.197 Goal=   None    Shift=    0.000
 RMSDP=4.08D-04 MaxDP=1.42D-02 DE=-1.15D-02 OVMax= 2.77D-02

 Cycle   5  Pass 0  IDiag  1:
 E= -831.098448927886     Delta-E=       -0.009392672254 Rises=F Damp=F
 DIIS: error= 1.49D-03 at cycle   5 NSaved=   5.
 NSaved= 5 IEnMin= 5 EnMin= -831.098448927886     IErMin= 5 ErrMin= 1.49D-03
 ErrMax= 1.49D-03  0.00D+00 EMaxC= 1.00D-01 BMatC= 8.85D-04 BMatP= 1.28D-02
 IDIUse=3 WtCom= 9.85D-01 WtEn= 1.49D-02
 Coeff-Com: -0.111D-01 0.384D-01 0.171D+00 0.284D+00 0.518D+00
 Coeff-En:   0.000D+00 0.000D+00 0.000D+00 0.101D-01 0.990D+00
 Coeff:     -0.110D-01 0.379D-01 0.168D+00 0.280D+00 0.525D+00
 Gap=     0.195 Goal=   None    Shift=    0.000
 RMSDP=1.34D-04 MaxDP=4.63D-03 DE=-9.39D-03 OVMax= 1.01D-02

 Cycle   6  Pass 0  IDiag  1:
 E= -831.098924035158     Delta-E=       -0.000475107272 Rises=F Damp=F
 DIIS: error= 1.12D-03 at cycle   6 NSaved=   6.
 NSaved= 6 IEnMin= 6 EnMin= -831.098924035158     IErMin= 6 ErrMin= 1.12D-03
 ErrMax= 1.12D-03  0.00D+00 EMaxC= 1.00D-01 BMatC= 3.26D-04 BMatP= 8.85D-04
 IDIUse=3 WtCom= 9.89D-01 WtEn= 1.12D-02
 Coeff-Com: -0.263D-02 0.832D-02 0.759D-01 0.147D+00 0.394D+00 0.378D+00
 Coeff-En:   0.000D+00 0.000D+00 0.000D+00 0.000D+00 0.280D+00 0.720D+00
 Coeff:     -0.260D-02 0.823D-02 0.751D-01 0.145D+00 0.392D+00 0.381D+00
 Gap=     0.196 Goal=   None    Shift=    0.000
 RMSDP=6.17D-05 MaxDP=2.78D-03 DE=-4.75D-04 OVMax= 5.83D-03

 Cycle   7  Pass 0  IDiag  1:
 E= -831.099164802230     Delta-E=       -0.000240767072 Rises=F Damp=F
 DIIS: error= 1.97D-04 at cycle   7 NSaved=   7.
 NSaved= 7 IEnMin= 7 EnMin= -831.099164802230     IErMin= 7 ErrMin= 1.97D-04
 ErrMax= 1.97D-04  0.00D+00 EMaxC= 1.00D-01 BMatC= 1.78D-05 BMatP= 3.26D-04
 IDIUse=3 WtCom= 9.98D-01 WtEn= 1.97D-03
 Coeff-Com: -0.143D-03-0.868D-03 0.190D-01 0.444D-01 0.162D+00 0.235D+00
 Coeff-Com:  0.541D+00
 Coeff-En:   0.000D+00 0.000D+00 0.000D+00 0.000D+00 0.000D+00 0.222D-01
 Coeff-En:   0.978D+00
 Coeff:     -0.142D-03-0.867D-03 0.190D-01 0.443D-01 0.162D+00 0.234D+00
 Coeff:      0.542D+00
 Gap=     0.197 Goal=   None    Shift=    0.000
 RMSDP=1.49D-05 MaxDP=3.37D-04 DE=-2.41D-04 OVMax= 7.76D-04

 Cycle   8  Pass 0  IDiag  1:
 E= -831.099178700612     Delta-E=       -0.000013898382 Rises=F Damp=F
 DIIS: error= 3.39D-05 at cycle   8 NSaved=   8.
 NSaved= 8 IEnMin= 8 EnMin= -831.099178700612     IErMin= 8 ErrMin= 3.39D-05
 ErrMax= 3.39D-05  0.00D+00 EMaxC= 1.00D-01 BMatC= 5.38D-07 BMatP= 1.78D-05
 IDIUse=1 WtCom= 1.00D+00 WtEn= 0.00D+00
 Coeff-Com:  0.927D-04-0.106D-02 0.320D-02 0.925D-02 0.472D-01 0.793D-01
 Coeff-Com:  0.236D+00 0.626D+00
 Coeff:      0.927D-04-0.106D-02 0.320D-02 0.925D-02 0.472D-01 0.793D-01
 Coeff:      0.236D+00 0.626D+00
 Gap=     0.197 Goal=   None    Shift=    0.000
 RMSDP=3.51D-06 MaxDP=1.40D-04 DE=-1.39D-05 OVMax= 1.52D-04

 Initial convergence to 1.0D-05 achieved.  Increase integral accuracy.
 Cycle   9  Pass 1  IDiag  1:
 E= -831.099220033828     Delta-E=       -0.000041333216 Rises=F Damp=F
 DIIS: error= 1.80D-05 at cycle   1 NSaved=   1.
 NSaved= 1 IEnMin= 1 EnMin= -831.099220033828     IErMin= 1 ErrMin= 1.80D-05
 ErrMax= 1.80D-05  0.00D+00 EMaxC= 1.00D-01 BMatC= 1.90D-07 BMatP= 1.90D-07
 IDIUse=1 WtCom= 1.00D+00 WtEn= 0.00D+00
 Coeff-Com:  0.100D+01
 Coeff:      0.100D+01
 Gap=     0.197 Goal=   None    Shift=    0.000
 RMSDP=3.51D-06 MaxDP=1.40D-04 DE=-4.13D-05 OVMax= 1.20D-04

 Cycle  10  Pass 1  IDiag  1:
 E= -831.099220105781     Delta-E=       -0.000000071953 Rises=F Damp=F
 DIIS: error= 2.46D-05 at cycle   2 NSaved=   2.
 NSaved= 2 IEnMin= 2 EnMin= -831.099220105781     IErMin= 1 ErrMin= 1.80D-05
 ErrMax= 2.46D-05  0.00D+00 EMaxC= 1.00D-01 BMatC= 1.80D-07 BMatP= 1.90D-07
 IDIUse=1 WtCom= 1.00D+00 WtEn= 0.00D+00
 Coeff-Com:  0.491D+00 0.509D+00
 Coeff:      0.491D+00 0.509D+00
 Gap=     0.197 Goal=   None    Shift=    0.000
 RMSDP=1.82D-06 MaxDP=1.10D-04 DE=-7.20D-08 OVMax= 1.02D-04

 Cycle  11  Pass 1  IDiag  1:
 E= -831.099220212537     Delta-E=       -0.000000106756 Rises=F Damp=F
 DIIS: error= 1.03D-05 at cycle   3 NSaved=   3.
 NSaved= 3 IEnMin= 3 EnMin= -831.099220212537     IErMin= 3 ErrMin= 1.03D-05
 ErrMax= 1.03D-05  0.00D+00 EMaxC= 1.00D-01 BMatC= 3.21D-08 BMatP= 1.80D-07
 IDIUse=1 WtCom= 1.00D+00 WtEn= 0.00D+00
 Coeff-Com: -0.146D-02 0.293D+00 0.709D+00
 Coeff:     -0.146D-02 0.293D+00 0.709D+00
 Gap=     0.197 Goal=   None    Shift=    0.000
 RMSDP=6.66D-07 MaxDP=3.00D-05 DE=-1.07D-07 OVMax= 2.87D-05

 Cycle  12  Pass 1  IDiag  1:
 E= -831.099220233637     Delta-E=       -0.000000021101 Rises=F Damp=F
 DIIS: error= 2.39D-06 at cycle   4 NSaved=   4.
 NSaved= 4 IEnMin= 4 EnMin= -831.099220233637     IErMin= 4 ErrMin= 2.39D-06
 ErrMax= 2.39D-06  0.00D+00 EMaxC= 1.00D-01 BMatC= 3.51D-09 BMatP= 3.21D-08
 IDIUse=1 WtCom= 1.00D+00 WtEn= 0.00D+00
 Coeff-Com: -0.154D-01 0.171D+00 0.452D+00 0.393D+00
 Coeff:     -0.154D-01 0.171D+00 0.452D+00 0.393D+00
 Gap=     0.197 Goal=   None    Shift=    0.000
 RMSDP=2.27D-07 MaxDP=1.03D-05 DE=-2.11D-08 OVMax= 1.57D-05

 Cycle  13  Pass 1  IDiag  1:
 E= -831.099220236158     Delta-E=       -0.000000002521 Rises=F Damp=F
 DIIS: error= 7.71D-07 at cycle   5 NSaved=   5.
 NSaved= 5 IEnMin= 5 EnMin= -831.099220236158     IErMin= 5 ErrMin= 7.71D-07
 ErrMax= 7.71D-07  0.00D+00 EMaxC= 1.00D-01 BMatC= 3.11D-10 BMatP= 3.51D-09
 IDIUse=1 WtCom= 1.00D+00 WtEn= 0.00D+00
 Coeff-Com: -0.995D-02 0.761D-01 0.210D+00 0.260D+00 0.464D+00
 Coeff:     -0.995D-02 0.761D-01 0.210D+00 0.260D+00 0.464D+00
 Gap=     0.197 Goal=   None    Shift=    0.000
 RMSDP=6.48D-08 MaxDP=2.63D-06 DE=-2.52D-09 OVMax= 4.06D-06

 Cycle  14  Pass 1  IDiag  1:
 E= -831.099220236381     Delta-E=       -0.000000000223 Rises=F Damp=F
 DIIS: error= 3.04D-07 at cycle   6 NSaved=   6.
 NSaved= 6 IEnMin= 6 EnMin= -831.099220236381     IErMin= 6 ErrMin= 3.04D-07
 ErrMax= 3.04D-07  0.00D+00 EMaxC= 1.00D-01 BMatC= 3.15D-11 BMatP= 3.11D-10
 IDIUse=1 WtCom= 1.00D+00 WtEn= 0.00D+00
 Coeff-Com: -0.468D-02 0.315D-01 0.884D-01 0.129D+00 0.292D+00 0.463D+00
 Coeff:     -0.468D-02 0.315D-01 0.884D-01 0.129D+00 0.292D+00 0.463D+00
 Gap=     0.197 Goal=   None    Shift=    0.000
 RMSDP=2.55D-08 MaxDP=1.29D-06 DE=-2.23D-10 OVMax= 2.09D-06

 Cycle  15  Pass 1  IDiag  1:
 E= -831.099220236389     Delta-E=       -0.000000000009 Rises=F Damp=F
 DIIS: error= 1.50D-07 at cycle   7 NSaved=   7.
 NSaved= 7 IEnMin= 7 EnMin= -831.099220236389     IErMin= 7 ErrMin= 1.50D-07
 ErrMax= 1.50D-07  0.00D+00 EMaxC= 1.00D-01 BMatC= 8.95D-12 BMatP= 3.15D-11
 IDIUse=1 WtCom= 1.00D+00 WtEn= 0.00D+00
 Coeff-Com: -0.982D-03 0.425D-02 0.125D-01 0.304D-01 0.938D-01 0.352D+00
 Coeff-Com:  0.508D+00
 Coeff:     -0.982D-03 0.425D-02 0.125D-01 0.304D-01 0.938D-01 0.352D+00
 Coeff:      0.508D+00
 Gap=     0.197 Goal=   None    Shift=    0.000
 RMSDP=1.05D-08 MaxDP=4.62D-07 DE=-8.64D-12 OVMax= 8.66D-07

 Cycle  16  Pass 1  IDiag  1:
 E= -831.099220236389     Delta-E=        0.000000000000 Rises=F Damp=F
 DIIS: error= 2.50D-08 at cycle   8 NSaved=   8.
 NSaved= 8 IEnMin= 7 EnMin= -831.099220236389     IErMin= 8 ErrMin= 2.50D-08
 ErrMax= 2.50D-08  0.00D+00 EMaxC= 1.00D-01 BMatC= 6.16D-13 BMatP= 8.95D-12
 IDIUse=1 WtCom= 1.00D+00 WtEn= 0.00D+00
 Coeff-Com: -0.521D-04-0.119D-02-0.305D-02 0.357D-02 0.210D-01 0.155D+00
 Coeff-Com:  0.294D+00 0.530D+00
 Coeff:     -0.521D-04-0.119D-02-0.305D-02 0.357D-02 0.210D-01 0.155D+00
 Coeff:      0.294D+00 0.530D+00
 Gap=     0.197 Goal=   None    Shift=    0.000
 RMSDP=3.14D-09 MaxDP=1.21D-07 DE= 4.55D-13 OVMax= 1.22D-07

 SCF Done:  E(RB3LYP) =  -831.099220236     A.U. after   16 cycles
            NFock= 16  Conv=0.31D-08     -V/T= 2.0086
 KE= 8.240022828727D+02 PE=-3.875060610660D+03 EE= 1.255718955353D+03
 Leave Link  502 at Sun Aug 22 16:32:36 2021, MaxMem= 24159191040 cpu:       138.1
 (Enter /public/home/users/caep010/software/Gaussian09/g09/l801.exe)
 DoSCS=F DFT=T ScalE2(SS,OS)=  1.000000  1.000000
 Range of M.O.s used for correlation:     1   250
 NBasis=   250 NAE=    54 NBE=    54 NFC=     0 NFV=     0
 NROrb=    250 NOA=    54 NOB=    54 NVA=   196 NVB=   196
 Leave Link  801 at Sun Aug 22 16:32:36 2021, MaxMem= 24159191040 cpu:         0.6
 (Enter /public/home/users/caep010/software/Gaussian09/g09/l1101.exe)
 Using compressed storage, NAtomX=    22.
 Will process     23 centers per pass.
 Leave Link 1101 at Sun Aug 22 16:32:37 2021, MaxMem= 24159191040 cpu:        13.5
 (Enter /public/home/users/caep010/software/Gaussian09/g09/l1102.exe)
 Symmetrizing basis deriv contribution to polar:
 IMax=3 JMax=2 DiffMx= 0.00D+00
 Leave Link 1102 at Sun Aug 22 16:32:37 2021, MaxMem= 24159191040 cpu:         0.7
 (Enter /public/home/users/caep010/software/Gaussian09/g09/l1110.exe)
 Forming Gx(P) for the SCF density, NAtomX=    22.
 Integral derivatives from FoFJK, PRISM(SPDF).
 Do as many integral derivatives as possible in FoFJK.
 G2DrvN: MDV=   24159190760.
 G2DrvN: will do    23 centers at a time, making    1 passes.
 Calling FoFCou, ICntrl=  3107 FMM=F I1Cent=   0 AccDes= 0.00D+00.
 FoFJK:  IHMeth= 1 ICntrl=    3107 DoSepK=F KAlg= 0 I1Cent=   0 FoldK=F
 IRaf=         0 NMat=   1 IRICut=       1 DoRegI=T DoRafI=F ISym2E= 0.
 FoFCou: FMM=F IPFlag=           0 FMFlag=      100000 FMFlg1=           0
         NFxFlg=           0 DoJE=F BraDBF=F KetDBF=F FulRan=T
         wScrn=  0.000000 ICntrl=    3107 IOpCl=  0 I1Cent=           0 NGrid=           0
         NMat0=    1 NMatS0=      1 NMatT0=    0 NMatD0=    1 NMtDS0=    0 NMtDT0=    0
 Symmetry not used in FoFCou.
 End of G2Drv F.D. properties file   721 does not exist.
 End of G2Drv F.D. properties file   722 does not exist.
 End of G2Drv F.D. properties file   788 does not exist.
 Leave Link 1110 at Sun Aug 22 16:32:45 2021, MaxMem= 24159191040 cpu:       257.3
 (Enter /public/home/users/caep010/software/Gaussian09/g09/l1002.exe)
 Minotr:  Closed shell wavefunction.
          IDoAtm=1111111111111111111111
          Direct CPHF calculation.
          Differentiating once with respect to nuclear coordinates.
          Requested convergence is 1.0D-08 RMS, and 1.0D-07 maximum.
          Secondary convergence is 1.0D-12 RMS, and 1.0D-12 maximum.
          NewPWx=T KeepS1=F KeepF1=F KeepIn=T MapXYZ=F SortEE=F KeepMc=T.
          MDV=   24159190566 using IRadAn=       2.
 Generate precomputed XC quadrature information.
 Keep R1 ints in memory in canonical form, NReq=500124568.
 FoFCou: FMM=F IPFlag=           0 FMFlag=           0 FMFlg1=           0
         NFxFlg=           0 DoJE=F BraDBF=F KetDBF=F FulRan=T
         wScrn=  0.000000 ICntrl=     600 IOpCl=  0 I1Cent=           0 NGrid=           0
         NMat0=    1 NMatS0=  31375 NMatT0=    0 NMatD0=    1 NMtDS0=    0 NMtDT0=    0
 Symmetry not used in FoFCou.
          Solving linear equations simultaneously, MaxMat=       0.
          There are    69 degrees of freedom in the 1st order CPHF.  IDoFFX=6 NUNeed=     0.
     63 vectors produced by pass  0 Test12= 1.53D-14 1.45D-09 XBig12= 2.50D-01 8.70D-02.
 AX will form    63 AO Fock derivatives at one time.
     63 vectors produced by pass  1 Test12= 1.53D-14 1.45D-09 XBig12= 1.10D-02 2.49D-02.
     63 vectors produced by pass  2 Test12= 1.53D-14 1.45D-09 XBig12= 3.08D-04 3.17D-03.
     63 vectors produced by pass  3 Test12= 1.53D-14 1.45D-09 XBig12= 3.18D-06 4.04D-04.
     63 vectors produced by pass  4 Test12= 1.53D-14 1.45D-09 XBig12= 6.47D-09 9.86D-06.
     59 vectors produced by pass  5 Test12= 1.53D-14 1.45D-09 XBig12= 6.81D-12 3.25D-07.
     14 vectors produced by pass  6 Test12= 1.53D-14 1.45D-09 XBig12= 5.80D-15 1.25D-08.
 InvSVY:  IOpt=1 It=  1 EMax= 6.11D-16
 Solved reduced A of dimension   388 with    69 vectors.
 End of Minotr F.D. properties file   721 does not exist.
 End of Minotr F.D. properties file   722 does not exist.
 End of Minotr F.D. properties file   788 does not exist.
 Leave Link 1002 at Sun Aug 22 16:32:57 2021, MaxMem= 24159191040 cpu:       373.2
 (Enter /public/home/users/caep010/software/Gaussian09/g09/l601.exe)
 Copying SCF densities to generalized density rwf, IOpCl= 0 IROHF=0.

 **********************************************************************

            Population analysis using the SCF density.

 **********************************************************************

 Orbital symmetries:
       Occupied  (A) (A) (A) (A) (A) (A) (A) (A) (A) (A) (A) (A)
                 (A) (A) (A) (A) (A) (A) (A) (A) (A) (A) (A) (A)
                 (A) (A) (A) (A) (A) (A) (A) (A) (A) (A) (A) (A)
                 (A) (A) (A) (A) (A) (A) (A) (A) (A) (A) (A) (A)
                 (A) (A) (A) (A) (A) (A)
       Virtual   (A) (A) (A) (A) (A) (A) (A) (A) (A) (A) (A) (A)
                 (A) (A) (A) (A) (A) (A) (A) (A) (A) (A) (A) (A)
                 (A) (A) (A) (A) (A) (A) (A) (A) (A) (A) (A) (A)
                 (A) (A) (A) (A) (A) (A) (A) (A) (A) (A) (A) (A)
                 (A) (A) (A) (A) (A) (A) (A) (A) (A) (A) (A) (A)
                 (A) (A) (A) (A) (A) (A) (A) (A) (A) (A) (A) (A)
                 (A) (A) (A) (A) (A) (A) (A) (A) (A) (A) (A) (A)
                 (A) (A) (A) (A) (A) (A) (A) (A) (A) (A) (A) (A)
                 (A) (A) (A) (A) (A) (A) (A) (A) (A) (A) (A) (A)
                 (A) (A) (A) (A) (A) (A) (A) (A) (A) (A) (A) (A)
                 (A) (A) (A) (A) (A) (A) (A) (A) (A) (A) (A) (A)
                 (A) (A) (A) (A) (A) (A) (A) (A) (A) (A) (A) (A)
                 (A) (A) (A) (A) (A) (A) (A) (A) (A) (A) (A) (A)
                 (A) (A) (A) (A) (A) (A) (A) (A) (A) (A) (A) (A)
                 (A) (A) (A) (A) (A) (A) (A) (A) (A) (A) (A) (A)
                 (A) (A) (A) (A) (A) (A) (A) (A) (A) (A) (A) (A)
                 (A) (A) (A) (A)
 The electronic state is 1-A.
 Alpha  occ. eigenvalues --  -19.25229 -19.25212 -19.22645 -19.22631 -19.22277
 Alpha  occ. eigenvalues --  -19.22255 -19.16658 -14.64824 -14.64822 -10.28104
 Alpha  occ. eigenvalues --  -10.28090 -10.26482 -10.26475 -10.24934  -1.29542
 Alpha  occ. eigenvalues --   -1.29531  -1.11455  -1.11433  -1.09312  -1.08787
 Alpha  occ. eigenvalues --   -1.06565  -0.85094  -0.77051  -0.72452  -0.72396
 Alpha  occ. eigenvalues --   -0.65995  -0.64063  -0.59915  -0.59651  -0.59218
 Alpha  occ. eigenvalues --   -0.59015  -0.57892  -0.55678  -0.55214  -0.52955
 Alpha  occ. eigenvalues --   -0.52346  -0.48428  -0.47876  -0.45772  -0.44678
 Alpha  occ. eigenvalues --   -0.44549  -0.42969  -0.40410  -0.36728  -0.36460
 Alpha  occ. eigenvalues --   -0.35752  -0.35428  -0.35160  -0.34330  -0.34278
 Alpha  occ. eigenvalues --   -0.33495  -0.32813  -0.32171  -0.27501
 Alpha virt. eigenvalues --   -0.07815  -0.07779   0.02187   0.02450   0.05947
 Alpha virt. eigenvalues --    0.07426   0.08432   0.09844   0.11241   0.11692
 Alpha virt. eigenvalues --    0.13222   0.14400   0.15068   0.15857   0.16121
 Alpha virt. eigenvalues --    0.17943   0.20506   0.20941   0.24134   0.24835
 Alpha virt. eigenvalues --    0.27788   0.30719   0.37000   0.37744   0.46299
 Alpha virt. eigenvalues --    0.47529   0.47838   0.49704   0.50906   0.53052
 Alpha virt. eigenvalues --    0.54150   0.56529   0.58164   0.59497   0.61318
 Alpha virt. eigenvalues --    0.61608   0.63366   0.63694   0.66253   0.66365
 Alpha virt. eigenvalues --    0.68074   0.69194   0.71359   0.74221   0.75768
 Alpha virt. eigenvalues --    0.77915   0.79388   0.79660   0.80513   0.80588
 Alpha virt. eigenvalues --    0.81855   0.82187   0.83958   0.85236   0.85714
 Alpha virt. eigenvalues --    0.85942   0.86753   0.88133   0.89919   0.90534
 Alpha virt. eigenvalues --    0.91946   0.92897   0.95222   0.96072   0.96582
 Alpha virt. eigenvalues --    0.97724   0.98018   1.00258   1.01574   1.02336
 Alpha virt. eigenvalues --    1.08390   1.09508   1.10138   1.12793   1.14495
 Alpha virt. eigenvalues --    1.17253   1.19988   1.24094   1.26848   1.28122
 Alpha virt. eigenvalues --    1.30672   1.32104   1.34775   1.37309   1.39901
 Alpha virt. eigenvalues --    1.40087   1.41619   1.44170   1.45052   1.46158
 Alpha virt. eigenvalues --    1.52870   1.57657   1.60423   1.62554   1.66046
 Alpha virt. eigenvalues --    1.68489   1.71634   1.71884   1.73695   1.74539
 Alpha virt. eigenvalues --    1.75276   1.75959   1.76241   1.76401   1.76938
 Alpha virt. eigenvalues --    1.77669   1.78211   1.79241   1.80933   1.84645
 Alpha virt. eigenvalues --    1.89154   1.90318   1.91013   1.91343   1.93779
 Alpha virt. eigenvalues --    1.94342   1.94462   1.96155   1.96801   1.97552
 Alpha virt. eigenvalues --    1.98650   2.00770   2.03345   2.03528   2.05020
 Alpha virt. eigenvalues --    2.07657   2.08710   2.09160   2.11763   2.13947
 Alpha virt. eigenvalues --    2.13955   2.14460   2.17140   2.18291   2.20577
 Alpha virt. eigenvalues --    2.20811   2.30974   2.32854   2.42362   2.44208
 Alpha virt. eigenvalues --    2.46477   2.46933   2.47337   2.50059   2.55246
 Alpha virt. eigenvalues --    2.57026   2.57868   2.59132   2.60584   2.64146
 Alpha virt. eigenvalues --    2.66041   2.66974   2.68902   2.69465   2.71013
 Alpha virt. eigenvalues --    2.71475   2.74844   2.76109   2.76713   2.80211
 Alpha virt. eigenvalues --    2.80957   2.81318   2.83488   2.83944   2.85102
 Alpha virt. eigenvalues --    2.86168   2.89692   2.90388   2.93546   2.97951
 Alpha virt. eigenvalues --    3.03780   3.05039   3.07396   3.08084   3.21312
 Alpha virt. eigenvalues --    3.23003   3.27179   3.27314   3.39709   3.39761
 Alpha virt. eigenvalues --    3.43969   3.44719   3.60593   3.63099   3.81023
 Alpha virt. eigenvalues --    3.82012   3.84736   3.85917   4.00476   4.09229
 Alpha virt. eigenvalues --    4.09927   4.36895   4.41909   4.51935   4.56098
 Alpha virt. eigenvalues --    4.78230
          Condensed to atoms (all electrons):
               1          2          3          4          5          6
     1  O    8.231865  -0.066670   0.243966   0.243884  -0.037965  -0.038356
     2  C   -0.066670   5.155936   0.358078   0.358259  -0.028494  -0.029276
     3  C    0.243966   0.358078   4.781965  -0.160519   0.364448   0.005288
     4  C    0.243884   0.358259  -0.160519   4.781993   0.006634   0.361362
     5  H   -0.037965  -0.028494   0.364448   0.006634   0.642992  -0.001115
     6  H   -0.038356  -0.029276   0.005288   0.361362  -0.001115   0.648413
     7  C    0.003011   0.312855  -0.030602  -0.037029   0.003276  -0.006814
     8  C    0.002757   0.312161  -0.036410  -0.029847  -0.007075   0.003760
     9  O   -0.000000  -0.034387   0.000193   0.001979  -0.000027   0.000061
    10  O   -0.000001  -0.034129   0.001979  -0.000362   0.000068  -0.000042
    11  H   -0.037561  -0.029772   0.364048   0.005422  -0.055611   0.001825
    12  H   -0.037171  -0.028957   0.006719   0.367206   0.001241  -0.055526
    13  H   -0.000128  -0.025143   0.004585  -0.001569  -0.000154   0.001140
    14  H   -0.000128  -0.024970  -0.001787   0.004581   0.001371  -0.000156
    15  H    0.000850  -0.037037  -0.006247  -0.001265   0.000028   0.002302
    16  H    0.001394  -0.037721  -0.000857  -0.006042   0.001412   0.000086
    17  N    0.000000   0.003114  -0.000049  -0.000032   0.000004  -0.000002
    18  N    0.000000   0.003121  -0.000033  -0.000043  -0.000003   0.000004
    19  O    0.000000   0.001103  -0.000018   0.000010  -0.000000   0.000000
    20  O    0.000000   0.001105   0.000010  -0.000020   0.000000  -0.000000
    21  O   -0.000000  -0.000156  -0.000006   0.000001   0.000000   0.000000
    22  O   -0.000000  -0.000158   0.000001  -0.000006   0.000000   0.000000
               7          8          9         10         11         12
     1  O    0.003011   0.002757  -0.000000  -0.000001  -0.037561  -0.037171
     2  C    0.312855   0.312161  -0.034387  -0.034129  -0.029772  -0.028957
     3  C   -0.030602  -0.036410   0.000193   0.001979   0.364048   0.006719
     4  C   -0.037029  -0.029847   0.001979  -0.000362   0.005422   0.367206
     5  H    0.003276  -0.007075  -0.000027   0.000068  -0.055611   0.001241
     6  H   -0.006814   0.003760   0.000061  -0.000042   0.001825  -0.055526
     7  C    4.862208  -0.041251   0.141512   0.001058  -0.007691   0.002962
     8  C   -0.041251   4.861008   0.001116   0.141464   0.003442  -0.008323
     9  O    0.141512   0.001116   8.390704  -0.000306   0.002643  -0.000048
    10  O    0.001058   0.141464  -0.000306   8.390522  -0.000050   0.003149
    11  H   -0.007691   0.003442   0.002643  -0.000050   0.640123  -0.001098
    12  H    0.002962  -0.008323  -0.000048   0.003149  -0.001098   0.634166
    13  H    0.373159  -0.012136  -0.029714   0.008043   0.000238  -0.000022
    14  H   -0.012220   0.373027   0.008011  -0.029760  -0.000063   0.000266
    15  H    0.379958   0.005803  -0.031264   0.000089   0.001462  -0.000042
    16  H    0.005820   0.380576   0.000090  -0.031269   0.000031   0.000676
    17  N   -0.019687  -0.000011   0.148851  -0.000004  -0.000084   0.000000
    18  N   -0.000012  -0.019761  -0.000004   0.148936   0.000000  -0.000098
    19  O    0.004542  -0.000010  -0.094149  -0.000000   0.000003  -0.000000
    20  O   -0.000010   0.004548  -0.000000  -0.094000  -0.000000   0.000005
    21  O    0.004359  -0.000018  -0.095456   0.000000   0.000005  -0.000000
    22  O   -0.000018   0.004358   0.000000  -0.095419  -0.000000   0.000005
              13         14         15         16         17         18
     1  O   -0.000128  -0.000128   0.000850   0.001394   0.000000   0.000000
     2  C   -0.025143  -0.024970  -0.037037  -0.037721   0.003114   0.003121
     3  C    0.004585  -0.001787  -0.006247  -0.000857  -0.000049  -0.000033
     4  C   -0.001569   0.004581  -0.001265  -0.006042  -0.000032  -0.000043
     5  H   -0.000154   0.001371   0.000028   0.001412   0.000004  -0.000003
     6  H    0.001140  -0.000156   0.002302   0.000086  -0.000002   0.000004
     7  C    0.373159  -0.012220   0.379958   0.005820  -0.019687  -0.000012
     8  C   -0.012136   0.373027   0.005803   0.380576  -0.000011  -0.019761
     9  O   -0.029714   0.008011  -0.031264   0.000090   0.148851  -0.000004
    10  O    0.008043  -0.029760   0.000089  -0.031269  -0.000004   0.148936
    11  H    0.000238  -0.000063   0.001462   0.000031  -0.000084   0.000000
    12  H   -0.000022   0.000266  -0.000042   0.000676   0.000000  -0.000098
    13  H    0.569132   0.000400  -0.042581   0.000085  -0.005392  -0.000109
    14  H    0.000400   0.569718   0.000081  -0.042543  -0.000110  -0.005394
    15  H   -0.042581   0.000081   0.592354  -0.000061  -0.005647   0.000003
    16  H    0.000085  -0.042543  -0.000061   0.591370   0.000003  -0.005663
    17  N   -0.005392  -0.000110  -0.005647   0.000003   5.444398  -0.000000
    18  N   -0.000109  -0.005394   0.000003  -0.005663  -0.000000   5.444789
    19  O    0.005529   0.000018   0.005989   0.000000   0.309269  -0.000000
    20  O    0.000018   0.005505   0.000000   0.005984  -0.000000   0.309175
    21  O    0.000049   0.000031   0.000036  -0.000000   0.366315  -0.000000
    22  O    0.000031   0.000048  -0.000000   0.000038  -0.000000   0.366275
              19         20         21         22
     1  O    0.000000   0.000000  -0.000000  -0.000000
     2  C    0.001103   0.001105  -0.000156  -0.000158
     3  C   -0.000018   0.000010  -0.000006   0.000001
     4  C    0.000010  -0.000020   0.000001  -0.000006
     5  H   -0.000000   0.000000   0.000000   0.000000
     6  H    0.000000  -0.000000   0.000000   0.000000
     7  C    0.004542  -0.000010   0.004359  -0.000018
     8  C   -0.000010   0.004548  -0.000018   0.004358
     9  O   -0.094149  -0.000000  -0.095456   0.000000
    10  O   -0.000000  -0.094000   0.000000  -0.095419
    11  H    0.000003  -0.000000   0.000005  -0.000000
    12  H   -0.000000   0.000005  -0.000000   0.000005
    13  H    0.005529   0.000018   0.000049   0.000031
    14  H    0.000018   0.005505   0.000031   0.000048
    15  H    0.005989   0.000000   0.000036  -0.000000
    16  H    0.000000   0.005984  -0.000000   0.000038
    17  N    0.309269  -0.000000   0.366315  -0.000000
    18  N   -0.000000   0.309175  -0.000000   0.366275
    19  O    8.216558   0.000000  -0.088437  -0.000000
    20  O    0.000000   8.216015  -0.000000  -0.088309
    21  O   -0.088437  -0.000000   8.161009  -0.000000
    22  O   -0.000000  -0.088309  -0.000000   8.160566
 Mulliken charges:
               1
     1  O   -0.509748
     2  C   -0.128863
     3  C    0.105249
     4  C    0.105404
     5  H    0.108969
     6  H    0.107046
     7  C    0.060612
     8  C    0.060823
     9  O   -0.409804
    10  O   -0.409965
    11  H    0.112688
    12  H    0.114892
    13  H    0.154539
    14  H    0.154074
    15  H    0.135190
    16  H    0.136591
    17  N    0.759063
    18  N    0.758817
    19  O   -0.360409
    20  O   -0.360025
    21  O   -0.347731
    22  O   -0.347412
 Sum of Mulliken charges =  -0.00000
 Mulliken charges with hydrogens summed into heavy atoms:
               1
     1  O   -0.509748
     2  C   -0.128863
     3  C    0.326905
     4  C    0.327342
     7  C    0.350341
     8  C    0.351488
     9  O   -0.409804
    10  O   -0.409965
    17  N    0.759063
    18  N    0.758817
    19  O   -0.360409
    20  O   -0.360025
    21  O   -0.347731
    22  O   -0.347412
 APT charges:
               1
     1  O   -0.339951
     2  C   -0.321120
     3  C   -0.479559
     4  C   -0.480492
     5  H    0.398034
     6  H    0.403051
     7  C   -0.498168
     8  C   -0.500312
     9  O   -0.237848
    10  O   -0.238022
    11  H    0.403617
    12  H    0.400272
    13  H    0.303563
    14  H    0.303104
    15  H    0.491597
    16  H    0.491856
    17  N   -0.217173
    18  N   -0.216054
    19  O   -0.058012
    20  O   -0.059346
    21  O    0.225158
    22  O    0.225806
 Sum of APT charges =  -0.00000
 APT charges with hydrogens summed into heavy atoms:
               1
     1  O   -0.339951
     2  C   -0.321120
     3  C    0.322092
     4  C    0.322831
     7  C    0.296992
     8  C    0.294648
     9  O   -0.237848
    10  O   -0.238022
    17  N   -0.217173
    18  N   -0.216054
    19  O   -0.058012
    20  O   -0.059346
    21  O    0.225158
    22  O    0.225806
 Electronic spatial extent (au):  <R**2>=           3276.0149
 Charge=             -0.0000 electrons
 Dipole moment (field-independent basis, Debye):
    X=             -0.0381    Y=              2.2389    Z=              0.0477  Tot=              2.2397
 Quadrupole moment (field-independent basis, Debye-Ang):
   XX=            -90.7160   YY=            -90.1387   ZZ=            -79.4947
   XY=             -0.3131   XZ=             -0.9986   YZ=              0.1427
 Traceless Quadrupole moment (field-independent basis, Debye-Ang):
   XX=             -3.9329   YY=             -3.3556   ZZ=              7.2885
   XY=             -0.3131   XZ=             -0.9986   YZ=              0.1427
 Octapole moment (field-independent basis, Debye-Ang**2):
  XXX=              1.2925  YYY=            -55.6946  ZZZ=             -0.1431  XYY=             -1.9770
  XXY=             37.0632  XXZ=              0.3005  XZZ=              0.1751  YZZ=              8.7200
  YYZ=              0.2584  XYZ=              4.5428
 Hexadecapole moment (field-independent basis, Debye-Ang**3):
 XXXX=          -2246.6887 YYYY=          -1541.5064 ZZZZ=           -353.9154 XXXY=             -1.0754
 XXXZ=             12.2156 YYYX=             -4.0065 YYYZ=              1.3636 ZZZX=              3.5566
 ZZZY=             -0.4275 XXYY=           -635.4585 XXZZ=           -455.9297 YYZZ=           -276.6105
 XXYZ=              0.1193 YYXZ=             -4.0882 ZZXY=              0.3098
 N-N= 9.642401521984D+02 E-N=-3.875060613694D+03  KE= 8.240022828727D+02
  Exact polarizability:   0.000   0.000   0.000   0.000   0.000   0.000
 Approx polarizability: 128.541   0.079 126.276   4.059  -0.280 176.209
 No NMR shielding tensors so no spin-rotation constants.
 Leave Link  601 at Sun Aug 22 16:32:58 2021, MaxMem= 24159191040 cpu:        12.5
 (Enter /public/home/users/caep010/software/Gaussian09/g09/l701.exe)
 Compute integral second derivatives.
 ... and contract with generalized density number  0.
 Leave Link  701 at Sun Aug 22 16:32:58 2021, MaxMem= 24159191040 cpu:        12.9
 (Enter /public/home/users/caep010/software/Gaussian09/g09/l702.exe)
 L702 exits ... SP integral derivatives will be done elsewhere.
 Leave Link  702 at Sun Aug 22 16:32:58 2021, MaxMem= 24159191040 cpu:         0.6
 (Enter /public/home/users/caep010/software/Gaussian09/g09/l703.exe)
 Compute integral second derivatives, UseDBF=F ICtDFT=           0.
 Integral derivatives from FoFJK, PRISM(SPDF).
 Calling FoFJK, ICntrl=    100147 FMM=F ISym2X=0 I1Cent= 0 IOpClX= 0 NMat=1 NMatS=1 NMatT=0.
 FoFJK:  IHMeth= 1 ICntrl=  100147 DoSepK=F KAlg= 0 I1Cent=   0 FoldK=F
 IRaf=         0 NMat=   1 IRICut=       1 DoRegI=T DoRafI=F ISym2E= 0.
 FoFCou: FMM=F IPFlag=           0 FMFlag=      100000 FMFlg1=         800
         NFxFlg=           0 DoJE=F BraDBF=F KetDBF=F FulRan=T
         wScrn=  0.000000 ICntrl=  100147 IOpCl=  0 I1Cent=           0 NGrid=           0
         NMat0=    1 NMatS0=      1 NMatT0=    0 NMatD0=    1 NMtDS0=    0 NMtDT0=    0
 Symmetry not used in FoFCou.
 Leave Link  703 at Sun Aug 22 16:33:08 2021, MaxMem= 24159191040 cpu:       301.0
 (Enter /public/home/users/caep010/software/Gaussian09/g09/l716.exe)
 Dipole        =-1.49996892D-02 8.80831765D-01 1.87770743D-02
 Polarizability= 0.00000000D+00 0.00000000D+00 0.00000000D+00
                 0.00000000D+00 0.00000000D+00 0.00000000D+00
 ***** Axes restored to original set *****
 -------------------------------------------------------------------
 Center     Atomic                   Forces (Hartrees/Bohr)
 Number     Number              X              Y              Z
 -------------------------------------------------------------------
      1        8          -0.000089005   -0.000761661   -0.000131697
      2        6           0.000374661    0.000168867    0.000075605
      3        6          -0.000558934    0.000146138   -0.000056362
      4        6           0.000724690    0.000326691    0.000067001
      5        1           0.000022733    0.000120579    0.000182370
      6        1           0.000015403   -0.000016603   -0.000139558
      7        6          -0.000395027   -0.000163219   -0.000329395
      8        6          -0.000273860    0.000088031   -0.000302175
      9        8           0.000192723    0.000158217    0.000067651
     10        8           0.000196397   -0.000155867    0.000004132
     11        1           0.000516756    0.000053609    0.000064006
     12        1          -0.000667046   -0.000025508   -0.000072815
     13        1           0.000096064   -0.000086644    0.000139203
     14        1           0.000083158    0.000110851    0.000180198
     15        1          -0.000015237    0.000029368    0.000042530
     16        1          -0.000025121   -0.000001773    0.000050238
     17        7          -0.000140575   -0.000065382   -0.000113962
     18        7          -0.000207638    0.000132126   -0.000168070
     19        8          -0.000005761   -0.000003575    0.000177575
     20        8          -0.000009013   -0.000003851    0.000199212
     21        8           0.000057301    0.000022837    0.000014326
     22        8           0.000107333   -0.000073232    0.000049989
 -------------------------------------------------------------------
 Cartesian Forces:  Max     0.000761661 RMS     0.000228827
 FormGI is forming the generalized inverse of G from B-inverse, IUseBI=4.
 Leave Link  716 at Sun Aug 22 16:33:08 2021, MaxMem= 24159191040 cpu:         0.9
 (Enter /public/home/users/caep010/software/Gaussian09/g09/l103.exe)

 GradGradGradGradGradGradGradGradGradGradGradGradGradGradGradGradGradGrad
 Berny optimization.
 Red2BG is reusing G-inverse.
 Internal  Forces:  Max     0.000671713 RMS     0.000119410
 Search for a local minimum.
 Step number   1 out of a maximum of  125
 All quantities printed in internal units (Hartrees-Bohrs-Radians)
 RMS Force = .11941D-03 SwitMx=.10000D-02 MixMth= 2
 Mixed Optimization -- En-DIIS/RFO-DIIS
 Second derivative matrix not updated -- analytic derivatives used.
 ITU=  0
     Eigenvalues ---   -0.00005   0.00367   0.00380   0.00399   0.00422
     Eigenvalues ---    0.01373   0.01395   0.02435   0.02631   0.03618
     Eigenvalues ---    0.04586   0.04701   0.04789   0.04837   0.06326
     Eigenvalues ---    0.06361   0.06581   0.06697   0.07093   0.07103
     Eigenvalues ---    0.07416   0.08834   0.08918   0.09032   0.09232
     Eigenvalues ---    0.09663   0.09710   0.12940   0.13274   0.15530
     Eigenvalues ---    0.16139   0.18933   0.21037   0.22515   0.22944
     Eigenvalues ---    0.24824   0.26168   0.26261   0.28465   0.29111
     Eigenvalues ---    0.29443   0.31023   0.32470   0.32563   0.32596
     Eigenvalues ---    0.32822   0.33694   0.33818   0.33938   0.34037
     Eigenvalues ---    0.34240   0.34311   0.35735   0.35758   0.46233
     Eigenvalues ---    0.46357   0.66936   0.67055   0.84707   0.84884
 Eigenvalue     1 is  -4.70D-05 should be greater than     0.000000 Eigenvector:
                          D23       D12       D24       D11       D20
   1                    0.22294  -0.21949   0.21860  -0.21849   0.21815
                          D15       D14       D21       D22       D5
   1                   -0.21787  -0.21688   0.21382   0.21290  -0.21136
 RFO step:  Lambda=-4.72953591D-05 EMin=-4.70420394D-05
 I=     1 Eig=   -4.70D-05 Dot1= -1.92D-06
 I=     1 Stepn= -6.00D-01 RXN=   6.00D-01 EDone=F
 Mixed    1 eigenvectors in step.  Raw Step.Grad=  1.92D-06.
 RFO eigenvector is Hessian eigenvector with negative curvature.
 Taking step of  6.00D-01 in eigenvector direction(s).  Step.Grad= -3.11D-06.
 Linear search not attempted -- first point.
 Iteration  1 RMS(Cart)=  0.05274195 RMS(Int)=  0.00380749
 Iteration  2 RMS(Cart)=  0.00391284 RMS(Int)=  0.00064831
 Iteration  3 RMS(Cart)=  0.00002151 RMS(Int)=  0.00064816
 Iteration  4 RMS(Cart)=  0.00000001 RMS(Int)=  0.00064816
 ITry= 1 IFail=0 DXMaxC= 3.02D-01 DCOld= 1.00D+10 DXMaxT= 3.00D-01 DXLimC= 3.00D+00 Rises=F
 Variable       Old X    -DE/DX   Delta X   Delta X   Delta X     New X
                                 (Linear)    (Quad)   (Total)
    R1        2.72839  -0.00047   0.00000   0.00003   0.00057   2.72896
    R2        2.72833  -0.00031   0.00000   0.00040   0.00094   2.72927
    R3        2.93046  -0.00001   0.00000  -0.00055  -0.00105   2.92941
    R4        2.93097  -0.00005   0.00000   0.00015  -0.00035   2.93061
    R5        2.87887   0.00021   0.00000  -0.00192  -0.00192   2.87695
    R6        2.88157  -0.00016   0.00000   0.00168   0.00168   2.88325
    R7        2.07354  -0.00015   0.00000  -0.00144  -0.00144   2.07210
    R8        2.07376  -0.00052   0.00000   0.00187   0.00187   2.07564
    R9        2.07430  -0.00013   0.00000   0.00136   0.00136   2.07566
   R10        2.07316  -0.00067   0.00000  -0.00180  -0.00180   2.07136
   R11        2.73449  -0.00020   0.00000   0.00019   0.00019   2.73468
   R12        2.06494   0.00018   0.00000   0.00008   0.00008   2.06502
   R13        2.06651   0.00005   0.00000  -0.00008  -0.00008   2.06643
   R14        2.73224   0.00016   0.00000  -0.00010  -0.00010   2.73214
   R15        2.06615  -0.00023   0.00000  -0.00011  -0.00011   2.06604
   R16        2.06685  -0.00004   0.00000   0.00007   0.00007   2.06691
   R17        2.68922   0.00011   0.00000   0.00018   0.00018   2.68940
   R18        2.69126  -0.00014   0.00000  -0.00030  -0.00030   2.69096
   R19        2.29221   0.00017   0.00000   0.00004   0.00004   2.29225
   R20        2.27687  -0.00004   0.00000  -0.00004  -0.00004   2.27683
   R21        2.29244  -0.00020   0.00000  -0.00003  -0.00003   2.29241
   R22        2.27641   0.00012   0.00000   0.00009   0.00009   2.27650
    A1        1.60424   0.00027   0.00000  -0.00199  -0.00505   1.59919
    A2        1.46626  -0.00000   0.00000  -0.00147  -0.00347   1.46279
    A3        2.01401  -0.00004   0.00000   0.01892   0.01947   2.03348
    A4        1.97342   0.00001   0.00000  -0.02052  -0.02011   1.95331
    A5        1.98437   0.00004   0.00000   0.02056   0.02116   2.00553
    A6        2.00221  -0.00003   0.00000  -0.01899  -0.01863   1.98358
    A7        1.97203   0.00001   0.00000   0.00073   0.00020   1.97223
    A8        1.60596  -0.00011   0.00000  -0.00134  -0.00448   1.60148
    A9        1.96175  -0.00005   0.00000   0.00085   0.00194   1.96369
   A10        1.96457   0.00001   0.00000  -0.00056   0.00033   1.96491
   A11        2.01996   0.00007   0.00000   0.01477   0.01548   2.03545
   A12        2.00026   0.00008   0.00000  -0.01354  -0.01301   1.98725
   A13        1.89872  -0.00001   0.00000  -0.00029  -0.00059   1.89814
   A14        1.60579  -0.00016   0.00000  -0.00174  -0.00488   1.60091
   A15        1.96011   0.00003   0.00000  -0.00114  -0.00024   1.95987
   A16        1.96409   0.00007   0.00000   0.00048   0.00156   1.96565
   A17        2.01254   0.00000   0.00000  -0.01409  -0.01358   1.99896
   A18        2.00888   0.00004   0.00000   0.01420   0.01493   2.02381
   A19        1.89950  -0.00000   0.00000   0.00167   0.00137   1.90087
   A20        1.84533   0.00003   0.00000  -0.00109  -0.00109   1.84424
   A21        1.94954  -0.00005   0.00000   0.00083   0.00083   1.95037
   A22        1.93595  -0.00000   0.00000   0.00184   0.00184   1.93780
   A23        1.91739   0.00002   0.00000  -0.00007  -0.00007   1.91732
   A24        1.91190   0.00000   0.00000  -0.00070  -0.00069   1.91120
   A25        1.90300   0.00000   0.00000  -0.00085  -0.00085   1.90215
   A26        1.84627   0.00000   0.00000   0.00123   0.00123   1.84750
   A27        1.94783   0.00002   0.00000  -0.00070  -0.00070   1.94713
   A28        1.93434  -0.00003   0.00000  -0.00257  -0.00257   1.93177
   A29        1.91846  -0.00002   0.00000  -0.00009  -0.00009   1.91837
   A30        1.91340  -0.00000   0.00000   0.00093   0.00093   1.91433
   A31        1.90292   0.00002   0.00000   0.00121   0.00121   1.90413
   A32        1.98786  -0.00008   0.00000  -0.00027  -0.00027   1.98759
   A33        1.98750   0.00008   0.00000   0.00020   0.00020   1.98770
   A34        2.04514  -0.00001   0.00000  -0.00004  -0.00004   2.04510
   A35        1.96457  -0.00004   0.00000   0.00002   0.00002   1.96459
   A36        2.27347   0.00005   0.00000   0.00002   0.00002   2.27349
   A37        2.04487  -0.00000   0.00000   0.00009   0.00009   2.04496
   A38        1.96404   0.00008   0.00000  -0.00001  -0.00001   1.96403
   A39        2.27427  -0.00007   0.00000  -0.00008  -0.00008   2.27419
    D1       -0.03180  -0.00000   0.00000  -0.11003  -0.10986  -0.14166
    D2       -2.10832  -0.00001   0.00000  -0.12606  -0.12545  -2.23377
    D3        2.02352   0.00004   0.00000  -0.12591  -0.12642   1.89710
    D4        0.03179   0.00000   0.00000   0.11000   0.10981   0.14160
    D5       -2.03595   0.00007   0.00000   0.12682   0.12730  -1.90865
    D6        2.09650  -0.00001   0.00000   0.12510   0.12447   2.22096
    D7        0.02974  -0.00000   0.00000   0.10293   0.10285   0.13259
    D8        2.05641  -0.00011   0.00000   0.10723   0.10687   2.16328
    D9       -1.99484   0.00002   0.00000   0.10783   0.10810  -1.88674
   D10        2.00933   0.00004   0.00000   0.12680   0.12676   2.13610
   D11       -2.24718  -0.00006   0.00000   0.13110   0.13078  -2.11640
   D12       -0.01525   0.00007   0.00000   0.13169   0.13201   0.11676
   D13       -1.96605   0.00003   0.00000   0.12583   0.12577  -1.84027
   D14        0.06063  -0.00008   0.00000   0.13013   0.12979   0.19042
   D15        2.29256   0.00006   0.00000   0.13072   0.13102   2.42358
   D16       -0.02974   0.00000   0.00000  -0.10293  -0.10283  -0.13257
   D17        1.99294  -0.00004   0.00000  -0.10895  -0.10922   1.88372
   D18       -2.05597  -0.00001   0.00000  -0.10635  -0.10599  -2.16196
   D19       -2.03934   0.00004   0.00000  -0.12487  -0.12482  -2.16416
   D20       -0.01666  -0.00000   0.00000  -0.13089  -0.13121  -0.14787
   D21        2.21762   0.00003   0.00000  -0.12829  -0.12798   2.08964
   D22        1.93672   0.00001   0.00000  -0.12774  -0.12768   1.80904
   D23       -2.32378  -0.00003   0.00000  -0.13376  -0.13407  -2.45785
   D24       -0.08951   0.00000   0.00000  -0.13116  -0.13083  -0.22034
   D25        1.22439   0.00000   0.00000  -0.01335  -0.01276   1.21163
   D26       -2.97372   0.00001   0.00000  -0.01364  -0.01306  -2.98678
   D27       -0.84677  -0.00002   0.00000  -0.01285  -0.01227  -0.85904
   D28        2.87748   0.00000   0.00000   0.00449   0.00391   2.88139
   D29       -1.32062   0.00001   0.00000   0.00420   0.00361  -1.31701
   D30        0.80632  -0.00002   0.00000   0.00499   0.00440   0.81072
   D31       -1.08406   0.00001   0.00000  -0.00242  -0.00242  -1.08648
   D32        1.00102   0.00002   0.00000  -0.00271  -0.00271   0.99830
   D33        3.12796  -0.00001   0.00000  -0.00192  -0.00192   3.12604
   D34        2.87348   0.00001   0.00000  -0.00844  -0.00910   2.86438
   D35       -1.32369  -0.00000   0.00000  -0.00818  -0.00884  -1.33252
   D36        0.80083   0.00002   0.00000  -0.00892  -0.00957   0.79126
   D37        1.23143   0.00002   0.00000   0.01214   0.01279   1.24422
   D38       -2.96574   0.00001   0.00000   0.01240   0.01305  -2.95269
   D39       -0.84122   0.00003   0.00000   0.01166   0.01232  -0.82890
   D40       -1.08154  -0.00003   0.00000  -0.00020  -0.00020  -1.08173
   D41        1.00448  -0.00004   0.00000   0.00006   0.00007   1.00455
   D42        3.12900  -0.00001   0.00000  -0.00068  -0.00067   3.12833
   D43        3.14132  -0.00002   0.00000  -0.00411  -0.00411   3.13721
   D44        1.03517   0.00001   0.00000  -0.00443  -0.00443   1.03074
   D45       -1.05479  -0.00000   0.00000  -0.00291  -0.00291  -1.05770
   D46       -3.14089   0.00001   0.00000   0.00387   0.00387  -3.13702
   D47        1.03705   0.00000   0.00000   0.00404   0.00404   1.04108
   D48       -1.05441  -0.00001   0.00000   0.00202   0.00202  -1.05239
   D49        0.01303  -0.00002   0.00000   0.00090   0.00090   0.01392
   D50       -3.13156   0.00001   0.00000   0.00053   0.00053  -3.13103
   D51        0.01206   0.00001   0.00000  -0.00103  -0.00103   0.01103
   D52       -3.13156  -0.00001   0.00000  -0.00064  -0.00064  -3.13220
   D53        3.13797   0.00003   0.00000  -0.00045  -0.00045   3.13753
   D54        3.13913  -0.00003   0.00000   0.00048   0.00048   3.13961
         Item               Value     Threshold  Converged?
 Maximum Force            0.000672     0.000450     NO 
 RMS     Force            0.000119     0.000300     YES
 Maximum Displacement     0.301570     0.001800     NO 
 RMS     Displacement     0.052767     0.001200     NO 
 Predicted change in Energy=-1.038473D-05
 Lowest energy point so far.  Saving SCF results.
 GradGradGradGradGradGradGradGradGradGradGradGradGradGradGradGradGradGrad

 Leave Link  103 at Sun Aug 22 16:33:08 2021, MaxMem= 24159191040 cpu:         3.5
 (Enter /public/home/users/caep010/software/Gaussian09/g09/l202.exe)
                          Input orientation:                          
 ---------------------------------------------------------------------
 Center     Atomic      Atomic             Coordinates (Angstroms)
 Number     Number       Type             X           Y           Z
 ---------------------------------------------------------------------
      1          8           0        0.203484    3.303925   -0.102138
      2          6           0       -0.018991    1.167976    0.016368
      3          6           0       -0.488447    2.322958   -0.904866
      4          6           0        0.510398    2.319940    0.909537
      5          1           0       -0.131125    2.301009   -1.941286
      6          1           0       -0.061328    2.480152    1.833620
      7          6           0       -1.111105    0.316385    0.648692
      8          6           0        1.085717    0.337286   -0.629759
      9          8           0       -1.698962   -0.435876   -0.438831
     10          8           0        1.680876   -0.429897    0.441462
     11          1           0       -1.576473    2.473333   -0.909534
     12          1           0        1.578355    2.285483    1.153972
     13          1           0       -0.707357   -0.368711    1.398200
     14          1           0        0.687570   -0.336163   -1.393473
     15          1           0       -1.876571    0.942814    1.114963
     16          1           0        1.841493    0.985247   -1.082823
     17          7           0       -2.750500   -1.305843   -0.035304
     18          7           0        2.749911   -1.272178    0.022545
     19          8           0       -3.043423   -1.312095    1.141785
     20          8           0        3.046410   -1.247380   -1.153493
     21          8           0       -3.214594   -1.928443   -0.956521
     22          8           0        3.220661   -1.907221    0.931581
 ---------------------------------------------------------------------
                    Distance matrix (angstroms):
                    1          2          3          4          5
     1  O    0.000000
     2  C    2.150771   0.000000
     3  C    1.444104   1.550175   0.000000
     4  C    1.444267   1.550814   2.071173   0.000000
     5  H    2.121383   2.264674   1.096507   2.922174   0.000000
     6  H    2.120351   2.241874   2.776049   1.098393   3.779799
     7  C    3.349221   1.522417   2.612963   2.590665   3.406916
     8  C    3.139692   1.525748   2.548836   2.575140   2.656504
     9  O    4.209367   2.366823   3.048557   3.780726   3.493712
    10  O    4.052113   2.371383   3.754567   3.025016   4.051998
    11  H    2.123680   2.233159   1.098379   2.772648   1.784163
    12  H    2.122571   2.257095   2.917514   1.096115   3.535984
    13  H    4.070491   2.178237   3.549241   2.991749   4.314118
    14  H    3.892572   2.179292   2.948334   3.519961   2.815144
    15  H    3.373842   2.169841   2.812720   2.763385   3.772523
    16  H    3.003512   2.168643   2.692537   2.742758   2.521787
    17  N    5.475440   3.685593   4.363624   4.967140   4.848017
    18  N    5.238373   3.690692   4.926667   4.324984   4.992461
    19  O    5.779048   4.069952   4.891860   5.086774   5.571474
    20  O    5.468268   4.074213   5.030342   4.838722   4.827879
    21  O    6.308003   4.554800   5.050639   5.950336   5.325955
    22  O    6.109662   4.559583   5.918144   5.021445   6.098937
[...]
 .00011506,0.00017188,0.00002300,0.00071663,0.00163498,0.00045345,-0.00
 541545,0.05014968,-0.02430385,0.00531674,-0.00953282,-0.01279569,-0.00
 276105,-0.00272570,-0.00103737,0.00254685,-0.00107836,-0.03951478,-0.0
 0005412,-0.05911854,-0.00040965,-0.00012120,-0.00047157,0.02691975,-0.
 00041576,0.00667069,0.00071502,0.00001369,-0.00202451,-0.00131963,-0.0
 0017638,0.00153111,-0.00056544,-0.00018916,0.00049639,0.00025646,0.000
 10835,0.00011728,-0.00082765,-0.00066032,-0.00093917,0.05284968,-0.003
 61629,0.06743006,-0.00007717,-0.00071716,-0.00069158,0.01128779,-0.016
 10966,0.01780719,-0.00420116,-0.00043804,0.00189272,0.00081994,0.00049
 921,-0.00014531,0.00028276,-0.00093263,0.00048534,0.00001636,0.0000684
 8,-0.00039249,-0.08588789,0.06583012,-0.06310233,0.00163590,-0.0001191
 7,0.00012263,-0.00940324,-0.00051301,-0.01426699,-0.00116685,0.0000178
 0,0.00060806,0.00017159,0.00008778,-0.00000081,-0.00011636,-0.00007231
 ,-0.00006600,0.09140577,-0.00035996,-0.00026478,-0.00105743,0.00698821
 ,-0.01092301,0.01162632,-0.00269718,0.00107043,0.00184736,0.00023832,0
 .00013309,0.00044768,-0.00007124,-0.00095686,0.00030259,0.00004207,-0.
 00017676,-0.00040821,0.06966317,-0.16673516,0.11940614,0.00067600,-0.0
 0030866,-0.00006707,-0.01400846,0.01163082,-0.02144759,0.00086074,0.00
 004067,-0.00033816,-0.00025343,0.00035849,-0.00033014,-0.00012933,-0.0
 0013537,-0.00007722,-0.06626036,0.17453087,0.00030089,0.00070984,0.000
 61419,-0.00312308,0.00859599,-0.00737896,0.00143748,-0.00075541,0.0004
 8938,0.00029977,0.00069807,-0.00008972,-0.00022552,0.00021721,-0.00001
 791,0.00020657,0.00020429,0.00007177,-0.06376846,0.11209921,-0.1656081
 4,-0.00091007,0.00087629,-0.00070496,-0.01766587,0.00433728,-0.0277389
 8,-0.00109673,0.00022777,0.00057717,-0.00012989,-0.00005038,-0.0001039
 3,0.00003808,0.00009521,0.00006487,0.07450402,-0.12132713,0.18859689,0
 .00013550,0.00023076,-0.00060397,0.01062861,0.01645930,0.01752589,0.00
 108441,-0.00086413,0.00014705,-0.00438053,0.00101587,0.00235310,0.0000
 5140,-0.00021046,-0.00048824,0.00039127,0.00117168,0.00055535,0.001646
 95,0.00008304,0.00007837,-0.08522700,-0.06472914,-0.06415985,-0.001199
 33,0.00002198,0.00061903,-0.00954965,0.00062809,-0.01434361,-0.0000783
 3,0.00001230,0.00000297,0.00009767,-0.00017601,0.00003977,-0.00017295,
 -0.00015376,0.00001859,0.09086849,0.00035359,0.00017818,0.00080525,-0.
 00651811,-0.01055505,-0.01114492,-0.00068342,0.00032955,-0.00080954,0.
 00310949,0.00059968,-0.00201729,-0.00002334,-0.00019103,0.00058619,-0.
 00007848,-0.00107045,-0.00022313,-0.00063574,-0.00031488,0.00007584,-0
 .06831910,-0.16388516,-0.11974695,-0.00081349,0.00002517,0.00034228,0.
 01420254,0.01139660,0.02193860,0.00005936,-0.00008185,0.00014575,0.000
 17786,0.00029316,0.00033533,0.00014935,0.00005873,-0.00004414,0.064523
 82,0.17157204,-0.00001304,-0.00028383,0.00097086,-0.00313737,-0.009034
 88,-0.00791643,0.00033019,-0.00048737,0.00021653,0.00171431,0.00072503
 ,-0.00010261,0.00024424,-0.00026411,0.00011551,-0.00026723,-0.00032872
 ,-0.00011222,-0.00092077,-0.00089077,-0.00067895,-0.06464402,-0.112840
 89,-0.16949014,-0.00113621,-0.00021609,0.00062482,-0.01729232,-0.00381
 631,-0.02718081,0.00002645,-0.00004704,0.00000172,-0.00005272,0.000154
 71,-0.00007754,0.00000509,0.00004870,-0.00005376,0.07526054,0.12154801
 ,0.19260209,0.00009230,-0.00026503,-0.00032814,-0.01630428,0.01260547,
 0.00861657,0.00049903,0.00091950,-0.00096373,0.00002564,0.00106597,0.0
 0155839,0.00031288,0.00013208,-0.00011439,0.00010414,-0.00059502,-0.00
 100541,-0.18769863,0.11429346,0.07705958,-0.00198187,-0.00373246,0.001
 16889,0.01200870,-0.01543922,-0.01092076,-0.00016640,-0.00007019,0.000
 38399,0.00060502,-0.00052491,0.00021254,0.00031959,-0.00000180,-0.0003
 6254,-0.00690958,0.00557044,0.00574795,0.00012099,-0.00000560,-0.00004
 876,0.19859597,0.00023727,0.00014664,0.00008641,-0.01378430,0.01066484
 ,0.00866292,-0.00035273,0.00103148,0.00005283,-0.00044443,0.00102117,0
 .00001915,0.00001476,0.00001137,-0.00006243,-0.00002349,0.00015314,-0.
 00000663,0.11078051,-0.13636962,-0.05684821,-0.00293508,-0.00304426,0.
 00207879,0.00097615,-0.01671772,-0.01558824,0.00060290,-0.00000379,-0.
 00023149,0.00018336,0.00007107,-0.00006811,0.00004771,-0.00003489,0.00
 010474,0.01547560,-0.00975596,-0.00759888,0.00009654,-0.00005365,0.000
 01159,-0.11381704,0.14890380,-0.00038086,-0.00011553,-0.00033326,0.010
 56082,-0.00589823,-0.00541078,0.00100419,-0.00094783,0.00049161,-0.000
 76965,-0.00033264,0.00064727,-0.00036576,0.00000503,0.00011215,-0.0002
 1616,0.00028890,0.00037565,0.07203984,-0.05655169,-0.09105203,0.001058
 37,0.00188906,-0.00061555,0.01010495,-0.02472148,-0.02145592,-0.000653
 18,0.00015218,0.00032056,-0.00050390,0.00028817,-0.00028284,-0.0001086
 5,-0.00018195,0.00014023,-0.01399311,0.01282564,0.01088580,-0.00025820
 ,-0.00000944,0.00012143,-0.08031974,0.07126057,0.10605262,0.00053983,0
 .00056719,-0.00051168,-0.01616139,-0.01277580,0.00848376,-0.00051658,-
 0.00116370,0.00109187,0.00065040,-0.00117703,-0.00056056,-0.00019173,0
 .00038282,-0.00088606,0.00027180,-0.00018978,-0.00008059,-0.00199751,0
 .00367246,0.00125703,-0.18523175,-0.11623280,0.07453452,-0.00016429,0.
 00005791,0.00038501,0.01182593,0.01591179,-0.01092008,0.00028747,-0.00
 007290,-0.00035312,0.00048694,0.00047682,0.00021573,0.00010924,0.00000
 796,-0.00004236,-0.00663390,-0.00553094,0.00558121,-0.00086013,-0.0007
 9111,0.00037217,0.19632629,-0.00061803,0.00029658,0.00021940,0.0134583
 5,0.01076557,-0.00835209,0.00095132,0.00116525,0.00020491,0.00013284,0
 .00113344,-0.00037097,0.00004178,0.00008799,-0.00001270,0.00001928,0.0
 0009059,0.00015135,0.00296174,-0.00297462,-0.00211307,-0.11293093,-0.1
 4170929,0.05738733,-0.00058926,-0.00001635,0.00021179,-0.00091428,-0.0
 1693029,0.01542058,-0.00011471,0.00002473,-0.00019216,-0.00015044,0.00
 000899,0.00006243,-0.00009938,-0.00005545,-0.00000550,-0.01508141,-0.0
 0978247,0.00726337,0.00079428,0.00084061,-0.00034683,0.11589581,0.1540
 5057,-0.00047109,-0.00014628,-0.00012261,0.01077195,0.00615129,-0.0055
 5591,-0.00049539,0.00042021,0.00074875,0.00069379,0.00104202,0.0002053
 8,-0.00035984,-0.00020918,0.00019495,-0.00033591,0.00008795,0.00008975
 ,0.00113376,-0.00193600,-0.00062670,0.06938718,0.05692878,-0.08946961,
 -0.00066310,-0.00015641,0.00032926,0.00987631,0.02474707,-0.02069083,-
 0.00006041,0.00019009,0.00009878,-0.00033906,-0.00013267,-0.00039771,-
 0.00026578,-0.00000129,0.00012096,-0.01414978,-0.01327742,0.01074131,0
 .00038745,0.00035247,-0.00015104,-0.07752413,-0.07173455,0.10428407,0.
 00053394,0.00144490,0.00026975,-0.00035608,0.00281249,0.00177604,-0.00
 049902,-0.00251621,0.00054077,0.00158645,-0.00033968,-0.00061934,0.000
 12469,0.00023564,-0.00029394,-0.00010153,-0.00024501,-0.00016646,-0.03
 249648,-0.03031988,-0.02305239,-0.00171438,0.00039480,-0.00123481,-0.0
 5904377,0.00002922,0.00122675,0.00338953,-0.00190140,-0.00038644,0.000
 35056,-0.00073671,0.00011187,0.00060355,0.00066295,0.00014897,0.003682
 19,0.00151456,0.00447264,-0.00096434,0.00028924,0.00116421,0.00309372,
 0.00634799,0.00412271,0.00078252,0.00009199,0.00037620,0.40303431,0.00
 045634,0.00150172,0.00003148,0.00077141,-0.00032471,-0.00061487,-0.000
 29807,-0.00131133,0.00024783,-0.00004376,-0.00030110,-0.00050065,0.000
 23874,0.00020279,-0.00031042,-0.00011408,-0.00014377,-0.00018436,-0.02
 892187,-0.03362583,-0.01408019,-0.00140717,0.00128726,-0.00155891,0.00
 262101,-0.05876714,-0.01317889,0.00299590,-0.00214539,-0.00024071,0.00
 038502,-0.00042762,0.00022448,0.00047932,0.00024413,0.00009241,0.00365
 055,0.00340882,0.00371200,-0.00100498,0.00059418,0.00150225,0.00038812
 ,0.00309675,0.00288814,0.00077985,0.00000724,0.00045508,0.15906396,0.4
 2912842,-0.00011806,-0.00039326,-0.00015060,-0.00333609,-0.00509308,-0
 .01075298,0.00147132,0.00018831,-0.00005581,-0.00221429,-0.00036561,0.
 00209010,0.00014529,0.00023683,-0.00019109,0.00014079,0.00003064,-0.00
 013052,-0.01779127,-0.00855339,0.03118678,0.00153412,0.00092865,0.0006
 2687,0.01451494,-0.00187551,-0.13306189,-0.00024617,0.00027560,-0.0004
 6439,-0.00007426,0.00006791,0.00032506,-0.00022619,-0.00058183,-0.0003
 0513,-0.00583310,-0.00082473,-0.00305433,0.00012706,0.00017414,-0.0001
 5602,-0.00043430,-0.00618327,-0.00178431,0.00013595,-0.00028019,-0.000
 29091,0.04318106,0.22301831,1.08216747,0.00067468,-0.00126661,0.000415
 43,-0.00022452,-0.00307041,0.00158036,0.00140797,0.00013768,-0.0007701
 8,-0.00055139,0.00227041,0.00066500,-0.00011044,0.00022755,-0.00013137
 ,0.00029701,-0.00040202,-0.00036549,-0.00177166,-0.00034373,-0.0011950
 4,-0.03354331,0.03101882,-0.02334083,0.00341487,0.00199314,-0.00037946
 ,-0.05905840,0.00015403,0.00181904,0.00059958,-0.00081134,0.00009077,0
 .00053002,0.00104746,0.00037985,-0.00098214,-0.00032999,0.00117276,0.0
 0378592,-0.00165933,0.00446786,0.00079963,-0.00011925,0.00037450,0.003
 18710,-0.00630481,0.00403283,-0.00489210,-0.00433443,0.00035688,0.4081
 1713,-0.00050850,0.00109879,0.00000735,-0.00080232,-0.00048032,0.00080
 325,0.00018650,-0.00025828,0.00047090,0.00046191,-0.00104624,-0.000065
 86,0.00020272,-0.00012995,0.00015493,-0.00037713,0.00035783,0.00031976
 ,0.00135410,0.00123095,0.00151041,0.02926053,-0.03319625,0.01222344,-0
 .00290348,-0.00213956,0.00023578,-0.00284705,-0.05943302,0.01482971,-0
 .00050260,0.00037009,-0.00003956,-0.00039013,-0.00046914,-0.00043305,0
 .00097707,0.00061628,-0.00146157,-0.00351794,0.00341247,-0.00346694,-0
 .00077239,0.00002516,-0.00043110,-0.00038067,0.00280265,-0.00271072,0.
 00418181,0.00415183,-0.00043304,-0.15955119,0.43315362,0.00001673,0.00
 048674,-0.00036869,-0.00309835,0.00511274,-0.01041542,-0.00267296,0.00
 071581,0.00206744,0.00173620,-0.00050643,-0.00007995,0.00002756,-0.000
 07783,-0.00009739,-0.00000962,-0.00030321,-0.00018668,0.00157143,-0.00
 091680,0.00059943,-0.01758668,0.00679080,0.03161502,-0.00028654,-0.000
 30371,-0.00045674,0.01487041,0.00367525,-0.13259746,-0.00020003,0.0007
 4257,-0.00038343,-0.00015896,-0.00008840,0.00027952,0.00014305,-0.0001
 5829,-0.00017621,-0.00592910,0.00096372,-0.00311783,0.00012594,0.00029
 207,-0.00029797,-0.00050658,0.00621249,-0.00166891,0.00042229,0.000472
 76,0.00155924,0.04102230,-0.23581881,1.07308321,-0.00013307,-0.0005935
 4,-0.00019889,0.00087628,-0.00064791,0.00051358,-0.00034461,0.00076663
 ,-0.00006881,-0.00031000,0.00040288,0.00041370,0.00004316,-0.00009241,
 0.00009065,0.00004048,-0.00000142,-0.00008355,-0.00044749,0.00404187,0
 .00871008,0.00047076,-0.00034935,0.00042600,-0.01648367,-0.02598602,0.
 04828336,-0.00091957,0.00060387,-0.00000711,-0.00004222,0.00017151,-0.
 00000359,-0.00012109,-0.00021202,-0.00010230,-0.00059777,-0.00153515,-
 0.00021447,0.00033860,-0.00017223,-0.00034062,-0.00102988,-0.00122943,
 -0.00109798,-0.00025380,-0.00000362,-0.00011571,-0.13989258,-0.0230542
 2,0.11113816,0.00127748,-0.00113253,-0.00006362,0.12346111,-0.00005623
 ,-0.00043742,-0.00000514,-0.00018105,0.00093928,0.00097006,-0.00018449
 ,0.00037711,-0.00012750,0.00007387,0.00034744,0.00019007,-0.00003730,-
 0.00004935,0.00008180,0.00005586,0.00000875,0.00001761,0.00068320,-0.0
 0073443,0.00625162,0.00005812,-0.00081455,0.00063532,-0.02653136,0.006
 70149,0.03145911,-0.00069250,0.00057209,-0.00001794,-0.00002355,0.0000
 4721,-0.00006344,-0.00011026,-0.00010883,-0.00002688,-0.00035113,-0.00
 101676,-0.00048191,0.00026046,-0.00016198,-0.00036129,-0.00126492,0.00
 030538,0.00001982,-0.00032086,0.00008618,-0.00009897,-0.02421259,-0.10
 961756,-0.00051385,0.00100602,-0.00102493,0.00005614,0.04937350,0.0805
 9900,0.00022289,0.00025126,0.00037325,0.00069945,0.00119407,0.00365923
 ,-0.00087664,-0.00080515,0.00004213,0.00084026,0.00004410,-0.00086552,
 -0.00008740,-0.00014831,0.00015234,-0.00005988,0.00005398,0.00013626,-
 0.00672270,-0.00768065,-0.01003723,-0.00108228,-0.00041219,-0.00091338
 ,0.04583345,0.02944304,-0.03231361,0.00066675,-0.00045074,0.00039171,0
 .00011052,-0.00017584,-0.00013216,0.00010478,0.00026763,0.00015039,0.0
 0294195,0.00038558,0.00256136,-0.00050162,0.00025748,0.00053482,0.0002
 7734,0.00338693,0.00170562,0.00005620,0.00021473,0.00030306,0.10582261
 ,-0.00576640,-0.55130792,-0.00083213,0.00084143,-0.00082789,-0.1459330
 5,0.00984472,0.68372089,-0.00010361,0.00050643,-0.00025211,0.00083139,
 0.00063950,0.00051494,-0.00030183,-0.00034963,0.00041168,-0.00030027,-
 0.00066661,-0.00001607,0.00003070,-0.00001655,-0.00008262,-0.00000566,
 0.00016676,0.00012379,0.00047054,0.00033386,0.00043271,-0.00021988,-0.
 00424980,0.00877732,-0.00092242,-0.00062174,-0.00001353,-0.01770576,0.
 02461728,0.04942121,-0.00011429,0.00023627,-0.00008923,-0.00011733,-0.
 00027373,-0.00005267,0.00034658,0.00018876,-0.00034588,-0.00064224,0.0
 0156782,-0.00023185,-0.00026330,0.00001183,-0.00011278,-0.00111061,0.0
 0122167,-0.00105945,0.00127473,0.00117117,-0.00004008,-0.14151638,0.02
 018011,0.11319416,-0.00033590,-0.00026800,0.00017959,0.12618293,0.0000
 5673,-0.00028548,-0.00002407,0.00023849,0.00100967,-0.00097460,-0.0000
 7890,0.00032810,-0.00018771,0.00015060,0.00029159,0.00012559,-0.000077
 10,0.00000967,-0.00000437,0.00005003,-0.00009822,-0.00009142,-0.000018
 70,-0.00079429,-0.00061602,-0.00058877,-0.00089492,-0.00585825,0.00065
 521,0.00055501,0.00001202,0.02526362,0.00881071,-0.02974868,0.00009828
 ,-0.00012614,0.00001724,0.00001234,0.00005280,0.00008087,-0.00024300,-
 0.00016205,0.00034145,0.00029330,-0.00095453,0.00042086,0.00031984,0.0
 0008562,0.00008669,0.00126759,0.00040264,-0.00010706,-0.00095288,-0.00
 100365,-0.00005570,0.02149983,-0.10920878,0.01146378,0.00025542,0.0002
 4830,-0.00010035,-0.04553589,0.07965380,0.00022192,-0.00038378,0.00046
 923,0.00056881,-0.00120448,0.00347876,0.00091887,-0.00020093,-0.000864
 37,-0.00097952,0.00087789,0.00010050,-0.00000490,-0.00003364,0.0001318
 6,0.00000313,0.00015683,0.00010852,-0.00108636,0.00043131,-0.00089068,
 -0.00686271,0.00779042,-0.01010340,0.00067150,0.00045911,0.00038947,0.
 04697935,-0.02769279,-0.03306664,0.00007886,-0.00030182,0.00018438,0.0
 0021892,0.00028273,-0.00007299,-0.00050661,-0.00027509,0.00053308,0.00
 297502,-0.00044563,0.00253245,0.00005955,-0.00022428,0.00030074,0.0003
 5828,-0.00338506,0.00164298,-0.00084032,-0.00085362,-0.00084446,0.1076
 9874,0.01662172,-0.55029541,0.00018534,0.00009930,0.00038045,-0.148871
 87,-0.02470816,0.68207528,0.00014678,-0.00089514,0.00034513,-0.0000522
 0,-0.00191472,-0.00448460,-0.00018321,0.00064868,-0.00038767,-0.001185
 31,0.00073023,0.00093998,-0.00005406,-0.00013844,0.00019483,0.00008096
 ,0.00012275,0.00009319,0.00016265,-0.00260284,0.01108773,0.00070797,-0
 .00056470,0.00016211,-0.03249744,-0.05285037,-0.03891104,-0.00101386,0
 .00071943,0.00021864,0.00004637,0.00010034,-0.00000808,-0.00023633,-0.
 00050735,-0.00013643,-0.00041884,0.00009587,-0.00046837,0.00017428,0.0
 0005241,-0.00020281,-0.00108696,-0.00121258,-0.00082432,-0.00026737,0.
 00007231,-0.00003320,-0.18003013,-0.11525932,-0.14222361,0.00153882,-0
 .00138494,-0.00022535,0.03483856,0.00308871,-0.00198942,-0.00043506,0.
 00034595,0.00032971,0.18027856,0.00011857,-0.00092610,0.00037657,-0.00
 041936,-0.00127471,-0.00420799,-0.00019335,0.00052052,-0.00030514,-0.0
 0088365,0.00073913,0.00098485,-0.00005834,-0.00017038,0.00022960,0.000
 07283,0.00011108,0.00007528,-0.00469786,0.00331445,0.00936630,0.000712
 40,-0.00087158,0.00007754,-0.04872567,-0.03485664,-0.03553763,-0.00112
 154,0.00092677,0.00027599,0.00001525,0.00007388,-0.00001088,-0.0002291
 7,-0.00044055,-0.00016485,-0.00073498,-0.00131575,-0.00065488,0.000170
 19,-0.00003710,-0.00026542,0.00011120,-0.00048263,-0.00019358,-0.00028
 322,0.00011073,-0.00002801,-0.11420308,-0.23426225,-0.20019572,0.00167
 670,-0.00165896,-0.00044303,-0.00107782,0.02326790,-0.03014815,-0.0004
 8154,0.00044712,0.00049816,0.17079870,0.24613287,0.00016030,-0.0005168
 9,0.00038782,0.00044228,-0.00013713,-0.00067538,-0.00048127,0.00033008
 ,-0.00033213,-0.00021731,0.00060250,0.00008884,-0.00010841,-0.00018247
 ,0.00022582,0.00001954,0.00009313,0.00012235,0.00124215,0.00019947,0.0
 0135845,0.00010057,-0.00073803,-0.00013036,-0.01806542,-0.01643062,0.0
 1729831,-0.00064745,0.00051061,0.00036788,0.00004231,0.00004951,-0.000
 10540,-0.00011141,-0.00019273,-0.00001634,0.00072716,-0.00060540,0.000
 56025,0.00003077,-0.00002990,-0.00015282,-0.00087184,0.00063517,0.0001
 7619,-0.00022963,0.00013609,0.00005376,-0.13800620,-0.19630843,-0.4146
 9703,0.00100880,-0.00094759,-0.00072845,-0.02123428,-0.04762011,-0.098
 26637,-0.00031125,0.00029911,0.00056540,0.17681887,0.26056002,0.493881
 30,0.00016163,0.00056919,0.00027230,-0.00006100,0.00206698,-0.00435844
 ,-0.00142948,-0.00051097,0.00098589,-0.00011824,-0.00067117,-0.0005116
 2,0.00010137,-0.00013191,0.00008485,-0.00007914,0.00019022,0.00019734,
 0.00072722,0.00055743,0.00015957,0.00012154,0.00225331,0.01146233,-0.0
 0101745,-0.00074652,0.00021681,-0.03415831,0.05375286,-0.03874644,-0.0
 0020964,0.00062908,-0.00016749,0.00004708,-0.00016177,-0.00003123,0.00
 017583,-0.00004725,-0.00020807,-0.00047582,-0.00004570,-0.00050639,-0.
 00027657,-0.00006516,-0.00003327,-0.00107849,0.00116549,-0.00078661,0.
 00153422,0.00143649,-0.00020812,-0.18297987,0.11826611,-0.14239229,-0.
 00043479,-0.00036550,0.00032932,0.03495766,-0.00301198,-0.00211571,-0.
 00051420,-0.00056625,-0.00030825,0.18500644,-0.00013726,-0.00055852,-0
 .00034493,0.00039708,-0.00135082,0.00399374,0.00111041,0.00053234,-0.0
 0095462,0.00008379,0.00051917,0.00035309,-0.00011157,0.00012696,-0.000
 07937,0.00009850,-0.00021882,-0.00022036,-0.00070555,-0.00085880,-0.00
 008230,0.00455181,0.00370104,-0.00911332,0.00110532,0.00094008,-0.0002
 7178,0.04902262,-0.03416699,0.03393388,0.00022118,-0.00055826,0.000187
 83,-0.00003395,0.00008669,0.00003487,-0.00016514,-0.00004162,0.0002651
 8,0.00077049,-0.00137161,0.00062914,0.00028822,0.00010549,0.00002612,-
 0.00010138,-0.00040529,0.00016359,-0.00164212,-0.00169278,0.00042880,0
 .11716148,-0.23817425,0.20163165,0.00047199,0.00046567,-0.00049715,0.0
 0162205,0.02163304,0.03249179,0.00055503,0.00065220,0.00029364,-0.1745
 6301,0.25063507,0.00011075,0.00023703,0.00040000,0.00039247,0.00019499
 ,-0.00056401,-0.00024646,-0.00052187,0.00010322,-0.00046588,-0.0002404
 1,-0.00038463,0.00007584,-0.00008413,0.00010705,-0.00009026,0.00022578
 ,0.00020913,0.00009238,0.00071555,-0.00011884,0.00138270,-0.00009499,0
 .00124423,-0.00062527,-0.00050908,0.00035910,-0.01762202,0.01523037,0.
 01808582,-0.00010449,0.00022916,-0.00001668,0.00006726,-0.00006645,-0.
 00012019,0.00002689,0.00002774,-0.00014884,0.00070085,0.00057579,0.000
 57757,-0.00022858,-0.00013210,0.00005383,-0.00085695,-0.00069136,0.000
 16122,0.00096406,0.00095270,-0.00070815,-0.13807061,0.19778958,-0.4075
 0543,-0.00029687,-0.00030854,0.00055256,-0.02157602,0.04962879,-0.0967
 5515,-0.00029530,-0.00028904,0.00001790,0.17666552,-0.26286951,0.48445
 030\\-0.00000451,0.00000194,-0.00000054,-0.00000064,-0.00000197,-0.000
 00031,0.00000199,-0.00000248,-0.00000298,-0.00000097,-0.00000052,-0.00
 000156,0.00000276,-0.00000134,-0.00000141,-0.00000390,0.00000218,-0.00
 000202,-0.00000124,0.00000074,-0.00000056,0.00000141,0.00000009,0.0000
 0083,0.00000070,-0.00000128,-0.00000122,0.00000010,0.00000102,0.000002
 87,-0.00000037,-0.00000096,-0.00000256,-0.00000131,0.00000222,-0.00000
 086,-0.00000103,0.00000094,-0.00000034,0.00000197,-0.00000110,0.000001
 53,-0.00000142,0.00000031,-0.00000243,0.00000067,0.00000017,0.00000191
 ,0.00000090,-0.00000144,-0.00000209,0.00000056,0.00000159,0.00000477,-
 0.00000045,-0.00000058,-0.00000180,0.00000224,0.00000050,0.00000461,0.
 00000233,-0.00000230,-0.00000149,0.00000021,0.00000229,0.00000566\\\@


 "THE TIME HAS COME", THE WALRUS SAID,
 "TO TALK OF MANY THINGS,
 OF SHOES AND SHIPS AND SEALING WAX,
 OF CABBAGES AND KINGS,
 AND WHY THE SEA IS BOILING HOT,
 AND WHETHER PIGS HAVE WINGS."
 Job cpu time:       0 days  0 hours 19 minutes 44.6 seconds.
 File lengths (MBytes):  RWF=    169 Int=      0 D2E=      0 Chk=      6 Scr=      1
 Normal termination of Gaussian 09 at Sun Aug 22 16:36:02 2021.
