 Entering Gaussian System, Link 0=g09
 Input=no2.B3LYP.gjf
 Output=no2.B3LYP.log
 Initial command:
 /new_disk/wangrunwen/GAUSSIAN/g09/l1.exe "/new_disk/wangrunwen/BDE/LowestConformer/B3LYP/Gau-79121.inp" -scrdir="/new_disk/wangrunwen/BDE/LowestConformer/B3LYP/"
 Entering Link 1 = /new_disk/wangrunwen/GAUSSIAN/g09/l1.exe PID=     79122.
  
 Copyright (c) 1988,1990,1992,1993,1995,1998,2003,2009,2015,
            Gaussian, Inc.  All Rights Reserved.
  
 This is part of the Gaussian(R) 09 program.  It is based on
 the Gaussian(R) 03 system (copyright 2003, Gaussian, Inc.),
 the Gaussian(R) 98 system (copyright 1998, Gaussian, Inc.),
 the Gaussian(R) 94 system (copyright 1995, Gaussian, Inc.),
 the Gaussian 92(TM) system (copyright 1992, Gaussian, Inc.),
 the Gaussian 90(TM) system (copyright 1990, Gaussian, Inc.),
 the Gaussian 88(TM) system (copyright 1988, Gaussian, Inc.),
 the Gaussian 86(TM) system (copyright 1986, Carnegie Mellon
 University), and the Gaussian 82(TM) system (copyright 1983,
 Carnegie Mellon University). Gaussian is a federally registered
 trademark of Gaussian, Inc.
  
 This software contains proprietary and confidential information,
 including trade secrets, belonging to Gaussian, Inc.
  
 This software is provided under written license and may be
 used, copied, transmitted, or stored only in accord with that
 written license.
  
 The following legend is applicable only to US Government
 contracts under FAR:
  
                    RESTRICTED RIGHTS LEGEND
  
 Use, reproduction and disclosure by the US Government is
 subject to restrictions as set forth in subparagraphs (a)
 and (c) of the Commercial Computer Software - Restricted
 Rights clause in FAR 52.227-19.
  
 Gaussian, Inc.
 340 Quinnipiac St., Bldg. 40, Wallingford CT 06492
  
  
 ---------------------------------------------------------------
 Warning -- This program may not be used in any manner that
 competes with the business of Gaussian, Inc. or will provide
 assistance to any competitor of Gaussian, Inc.  The licensee
 of this program is prohibited from giving any competitor of
 Gaussian, Inc. access to this program.  By using this program,
 the user acknowledges that Gaussian, Inc. is engaged in the
 business of creating and licensing software in the field of
 computational chemistry and represents and warrants to the
 licensee that it is not a competitor of Gaussian, Inc. and that
 it will not use this program in any manner prohibited above.
 ---------------------------------------------------------------
  

 Cite this work as:
 Gaussian 09, Revision E.01,
 M. J. Frisch, G. W. Trucks, H. B. Schlegel, G. E. Scuseria, 
 M. A. Robb, J. R. Cheeseman, G. Scalmani, V. Barone, B. Mennucci, 
 G. A. Petersson, H. Nakatsuji, M. Caricato, X. Li, H. P. Hratchian, 
 A. F. Izmaylov, J. Bloino, G. Zheng, J. L. Sonnenberg, M. Hada, 
 M. Ehara, K. Toyota, R. Fukuda, J. Hasegawa, M. Ishida, T. Nakajima, 
 Y. Honda, O. Kitao, H. Nakai, T. Vreven, J. A. Montgomery, Jr., 
 J. E. Peralta, F. Ogliaro, M. Bearpark, J. J. Heyd, E. Brothers, 
 K. N. Kudin, V. N. Staroverov, T. Keith, R. Kobayashi, J. Normand, 
 K. Raghavachari, A. Rendell, J. C. Burant, S. S. Iyengar, J. Tomasi, 
 M. Cossi, N. Rega, J. M. Millam, M. Klene, J. E. Knox, J. B. Cross, 
 V. Bakken, C. Adamo, J. Jaramillo, R. Gomperts, R. E. Stratmann, 
 O. Yazyev, A. J. Austin, R. Cammi, C. Pomelli, J. W. Ochterski, 
 R. L. Martin, K. Morokuma, V. G. Zakrzewski, G. A. Voth, 
 P. Salvador, J. J. Dannenberg, S. Dapprich, A. D. Daniels, 
 O. Farkas, J. B. Foresman, J. V. Ortiz, J. Cioslowski, 
 and D. J. Fox, Gaussian, Inc., Wallingford CT, 2013.
 
 ******************************************
 Gaussian 09:  ES64L-G09RevE.01 30-Nov-2015
                 4-Dec-2020 
 ******************************************
 %nproc=1
 Will use up to    1 processors via shared memory.
 %mem=8GB
 -------------------------------------
 #P OPT Freq B3LYP/6-31G** Pop=NBORead
 -------------------------------------
 1/14=-1,18=20,19=15,26=3,38=1/1,3;
 2/9=110,12=2,17=6,18=5,40=1/2;
 3/5=1,6=6,7=101,11=2,16=1,25=1,30=1,71=1,74=-5/1,2,3;
 4//1;
 5/5=2,38=5/2;
 6/7=2,8=2,9=2,10=2,28=1,40=2/1,7;
 7//1,2,3,16;
 1/14=-1,18=20,19=15,26=3/3(2);
 2/9=110/2;
 99//99;
 2/9=110/2;
 3/5=1,6=6,7=101,11=2,16=1,25=1,30=1,71=1,74=-5/1,2,3;
 4/5=5,16=3,69=1/1;
 5/5=2,38=5/2;
 7//1,2,3,16;
 1/14=-1,18=20,19=15,26=3/3(-5);
 2/9=110/2;
 6/7=2,8=2,9=2,10=2,19=2,28=1,40=2/1,7;
 99/9=1/99;
 Leave Link    1 at Fri Dec  4 15:18:50 2020, MaxMem=  1073741824 cpu:         0.0
 (Enter /new_disk/wangrunwen/GAUSSIAN/g09/l101.exe)
 ---
 NO2
 ---
 Symbolic Z-matrix:
 Charge =  0 Multiplicity = 2
 N                     0.        0.32833   0. 
 O                     1.10698  -0.14363   0. 
 O                    -1.10698  -0.14367   0. 
 
 NAtoms=      3 NQM=        3 NQMF=       0 NMMI=      0 NMMIF=      0
                NMic=       0 NMicF=      0.
                    Isotopes and Nuclear Properties:
 (Nuclear quadrupole moments (NQMom) in fm**2, nuclear magnetic moments (NMagM)
  in nuclear magnetons)

  Atom         1           2           3
 IAtWgt=          14          16          16
 AtmWgt=  14.0030740  15.9949146  15.9949146
 NucSpn=           2           0           0
 AtZEff=   0.0000000   0.0000000   0.0000000
 NQMom=    2.0440000   0.0000000   0.0000000
 NMagM=    0.4037610   0.0000000   0.0000000
 AtZNuc=   7.0000000   8.0000000   8.0000000
 Leave Link  101 at Fri Dec  4 15:18:50 2020, MaxMem=  1073741824 cpu:         0.1
 (Enter /new_disk/wangrunwen/GAUSSIAN/g09/l103.exe)

 GradGradGradGradGradGradGradGradGradGradGradGradGradGradGradGradGradGrad
 Berny optimization.
 Initialization pass.
                           ----------------------------
                           !    Initial Parameters    !
                           ! (Angstroms and Degrees)  !
 --------------------------                            --------------------------
 ! Name  Definition              Value          Derivative Info.                !
 --------------------------------------------------------------------------------
 ! R1    R(1,2)                  1.2034         estimate D2E/DX2                !
 ! R2    R(1,3)                  1.2034         estimate D2E/DX2                !
 ! A1    A(2,1,3)              133.8164         estimate D2E/DX2                !
 --------------------------------------------------------------------------------
 Trust Radius=3.00D-01 FncErr=1.00D-07 GrdErr=1.00D-06
 Number of steps in this run=     20 maximum allowed number of steps=    100.
 GradGradGradGradGradGradGradGradGradGradGradGradGradGradGradGradGradGrad

 Leave Link  103 at Fri Dec  4 15:18:50 2020, MaxMem=  1073741824 cpu:         0.0
 (Enter /new_disk/wangrunwen/GAUSSIAN/g09/l202.exe)
                          Input orientation:                          
 ---------------------------------------------------------------------
 Center     Atomic      Atomic             Coordinates (Angstroms)
 Number     Number       Type             X           Y           Z
 ---------------------------------------------------------------------
      1          7           0        0.000000    0.328334    0.000000
      2          8           0        1.106983   -0.143628    0.000000
      3          8           0       -1.106983   -0.143665    0.000000
 ---------------------------------------------------------------------
                    Distance matrix (angstroms):
                    1          2          3
     1  N    0.000000
     2  O    1.203395   0.000000
     3  O    1.203409   2.213966   0.000000
 Stoichiometry    NO2(2)
 Framework group  CS[SG(NO2)]
 Deg. of freedom     3
 Full point group                 CS      NOp   2
 Largest Abelian subgroup         CS      NOp   2
 Largest concise Abelian subgroup C1      NOp   1
                         Standard orientation:                         
 ---------------------------------------------------------------------
 Center     Atomic      Atomic             Coordinates (Angstroms)
 Number     Number       Type             X           Y           Z
 ---------------------------------------------------------------------
      1          7           0        0.000000    0.328334    0.000000
      2          8           0        1.106983   -0.143628    0.000000
      3          8           0       -1.106983   -0.143665    0.000000
 ---------------------------------------------------------------------
 Rotational constants (GHZ):    232.9295581     12.8920912     12.2159668
 Leave Link  202 at Fri Dec  4 15:18:50 2020, MaxMem=  1073741824 cpu:         0.0
 (Enter /new_disk/wangrunwen/GAUSSIAN/g09/l301.exe)
 Standard basis: 6-31G(d,p) (6D, 7F)
 Ernie: Thresh=  0.10000D-02 Tol=  0.10000D-05 Strict=F.
 There are    33 symmetry adapted cartesian basis functions of A'  symmetry.
 There are    12 symmetry adapted cartesian basis functions of A"  symmetry.
 There are    33 symmetry adapted basis functions of A'  symmetry.
 There are    12 symmetry adapted basis functions of A"  symmetry.
    45 basis functions,    84 primitive gaussians,    45 cartesian basis functions
    12 alpha electrons       11 beta electrons
       nuclear repulsion energy        64.5473755225 Hartrees.
 IExCor=  402 DFT=T Ex+Corr=B3LYP ExCW=0 ScaHFX=  0.200000
 ScaDFX=  0.800000  0.720000  1.000000  0.810000 ScalE2=  1.000000  1.000000
 IRadAn=      0 IRanWt=     -1 IRanGd=            0 ICorTp=0 IEmpDi=  4
 NAtoms=    3 NActive=    3 NUniq=    3 SFac= 1.00D+00 NAtFMM=   60 NAOKFM=F Big=F
 Integral buffers will be    131072 words long.
 Raffenetti 2 integral format.
 Two-electron integral symmetry is turned on.
 Leave Link  301 at Fri Dec  4 15:18:50 2020, MaxMem=  1073741824 cpu:         0.0
 (Enter /new_disk/wangrunwen/GAUSSIAN/g09/l302.exe)
 NPDir=0 NMtPBC=     1 NCelOv=     1 NCel=       1 NClECP=     1 NCelD=      1
         NCelK=      1 NCelE2=     1 NClLst=     1 CellRange=     0.0.
 One-electron integrals computed using PRISM.
 NBasis=    45 RedAO= T EigKep=  6.71D-03  NBF=    33    12
 NBsUse=    45 1.00D-06 EigRej= -1.00D+00 NBFU=    33    12
 Precomputing XC quadrature grid using
 IXCGrd= 4 IRadAn=           0 IRanWt=          -1 IRanGd=           0 AccXCQ= 0.00D+00.
 Generated NRdTot=       0 NPtTot=           0 NUsed=           0 NTot=          32
 NSgBfM=    45    45    45    45    45 MxSgAt=     3 MxSgA2=     3.
 Leave Link  302 at Fri Dec  4 15:18:50 2020, MaxMem=  1073741824 cpu:         0.1
 (Enter /new_disk/wangrunwen/GAUSSIAN/g09/l303.exe)
 DipDrv:  MaxL=1.
 Leave Link  303 at Fri Dec  4 15:18:50 2020, MaxMem=  1073741824 cpu:         0.0
 (Enter /new_disk/wangrunwen/GAUSSIAN/g09/l401.exe)
 ExpMin= 2.12D-01 ExpMax= 5.48D+03 ExpMxC= 8.25D+02 IAcc=1 IRadAn=         1 AccDes= 0.00D+00
 Harris functional with IExCor=  402 and IRadAn=       1 diagonalized for initial guess.
 HarFok:  IExCor=  402 AccDes= 0.00D+00 IRadAn=         1 IDoV= 1 UseB2=F ITyADJ=14
 ICtDFT=  3500011 ScaDFX=  1.000000  1.000000  1.000000  1.000000
 FoFCou: FMM=F IPFlag=           0 FMFlag=      100000 FMFlg1=           0
         NFxFlg=           0 DoJE=T BraDBF=F KetDBF=T FulRan=T
         wScrn=  0.000000 ICntrl=     500 IOpCl=  0 I1Cent=   200000004 NGrid=           0
         NMat0=    1 NMatS0=      1 NMatT0=    0 NMatD0=    1 NMtDS0=    0 NMtDT0=    0
 Petite list used in FoFCou.
 Harris En= -205.064146085508    
 JPrj=0 DoOrth=F DoCkMO=F.
 Initial guess orbital symmetries:
 Alpha Orbitals:
       Occupied  (A') (A') (A') (A') (A') (A') (A') (A') (A") (A")
                 (A') (A')
       Virtual   (A") (A') (A') (A') (A') (A') (A") (A') (A') (A")
                 (A') (A") (A') (A') (A") (A') (A") (A') (A') (A")
                 (A') (A') (A") (A') (A") (A') (A') (A") (A') (A')
                 (A') (A') (A')
 Beta  Orbitals:
       Occupied  (A') (A') (A') (A') (A') (A') (A') (A') (A") (A")
                 (A')
       Virtual   (A') (A") (A') (A') (A') (A') (A') (A") (A') (A')
                 (A") (A') (A") (A') (A') (A") (A') (A") (A') (A')
                 (A") (A') (A') (A") (A') (A") (A') (A') (A") (A')
                 (A') (A') (A') (A')
 The electronic state of the initial guess is 2-A'.
 Initial guess <Sx>= 0.0000 <Sy>= 0.0000 <Sz>= 0.5000 <S**2>= 0.7500 S= 0.5000
 Leave Link  401 at Fri Dec  4 15:18:50 2020, MaxMem=  1073741824 cpu:         0.1
 (Enter /new_disk/wangrunwen/GAUSSIAN/g09/l502.exe)
 UHF open shell SCF:
 Using DIIS extrapolation, IDIIS=  1040.
 Integral symmetry usage will be decided dynamically.
 Keep R1 and R2 ints in memory in symmetry-blocked form, NReq=1458753.
 IVT=       25244 IEndB=       25244 NGot=  1073741824 MDV=  1073147754
 LenX=  1073147754 LenY=  1073145288
 Requested convergence on RMS density matrix=1.00D-08 within 128 cycles.
 Requested convergence on MAX density matrix=1.00D-06.
 Requested convergence on             energy=1.00D-06.
 No special actions if energy rises.
 FoFCou: FMM=F IPFlag=           0 FMFlag=           0 FMFlg1=           0
         NFxFlg=           0 DoJE=F BraDBF=F KetDBF=F FulRan=T
         wScrn=  0.000000 ICntrl=     600 IOpCl=  0 I1Cent=           0 NGrid=           0
         NMat0=    1 NMatS0=   1035 NMatT0=    0 NMatD0=    1 NMtDS0=    0 NMtDT0=    0
 Petite list used in FoFCou.
 Integral accuracy reduced to 1.0D-05 until final iterations.

 Cycle   1  Pass 0  IDiag  1:
 E= -204.989877699215    
 DIIS: error= 5.23D-02 at cycle   1 NSaved=   1.
 NSaved= 1 IEnMin= 1 EnMin= -204.989877699215     IErMin= 1 ErrMin= 5.23D-02
 ErrMax= 5.23D-02  0.00D+00 EMaxC= 1.00D-01 BMatC= 4.70D-01 BMatP= 4.70D-01
 IDIUse=3 WtCom= 4.77D-01 WtEn= 5.23D-01
 Coeff-Com:  0.100D+01
 Coeff-En:   0.100D+01
 Coeff:      0.100D+01
 Gap=     0.177 Goal=   None    Shift=    0.000
 Gap=     0.106 Goal=   None    Shift=    0.000
 GapD=    0.106 DampG=1.000 DampE=0.500 DampFc=0.5000 IDamp=-1.
 Damping current iteration by 5.00D-01
 RMSDP=1.25D-02 MaxDP=1.98D-01              OVMax= 2.90D-01

 Cycle   2  Pass 0  IDiag  1:
 E= -204.988659548540     Delta-E=        0.001218150675 Rises=F Damp=T
 DIIS: error= 2.58D-02 at cycle   2 NSaved=   2.
 NSaved= 2 IEnMin= 1 EnMin= -204.989877699215     IErMin= 2 ErrMin= 2.58D-02
 ErrMax= 2.58D-02  0.00D+00 EMaxC= 1.00D-01 BMatC= 1.39D-01 BMatP= 4.70D-01
 IDIUse=3 WtCom= 7.42D-01 WtEn= 2.58D-01
 Coeff-Com:  0.339D+00 0.661D+00
 Coeff-En:   0.505D+00 0.495D+00
 Coeff:      0.382D+00 0.618D+00
 Gap=     0.195 Goal=   None    Shift=    0.000
 Gap=     0.182 Goal=   None    Shift=    0.000
 RMSDP=2.31D-03 MaxDP=4.27D-02 DE= 1.22D-03 OVMax= 1.84D-01

 Cycle   3  Pass 0  IDiag  1:
 E= -205.071187963870     Delta-E=       -0.082528415329 Rises=F Damp=F
 DIIS: error= 5.62D-03 at cycle   3 NSaved=   3.
 NSaved= 3 IEnMin= 3 EnMin= -205.071187963870     IErMin= 3 ErrMin= 5.62D-03
 ErrMax= 5.62D-03  0.00D+00 EMaxC= 1.00D-01 BMatC= 5.53D-03 BMatP= 1.39D-01
 IDIUse=3 WtCom= 9.44D-01 WtEn= 5.62D-02
 Coeff-Com:  0.849D-01-0.189D-01 0.934D+00
 Coeff-En:   0.000D+00 0.000D+00 0.100D+01
 Coeff:      0.801D-01-0.178D-01 0.938D+00
 Gap=     0.197 Goal=   None    Shift=    0.000
 Gap=     0.197 Goal=   None    Shift=    0.000
 RMSDP=6.50D-04 MaxDP=1.07D-02 DE=-8.25D-02 OVMax= 1.03D-02

 Cycle   4  Pass 0  IDiag  1:
 E= -205.072160861107     Delta-E=       -0.000972897237 Rises=F Damp=F
 DIIS: error= 7.55D-04 at cycle   4 NSaved=   4.
 NSaved= 4 IEnMin= 4 EnMin= -205.072160861107     IErMin= 4 ErrMin= 7.55D-04
 ErrMax= 7.55D-04  0.00D+00 EMaxC= 1.00D-01 BMatC= 1.44D-04 BMatP= 5.53D-03
 IDIUse=3 WtCom= 9.92D-01 WtEn= 7.55D-03
 Coeff-Com:  0.168D-02-0.190D-01 0.197D+00 0.820D+00
 Coeff-En:   0.000D+00 0.000D+00 0.000D+00 0.100D+01
 Coeff:      0.166D-02-0.189D-01 0.196D+00 0.822D+00
 Gap=     0.197 Goal=   None    Shift=    0.000
 Gap=     0.198 Goal=   None    Shift=    0.000
 RMSDP=1.09D-04 MaxDP=1.11D-03 DE=-9.73D-04 OVMax= 1.53D-03

 Cycle   5  Pass 0  IDiag  1:
 E= -205.072187192298     Delta-E=       -0.000026331191 Rises=F Damp=F
 DIIS: error= 1.95D-04 at cycle   5 NSaved=   5.
 NSaved= 5 IEnMin= 5 EnMin= -205.072187192298     IErMin= 5 ErrMin= 1.95D-04
 ErrMax= 1.95D-04  0.00D+00 EMaxC= 1.00D-01 BMatC= 6.32D-06 BMatP= 1.44D-04
 IDIUse=3 WtCom= 9.98D-01 WtEn= 1.95D-03
 Coeff-Com: -0.352D-02-0.397D-02 0.134D-01 0.186D+00 0.808D+00
 Coeff-En:   0.000D+00 0.000D+00 0.000D+00 0.000D+00 0.100D+01
 Coeff:     -0.352D-02-0.396D-02 0.134D-01 0.185D+00 0.809D+00
 Gap=     0.197 Goal=   None    Shift=    0.000
 Gap=     0.198 Goal=   None    Shift=    0.000
 RMSDP=3.70D-05 MaxDP=4.85D-04 DE=-2.63D-05 OVMax= 5.27D-04

 Cycle   6  Pass 0  IDiag  1:
 E= -205.072188151187     Delta-E=       -0.000000958889 Rises=F Damp=F
 DIIS: error= 1.49D-04 at cycle   6 NSaved=   6.
 NSaved= 6 IEnMin= 6 EnMin= -205.072188151187     IErMin= 6 ErrMin= 1.49D-04
 ErrMax= 1.49D-04  0.00D+00 EMaxC= 1.00D-01 BMatC= 2.95D-06 BMatP= 6.32D-06
 IDIUse=3 WtCom= 9.99D-01 WtEn= 1.49D-03
 Coeff-Com: -0.198D-02-0.606D-03-0.677D-02 0.401D-01 0.446D+00 0.524D+00
 Coeff-En:   0.000D+00 0.000D+00 0.000D+00 0.000D+00 0.143D+00 0.857D+00
 Coeff:     -0.197D-02-0.605D-03-0.676D-02 0.400D-01 0.445D+00 0.524D+00
 Gap=     0.197 Goal=   None    Shift=    0.000
 Gap=     0.198 Goal=   None    Shift=    0.000
 RMSDP=2.71D-05 MaxDP=3.69D-04 DE=-9.59D-07 OVMax= 7.54D-04

 Cycle   7  Pass 0  IDiag  1:
 E= -205.072188000368     Delta-E=        0.000000150820 Rises=F Damp=F
 DIIS: error= 1.81D-04 at cycle   7 NSaved=   7.
 NSaved= 7 IEnMin= 6 EnMin= -205.072188151187     IErMin= 6 ErrMin= 1.49D-04
 ErrMax= 1.81D-04  0.00D+00 EMaxC= 1.00D-01 BMatC= 3.82D-06 BMatP= 2.95D-06
 IDIUse=3 WtCom= 9.99D-01 WtEn= 1.49D-03
 Coeff-Com: -0.509D-03 0.112D-02-0.127D-01-0.384D-01 0.117D+00 0.533D+00
 Coeff-Com:  0.401D+00
 Coeff-En:   0.000D+00 0.000D+00 0.000D+00 0.000D+00 0.000D+00 0.540D+00
 Coeff-En:   0.460D+00
 Coeff:     -0.508D-03 0.112D-02-0.127D-01-0.383D-01 0.116D+00 0.533D+00
 Coeff:      0.402D+00
 Gap=     0.197 Goal=   None    Shift=    0.000
 Gap=     0.198 Goal=   None    Shift=    0.000
 RMSDP=1.54D-05 MaxDP=2.12D-04 DE= 1.51D-07 OVMax= 4.24D-04

 Cycle   8  Pass 0  IDiag  1:
 E= -205.072188757212     Delta-E=       -0.000000756844 Rises=F Damp=F
 DIIS: error= 8.04D-06 at cycle   8 NSaved=   8.
 NSaved= 8 IEnMin= 8 EnMin= -205.072188757212     IErMin= 8 ErrMin= 8.04D-06
 ErrMax= 8.04D-06  0.00D+00 EMaxC= 1.00D-01 BMatC= 9.41D-09 BMatP= 2.95D-06
 IDIUse=1 WtCom= 1.00D+00 WtEn= 0.00D+00
 Coeff-Com: -0.451D-04 0.267D-03-0.284D-02-0.103D-01 0.944D-02 0.109D+00
 Coeff-Com:  0.102D+00 0.793D+00
 Coeff:     -0.451D-04 0.267D-03-0.284D-02-0.103D-01 0.944D-02 0.109D+00
 Coeff:      0.102D+00 0.793D+00
 Gap=     0.197 Goal=   None    Shift=    0.000
 Gap=     0.198 Goal=   None    Shift=    0.000
 RMSDP=1.13D-06 MaxDP=2.01D-05 DE=-7.57D-07 OVMax= 2.48D-05

 Initial convergence to 1.0D-05 achieved.  Increase integral accuracy.
 Cycle   9  Pass 1  IDiag  1:
 E= -205.072205961124     Delta-E=       -0.000017203912 Rises=F Damp=F
 DIIS: error= 9.02D-06 at cycle   1 NSaved=   1.
 NSaved= 1 IEnMin= 1 EnMin= -205.072205961124     IErMin= 1 ErrMin= 9.02D-06
 ErrMax= 9.02D-06  0.00D+00 EMaxC= 1.00D-01 BMatC= 5.50D-09 BMatP= 5.50D-09
 IDIUse=1 WtCom= 1.00D+00 WtEn= 0.00D+00
 Coeff-Com:  0.100D+01
 Coeff:      0.100D+01
 Gap=     0.197 Goal=   None    Shift=    0.000
 Gap=     0.198 Goal=   None    Shift=    0.000
 RMSDP=1.13D-06 MaxDP=2.01D-05 DE=-1.72D-05 OVMax= 2.70D-05

 Cycle  10  Pass 1  IDiag  1:
 E= -205.072205963069     Delta-E=       -0.000000001946 Rises=F Damp=F
 DIIS: error= 2.58D-06 at cycle   2 NSaved=   2.
 NSaved= 2 IEnMin= 2 EnMin= -205.072205963069     IErMin= 2 ErrMin= 2.58D-06
 ErrMax= 2.58D-06  0.00D+00 EMaxC= 1.00D-01 BMatC= 4.90D-10 BMatP= 5.50D-09
 IDIUse=1 WtCom= 1.00D+00 WtEn= 0.00D+00
 Coeff-Com:  0.610D-01 0.939D+00
 Coeff:      0.610D-01 0.939D+00
 Gap=     0.197 Goal=   None    Shift=    0.000
 Gap=     0.198 Goal=   None    Shift=    0.000
 RMSDP=3.79D-07 MaxDP=9.46D-06 DE=-1.95D-09 OVMax= 1.25D-05

 Cycle  11  Pass 1  IDiag  1:
 E= -205.072205963123     Delta-E=       -0.000000000054 Rises=F Damp=F
 DIIS: error= 2.08D-06 at cycle   3 NSaved=   3.
 NSaved= 3 IEnMin= 3 EnMin= -205.072205963123     IErMin= 3 ErrMin= 2.08D-06
 ErrMax= 2.08D-06  0.00D+00 EMaxC= 1.00D-01 BMatC= 6.45D-10 BMatP= 4.90D-10
 IDIUse=1 WtCom= 1.00D+00 WtEn= 0.00D+00
 Coeff-Com: -0.267D-01 0.554D+00 0.473D+00
 Coeff:     -0.267D-01 0.554D+00 0.473D+00
 Gap=     0.197 Goal=   None    Shift=    0.000
 Gap=     0.198 Goal=   None    Shift=    0.000
 RMSDP=2.47D-07 MaxDP=4.45D-06 DE=-5.36D-11 OVMax= 6.67D-06

 Cycle  12  Pass 1  IDiag  1:
 E= -205.072205963229     Delta-E=       -0.000000000107 Rises=F Damp=F
 DIIS: error= 8.37D-07 at cycle   4 NSaved=   4.
 NSaved= 4 IEnMin= 4 EnMin= -205.072205963229     IErMin= 4 ErrMin= 8.37D-07
 ErrMax= 8.37D-07  0.00D+00 EMaxC= 1.00D-01 BMatC= 1.67D-10 BMatP= 4.90D-10
 IDIUse=1 WtCom= 1.00D+00 WtEn= 0.00D+00
 Coeff-Com: -0.306D-01 0.201D+00 0.333D+00 0.497D+00
 Coeff:     -0.306D-01 0.201D+00 0.333D+00 0.497D+00
 Gap=     0.197 Goal=   None    Shift=    0.000
 Gap=     0.198 Goal=   None    Shift=    0.000
 RMSDP=1.31D-07 MaxDP=2.53D-06 DE=-1.07D-10 OVMax= 3.13D-06

 Cycle  13  Pass 1  IDiag  1:
 E= -205.072205963257     Delta-E=       -0.000000000028 Rises=F Damp=F
 DIIS: error= 6.06D-07 at cycle   5 NSaved=   5.
 NSaved= 5 IEnMin= 5 EnMin= -205.072205963257     IErMin= 5 ErrMin= 6.06D-07
 ErrMax= 6.06D-07  0.00D+00 EMaxC= 1.00D-01 BMatC= 4.89D-11 BMatP= 1.67D-10
 IDIUse=1 WtCom= 1.00D+00 WtEn= 0.00D+00
 Coeff-Com: -0.183D-01 0.493D-01 0.161D+00 0.363D+00 0.445D+00
 Coeff:     -0.183D-01 0.493D-01 0.161D+00 0.363D+00 0.445D+00
 Gap=     0.197 Goal=   None    Shift=    0.000
 Gap=     0.198 Goal=   None    Shift=    0.000
 RMSDP=8.40D-08 MaxDP=1.45D-06 DE=-2.76D-11 OVMax= 2.19D-06

 Cycle  14  Pass 1  IDiag  1:
 E= -205.072205963265     Delta-E=       -0.000000000008 Rises=F Damp=F
 DIIS: error= 3.53D-07 at cycle   6 NSaved=   6.
 NSaved= 6 IEnMin= 6 EnMin= -205.072205963265     IErMin= 6 ErrMin= 3.53D-07
 ErrMax= 3.53D-07  0.00D+00 EMaxC= 1.00D-01 BMatC= 2.03D-11 BMatP= 4.89D-11
 IDIUse=1 WtCom= 1.00D+00 WtEn= 0.00D+00
 Coeff-Com:  0.443D-02-0.110D+00-0.936D-01-0.221D-01 0.474D+00 0.747D+00
 Coeff:      0.443D-02-0.110D+00-0.936D-01-0.221D-01 0.474D+00 0.747D+00
 Gap=     0.197 Goal=   None    Shift=    0.000
 Gap=     0.198 Goal=   None    Shift=    0.000
 RMSDP=5.23D-08 MaxDP=1.09D-06 DE=-8.19D-12 OVMax= 1.80D-06

 Cycle  15  Pass 1  IDiag  1:
 E= -205.072205963271     Delta-E=       -0.000000000006 Rises=F Damp=F
 DIIS: error= 4.33D-08 at cycle   7 NSaved=   7.
 NSaved= 7 IEnMin= 7 EnMin= -205.072205963271     IErMin= 7 ErrMin= 4.33D-08
 ErrMax= 4.33D-08  0.00D+00 EMaxC= 1.00D-01 BMatC= 2.16D-13 BMatP= 2.03D-11
 IDIUse=1 WtCom= 1.00D+00 WtEn= 0.00D+00
 Coeff-Com:  0.218D-02-0.232D-01-0.303D-01-0.361D-01 0.336D-01 0.117D+00
 Coeff-Com:  0.937D+00
 Coeff:      0.218D-02-0.232D-01-0.303D-01-0.361D-01 0.336D-01 0.117D+00
 Coeff:      0.937D+00
 Gap=     0.197 Goal=   None    Shift=    0.000
 Gap=     0.198 Goal=   None    Shift=    0.000
 RMSDP=1.03D-08 MaxDP=2.45D-07 DE=-6.03D-12 OVMax= 3.88D-07

 Cycle  16  Pass 1  IDiag  1:
 E= -205.072205963271     Delta-E=        0.000000000000 Rises=F Damp=F
 DIIS: error= 8.74D-09 at cycle   8 NSaved=   8.
 NSaved= 8 IEnMin= 7 EnMin= -205.072205963271     IErMin= 8 ErrMin= 8.74D-09
 ErrMax= 8.74D-09  0.00D+00 EMaxC= 1.00D-01 BMatC= 8.88D-15 BMatP= 2.16D-13
 IDIUse=1 WtCom= 1.00D+00 WtEn= 0.00D+00
 Coeff-Com: -0.458D-03 0.861D-02 0.101D-01 0.398D-02-0.333D-01-0.545D-01
 Coeff-Com: -0.110D+00 0.118D+01
 Coeff:     -0.458D-03 0.861D-02 0.101D-01 0.398D-02-0.333D-01-0.545D-01
 Coeff:     -0.110D+00 0.118D+01
 Gap=     0.197 Goal=   None    Shift=    0.000
 Gap=     0.198 Goal=   None    Shift=    0.000
 RMSDP=2.54D-09 MaxDP=4.87D-08 DE= 5.68D-14 OVMax= 7.60D-08

 SCF Done:  E(UB3LYP) =  -205.072205963     A.U. after   16 cycles
            NFock= 16  Conv=0.25D-08     -V/T= 2.0086
 <Sx>= 0.0000 <Sy>= 0.0000 <Sz>= 0.5000 <S**2>= 0.7533 S= 0.5016
 <L.S>= 0.000000000000E+00
 KE= 2.033242046156D+02 PE=-6.112419541753D+02 EE= 1.382981680739D+02
 Annihilation of the first spin contaminant:
 S**2 before annihilation     0.7533,   after     0.7500
 Leave Link  502 at Fri Dec  4 15:18:52 2020, MaxMem=  1073741824 cpu:         1.9
 (Enter /new_disk/wangrunwen/GAUSSIAN/g09/l601.exe)
 Copying SCF densities to generalized density rwf, IOpCl= 1 IROHF=0.

 **********************************************************************

            Population analysis using the SCF density.

 **********************************************************************

 Orbital symmetries:
 Alpha Orbitals:
       Occupied  (A') (A') (A') (A') (A') (A') (A') (A') (A") (A')
                 (A") (A')
       Virtual   (A") (A') (A') (A') (A') (A') (A") (A') (A') (A")
                 (A') (A") (A') (A') (A") (A') (A") (A') (A') (A")
                 (A') (A") (A') (A') (A") (A') (A') (A") (A') (A')
                 (A') (A') (A')
 Beta  Orbitals:
       Occupied  (A') (A') (A') (A') (A') (A') (A") (A') (A') (A")
                 (A')
       Virtual   (A') (A") (A') (A') (A') (A') (A") (A') (A') (A')
                 (A") (A') (A") (A') (A') (A") (A') (A") (A') (A')
                 (A") (A') (A') (A") (A') (A") (A') (A') (A") (A')
                 (A') (A') (A') (A')
 The electronic state is 2-A'.
 Alpha  occ. eigenvalues --  -19.26569 -19.26568 -14.58718  -1.28163  -1.13620
 Alpha  occ. eigenvalues --   -0.67831  -0.57484  -0.57201  -0.56486  -0.38152
 Alpha  occ. eigenvalues --   -0.37743  -0.28783
 Alpha virt. eigenvalues --   -0.09043   0.20998   0.36925   0.58380   0.59075
 Alpha virt. eigenvalues --    0.59274   0.61184   0.77979   0.82018   0.87940
 Alpha virt. eigenvalues --    0.88913   0.93806   0.95244   1.27323   1.37151
 Alpha virt. eigenvalues --    1.38972   1.39944   1.46770   1.71164   1.73077
 Alpha virt. eigenvalues --    1.81264   1.83211   1.83287   2.19648   2.32429
 Alpha virt. eigenvalues --    2.64084   2.69408   2.70347   2.77108   2.85827
 Alpha virt. eigenvalues --    3.40587   3.62566   3.70446
  Beta  occ. eigenvalues --  -19.25678 -19.25677 -14.57655  -1.26293  -1.11468
  Beta  occ. eigenvalues --   -0.64495  -0.55393  -0.54822  -0.52967  -0.36983
  Beta  occ. eigenvalues --   -0.34102
  Beta virt. eigenvalues --   -0.14323  -0.07395   0.22324   0.39500   0.59688
  Beta virt. eigenvalues --    0.59870   0.61975   0.62078   0.78563   0.83806
  Beta virt. eigenvalues --    0.88371   0.91480   0.94466   0.96906   1.28895
  Beta virt. eigenvalues --    1.37667   1.40257   1.42021   1.48832   1.72943
  Beta virt. eigenvalues --    1.74225   1.83384   1.84223   1.85500   2.21361
  Beta virt. eigenvalues --    2.33446   2.66962   2.71421   2.71438   2.78084
  Beta virt. eigenvalues --    2.87511   3.42390   3.63817   3.72415
          Condensed to atoms (all electrons):
               1          2          3
     1  N    6.025565   0.247000   0.246995
     2  O    0.247000   8.072444  -0.079228
     3  O    0.246995  -0.079228   8.072458
          Atomic-Atomic Spin Densities.
               1          2          3
     1  N    0.750093  -0.156917  -0.156913
     2  O   -0.156917   0.416499   0.022282
     3  O   -0.156913   0.022282   0.416503
 Mulliken charges and spin densities:
               1          2
     1  N    0.480441   0.436264
     2  O   -0.240216   0.281864
     3  O   -0.240225   0.281873
 Sum of Mulliken charges =  -0.00000   1.00000
 Mulliken charges and spin densities with hydrogens summed into heavy atoms:
               1          2
     1  N    0.480441   0.436264
     2  O   -0.240216   0.281864
     3  O   -0.240225   0.281873
 Electronic spatial extent (au):  <R**2>=            109.1120
 Charge=             -0.0000 electrons
 Dipole moment (field-independent basis, Debye):
    X=              0.0001    Y=              0.3215    Z=              0.0000  Tot=              0.3215
 Quadrupole moment (field-independent basis, Debye-Ang):
   XX=            -17.5905   YY=            -15.2327   ZZ=            -14.5514
   XY=             -0.0000   XZ=              0.0000   YZ=              0.0000
 Traceless Quadrupole moment (field-independent basis, Debye-Ang):
   XX=             -1.7989   YY=              0.5588   ZZ=              1.2401
   XY=             -0.0000   XZ=              0.0000   YZ=              0.0000
 Octapole moment (field-independent basis, Debye-Ang**2):
  XXX=              0.0001  YYY=             -0.7775  ZZZ=              0.0000  XYY=              0.0000
  XXY=             -0.3239  XXZ=              0.0000  XZZ=              0.0000  YZZ=             -0.1448
  YYZ=              0.0000  XYZ=              0.0000
 Hexadecapole moment (field-independent basis, Debye-Ang**3):
 XXXX=            -88.4612 YYYY=            -15.6410 ZZZZ=            -10.0765 XXXY=             -0.0006
 XXXZ=              0.0000 YYYX=             -0.0006 YYYZ=              0.0000 ZZZX=              0.0000
 ZZZY=              0.0000 XXYY=            -16.9155 XXZZ=            -16.0322 YYZZ=             -4.2174
 XXYZ=              0.0000 YYXZ=              0.0000 ZZXY=             -0.0002
 N-N= 6.454737552255D+01 E-N=-6.112419543100D+02  KE= 2.033242046156D+02
 Symmetry A'   KE= 1.944878560228D+02
 Symmetry A"   KE= 8.836348592765D+00
                          Isotropic Fermi Contact Couplings
        Atom                 a.u.       MegaHertz       Gauss      10(-4) cm-1
     1  N(14)              0.46240     149.40348      53.31088      49.83564
     2  O(17)              0.06724     -40.76157     -14.54474     -13.59660
     3  O(17)              0.06724     -40.75990     -14.54415     -13.59604
 --------------------------------------------------------
       Center         ----  Spin Dipole Couplings  ----
                      3XX-RR        3YY-RR        3ZZ-RR
 --------------------------------------------------------
     1   Atom       -0.506703      0.953421     -0.446718
     2   Atom       -0.675290      1.407934     -0.732644
     3   Atom       -0.675319      1.407973     -0.732654
 --------------------------------------------------------
                        XY            XZ            YZ
 --------------------------------------------------------
     1   Atom       -0.000025      0.000000      0.000000
     2   Atom       -0.288004      0.000000      0.000000
     3   Atom        0.287994      0.000000      0.000000
 --------------------------------------------------------


 ---------------------------------------------------------------------------------
              Anisotropic Spin Dipole Couplings in Principal Axis System
 ---------------------------------------------------------------------------------

       Atom             a.u.   MegaHertz   Gauss  10(-4) cm-1        Axes

              Baa    -0.5067   -19.542    -6.973    -6.519  1.0000  0.0000  0.0000
     1 N(14)  Bbb    -0.4467   -17.229    -6.148    -5.747  0.0000  0.0000  1.0000
              Bcc     0.9534    36.771    13.121    12.266 -0.0000  1.0000  0.0000
 
              Baa    -0.7326    53.014    18.917    17.683  0.0000  0.0000  1.0000
     2 O(17)  Bbb    -0.7144    51.692    18.445    17.242  0.9909  0.1345  0.0000
              Bcc     1.4470  -104.705   -37.361   -34.926 -0.1345  0.9909  0.0000
 
              Baa    -0.7327    53.014    18.917    17.684  0.0000  0.0000  1.0000
     3 O(17)  Bbb    -0.7144    51.693    18.445    17.243  0.9909 -0.1345 -0.0000
              Bcc     1.4471  -104.708   -37.362   -34.927  0.1345  0.9909  0.0000
 

 ---------------------------------------------------------------------------------

 No NMR shielding tensors so no spin-rotation constants.
 Leave Link  601 at Fri Dec  4 15:18:53 2020, MaxMem=  1073741824 cpu:         0.1
 (Enter /new_disk/wangrunwen/GAUSSIAN/g09/l607.exe)
 ******************************Gaussian NBO Version 3.1******************************
             N A T U R A L   A T O M I C   O R B I T A L   A N D
          N A T U R A L   B O N D   O R B I T A L   A N A L Y S I S
 ******************************Gaussian NBO Version 3.1******************************

       /RESON  / : Allow strongly delocalized NBO set
       /BNDIDX / : Print bond indices based on the NAO density matrix

 Analyzing the SCF density

 Job title: NO2                                                             

 Storage needed:      6339 in NPA,      8259 in NBO (1073741761 available)


 NATURAL POPULATIONS:  Natural atomic orbital occupancies 
                                                          
   NAO  Atom  No  lang   Type(AO)    Occupancy
 --------------------------------------------
     1    N    1  S      Cor( 1S)     1.99977
     2    N    1  S      Val( 2S)     1.24078
     3    N    1  S      Ryd( 3S)     0.02145
     4    N    1  S      Ryd( 4S)     0.00071
     5    N    1  px     Val( 2p)     0.90716
     6    N    1  px     Ryd( 3p)     0.01961
     7    N    1  py     Val( 2p)     1.26234
     8    N    1  py     Ryd( 3p)     0.00606
     9    N    1  pz     Val( 2p)     1.01150
    10    N    1  pz     Ryd( 3p)     0.00060
    11    N    1  dxy    Ryd( 3d)     0.00432
    12    N    1  dxz    Ryd( 3d)     0.00590
    13    N    1  dyz    Ryd( 3d)     0.00167
    14    N    1  dx2y2  Ryd( 3d)     0.00394
    15    N    1  dz2    Ryd( 3d)     0.00089

    16    O    2  S      Cor( 1S)     1.99983
    17    O    2  S      Val( 2S)     1.75930
    18    O    2  S      Ryd( 3S)     0.00492
    19    O    2  S      Ryd( 4S)     0.00022
    20    O    2  px     Val( 2p)     1.40352
    21    O    2  px     Ryd( 3p)     0.00235
    22    O    2  py     Val( 2p)     1.59004
    23    O    2  py     Ryd( 3p)     0.00186
    24    O    2  pz     Val( 2p)     1.48519
    25    O    2  pz     Ryd( 3p)     0.00134
    26    O    2  dxy    Ryd( 3d)     0.00187
    27    O    2  dxz    Ryd( 3d)     0.00310
    28    O    2  dyz    Ryd( 3d)     0.00052
    29    O    2  dx2y2  Ryd( 3d)     0.00221
    30    O    2  dz2    Ryd( 3d)     0.00038

    31    O    3  S      Cor( 1S)     1.99983
    32    O    3  S      Val( 2S)     1.75931
    33    O    3  S      Ryd( 3S)     0.00492
    34    O    3  S      Ryd( 4S)     0.00022
    35    O    3  px     Val( 2p)     1.40352
    36    O    3  px     Ryd( 3p)     0.00235
    37    O    3  py     Val( 2p)     1.59003
    38    O    3  py     Ryd( 3p)     0.00186
    39    O    3  pz     Val( 2p)     1.48521
    40    O    3  pz     Ryd( 3p)     0.00134
    41    O    3  dxy    Ryd( 3d)     0.00187
    42    O    3  dxz    Ryd( 3d)     0.00310
    43    O    3  dyz    Ryd( 3d)     0.00052
    44    O    3  dx2y2  Ryd( 3d)     0.00221
    45    O    3  dz2    Ryd( 3d)     0.00038


 Summary of Natural Population Analysis:                  
                                                          
                                       Natural Population 
                Natural  -----------------------------------------------
    Atom  No    Charge         Core      Valence    Rydberg      Total
 -----------------------------------------------------------------------
      N    1    0.51332      1.99977     4.42178    0.06514     6.48668
      O    2   -0.25665      1.99983     6.23806    0.01876     8.25665
      O    3   -0.25666      1.99983     6.23807    0.01876     8.25666
 =======================================================================
   * Total *    0.00000      5.99944    16.89790    0.10266    23.00000

                                 Natural Population      
 --------------------------------------------------------
   Core                       5.99944 ( 99.9906% of   6)
   Valence                   16.89790 ( 99.3994% of  17)
   Natural Minimal Basis     22.89734 ( 99.5536% of  23)
   Natural Rydberg Basis      0.10266 (  0.4464% of  23)
 --------------------------------------------------------

    Atom  No          Natural Electron Configuration
 ----------------------------------------------------------------------------
      N    1      [core]2S( 1.24)2p( 3.18)3S( 0.02)3p( 0.03)3d( 0.02)
      O    2      [core]2S( 1.76)2p( 4.48)3p( 0.01)3d( 0.01)
      O    3      [core]2S( 1.76)2p( 4.48)3p( 0.01)3d( 0.01)


 Wiberg bond index matrix in the NAO basis:                                    

     Atom    1       2       3
     ---- ------  ------  ------
   1.  N  0.0000  1.6533  1.6532
   2.  O  1.6533  0.0000  0.3869
   3.  O  1.6532  0.3869  0.0000


 Wiberg bond index, Totals by atom:                                            

     Atom    1
     ---- ------
   1.  N  3.3065
   2.  O  2.0402
   3.  O  2.0401


 Atom-atom overlap-weighted NAO bond order:                                    

     Atom    1       2       3
     ---- ------  ------  ------
   1.  N  0.0000  1.1542  1.1542
   2.  O  1.1542  0.0000 -0.0703
   3.  O  1.1542 -0.0703  0.0000


 Atom-atom overlap-weighted NAO bond order, Totals by atom:                    

     Atom    1
     ---- ------
   1.  N  2.3084
   2.  O  1.0840
   3.  O  1.0839


 MO bond order:                                                                

     Atom    1       2       3
     ---- ------  ------  ------
   1.  N  0.0000  1.2842  0.0601
   2.  O  1.2842  0.0000 -0.2033
   3.  O  0.0601 -0.2033  0.0000


 MO atomic valencies:                                                          

     Atom    1
     ---- ------
   1.  N  1.3443
   2.  O  1.0809
   3.  O -0.1432


 ***************************************************
 *******         Alpha spin orbitals         *******
 ***************************************************


 NATURAL POPULATIONS:  Natural atomic orbital occupancies 
                                                          
   NAO  Atom  No  lang   Type(AO)    Occupancy      Energy
 ----------------------------------------------------------
     1    N    1  S      Cor( 1S)     0.99993     -14.46749
     2    N    1  S      Val( 2S)     0.68579      -0.61551
     3    N    1  S      Ryd( 3S)     0.01877       0.96009
     4    N    1  S      Ryd( 4S)     0.00035       3.16242
     5    N    1  px     Val( 2p)     0.44617      -0.20316
     6    N    1  px     Ryd( 3p)     0.00969       0.67676
     7    N    1  py     Val( 2p)     0.77103      -0.34861
     8    N    1  py     Ryd( 3p)     0.00348       0.63770
     9    N    1  pz     Val( 2p)     0.51224      -0.31873
    10    N    1  pz     Ryd( 3p)     0.00026       0.63038
    11    N    1  dxy    Ryd( 3d)     0.00205       2.31371
    12    N    1  dxz    Ryd( 3d)     0.00294       2.05061
    13    N    1  dyz    Ryd( 3d)     0.00065       1.72832
    14    N    1  dx2y2  Ryd( 3d)     0.00205       2.36651
    15    N    1  dz2    Ryd( 3d)     0.00049       2.06679

    16    O    2  S      Cor( 1S)     0.99992     -19.06583
    17    O    2  S      Val( 2S)     0.88078      -0.97728
    18    O    2  S      Ryd( 3S)     0.00300       1.26854
    19    O    2  S      Ryd( 4S)     0.00016       3.27471
    20    O    2  px     Val( 2p)     0.69865      -0.33815
    21    O    2  px     Ryd( 3p)     0.00177       0.98120
    22    O    2  py     Val( 2p)     0.94226      -0.37870
    23    O    2  py     Ryd( 3p)     0.00142       0.93372
    24    O    2  pz     Val( 2p)     0.73949      -0.34130
    25    O    2  pz     Ryd( 3p)     0.00068       0.90263
    26    O    2  dxy    Ryd( 3d)     0.00089       2.31210
    27    O    2  dxz    Ryd( 3d)     0.00151       1.98822
    28    O    2  dyz    Ryd( 3d)     0.00027       1.78425
    29    O    2  dx2y2  Ryd( 3d)     0.00107       2.28575
    30    O    2  dz2    Ryd( 3d)     0.00019       2.00018

    31    O    3  S      Cor( 1S)     0.99992     -19.06583
    32    O    3  S      Val( 2S)     0.88079      -0.97728
    33    O    3  S      Ryd( 3S)     0.00300       1.26854
    34    O    3  S      Ryd( 4S)     0.00016       3.27472
    35    O    3  px     Val( 2p)     0.69865      -0.33815
    36    O    3  px     Ryd( 3p)     0.00177       0.98119
    37    O    3  py     Val( 2p)     0.94225      -0.37870
    38    O    3  py     Ryd( 3p)     0.00142       0.93372
    39    O    3  pz     Val( 2p)     0.73950      -0.34130
    40    O    3  pz     Ryd( 3p)     0.00068       0.90263
    41    O    3  dxy    Ryd( 3d)     0.00089       2.31211
    42    O    3  dxz    Ryd( 3d)     0.00151       1.98821
    43    O    3  dyz    Ryd( 3d)     0.00027       1.78425
    44    O    3  dx2y2  Ryd( 3d)     0.00107       2.28573
    45    O    3  dz2    Ryd( 3d)     0.00019       2.00018


 Summary of Natural Population Analysis:                  
                                                          
                                       Natural Population 
                Natural  -----------------------------------------------
    Atom  No    Charge         Core      Valence    Rydberg      Total
 -----------------------------------------------------------------------
      N    1    0.04411      0.99993     2.41523    0.04073     3.45589
      O    2   -0.27205      0.99992     3.26118    0.01096     4.27205
      O    3   -0.27206      0.99992     3.26119    0.01096     4.27206
 =======================================================================
   * Total *   -0.50000      2.99977     8.93759    0.06265    12.00000

                                 Natural Population      
 --------------------------------------------------------
   Core                       2.99977 ( 99.9922% of   3)
   Valence                    8.93759 ( 99.3065% of   9)
   Natural Minimal Basis     11.93735 ( 99.4780% of  12)
   Natural Rydberg Basis      0.06265 (  0.5220% of  12)
 --------------------------------------------------------

    Atom  No          Natural Electron Configuration
 ----------------------------------------------------------------------------
      N    1      [core]2S( 0.69)2p( 1.73)3S( 0.02)3p( 0.01)3d( 0.01)
      O    2      [core]2S( 0.88)2p( 2.38)
      O    3      [core]2S( 0.88)2p( 2.38)


 Wiberg bond index matrix in the NAO basis:                                    

     Atom    1       2       3
     ---- ------  ------  ------
   1.  N  0.0000  0.3876  0.3876
   2.  O  0.3876  0.0000  0.0921
   3.  O  0.3876  0.0921  0.0000


 Wiberg bond index, Totals by atom:                                            

     Atom    1
     ---- ------
   1.  N  0.7752
   2.  O  0.4797
   3.  O  0.4797


 Atom-atom overlap-weighted NAO bond order:                                    

     Atom    1       2       3
     ---- ------  ------  ------
   1.  N  0.0000  0.5225  0.5225
   2.  O  0.5225  0.0000 -0.0278
   3.  O  0.5225 -0.0278  0.0000


 Atom-atom overlap-weighted NAO bond order, Totals by atom:                    

     Atom    1
     ---- ------
   1.  N  1.0451
   2.  O  0.4948
   3.  O  0.4947


 MO bond order:                                                                

     Atom    1       2       3
     ---- ------  ------  ------
   1.  N  0.0000  0.3702 -0.2225
   2.  O  0.3702  0.0000  0.0268
   3.  O -0.2225  0.0268  0.0000


 MO atomic valencies:                                                          

     Atom    1
     ---- ------
   1.  N  0.1477
   2.  O  0.3970
   3.  O -0.1957


 NATURAL BOND ORBITAL ANALYSIS, alpha spin orbitals:

                       Occupancies       Lewis Structure    Low   High
           Occ.    -------------------  -----------------   occ   occ
  Cycle   Thresh.   Lewis   Non-Lewis     CR  BD  3C  LP    (L)   (NL)   Dev
 =============================================================================
   1(1)    0.90    11.65524   0.34476      3   3   0   6     1      1    0.09
   2(2)    0.90    11.42494   0.57506      3   3   0   6     1      1    0.00
   3(3)    0.90    11.22152   0.77848      3   2   0   7     2      2    0.39
   4(4)    0.90    11.65524   0.34476      3   3   0   6     1      1    0.09
   5(5)    0.90    11.42494   0.57506      3   3   0   6     1      1    0.00
   6(6)    0.90    11.22152   0.77848      3   2   0   7     2      2    0.39
   7(7)    0.90    11.65524   0.34476      3   3   0   6     1      1    0.09
   8(8)    0.90    11.42494   0.57506      3   3   0   6     1      1    0.00
   9(9)    0.90    11.22152   0.77848      3   2   0   7     2      2    0.39
  10(1)    0.80    11.65524   0.34476      3   3   0   6     1      1    0.09
  11(2)    0.80    11.42494   0.57506      3   3   0   6     1      1    0.00
  12(3)    0.80    11.22152   0.77848      3   2   0   7     2      2    0.39
  13(4)    0.80    11.65524   0.34476      3   3   0   6     1      1    0.09
  14(5)    0.80    11.42494   0.57506      3   3   0   6     1      1    0.00
  15(6)    0.80    11.22152   0.77848      3   2   0   7     2      2    0.39
  16(7)    0.80    11.65524   0.34476      3   3   0   6     1      1    0.09
  17(8)    0.80    11.42494   0.57506      3   3   0   6     1      1    0.00
  18(9)    0.80    11.22152   0.77848      3   2   0   7     2      2    0.39
  19(1)    0.70    11.39719   0.60281      3   2   0   7     0      1    0.09
 -----------------------------------------------------------------------------

 Structure accepted: No low occupancy Lewis orbitals

 --------------------------------------------------------
   Core                      2.99976 ( 99.992% of   3)
   Valence Lewis             8.39743 ( 93.305% of   9)
  ==================       ============================
   Total Lewis              11.39719 ( 94.977% of  12)
  -----------------------------------------------------
   Valence non-Lewis         0.57052 (  4.754% of  12)
   Rydberg non-Lewis         0.03229 (  0.269% of  12)
  ==================       ============================
   Total non-Lewis           0.60281 (  5.023% of  12)
 --------------------------------------------------------


       (Occupancy)   Bond orbital/ Coefficients/ Hybrids
 ---------------------------------------------------------------------------------
     1. (0.99925) BD ( 1) N   1 - O   2  
                ( 44.71%)   0.6686* N   1 s( 30.14%)p 2.31( 69.72%)d 0.00(  0.14%)
                                            0.0000  0.5436 -0.0767  0.0013  0.7030
                                            0.0696 -0.4450 -0.0109  0.0000  0.0000
                                           -0.0319  0.0000  0.0000  0.0098 -0.0175
                ( 55.29%)   0.7436* O   2 s( 26.36%)p 2.79( 73.50%)d 0.01(  0.14%)
                                            0.0000  0.5108 -0.0521 -0.0027 -0.8165
                                            0.0283  0.2596 -0.0073  0.0000  0.0000
                                           -0.0179  0.0000  0.0000  0.0275 -0.0176
     2. (0.99925) BD ( 1) N   1 - O   3  
                ( 44.71%)   0.6686* N   1 s( 30.14%)p 2.31( 69.72%)d 0.00(  0.14%)
                                            0.0000  0.5436 -0.0767  0.0013 -0.7029
                                           -0.0696 -0.4451 -0.0109  0.0000  0.0000
                                            0.0319  0.0000  0.0000  0.0098 -0.0175
                ( 55.29%)   0.7436* O   3 s( 26.36%)p 2.79( 73.50%)d 0.01(  0.14%)
                                            0.0000  0.5108 -0.0521 -0.0027  0.8165
                                           -0.0283  0.2597 -0.0073  0.0000  0.0000
                                            0.0179  0.0000  0.0000  0.0275 -0.0176
     3. (0.99993) CR ( 1) N   1           s(100.00%)
                                            1.0000  0.0001  0.0000 -0.0000 -0.0000
                                            0.0000  0.0001 -0.0000  0.0000  0.0000
                                            0.0000  0.0000  0.0000 -0.0000  0.0000
     4. (0.99992) CR ( 1) O   2           s(100.00%)p 0.00(  0.00%)
                                            1.0000  0.0003  0.0000  0.0000  0.0002
                                            0.0000  0.0002  0.0000  0.0000  0.0000
                                           -0.0000  0.0000  0.0000 -0.0000  0.0000
     5. (0.99992) CR ( 1) O   3           s(100.00%)p 0.00(  0.00%)
                                            1.0000  0.0003  0.0000  0.0000 -0.0002
                                           -0.0000  0.0002  0.0000  0.0000  0.0000
                                            0.0000  0.0000  0.0000 -0.0000  0.0000
     6. (0.99426) LP ( 1) N   1           s( 41.31%)p 1.42( 58.67%)d 0.00(  0.02%)
                                           -0.0001  0.6372  0.0838 -0.0007 -0.0000
                                            0.0000  0.7646 -0.0464  0.0000  0.0000
                                            0.0000  0.0000  0.0000 -0.0004  0.0139
     7. (0.51315) LP*( 2) N   1           s(  0.00%)p 1.00( 99.87%)d 0.00(  0.13%)
                                            0.0000  0.0000  0.0000  0.0000  0.0000
                                            0.0000  0.0000  0.0000  0.9991 -0.0225
                                            0.0000  0.0000 -0.0356  0.0000  0.0000
     8. (0.99660) LP ( 1) O   2           s( 65.09%)p 0.54( 34.89%)d 0.00(  0.01%)
                                           -0.0002  0.8065  0.0205 -0.0007  0.3519
                                           -0.0060 -0.4744 -0.0038  0.0000  0.0000
                                            0.0098  0.0000  0.0000 -0.0020  0.0029
     9. (0.96449) LP ( 2) O   2           s(  8.82%)p10.33( 91.07%)d 0.01(  0.11%)
                                           -0.0003  0.2967 -0.0126  0.0018  0.4535
                                            0.0136  0.8396  0.0063  0.0000  0.0000
                                           -0.0226  0.0000  0.0000 -0.0242  0.0004
    10. (0.74123) LP ( 3) O   2           s(  0.00%)p 1.00( 99.77%)d 0.00(  0.23%)
                                            0.0000  0.0000  0.0000  0.0000  0.0000
                                            0.0000  0.0000  0.0000  0.9988  0.0019
                                            0.0000 -0.0445  0.0191  0.0000  0.0000
    11. (0.99660) LP ( 1) O   3           s( 65.09%)p 0.54( 34.89%)d 0.00(  0.01%)
                                           -0.0002  0.8066  0.0205 -0.0007 -0.3518
                                            0.0060 -0.4744 -0.0038  0.0000  0.0000
                                           -0.0098  0.0000  0.0000 -0.0020  0.0029
    12. (0.96450) LP ( 2) O   3           s(  8.82%)p10.33( 91.07%)d 0.01(  0.11%)
                                           -0.0003  0.2967 -0.0126  0.0018 -0.4535
                                           -0.0136  0.8395  0.0063  0.0000  0.0000
                                            0.0226  0.0000  0.0000 -0.0242  0.0004
    13. (0.74124) LP ( 3) O   3           s(  0.00%)p 1.00( 99.77%)d 0.00(  0.23%)
                                            0.0000  0.0000  0.0000  0.0000  0.0000
                                            0.0000  0.0000  0.0000  0.9988  0.0019
                                            0.0000  0.0445  0.0191  0.0000  0.0000
    14. (0.01100) RY*( 1) N   1           s( 74.35%)p 0.09(  7.00%)d 0.25( 18.65%)
                                           -0.0000  0.0217  0.8612 -0.0360  0.0000
                                           -0.0000 -0.1279 -0.2316  0.0000  0.0000
                                           -0.0000  0.0000  0.0000 -0.4283  0.0557
    15. (0.00702) RY*( 2) N   1           s(  0.00%)p 1.00( 94.83%)d 0.05(  5.17%)
                                            0.0000 -0.0000  0.0000 -0.0000 -0.1061
                                            0.9680 -0.0000 -0.0000  0.0000  0.0000
                                           -0.2275  0.0000  0.0000 -0.0000  0.0000
    16. (0.00294) RY*( 3) N   1           s(  0.00%)p 0.00(  0.00%)d 1.00(100.00%)
                                            0.0000  0.0000  0.0000  0.0000  0.0000
                                            0.0000  0.0000  0.0000 -0.0000  0.0000
                                            0.0000  1.0000  0.0000  0.0000  0.0000
    17. (0.00128) RY*( 4) N   1           s(  0.00%)p 1.00(  5.38%)d17.60( 94.62%)
                                           -0.0000  0.0000  0.0000  0.0000  0.0213
                                            0.2309 -0.0000  0.0001  0.0000  0.0000
                                            0.9727  0.0000  0.0000 -0.0000 -0.0000
    18. (0.00110) RY*( 5) N   1           s( 43.49%)p 1.08( 47.07%)d 0.22(  9.44%)
                                           -0.0000  0.0346  0.3543  0.5551 -0.0000
                                           -0.0000 -0.0236  0.6857  0.0000  0.0000
                                           -0.0001  0.0000  0.0000  0.2912 -0.0980
    19. (0.00001) RY*( 6) N   1           s( 63.11%)p 0.58( 36.62%)d 0.00(  0.27%)
    20. (0.00000) RY*( 7) N   1           s(  0.00%)p 1.00(100.00%)
    21. (0.00000) RY*( 8) N   1           s(  0.00%)p 1.00(  0.13%)d99.99( 99.87%)
    22. (0.00000) RY*( 9) N   1           s( 17.04%)p 0.61( 10.38%)d 4.26( 72.58%)
    23. (0.00000) RY*(10) N   1           s(  0.42%)p 1.47(  0.62%)d99.99( 98.97%)
    24. (0.00345) RY*( 1) O   2           s( 28.13%)p 2.43( 68.23%)d 0.13(  3.63%)
                                           -0.0000  0.0113  0.5132 -0.1334 -0.0320
                                           -0.5621  0.0275 -0.6039 -0.0000 -0.0000
                                           -0.1451 -0.0000 -0.0000 -0.1221  0.0194
    25. (0.00072) RY*( 2) O   2           s(  0.00%)p 1.00( 94.03%)d 0.06(  5.97%)
                                            0.0000  0.0000  0.0000  0.0000  0.0000
                                            0.0000  0.0000  0.0000  0.0092  0.9696
                                            0.0000  0.2442 -0.0080  0.0000  0.0000
    26. (0.00020) RY*( 3) O   2           s( 54.66%)p 0.60( 32.58%)d 0.23( 12.76%)
                                           -0.0000  0.0096  0.5152  0.5302 -0.0224
                                           -0.1966  0.0122  0.5353  0.0000  0.0000
                                           -0.2950  0.0000  0.0000  0.1988 -0.0329
    27. (0.00009) RY*( 4) O   2           s( 50.20%)p 0.85( 42.80%)d 0.14(  7.00%)
    28. (0.00001) RY*( 5) O   2           s( 49.39%)p 1.02( 50.60%)d 0.00(  0.01%)
    29. (0.00000) RY*( 6) O   2           s( 16.56%)p 0.05(  0.82%)d 4.99( 82.63%)
    30. (0.00000) RY*( 7) O   2           s(  0.00%)p 1.00(  6.16%)d15.23( 93.84%)
    31. (0.00000) RY*( 8) O   2           s(  0.00%)p 1.00(  0.04%)d99.99( 99.96%)
    32. (0.00001) RY*( 9) O   2           s(  0.74%)p 7.24(  5.38%)d99.99( 93.88%)
    33. (0.00000) RY*(10) O   2           s(  0.04%)p 3.24(  0.13%)d99.99( 99.83%)
    34. (0.00345) RY*( 1) O   3           s( 28.13%)p 2.43( 68.23%)d 0.13(  3.63%)
                                            0.0000  0.0113  0.5132 -0.1334  0.0320
                                            0.5621  0.0275 -0.6038  0.0000  0.0000
                                            0.1451  0.0000  0.0000 -0.1221  0.0194
    35. (0.00072) RY*( 2) O   3           s(  0.00%)p 1.00( 94.03%)d 0.06(  5.97%)
                                            0.0000  0.0000  0.0000  0.0000  0.0000
                                            0.0000  0.0000  0.0000  0.0092  0.9696
                                            0.0000 -0.2442 -0.0080  0.0000  0.0000
    36. (0.00020) RY*( 3) O   3           s( 54.66%)p 0.60( 32.58%)d 0.23( 12.76%)
                                            0.0000  0.0096  0.5152  0.5302  0.0224
                                            0.1966  0.0122  0.5352  0.0000  0.0000
                                            0.2950  0.0000  0.0000  0.1988 -0.0330
    37. (0.00009) RY*( 4) O   3           s( 50.20%)p 0.85( 42.80%)d 0.14(  7.00%)
    38. (0.00001) RY*( 5) O   3           s( 49.39%)p 1.02( 50.59%)d 0.00(  0.01%)
    39. (0.00000) RY*( 6) O   3           s( 16.56%)p 0.05(  0.82%)d 4.99( 82.63%)
    40. (0.00000) RY*( 7) O   3           s(  0.00%)p 1.00(  6.16%)d15.23( 93.84%)
    41. (0.00000) RY*( 8) O   3           s(  0.00%)p 1.00(  0.04%)d99.99( 99.96%)
    42. (0.00001) RY*( 9) O   3           s(  0.74%)p 7.24(  5.38%)d99.99( 93.87%)
    43. (0.00000) RY*(10) O   3           s(  0.04%)p 3.24(  0.13%)d99.99( 99.83%)
    44. (0.02868) BD*( 1) N   1 - O   2  
                ( 55.29%)   0.7436* N   1 s( 30.14%)p 2.31( 69.72%)d 0.00(  0.14%)
                                            0.0000  0.5436 -0.0767  0.0013  0.7030
                                            0.0696 -0.4450 -0.0109  0.0000  0.0000
                                           -0.0319  0.0000  0.0000  0.0098 -0.0175
                ( 44.71%)  -0.6686* O   2 s( 26.36%)p 2.79( 73.50%)d 0.01(  0.14%)
                                            0.0000  0.5108 -0.0521 -0.0027 -0.8165
                                            0.0283  0.2596 -0.0073  0.0000  0.0000
                                           -0.0179  0.0000  0.0000  0.0275 -0.0176
    45. (0.02868) BD*( 1) N   1 - O   3  
                ( 55.29%)   0.7436* N   1 s( 30.14%)p 2.31( 69.72%)d 0.00(  0.14%)
                                            0.0000  0.5436 -0.0767  0.0013 -0.7029
                                           -0.0696 -0.4451 -0.0109  0.0000  0.0000
                                            0.0319  0.0000  0.0000  0.0098 -0.0175
                ( 44.71%)  -0.6686* O   3 s( 26.36%)p 2.79( 73.50%)d 0.01(  0.14%)
                                            0.0000  0.5108 -0.0521 -0.0027  0.8165
                                           -0.0283  0.2597 -0.0073  0.0000  0.0000
                                            0.0179  0.0000  0.0000  0.0275 -0.0176


 NHO Directionality and "Bond Bending" (deviations from line of nuclear centers)

         [Thresholds for printing:  angular deviation  >  1.0 degree]
                                    hybrid p-character > 25.0%
                                    orbital occupancy  >  0.10e

                                Line of Centers        Hybrid 1              Hybrid 2
                                ---------------  -------------------   ------------------
                NBO               Theta   Phi    Theta   Phi    Dev    Theta   Phi    Dev
 ========================================================================================
     1. BD (   1) N   1 - O   2    90.0  336.9    90.0  329.5   7.5     90.0  162.2   5.3
     2. BD (   1) N   1 - O   3    90.0  203.1    90.0  210.5   7.5     90.0   17.8   5.3
     6. LP (   1) N   1             --     --     90.0   90.0   --       --     --    --
     7. LP*(   2) N   1             --     --      0.0    0.0   --       --     --    --
     8. LP (   1) O   2             --     --     90.0  305.9   --       --     --    --
     9. LP (   2) O   2             --     --     90.0   61.1   --       --     --    --
    10. LP (   3) O   2             --     --      0.0    0.0   --       --     --    --
    11. LP (   1) O   3             --     --     90.0  234.1   --       --     --    --
    12. LP (   2) O   3             --     --     90.0  118.9   --       --     --    --
    13. LP (   3) O   3             --     --      0.0    0.0   --       --     --    --


 Second Order Perturbation Theory Analysis of Fock Matrix in NBO Basis

     Threshold for printing:   0.25 kcal/mol
                                                                              E(2)  E(j)-E(i) F(i,j)
         Donor NBO (i)                     Acceptor NBO (j)                 kcal/mol   a.u.    a.u. 
 ===================================================================================================

 within unit  1
   1. BD (   1) N   1 - O   2        / 15. RY*(   2) N   1                    0.31    1.88    0.030
   1. BD (   1) N   1 - O   2        / 34. RY*(   1) O   3                    0.28    2.34    0.032
   2. BD (   1) N   1 - O   3        / 15. RY*(   2) N   1                    0.31    1.88    0.030
   2. BD (   1) N   1 - O   3        / 24. RY*(   1) O   2                    0.28    2.34    0.032
   4. CR (   1) O   2                / 15. RY*(   2) N   1                    1.58   19.80    0.224
   4. CR (   1) O   2                / 45. BD*(   1) N   1 - O   3            0.59   19.50    0.138
   5. CR (   1) O   3                / 15. RY*(   2) N   1                    1.58   19.80    0.224
   5. CR (   1) O   3                / 44. BD*(   1) N   1 - O   2            0.59   19.50    0.138
   6. LP (   1) N   1                / 14. RY*(   1) N   1                    0.42    1.64    0.033
   6. LP (   1) N   1                / 24. RY*(   1) O   2                    2.86    1.74    0.089
   6. LP (   1) N   1                / 34. RY*(   1) O   3                    2.86    1.74    0.089
   7. LP*(   2) N   1                / 20. RY*(   7) N   1                    0.77    0.95    0.048
   7. LP*(   2) N   1                / 21. RY*(   8) N   1                    0.43    2.05    0.052
   7. LP*(   2) N   1                / 25. RY*(   2) O   2                    1.50    1.27    0.077
   7. LP*(   2) N   1                / 30. RY*(   7) O   2                    0.28    2.26    0.044
   7. LP*(   2) N   1                / 35. RY*(   2) O   3                    1.50    1.27    0.077
   7. LP*(   2) N   1                / 40. RY*(   7) O   3                    0.28    2.26    0.044
   8. LP (   1) O   2                / 14. RY*(   1) N   1                    0.59    1.90    0.042
   8. LP (   1) O   2                / 15. RY*(   2) N   1                    2.31    1.54    0.075
   8. LP (   1) O   2                / 17. RY*(   4) N   1                    0.28    3.05    0.037
   8. LP (   1) O   2                / 18. RY*(   5) N   1                    0.89    2.85    0.064
   8. LP (   1) O   2                / 45. BD*(   1) N   1 - O   3            0.48    1.24    0.031
   9. LP (   2) O   2                / 14. RY*(   1) N   1                    2.01    1.52    0.071
   9. LP (   2) O   2                / 15. RY*(   2) N   1                    0.98    1.16    0.043
   9. LP (   2) O   2                / 17. RY*(   4) N   1                    0.37    2.67    0.040
   9. LP (   2) O   2                / 18. RY*(   5) N   1                    0.37    2.47    0.039
   9. LP (   2) O   2                / 22. RY*(   9) N   1                    0.32    2.38    0.036
   9. LP (   2) O   2                / 44. BD*(   1) N   1 - O   2            0.30    0.86    0.020
   9. LP (   2) O   2                / 45. BD*(   1) N   1 - O   3           12.90    0.86    0.133
  10. LP (   3) O   2                /  7. LP*(   2) N   1                  675.67    0.02    0.174
  10. LP (   3) O   2                / 16. RY*(   3) N   1                    1.81    2.39    0.096
  10. LP (   3) O   2                / 20. RY*(   7) N   1                    0.49    0.97    0.032
  10. LP (   3) O   2                / 21. RY*(   8) N   1                    0.29    2.07    0.036
  10. LP (   3) O   2                / 25. RY*(   2) O   2                    0.63    1.29    0.042
  10. LP (   3) O   2                / 30. RY*(   7) O   2                    0.40    2.28    0.044
  11. LP (   1) O   3                / 14. RY*(   1) N   1                    0.59    1.90    0.042
  11. LP (   1) O   3                / 15. RY*(   2) N   1                    2.31    1.54    0.075
  11. LP (   1) O   3                / 17. RY*(   4) N   1                    0.28    3.05    0.037
  11. LP (   1) O   3                / 18. RY*(   5) N   1                    0.89    2.85    0.064
  11. LP (   1) O   3                / 44. BD*(   1) N   1 - O   2            0.48    1.24    0.031
  12. LP (   2) O   3                / 14. RY*(   1) N   1                    2.01    1.52    0.071
  12. LP (   2) O   3                / 15. RY*(   2) N   1                    0.98    1.16    0.043
  12. LP (   2) O   3                / 17. RY*(   4) N   1                    0.37    2.67    0.040
  12. LP (   2) O   3                / 18. RY*(   5) N   1                    0.37    2.47    0.039
  12. LP (   2) O   3                / 22. RY*(   9) N   1                    0.32    2.38    0.036
  12. LP (   2) O   3                / 44. BD*(   1) N   1 - O   2           12.89    0.86    0.133
  12. LP (   2) O   3                / 45. BD*(   1) N   1 - O   3            0.30    0.86    0.020
  13. LP (   3) O   3                /  7. LP*(   2) N   1                  675.71    0.02    0.174
  13. LP (   3) O   3                / 16. RY*(   3) N   1                    1.81    2.39    0.096
  13. LP (   3) O   3                / 20. RY*(   7) N   1                    0.50    0.97    0.032
  13. LP (   3) O   3                / 21. RY*(   8) N   1                    0.29    2.07    0.036
  13. LP (   3) O   3                / 35. RY*(   2) O   3                    0.63    1.29    0.042
  13. LP (   3) O   3                / 40. RY*(   7) O   3                    0.40    2.28    0.044


 Natural Bond Orbitals (Summary):

                                                            Principal Delocalizations
           NBO                        Occupancy    Energy   (geminal,vicinal,remote)
 ====================================================================================
 Molecular unit  1  (NO2)
     1. BD (   1) N   1 - O   2          0.99925    -1.15247  15(g),34(v)
     2. BD (   1) N   1 - O   3          0.99925    -1.15244  15(g),24(v)
     3. CR (   1) N   1                  0.99993   -14.46762   
     4. CR (   1) O   2                  0.99992   -19.06680  15(v),45(v)
     5. CR (   1) O   3                  0.99992   -19.06680  15(v),44(v)
     6. LP (   1) N   1                  0.99426    -0.55513  24(v),34(v),14(g)
     7. LP*(   2) N   1                  0.51315    -0.32031  25(v),35(v),20(g),21(g)
                                                    30(v),40(v)
     8. LP (   1) O   2                  0.99660    -0.81007  15(v),18(v),14(v),45(v)
                                                    17(v)
     9. LP (   2) O   2                  0.96449    -0.42851  45(v),14(v),15(v),17(v)
                                                    18(v),22(v),44(g)
    10. LP (   3) O   2                  0.74123    -0.34134  7(v),16(v),25(g),20(v),30(g)
                                                    21(v)
    11. LP (   1) O   3                  0.99660    -0.81006  15(v),18(v),14(v),44(v)
                                                    17(v)
    12. LP (   2) O   3                  0.96450    -0.42851  44(v),14(v),15(v),17(v)
                                                    18(v),22(v),45(g)
    13. LP (   3) O   3                  0.74124    -0.34134  7(v),16(v),35(g),20(v),40(g)
                                                    21(v)
    14. RY*(   1) N   1                  0.01100     1.08867   
    15. RY*(   2) N   1                  0.00702     0.72990   
    16. RY*(   3) N   1                  0.00294     2.05061   
    17. RY*(   4) N   1                  0.00128     2.23915   
    18. RY*(   5) N   1                  0.00110     2.03764   
    19. RY*(   6) N   1                  0.00001     2.07352   
    20. RY*(   7) N   1                  0.00000     0.63308   
    21. RY*(   8) N   1                  0.00000     1.72719   
    22. RY*(   9) N   1                  0.00000     1.95502   
    23. RY*(  10) N   1                  0.00000     2.00999   
    24. RY*(   1) O   2                  0.00345     1.18762   
    25. RY*(   2) O   2                  0.00072     0.94861   
    26. RY*(   3) O   2                  0.00020     1.78629   
    27. RY*(   4) O   2                  0.00009     2.47512   
    28. RY*(   5) O   2                  0.00001     1.00635   
    29. RY*(   6) O   2                  0.00000     2.37103   
    30. RY*(   7) O   2                  0.00000     1.94239   
    31. RY*(   8) O   2                  0.00000     1.78412   
    32. RY*(   9) O   2                  0.00001     2.22321   
    33. RY*(  10) O   2                  0.00000     1.99086   
    34. RY*(   1) O   3                  0.00345     1.18762   
    35. RY*(   2) O   3                  0.00072     0.94861   
    36. RY*(   3) O   3                  0.00020     1.78636   
    37. RY*(   4) O   3                  0.00009     2.47503   
    38. RY*(   5) O   3                  0.00001     1.00642   
    39. RY*(   6) O   3                  0.00000     2.37101   
    40. RY*(   7) O   3                  0.00000     1.94238   
    41. RY*(   8) O   3                  0.00000     1.78413   
    42. RY*(   9) O   3                  0.00001     2.22318   
    43. RY*(  10) O   3                  0.00000     1.99085   
    44. BD*(   1) N   1 - O   2          0.02868     0.43264   
    45. BD*(   1) N   1 - O   3          0.02868     0.43261   
       -------------------------------
              Total Lewis   11.39719  ( 94.9766%)
        Valence non-Lewis    0.57052  (  4.7543%)
        Rydberg non-Lewis    0.03229  (  0.2691%)
       -------------------------------
            Total unit  1   12.00000  (100.0000%)
           Charge unit  1   -0.50000


 ***************************************************
 *******         Beta  spin orbitals         *******
 ***************************************************


 NATURAL POPULATIONS:  Natural atomic orbital occupancies 
                                                          
   NAO  Atom  No  lang   Type(AO)    Occupancy      Energy
 ----------------------------------------------------------
     1    N    1  S      Cor( 1S)     0.99984     -14.45744
     2    N    1  S      Val( 2S)     0.55499      -0.56877
     3    N    1  S      Ryd( 3S)     0.00268       0.97552
     4    N    1  S      Ryd( 4S)     0.00035       3.17774
     5    N    1  px     Val( 2p)     0.46099      -0.19424
     6    N    1  px     Ryd( 3p)     0.00992       0.68211
     7    N    1  py     Val( 2p)     0.49131      -0.25872
     8    N    1  py     Ryd( 3p)     0.00257       0.66468
     9    N    1  pz     Val( 2p)     0.49926      -0.29754
    10    N    1  pz     Ryd( 3p)     0.00034       0.63869
    11    N    1  dxy    Ryd( 3d)     0.00227       2.33760
    12    N    1  dxz    Ryd( 3d)     0.00296       2.05733
    13    N    1  dyz    Ryd( 3d)     0.00102       1.76034
    14    N    1  dx2y2  Ryd( 3d)     0.00189       2.39781
    15    N    1  dz2    Ryd( 3d)     0.00040       2.08571

    16    O    2  S      Cor( 1S)     0.99992     -19.05778
    17    O    2  S      Val( 2S)     0.87852      -0.94875
    18    O    2  S      Ryd( 3S)     0.00192       1.27646
    19    O    2  S      Ryd( 4S)     0.00005       3.28671
    20    O    2  px     Val( 2p)     0.70487      -0.32872
    21    O    2  px     Ryd( 3p)     0.00058       0.98664
    22    O    2  py     Val( 2p)     0.64779      -0.29558
    23    O    2  py     Ryd( 3p)     0.00043       0.96096
    24    O    2  pz     Val( 2p)     0.74570      -0.33346
    25    O    2  pz     Ryd( 3p)     0.00066       0.90746
    26    O    2  dxy    Ryd( 3d)     0.00098       2.33152
    27    O    2  dxz    Ryd( 3d)     0.00159       1.99072
    28    O    2  dyz    Ryd( 3d)     0.00025       1.80256
    29    O    2  dx2y2  Ryd( 3d)     0.00114       2.30559
    30    O    2  dz2    Ryd( 3d)     0.00019       2.00811

    31    O    3  S      Cor( 1S)     0.99992     -19.05779
    32    O    3  S      Val( 2S)     0.87852      -0.94875
    33    O    3  S      Ryd( 3S)     0.00192       1.27645
    34    O    3  S      Ryd( 4S)     0.00005       3.28671
    35    O    3  px     Val( 2p)     0.70487      -0.32871
    36    O    3  px     Ryd( 3p)     0.00058       0.98664
    37    O    3  py     Val( 2p)     0.64778      -0.29558
    38    O    3  py     Ryd( 3p)     0.00043       0.96096
    39    O    3  pz     Val( 2p)     0.74571      -0.33346
    40    O    3  pz     Ryd( 3p)     0.00066       0.90746
    41    O    3  dxy    Ryd( 3d)     0.00098       2.33153
    42    O    3  dxz    Ryd( 3d)     0.00159       1.99071
    43    O    3  dyz    Ryd( 3d)     0.00025       1.80257
    44    O    3  dx2y2  Ryd( 3d)     0.00114       2.30557
    45    O    3  dz2    Ryd( 3d)     0.00019       2.00810


 Summary of Natural Population Analysis:                  
                                                          
                                       Natural Population 
                Natural  -----------------------------------------------
    Atom  No    Charge         Core      Valence    Rydberg      Total
 -----------------------------------------------------------------------
      N    1    0.46921      0.99984     2.00655    0.02441     3.03079
      O    2    0.01540      0.99992     2.97688    0.00781     3.98460
      O    3    0.01540      0.99992     2.97688    0.00781     3.98460
 =======================================================================
   * Total *    0.50000      2.99967     7.96031    0.04002    11.00000

                                 Natural Population      
 --------------------------------------------------------
   Core                       2.99967 ( 99.9890% of   3)
   Valence                    7.96031 ( 99.5039% of   8)
   Natural Minimal Basis     10.95998 ( 99.6362% of  11)
   Natural Rydberg Basis      0.04002 (  0.3638% of  11)
 --------------------------------------------------------

    Atom  No          Natural Electron Configuration
 ----------------------------------------------------------------------------
      N    1      [core]2S( 0.55)2p( 1.45)3p( 0.01)3d( 0.01)
      O    2      [core]2S( 0.88)2p( 2.10)
      O    3      [core]2S( 0.88)2p( 2.10)


 Wiberg bond index matrix in the NAO basis:                                    

     Atom    1       2       3
     ---- ------  ------  ------
   1.  N  0.0000  0.5005  0.5005
   2.  O  0.5005  0.0000  0.1399
   3.  O  0.5005  0.1399  0.0000


 Wiberg bond index, Totals by atom:                                            

     Atom    1
     ---- ------
   1.  N  1.0010
   2.  O  0.6404
   3.  O  0.6404


 Atom-atom overlap-weighted NAO bond order:                                    

     Atom    1       2       3
     ---- ------  ------  ------
   1.  N  0.0000  0.6317  0.6317
   2.  O  0.6317  0.0000 -0.0425
   3.  O  0.6317 -0.0425  0.0000


 Atom-atom overlap-weighted NAO bond order, Totals by atom:                    

     Atom    1
     ---- ------
   1.  N  1.2634
   2.  O  0.5892
   3.  O  0.5892


 MO bond order:                                                                

     Atom    1       2       3
     ---- ------  ------  ------
   1.  N  0.0000  0.9140  0.2825
   2.  O  0.9140  0.0000 -0.2301
   3.  O  0.2825 -0.2301  0.0000


 MO atomic valencies:                                                          

     Atom    1
     ---- ------
   1.  N  1.1966
   2.  O  0.6839
   3.  O  0.0524


 NATURAL BOND ORBITAL ANALYSIS, beta spin orbitals:

                       Occupancies       Lewis Structure    Low   High
           Occ.    -------------------  -----------------   occ   occ
  Cycle   Thresh.   Lewis   Non-Lewis     CR  BD  3C  LP    (L)   (NL)   Dev
 =============================================================================
   1(1)    0.90    10.44935   0.55065      3   4   0   4     2      0    0.14
   2(2)    0.90     9.97191   1.02809      3   4   0   4     2      0    0.00
   3(3)    0.90     9.96412   1.03588      3   3   0   5     3      0    0.50
   4(4)    0.90    10.44935   0.55065      3   4   0   4     2      0    0.14
   5(5)    0.90     9.97191   1.02809      3   4   0   4     2      0    0.00
   6(6)    0.90     9.96412   1.03588      3   3   0   5     3      0    0.50
   7(7)    0.90    10.44935   0.55065      3   4   0   4     2      0    0.14
   8(8)    0.90     9.97191   1.02809      3   4   0   4     2      0    0.00
   9(9)    0.90     9.96412   1.03588      3   3   0   5     3      0    0.50
  10(1)    0.80    10.44935   0.55065      3   4   0   4     2      0    0.14
  11(2)    0.80     9.97191   1.02809      3   4   0   4     2      0    0.00
  12(3)    0.80     9.96412   1.03588      3   3   0   5     3      0    0.50
  13(4)    0.80    10.44935   0.55065      3   4   0   4     2      0    0.14
  14(5)    0.80     9.97191   1.02809      3   4   0   4     2      0    0.00
  15(6)    0.80     9.96412   1.03588      3   3   0   5     3      0    0.50
  16(7)    0.80    10.44935   0.55065      3   4   0   4     2      0    0.14
  17(8)    0.80     9.97191   1.02809      3   4   0   4     2      0    0.00
  18(9)    0.80     9.96412   1.03588      3   3   0   5     3      0    0.50
  19(1)    0.70     9.96146   1.03854      3   2   0   6     0      1    0.14
  20(2)    0.70     9.96146   1.03854      3   2   0   6     0      1    0.14
  21(1)    0.60     9.96146   1.03854      3   2   0   6     0      1    0.14
  22(2)    0.60     9.96146   1.03854      3   2   0   6     0      1    0.14
  23(1)    0.50     9.79554   1.20446      3   2   0   6     0      2    0.14
  24(2)    0.50     9.13125   1.86875      3   1   0   7     0      1    0.50
  25(3)    0.50     9.79554   1.20446      3   2   0   6     0      2    0.14
  26(1)    0.90    10.44935   0.55065      3   4   0   4     2      0    0.14
 -----------------------------------------------------------------------------

 Structure accepted: RESONANCE keyword permits strongly delocalized structure

 --------------------------------------------------------
   Core                      2.99967 ( 99.989% of   3)
   Valence Lewis             7.44969 ( 93.121% of   8)
  ==================       ============================
   Total Lewis              10.44935 ( 94.994% of  11)
  -----------------------------------------------------
   Valence non-Lewis         0.52927 (  4.812% of  11)
   Rydberg non-Lewis         0.02137 (  0.194% of  11)
  ==================       ============================
   Total non-Lewis           0.55065 (  5.006% of  11)
 --------------------------------------------------------


       (Occupancy)   Bond orbital/ Coefficients/ Hybrids
 ---------------------------------------------------------------------------------
     1. (0.99628) BD ( 1) N   1 - O   2  
                ( 49.78%)   0.7055* N   1 s( 48.84%)p 1.04( 51.04%)d 0.00(  0.12%)
                                           -0.0000  0.6979 -0.0371  0.0019  0.7039
                                            0.0625 -0.1002 -0.0296  0.0000  0.0000
                                           -0.0292  0.0000  0.0000  0.0179 -0.0082
                ( 50.22%)   0.7087* O   2 s( 22.56%)p 3.43( 77.29%)d 0.01(  0.15%)
                                            0.0000  0.4732 -0.0406 -0.0048 -0.7330
                                            0.0156  0.4851 -0.0094  0.0000  0.0000
                                           -0.0295  0.0000  0.0000  0.0191 -0.0164
     2. (0.99932) BD ( 2) N   1 - O   2  
                ( 33.49%)   0.5787* N   1 s(  0.00%)p 1.00( 99.50%)d 0.01(  0.50%)
                                            0.0000  0.0000  0.0000  0.0000  0.0000
                                            0.0000  0.0000  0.0000  0.9972 -0.0261
                                            0.0000  0.0543 -0.0451  0.0000  0.0000
                ( 66.51%)   0.8155* O   2 s(  0.00%)p 1.00( 99.73%)d 0.00(  0.27%)
                                            0.0000  0.0000  0.0000  0.0000  0.0000
                                            0.0000  0.0000  0.0000  0.9987 -0.0038
                                            0.0000 -0.0483  0.0184  0.0000  0.0000
     3. (0.99500) BD ( 3) N   1 - O   2  
                ( 34.68%)   0.5889* N   1 s(  2.49%)p39.01( 97.04%)d 0.19(  0.47%)
                                            0.0001 -0.1482 -0.0538 -0.0016  0.0019
                                            0.0329 -0.9839  0.0354  0.0000  0.0000
                                           -0.0405  0.0000  0.0000 -0.0487 -0.0259
                ( 65.32%)   0.8082* O   2 s(  4.26%)p22.42( 95.52%)d 0.05(  0.22%)
[...]
  43. BD*(   2) N   1 - O   2        / 28. RY*(   7) O   2                    0.50    2.07    0.081
  43. BD*(   2) N   1 - O   2        / 33. RY*(   2) O   3                    0.47    1.10    0.058
  44. BD*(   3) N   1 - O   2        / 12. RY*(   1) N   1                    0.81    0.97    0.069
  44. BD*(   3) N   1 - O   2        / 14. RY*(   3) N   1                    0.84    2.25    0.108
  44. BD*(   3) N   1 - O   2        / 15. RY*(   4) N   1                    0.42    2.09    0.073
  44. BD*(   3) N   1 - O   2        / 22. RY*(   1) O   2                    2.00    1.42    0.132
  44. BD*(   3) N   1 - O   2        / 30. RY*(   9) O   2                    0.35    2.38    0.072
  44. BD*(   3) N   1 - O   2        / 32. RY*(   1) O   3                    0.86    1.42    0.086
  44. BD*(   3) N   1 - O   2        / 42. BD*(   1) N   1 - O   2            5.64    0.52    0.132
  44. BD*(   3) N   1 - O   2        / 45. BD*(   1) N   1 - O   3            4.84    0.52    0.122


 Natural Bond Orbitals (Summary):

                                                            Principal Delocalizations
           NBO                        Occupancy    Energy   (geminal,vicinal,remote)
 ====================================================================================
 Molecular unit  1  (NO2)
     1. BD (   1) N   1 - O   2          0.99629    -1.14617  44(g),12(g),34(v)
     2. BD (   2) N   1 - O   2          0.99932    -0.49162  43(g),33(v)
     3. BD (   3) N   1 - O   2          0.99500    -0.50620  32(v),44(g),42(g),45(g)
     4. BD (   1) N   1 - O   3          0.99741    -1.15546  24(v)
     5. CR (   1) N   1                  0.99984   -14.45742  44(g)
     6. CR (   1) O   2                  0.99992   -19.05879  12(v),45(v)
     7. CR (   1) O   3                  0.99992   -19.05880  12(v),44(v),42(v)
     8. LP (   1) O   2                  0.98966    -0.83281  45(v),12(v),15(v),44(g)
     9. LP (   1) O   3                  0.98966    -0.83284  42(v),12(v),44(v),15(v)
    10. LP (   2) O   3                  0.74752    -0.33372  43(v),13(v),33(g),20(v)
                                                    38(g)
    11. LP (   3) O   3                  0.73479    -0.33657  44(v),42(v),14(v),12(v)
                                                    32(g),17(v),40(g)
    12. RY*(   1) N   1                  0.00917     0.85863   
    13. RY*(   2) N   1                  0.00442     2.05070   
    14. RY*(   3) N   1                  0.00160     2.14004   
    15. RY*(   4) N   1                  0.00126     1.98061   
    16. RY*(   5) N   1                  0.00001     0.89275   
    17. RY*(   6) N   1                  0.00001     2.17195   
    18. RY*(   7) N   1                  0.00000     2.21979   
    19. RY*(   8) N   1                  0.00000     1.76005   
    20. RY*(   9) N   1                  0.00000     0.64185   
    21. RY*(  10) N   1                  0.00000     2.02204   
    22. RY*(   1) O   2                  0.00164     1.30615   
    23. RY*(   2) O   2                  0.00077     0.96481   
    24. RY*(   3) O   2                  0.00016     1.27538   
    25. RY*(   4) O   2                  0.00001     3.24457   
    26. RY*(   5) O   2                  0.00001     0.87241   
    27. RY*(   6) O   2                  0.00001     2.18866   
    28. RY*(   7) O   2                  0.00000     1.93308   
    29. RY*(   8) O   2                  0.00000     1.80228   
    30. RY*(   9) O   2                  0.00000     2.26989   
    31. RY*(  10) O   2                  0.00000     1.98683   
    32. RY*(   1) O   3                  0.00144     1.30280   
    33. RY*(   2) O   3                  0.00068     0.96587   
    34. RY*(   3) O   3                  0.00015     1.27868   
    35. RY*(   4) O   3                  0.00001     3.19817   
    36. RY*(   5) O   3                  0.00001     1.09959   
    37. RY*(   6) O   3                  0.00000     2.13407   
    38. RY*(   7) O   3                  0.00000     1.93325   
    39. RY*(   8) O   3                  0.00000     1.80211   
    40. RY*(   9) O   3                  0.00000     2.26673   
    41. RY*(  10) O   3                  0.00000     1.86562   
    42. BD*(   1) N   1 - O   2          0.01081     0.40786   
    43. BD*(   2) N   1 - O   2          0.24729    -0.13452  13(g),23(g),20(g),28(g)
                                                    33(v),19(g)
    44. BD*(   3) N   1 - O   2          0.25760    -0.11239  42(g),45(g),22(g),32(v)
                                                    14(g),12(g),15(g),30(g)
    45. BD*(   1) N   1 - O   3          0.01359     0.41012   
       -------------------------------
              Total Lewis   10.44932  ( 94.9938%)
        Valence non-Lewis    0.52929  (  4.8117%)
        Rydberg non-Lewis    0.02139  (  0.1944%)
       -------------------------------
            Total unit  1   11.00000  (100.0000%)
           Charge unit  1    0.50000
 Leave Link  607 at Fri Dec  4 15:19:06 2020, MaxMem=  1073741824 cpu:         1.4
 (Enter /new_disk/wangrunwen/GAUSSIAN/g09/l701.exe)
 Compute integral second derivatives.
 ... and contract with generalized density number  0.
 Leave Link  701 at Fri Dec  4 15:19:06 2020, MaxMem=  1073741824 cpu:         0.1
 (Enter /new_disk/wangrunwen/GAUSSIAN/g09/l702.exe)
 L702 exits ... SP integral derivatives will be done elsewhere.
 Leave Link  702 at Fri Dec  4 15:19:06 2020, MaxMem=  1073741824 cpu:         0.0
 (Enter /new_disk/wangrunwen/GAUSSIAN/g09/l703.exe)
 Compute integral second derivatives, UseDBF=F ICtDFT=           0.
 Integral derivatives from FoFJK, PRISM(SPDF).
 Calling FoFJK, ICntrl=    100127 FMM=F ISym2X=1 I1Cent= 0 IOpClX= 1 NMat=1 NMatS=1 NMatT=0.
 FoFJK:  IHMeth= 1 ICntrl=  100127 DoSepK=F KAlg= 0 I1Cent=   0 FoldK=F
 IRaf=         0 NMat=   1 IRICut=       1 DoRegI=T DoRafI=F ISym2E= 1.
 FoFCou: FMM=F IPFlag=           0 FMFlag=      100000 FMFlg1=         800
         NFxFlg=           0 DoJE=F BraDBF=F KetDBF=F FulRan=T
         wScrn=  0.000000 ICntrl=  100127 IOpCl=  1 I1Cent=           0 NGrid=           0
         NMat0=    1 NMatS0=      1 NMatT0=    0 NMatD0=    1 NMtDS0=    0 NMtDT0=    0
 Petite list used in FoFCou.
 Leave Link  703 at Fri Dec  4 15:19:08 2020, MaxMem=  1073741824 cpu:         1.8
 (Enter /new_disk/wangrunwen/GAUSSIAN/g09/l716.exe)
 Dipole        = 9.73352179D-06 1.26413762D-01 2.86316307D-32
 Polarizability= 2.40790980D+01 1.32935740D-04 8.97278007D+00
                 3.57298712D-10-1.14995728D-11 7.08037681D+00
 Full mass-weighted force constant matrix:
 Low frequencies ---  -23.7050   -9.2691    0.0015    0.0017    0.0020    4.9892
 Low frequencies ---  748.9761 1403.9361 1720.2843
 Diagonal vibrational polarizability:
        2.9410464       0.3830325       0.0000000
 Harmonic frequencies (cm**-1), IR intensities (KM/Mole), Raman scattering
 activities (A**4/AMU), depolarization ratios for plane and unpolarized
 incident light, reduced masses (AMU), force constants (mDyne/A),
 and normal coordinates:
                      1                      2                      3
                     A'                     A'                     A'
 Frequencies --    748.9761              1403.9361              1720.2843
 Red. masses --     15.1677                15.3150                14.6239
 Frc consts  --      5.0131                17.7853                25.4984
 IR Inten    --      7.8616                 0.4312               323.4218
  Atom  AN      X      Y      Z        X      Y      Z        X      Y      Z
     1   7    -0.00   0.64   0.00     0.00   0.58   0.00     0.83  -0.00   0.00
     2   8    -0.46  -0.28  -0.00     0.51  -0.26  -0.00    -0.36   0.15   0.00
     3   8     0.46  -0.28  -0.00    -0.51  -0.26  -0.00    -0.36  -0.15  -0.00

 -------------------
 - Thermochemistry -
 -------------------
 Temperature   298.150 Kelvin.  Pressure   1.00000 Atm.
 Atom     1 has atomic number  7 and mass  14.00307
 Atom     2 has atomic number  8 and mass  15.99491
 Atom     3 has atomic number  8 and mass  15.99491
 Molecular mass:    45.99290 amu.
 Principal axes and moments of inertia in atomic units:
                           1         2         3
     Eigenvalues --     7.73809 139.96133 147.69942
           X            1.00000  -0.00001   0.00000
           Y            0.00001   1.00000   0.00000
           Z            0.00000  -0.00000   1.00000
 This molecule is an asymmetric top.
 Rotational symmetry number  1.
 Rotational temperatures (Kelvin)     11.19318     0.61884     0.58642
 Rotational constants (GHZ):         233.22830    12.89457    12.21901
 Zero-point vibrational energy      23166.9 (Joules/Mol)
                                    5.53701 (Kcal/Mol)
 Vibrational temperatures:   1077.61  2019.95  2475.10
          (Kelvin)
 
 Zero-point correction=                           0.008824 (Hartree/Particle)
 Thermal correction to Energy=                    0.011760
 Thermal correction to Enthalpy=                  0.012704
 Thermal correction to Gibbs Free Energy=        -0.015217
 Sum of electronic and zero-point Energies=           -205.063382
 Sum of electronic and thermal Energies=              -205.060446
 Sum of electronic and thermal Enthalpies=            -205.059502
 Sum of electronic and thermal Free Energies=         -205.087423
 
                     E (Thermal)             CV                S
                      KCal/Mol        Cal/Mol-Kelvin    Cal/Mol-Kelvin
 Total                    7.380              6.838             58.765
 Electronic               0.000              0.000              1.377
 Translational            0.889              2.981             37.403
 Rotational               0.889              2.981             19.709
 Vibrational              5.602              0.877              0.275
                       Q            Log10(Q)             Ln(Q)
 Total Bot       0.998130D+07          6.999187         16.116224
 Total V=0       0.114246D+12         11.057840         25.461619
 Vib (Bot)       0.899102D-04         -4.046191         -9.316699
 Vib (V=0)       0.102911D+01          0.012462          0.028696
 Electronic      0.200000D+01          0.301030          0.693147
 Translational   0.122600D+08          7.088491         16.321855
 Rotational      0.452748D+04          3.655857          8.417921
 
                                                                 NO2
                                                             IR Spectrum
 
     1                       1                                                                                                       
     7                       4                                               7                                                       
     2                       0                                               4                                                       
     0                       4                                               9                                                       
 
     X                       X                                               X                                                       
     X                                                                                                                               
     X                                                                                                                               
     X                                                                                                                               
     X                                                                                                                               
     X                                                                                                                               
     X                                                                                                                               
     X                                                                                                                               
     X                                                                                                                               
     X                                                                                                                               
     X                                                                                                                               
     X                                                                                                                               
     X                                                                                                                               
     X                                                                                                                               
     X                                                                                                                               
     X                                                                                                                               
     X                                                                                                                               
     X                                                                                                                               
     X                                                                                                                               
     X                                                                                                                               
 
 ***** Axes restored to original set *****
 -------------------------------------------------------------------
 Center     Atomic                   Forces (Hartrees/Bohr)
 Number     Number              X              Y              Z
 -------------------------------------------------------------------
      1        7          -0.000006299   -0.000064928   -0.000000000
      2        8          -0.000071497    0.000031121   -0.000000000
      3        8           0.000077796    0.000033806    0.000000000
 -------------------------------------------------------------------
 Cartesian Forces:  Max     0.000077796 RMS     0.000044134
 Force constants in Cartesian coordinates: 
                1             2             3             4             5 
      1  0.103362D+01
      2 -0.567568D-05  0.439992D+00
      3  0.000000D+00  0.000000D+00 -0.207102D-03
      4 -0.516832D+00  0.234241D+00  0.000000D+00  0.663455D+00
      5  0.220255D+00 -0.219991D+00  0.000000D+00 -0.227245D+00  0.156934D+00
      6  0.000000D+00  0.000000D+00  0.105040D-03  0.000000D+00  0.000000D+00
      7 -0.516788D+00 -0.234235D+00  0.000000D+00 -0.146624D+00  0.698928D-02
      8 -0.220250D+00 -0.220001D+00  0.000000D+00 -0.699621D-02  0.630567D-01
      9  0.000000D+00  0.000000D+00  0.102062D-03  0.000000D+00  0.000000D+00
                6             7             8             9 
      6 -0.792799D-04
      7  0.000000D+00  0.663412D+00
      8  0.000000D+00  0.227246D+00  0.156944D+00
      9 -0.257599D-04  0.000000D+00  0.000000D+00 -0.763024D-04
 FormGI is forming the generalized inverse of G from B-inverse, IUseBI=4.
 Force constants in internal coordinates: 
                1             2             3 
      1  0.749513D+00
      2  0.138833D+00  0.749477D+00
      3  0.574796D-01  0.574807D-01  0.366243D+00
 Leave Link  716 at Fri Dec  4 15:19:08 2020, MaxMem=  1073741824 cpu:         0.0
 (Enter /new_disk/wangrunwen/GAUSSIAN/g09/l103.exe)

 GradGradGradGradGradGradGradGradGradGradGradGradGradGradGradGradGradGrad
 Berny optimization.
 Red2BG is reusing G-inverse.
 Internal  Forces:  Max     0.000084822 RMS     0.000066524
 Search for a local minimum.
 Step number   1 out of a maximum of    2
 All quantities printed in internal units (Hartrees-Bohrs-Radians)
 Second derivative matrix not updated -- analytic derivatives used.
 The second derivative matrix:
                          R1        R2        A1
           R1           0.74951
           R2           0.13883   0.74948
           A1           0.05748   0.05748   0.36624
 ITU=  0
     Eigenvalues ---    0.35388   0.61066   0.90069
 Angle between quadratic step and forces=  13.38 degrees.
 Linear search not attempted -- first point.
 Iteration  1 RMS(Cart)=  0.00006745 RMS(Int)=  0.00000000
 Iteration  2 RMS(Cart)=  0.00000000 RMS(Int)=  0.00000000
 ITry= 1 IFail=0 DXMaxC= 7.34D-05 DCOld= 1.00D+10 DXMaxT= 3.00D-01 DXLimC= 3.00D+00 Rises=F
 ClnCor:  largest displacement from symmetrization is 8.95D-16 for atom     2.
 Variable       Old X    -DE/DX   Delta X   Delta X   Delta X     New X
                                 (Linear)    (Quad)   (Total)
    R1        2.27369  -0.00008   0.00000  -0.00009  -0.00009   2.27360
    R2        2.27370  -0.00008   0.00000  -0.00010  -0.00010   2.27360
    A1        2.33593   0.00000   0.00000   0.00003   0.00003   2.33596
         Item               Value     Threshold  Converged?
 Maximum Force            0.000085     0.000450     YES
 RMS     Force            0.000067     0.000300     YES
 Maximum Displacement     0.000073     0.001800     YES
 RMS     Displacement     0.000067     0.001200     YES
 Predicted change in Energy=-7.675156D-09
 Optimization completed.
    -- Stationary point found.
                           ----------------------------
                           !   Optimized Parameters   !
                           ! (Angstroms and Degrees)  !
 --------------------------                            --------------------------
 ! Name  Definition              Value          Derivative Info.                !
 --------------------------------------------------------------------------------
 ! R1    R(1,2)                  1.2032         -DE/DX =   -0.0001              !
 ! R2    R(1,3)                  1.2032         -DE/DX =   -0.0001              !
 ! A1    A(2,1,3)              133.839          -DE/DX =    0.0                 !
 --------------------------------------------------------------------------------
 GradGradGradGradGradGradGradGradGradGradGradGradGradGradGradGradGradGrad

 Leave Link  103 at Fri Dec  4 15:19:08 2020, MaxMem=  1073741824 cpu:         0.0
 (Enter /new_disk/wangrunwen/GAUSSIAN/g09/l9999.exe)
 1\1\ WCSS.PL-BEM-427750\Freq\UB3LYP\6-31G(d,p)\N1O2(2)\WANGRUNWEN\04-D
 ec-2020\0\\#P Geom=AllCheck Guess=TCheck SCRF=Check GenChk UB3LYP/6-31
 G(d,p) Freq\\NO2\\0,2\N,-0.0000029319,0.3281324133,0.\O,1.1068780422,-
 0.1435278334,0.\O,-1.1068751103,-0.1435635798,0.\\Version=ES64L-G09Rev
 E.01\State=2-A'\HF=-205.0722062\S2=0.753298\S2-1=0.\S2A=0.750007\RMSD=
 2.108e-09\RMSF=4.413e-05\ZeroPoint=0.0088238\Thermal=0.0117601\Dipole=
 0.0000086,0.1264138,0.\DipoleDeriv=1.7572453,0.0000211,0.,0.0000162,0.
 2520467,0.,0.,0.,0.1418299,-0.8786318,-0.125973,0.,0.344246,-0.1260183
 ,0.,0.,0.,-0.0709126,-0.8786135,0.1259519,0.,-0.3442622,-0.1260283,0.,
 0.,0.,-0.0709173\Polar=24.079098,0.0002738,8.9727801,0.,0.,7.0803768\P
 G=CS [SG(N1O2)]\NImag=0\\1.03362002,-0.00000568,0.43999159,0.,0.,-0.00
 020710,-0.51683176,0.23424084,0.,0.66345529,0.22025536,-0.21999087,0.,
 -0.22724463,0.15693420,0.,0.,0.00010504,0.,0.,-0.00007928,-0.51678827,
 -0.23423517,0.,-0.14662353,0.00698928,0.,0.66341180,-0.22024968,-0.220
 00071,0.,-0.00699621,0.06305667,0.,0.22724589,0.15694404,0.,0.,0.00010
 206,0.,0.,-0.00002576,0.,0.,-0.00007630\\0.00000630,0.00006493,0.,0.00
 007150,-0.00003112,0.,-0.00007780,-0.00003381,0.\\\@


 MODELS ARE TO BE USED, NOT BELIEVED.

    -- PARAPHRASED BY H. THIEL IN "PRINCIPLES OF ECONOMETRICS"
 Job cpu time:       0 days  0 hours  0 minutes  9.2 seconds.
 File lengths (MBytes):  RWF=      5 Int=      0 D2E=      0 Chk=      1 Scr=      1
 Normal termination of Gaussian 09 at Fri Dec  4 15:19:08 2020.
