 Entering Gaussian System, Link 0=g09
 Input=B3LYP6-31G.DATGEL.gjf
 Output=B3LYP6-31G.DATGEL.log
 Initial command:
 /public/home/users/caep010/software/Gaussian09/g09/l1.exe "/public/home/users/caep010/.cache/gau_scr/Gau-214952.inp" -scrdir="/public/home/users/caep010/.cache/gau_scr/"
 Entering Link 1 = /public/home/users/caep010/software/Gaussian09/g09/l1.exe PID=    214953.
  
 Copyright (c) 1988,1990,1992,1993,1995,1998,2003,2009,2015,
            Gaussian, Inc.  All Rights Reserved.
  
 This is part of the Gaussian(R) 09 program.  It is based on
 the Gaussian(R) 03 system (copyright 2003, Gaussian, Inc.),
 the Gaussian(R) 98 system (copyright 1998, Gaussian, Inc.),
 the Gaussian(R) 94 system (copyright 1995, Gaussian, Inc.),
 the Gaussian 92(TM) system (copyright 1992, Gaussian, Inc.),
 the Gaussian 90(TM) system (copyright 1990, Gaussian, Inc.),
 the Gaussian 88(TM) system (copyright 1988, Gaussian, Inc.),
 the Gaussian 86(TM) system (copyright 1986, Carnegie Mellon
 University), and the Gaussian 82(TM) system (copyright 1983,
 Carnegie Mellon University). Gaussian is a federally registered
 trademark of Gaussian, Inc.
  
 This software contains proprietary and confidential information,
 including trade secrets, belonging to Gaussian, Inc.
  
 This software is provided under written license and may be
 used, copied, transmitted, or stored only in accord with that
 written license.
  
 The following legend is applicable only to US Government
 contracts under FAR:
  
                    RESTRICTED RIGHTS LEGEND
  
 Use, reproduction and disclosure by the US Government is
 subject to restrictions as set forth in subparagraphs (a)
 and (c) of the Commercial Computer Software - Restricted
 Rights clause in FAR 52.227-19.
  
 Gaussian, Inc.
 340 Quinnipiac St., Bldg. 40, Wallingford CT 06492
  
  
 ---------------------------------------------------------------
 Warning -- This program may not be used in any manner that
 competes with the business of Gaussian, Inc. or will provide
 assistance to any competitor of Gaussian, Inc.  The licensee
 of this program is prohibited from giving any competitor of
 Gaussian, Inc. access to this program.  By using this program,
 the user acknowledges that Gaussian, Inc. is engaged in the
 business of creating and licensing software in the field of
 computational chemistry and represents and warrants to the
 licensee that it is not a competitor of Gaussian, Inc. and that
 it will not use this program in any manner prohibited above.
 ---------------------------------------------------------------
  

 Cite this work as:
 Gaussian 09, Revision E.01,
 M. J. Frisch, G. W. Trucks, H. B. Schlegel, G. E. Scuseria, 
 M. A. Robb, J. R. Cheeseman, G. Scalmani, V. Barone, B. Mennucci, 
 G. A. Petersson, H. Nakatsuji, M. Caricato, X. Li, H. P. Hratchian, 
 A. F. Izmaylov, J. Bloino, G. Zheng, J. L. Sonnenberg, M. Hada, 
 M. Ehara, K. Toyota, R. Fukuda, J. Hasegawa, M. Ishida, T. Nakajima, 
 Y. Honda, O. Kitao, H. Nakai, T. Vreven, J. A. Montgomery, Jr., 
 J. E. Peralta, F. Ogliaro, M. Bearpark, J. J. Heyd, E. Brothers, 
 K. N. Kudin, V. N. Staroverov, T. Keith, R. Kobayashi, J. Normand, 
 K. Raghavachari, A. Rendell, J. C. Burant, S. S. Iyengar, J. Tomasi, 
 M. Cossi, N. Rega, J. M. Millam, M. Klene, J. E. Knox, J. B. Cross, 
 V. Bakken, C. Adamo, J. Jaramillo, R. Gomperts, R. E. Stratmann, 
 O. Yazyev, A. J. Austin, R. Cammi, C. Pomelli, J. W. Ochterski, 
 R. L. Martin, K. Morokuma, V. G. Zakrzewski, G. A. Voth, 
 P. Salvador, J. J. Dannenberg, S. Dapprich, A. D. Daniels, 
 O. Farkas, J. B. Foresman, J. V. Ortiz, J. Cioslowski, 
 and D. J. Fox, Gaussian, Inc., Wallingford CT, 2013.
 
 ******************************************
 Gaussian 09:  ES64L-G09RevE.01 30-Nov-2015
                20-Aug-2021 
 ******************************************
 %nproc=32
 Will use up to   32 processors via shared memory.
 %mem=180GB
 -------------------------
 #P OPT Freq B3LYP/6-31G**
 -------------------------
 1/14=-1,18=20,19=15,26=3,38=1/1,3;
 2/9=110,12=2,17=6,18=5,40=1/2;
 3/5=1,6=6,7=101,11=2,16=1,25=1,30=1,71=1,74=-5/1,2,3;
 4//1;
 5/5=2,38=5/2;
 6/7=2,8=2,9=2,10=2,28=1/1;
 7//1,2,3,16;
 1/14=-1,18=20,19=15,26=3/3(2);
 2/9=110/2;
 99//99;
 2/9=110/2;
 3/5=1,6=6,7=101,11=2,16=1,25=1,30=1,71=1,74=-5/1,2,3;
 4/5=5,16=3,69=1/1;
 5/5=2,38=5/2;
 7//1,2,3,16;
 1/14=-1,18=20,19=15,26=3/3(-5);
 2/9=110/2;
 6/7=2,8=2,9=2,10=2,19=2,28=1/1;
 99/9=1/99;
 Leave Link    1 at Fri Aug 20 15:37:42 2021, MaxMem= 24159191040 cpu:         3.1
 (Enter /public/home/users/caep010/software/Gaussian09/g09/l101.exe)
 ------
 DATGEL
 ------
 Symbolic Z-matrix:
 Charge =  0 Multiplicity = 1
 C                     5.1299    6.9909   -0.927 
 C                     5.1171    7.0551   -2.3484 
 C                     5.0545    5.8182   -3.0694 
 C                     4.9751    4.6159   -2.3809 
 C                     4.9982    4.598    -0.9641 
 H                     4.9593    3.7861   -0.5116 
 C                     4.8505    3.2972   -3.1055 
 H                     5.6526    3.1305   -3.607 
 H                     4.1004    3.3293   -3.7035 
 C                     5.0763    5.7634   -0.257 
 H                     5.0939    5.7417    0.6726 
 N                     5.167     8.1768   -0.0994 
 O                     5.2244    9.3032   -0.6194 
 O                     5.1265    8.0369    1.1335 
 N                     5.144     8.2232   -3.0427 
 H                     5.1705    8.985    -2.6157 
 H                     5.1346    8.2124   -3.9167 
 C                     5.0646    5.8641   -4.5806 
 H                     4.2297    6.2184   -4.895 
 H                     4.721     2.5921   -2.4675 
 H                     5.1868    4.9775   -4.927 
 H                     5.7832    6.4268   -4.8788 
 
 NAtoms=     22 NQM=       22 NQMF=       0 NMMI=      0 NMMIF=      0
                NMic=       0 NMicF=      0.
                    Isotopes and Nuclear Properties:
 (Nuclear quadrupole moments (NQMom) in fm**2, nuclear magnetic moments (NMagM)
  in nuclear magnetons)

  Atom         1           2           3           4           5           6           7           8           9          10
 IAtWgt=          12          12          12          12          12           1          12           1           1          12
 AtmWgt=  12.0000000  12.0000000  12.0000000  12.0000000  12.0000000   1.0078250  12.0000000   1.0078250   1.0078250  12.0000000
 NucSpn=           0           0           0           0           0           1           0           1           1           0
 AtZEff=   0.0000000   0.0000000   0.0000000   0.0000000   0.0000000   0.0000000   0.0000000   0.0000000   0.0000000   0.0000000
 NQMom=    0.0000000   0.0000000   0.0000000   0.0000000   0.0000000   0.0000000   0.0000000   0.0000000   0.0000000   0.0000000
 NMagM=    0.0000000   0.0000000   0.0000000   0.0000000   0.0000000   2.7928460   0.0000000   2.7928460   2.7928460   0.0000000
 AtZNuc=   6.0000000   6.0000000   6.0000000   6.0000000   6.0000000   1.0000000   6.0000000   1.0000000   1.0000000   6.0000000

  Atom        11          12          13          14          15          16          17          18          19          20
 IAtWgt=           1          14          16          16          14           1           1          12           1           1
 AtmWgt=   1.0078250  14.0030740  15.9949146  15.9949146  14.0030740   1.0078250   1.0078250  12.0000000   1.0078250   1.0078250
 NucSpn=           1           2           0           0           2           1           1           0           1           1
 AtZEff=   0.0000000   0.0000000   0.0000000   0.0000000   0.0000000   0.0000000   0.0000000   0.0000000   0.0000000   0.0000000
 NQMom=    0.0000000   2.0440000   0.0000000   0.0000000   2.0440000   0.0000000   0.0000000   0.0000000   0.0000000   0.0000000
 NMagM=    2.7928460   0.4037610   0.0000000   0.0000000   0.4037610   2.7928460   2.7928460   0.0000000   2.7928460   2.7928460
 AtZNuc=   1.0000000   7.0000000   8.0000000   8.0000000   7.0000000   1.0000000   1.0000000   6.0000000   1.0000000   1.0000000

  Atom        21          22
 IAtWgt=           1           1
 AtmWgt=   1.0078250   1.0078250
 NucSpn=           1           1
 AtZEff=   0.0000000   0.0000000
 NQMom=    0.0000000   0.0000000
 NMagM=    2.7928460   2.7928460
 AtZNuc=   1.0000000   1.0000000
 Leave Link  101 at Fri Aug 20 15:37:42 2021, MaxMem= 24159191040 cpu:        10.7
 (Enter /public/home/users/caep010/software/Gaussian09/g09/l103.exe)

 GradGradGradGradGradGradGradGradGradGradGradGradGradGradGradGradGradGrad
 Berny optimization.
 Initialization pass.
                           ----------------------------
                           !    Initial Parameters    !
                           ! (Angstroms and Degrees)  !
 --------------------------                            --------------------------
 ! Name  Definition              Value          Derivative Info.                !
 --------------------------------------------------------------------------------
 ! R1    R(1,2)                  1.4229         estimate D2E/DX2                !
 ! R2    R(1,10)                 1.3995         estimate D2E/DX2                !
 ! R3    R(1,12)                 1.4466         estimate D2E/DX2                !
 ! R4    R(2,3)                  1.4331         estimate D2E/DX2                !
 ! R5    R(2,15)                 1.3591         estimate D2E/DX2                !
 ! R6    R(3,4)                  1.3878         estimate D2E/DX2                !
 ! R7    R(3,18)                 1.5119         estimate D2E/DX2                !
 ! R8    R(4,5)                  1.4171         estimate D2E/DX2                !
 ! R9    R(4,7)                  1.5098         estimate D2E/DX2                !
 ! R10   R(5,6)                  0.9303         estimate D2E/DX2                !
 ! R11   R(5,10)                 1.3654         estimate D2E/DX2                !
 ! R12   R(7,8)                  0.9605         estimate D2E/DX2                !
 ! R13   R(7,9)                  0.9598         estimate D2E/DX2                !
 ! R14   R(7,20)                 0.9597         estimate D2E/DX2                !
 ! R15   R(10,11)                0.93           estimate D2E/DX2                !
 ! R16   R(12,13)                1.242          estimate D2E/DX2                !
 ! R17   R(12,14)                1.2415         estimate D2E/DX2                !
 ! R18   R(15,16)                0.8737         estimate D2E/DX2                !
 ! R19   R(15,17)                0.8741         estimate D2E/DX2                !
 ! R20   R(18,19)                0.9599         estimate D2E/DX2                !
 ! R21   R(18,21)                0.9597         estimate D2E/DX2                !
 ! R22   R(18,22)                0.9602         estimate D2E/DX2                !
 ! A1    A(2,1,10)             121.163          estimate D2E/DX2                !
 ! A2    A(2,1,12)             122.326          estimate D2E/DX2                !
 ! A3    A(10,1,12)            116.4959         estimate D2E/DX2                !
 ! A4    A(1,2,3)              117.6477         estimate D2E/DX2                !
 ! A5    A(1,2,15)             123.2916         estimate D2E/DX2                !
 ! A6    A(3,2,15)             119.0552         estimate D2E/DX2                !
 ! A7    A(2,3,4)              120.0437         estimate D2E/DX2                !
 ! A8    A(2,3,18)             118.4492         estimate D2E/DX2                !
 ! A9    A(4,3,18)             121.5048         estimate D2E/DX2                !
 ! A10   A(3,4,5)              120.3998         estimate D2E/DX2                !
 ! A11   A(3,4,7)              121.555          estimate D2E/DX2                !
 ! A12   A(5,4,7)              118.0432         estimate D2E/DX2                !
 ! A13   A(4,5,6)              119.7782         estimate D2E/DX2                !
 ! A14   A(4,5,10)             120.5254         estimate D2E/DX2                !
 ! A15   A(6,5,10)             119.6964         estimate D2E/DX2                !
 ! A16   A(4,7,8)              109.4652         estimate D2E/DX2                !
 ! A17   A(4,7,9)              109.5293         estimate D2E/DX2                !
 ! A18   A(4,7,20)             109.4997         estimate D2E/DX2                !
 ! A19   A(8,7,9)              109.4571         estimate D2E/DX2                !
 ! A20   A(8,7,20)             109.4064         estimate D2E/DX2                !
 ! A21   A(9,7,20)             109.4696         estimate D2E/DX2                !
 ! A22   A(1,10,5)             120.1925         estimate D2E/DX2                !
 ! A23   A(1,10,11)            119.886          estimate D2E/DX2                !
 ! A24   A(5,10,11)            119.9215         estimate D2E/DX2                !
 ! A25   A(1,12,13)            120.3417         estimate D2E/DX2                !
 ! A26   A(1,12,14)            118.3549         estimate D2E/DX2                !
 ! A27   A(13,12,14)           121.2995         estimate D2E/DX2                !
 ! A28   A(2,15,16)            120.0202         estimate D2E/DX2                !
 ! A29   A(2,15,17)            119.9961         estimate D2E/DX2                !
 ! A30   A(16,15,17)           119.9837         estimate D2E/DX2                !
 ! A31   A(3,18,19)            109.4368         estimate D2E/DX2                !
 ! A32   A(3,18,21)            109.4864         estimate D2E/DX2                !
 ! A33   A(3,18,22)            109.4636         estimate D2E/DX2                !
 ! A34   A(19,18,21)           109.4824         estimate D2E/DX2                !
 ! A35   A(19,18,22)           109.4456         estimate D2E/DX2                !
 ! A36   A(21,18,22)           109.5125         estimate D2E/DX2                !
 ! D1    D(10,1,2,3)            -0.3211         estimate D2E/DX2                !
 ! D2    D(10,1,2,15)          178.8179         estimate D2E/DX2                !
 ! D3    D(12,1,2,3)          -178.8566         estimate D2E/DX2                !
 ! D4    D(12,1,2,15)            0.2824         estimate D2E/DX2                !
 ! D5    D(2,1,10,5)            -0.5864         estimate D2E/DX2                !
 ! D6    D(2,1,10,11)          179.4168         estimate D2E/DX2                !
 ! D7    D(12,1,10,5)          178.0308         estimate D2E/DX2                !
 ! D8    D(12,1,10,11)          -1.966          estimate D2E/DX2                !
 ! D9    D(2,1,12,13)           -1.8895         estimate D2E/DX2                !
 ! D10   D(2,1,12,14)          177.4008         estimate D2E/DX2                !
 ! D11   D(10,1,12,13)         179.5108         estimate D2E/DX2                !
 ! D12   D(10,1,12,14)          -1.1989         estimate D2E/DX2                !
 ! D13   D(1,2,3,4)              1.6123         estimate D2E/DX2                !
 ! D14   D(1,2,3,18)          -178.9366         estimate D2E/DX2                !
 ! D15   D(15,2,3,4)          -177.5644         estimate D2E/DX2                !
 ! D16   D(15,2,3,18)            1.8867         estimate D2E/DX2                !
 ! D17   D(1,2,15,16)           -0.0095         estimate D2E/DX2                !
 ! D18   D(1,2,15,17)         -179.9952         estimate D2E/DX2                !
 ! D19   D(3,2,15,16)          179.1181         estimate D2E/DX2                !
 ! D20   D(3,2,15,17)           -0.8677         estimate D2E/DX2                !
 ! D21   D(2,3,4,5)             -2.0155         estimate D2E/DX2                !
 ! D22   D(2,3,4,7)            177.4532         estimate D2E/DX2                !
 ! D23   D(18,3,4,5)           178.5506         estimate D2E/DX2                !
 ! D24   D(18,3,4,7)            -1.9807         estimate D2E/DX2                !
 ! D25   D(2,3,18,19)          -70.6798         estimate D2E/DX2                !
 ! D26   D(2,3,18,21)          169.3183         estimate D2E/DX2                !
 ! D27   D(2,3,18,22)           49.2631         estimate D2E/DX2                !
 ! D28   D(4,3,18,19)          108.7628         estimate D2E/DX2                !
 ! D29   D(4,3,18,21)          -11.239          estimate D2E/DX2                !
 ! D30   D(4,3,18,22)         -131.2943         estimate D2E/DX2                !
 ! D31   D(3,4,5,6)           -178.9435         estimate D2E/DX2                !
 ! D32   D(3,4,5,10)             1.0973         estimate D2E/DX2                !
 ! D33   D(7,4,5,6)              1.5695         estimate D2E/DX2                !
 ! D34   D(7,4,5,10)          -178.3897         estimate D2E/DX2                !
 ! D35   D(3,4,7,8)             65.6836         estimate D2E/DX2                !
 ! D36   D(3,4,7,9)            -54.331          estimate D2E/DX2                !
 ! D37   D(3,4,7,20)          -174.3821         estimate D2E/DX2                !
 ! D38   D(5,4,7,8)           -114.8357         estimate D2E/DX2                !
 ! D39   D(5,4,7,9)            125.1497         estimate D2E/DX2                !
 ! D40   D(5,4,7,20)             5.0986         estimate D2E/DX2                !
 ! D41   D(4,5,10,1)             0.2166         estimate D2E/DX2                !
 ! D42   D(4,5,10,11)         -179.7866         estimate D2E/DX2                !
 ! D43   D(6,5,10,1)          -179.7426         estimate D2E/DX2                !
 ! D44   D(6,5,10,11)            0.2542         estimate D2E/DX2                !
 --------------------------------------------------------------------------------
 Trust Radius=3.00D-01 FncErr=1.00D-07 GrdErr=1.00D-06
 Number of steps in this run=    112 maximum allowed number of steps=    132.
 GradGradGradGradGradGradGradGradGradGradGradGradGradGradGradGradGradGrad

 Leave Link  103 at Fri Aug 20 15:37:42 2021, MaxMem= 24159191040 cpu:         0.6
 (Enter /public/home/users/caep010/software/Gaussian09/g09/l202.exe)
                          Input orientation:                          
 ---------------------------------------------------------------------
 Center     Atomic      Atomic             Coordinates (Angstroms)
 Number     Number       Type             X           Y           Z
 ---------------------------------------------------------------------
      1          6           0        5.129900    6.990900   -0.927000
      2          6           0        5.117100    7.055100   -2.348400
      3          6           0        5.054500    5.818200   -3.069400
      4          6           0        4.975100    4.615900   -2.380900
      5          6           0        4.998200    4.598000   -0.964100
      6          1           0        4.959300    3.786100   -0.511600
      7          6           0        4.850500    3.297200   -3.105500
      8          1           0        5.652600    3.130500   -3.607000
      9          1           0        4.100400    3.329300   -3.703500
     10          6           0        5.076300    5.763400   -0.257000
     11          1           0        5.093900    5.741700    0.672600
     12          7           0        5.167000    8.176800   -0.099400
     13          8           0        5.224400    9.303200   -0.619400
     14          8           0        5.126500    8.036900    1.133500
     15          7           0        5.144000    8.223200   -3.042700
     16          1           0        5.170500    8.985000   -2.615700
     17          1           0        5.134600    8.212400   -3.916700
     18          6           0        5.064600    5.864100   -4.580600
     19          1           0        4.229700    6.218400   -4.895000
     20          1           0        4.721000    2.592100   -2.467500
     21          1           0        5.186800    4.977500   -4.927000
     22          1           0        5.783200    6.426800   -4.878800
 ---------------------------------------------------------------------
                    Distance matrix (angstroms):
                    1          2          3          4          5
     1  C    0.000000
     2  C    1.422907   0.000000
     3  C    2.443520   1.433067   0.000000
     4  C    2.788981   2.443546   1.387754   0.000000
     5  C    2.396809   2.822723   2.433998   1.417101   0.000000
     6  H    3.236109   3.753012   3.268155   2.045263   0.930296
     7  C    4.297365   3.842667   2.529498   1.509815   2.509878
     8  H    4.728457   4.156118   2.805436   2.041749   3.093011
     9  H    4.709155   4.092867   2.739893   2.041987   3.149596
    10  C    1.399475   2.458477   2.813018   2.416185   1.365374
    11  H    2.029906   3.294237   3.742989   3.256594   1.998999
    12  N    1.446602   2.513703   3.794279   4.233447   3.685649
    13  O    2.334583   2.838117   4.263401   5.013563   4.723229
    14  O    2.310798   3.617685   4.753123   4.906849   4.030189
    15  N    2.448458   1.359130   2.406813   3.671392   4.181377
    16  H    2.613387   1.949055   3.201238   4.379766   4.690761
    17  H    3.229611   1.949157   2.540970   3.913941   4.669083
    18  C    3.823969   2.530604   1.511931   2.530750   3.832296
    19  H    4.141514   2.823600   2.042858   3.073162   4.320679
    20  H    4.678652   4.482126   3.298671   2.041527   2.522040
    21  H    4.478506   3.312168   2.043271   2.580348   3.985495
    22  H    4.044964   2.690980   2.043361   3.189340   4.391539
                    6          7          8          9         10
     6  H    0.000000
     7  C    2.641813   0.000000
     8  H    3.239132   0.960550   0.000000
     9  H    3.336855   0.959836   1.567852   0.000000
    10  C    1.997054   3.774530   4.299626   4.330772   0.000000
    11  H    2.290157   4.506536   5.044352   5.094798   0.930020
    12  N    4.414895   5.739974   6.164755   6.133957   2.420240
    13  O    5.524517   6.510955   6.871050   6.816343   3.561383
    14  O    4.561098   6.364751   6.842652   6.827221   2.665485
    15  N    5.111598   4.935135   5.149049   5.047377   3.716897
    16  H    5.612522   5.717812   5.957371   5.857932   3.993876
    17  H    5.587268   4.989784   5.117611   4.995967   4.403908
    18  C    4.570113   2.968288   2.960779   2.850298   4.324788
    19  H    5.065826   3.481539   3.635755   3.127825   4.736539
    20  H    2.303903   0.959677   1.567231   1.567260   3.881970
    21  H    4.578968   2.500873   2.317494   2.322451   4.736956
    22  H    5.169579   3.716035   3.535552   3.715865   4.722377
                   11         12         13         14         15
    11  H    0.000000
    12  N    2.555590   0.000000
    13  O    3.790854   1.241963   0.000000
    14  O    2.341246   1.241473   2.164661   0.000000
    15  N    4.468088   2.943756   2.654288   4.180390   0.000000
    16  H    4.619283   2.642908   2.022219   3.867471   0.873711
    17  H    5.212263   3.817603   3.474204   5.053255   0.874117
    18  C    5.254707   5.043830   5.248243   6.113578   2.817232
    19  H    5.654401   5.264185   5.365275   6.360346   2.878573
    20  H    4.463100   6.082408   6.979094   6.540449   5.676185
    21  H    5.652270   5.791514   6.104794   6.789199   3.753263
    22  H    5.635826   5.126877   5.169954   6.258708   2.647054
                   16         17         18         19         20
    16  H    0.000000
    17  H    1.513539   0.000000
    18  C    3.689453   2.441347   0.000000
    19  H    3.705994   2.398323   0.959913   0.000000
    20  H    6.410397   5.818850   3.910145   4.391376   0.000000
    21  H    4.626276   3.389397   0.959680   1.567449   3.457780
    22  H    3.470074   2.129480   0.960177   1.567500   4.652694
                   21         22
    21  H    0.000000
    22  H    1.567956   0.000000
 Stoichiometry    C8H10N2O2
 Framework group  C1[X(C8H10N2O2)]
 Deg. of freedom    60
 Full point group                 C1      NOp   1
 Largest Abelian subgroup         C1      NOp   1
 Largest concise Abelian subgroup C1      NOp   1
                         Standard orientation:                         
 ---------------------------------------------------------------------
 Center     Atomic      Atomic             Coordinates (Angstroms)
 Number     Number       Type             X           Y           Z
 ---------------------------------------------------------------------
      1          6           0        0.917187   -0.318285   -0.026701
      2          6           0        0.061877    0.818772   -0.012190
      3          6           0       -1.352348    0.587199   -0.016870
      4          6           0       -1.843965   -0.710465   -0.001221
      5          6           0       -0.955477   -1.814216   -0.023540
      6          1           0       -1.294751   -2.680430   -0.027684
      7          6           0       -3.326112   -0.993284    0.051619
      8          1           0       -3.739774   -0.685635   -0.758869
      9          1           0       -3.713409   -0.536388    0.801640
     10          6           0        0.395475   -1.616828   -0.038188
     11          1           0        0.970868   -2.347272   -0.055806
     12          7           0        2.358861   -0.202206    0.000837
     13          8           0        2.898269    0.916501    0.003289
     14          8           0        3.033690   -1.243684    0.035263
     15          7           0        0.521244    2.097441    0.022744
     16          1           0        1.380897    2.252829    0.037644
     17          1           0       -0.043473    2.764612    0.030498
     18          6           0       -2.277919    1.782676   -0.026316
     19          1           0       -2.240149    2.222634    0.826001
     20          1           0       -3.468918   -1.937780    0.143895
     21          1           0       -3.176179    1.490750   -0.196296
     22          1           0       -2.003832    2.394077   -0.714070
 ---------------------------------------------------------------------
 Rotational constants (GHZ):      1.7648970      0.7129976      0.5105056
 Leave Link  202 at Fri Aug 20 15:37:42 2021, MaxMem= 24159191040 cpu:         0.3
 (Enter /public/home/users/caep010/software/Gaussian09/g09/l301.exe)
 Standard basis: 6-31G(d,p) (6D, 7F)
 Ernie: Thresh=  0.10000D-02 Tol=  0.10000D-05 Strict=F.
 There are   230 symmetry adapted cartesian basis functions of A   symmetry.
 There are   230 symmetry adapted basis functions of A   symmetry.
   230 basis functions,   406 primitive gaussians,   230 cartesian basis functions
    44 alpha electrons       44 beta electrons
       nuclear repulsion energy       706.1314379737 Hartrees.
 IExCor=  402 DFT=T Ex+Corr=B3LYP ExCW=0 ScaHFX=  0.200000
 ScaDFX=  0.800000  0.720000  1.000000  0.810000 ScalE2=  1.000000  1.000000
 IRadAn=      0 IRanWt=     -1 IRanGd=            0 ICorTp=0 IEmpDi=  4
 NAtoms=   22 NActive=   22 NUniq=   22 SFac= 1.00D+00 NAtFMM=   60 NAOKFM=F Big=F
 Integral buffers will be    131072 words long.
 Raffenetti 2 integral format.
 Two-electron integral symmetry is turned on.
 Leave Link  301 at Fri Aug 20 15:37:42 2021, MaxMem= 24159191040 cpu:         1.9
 (Enter /public/home/users/caep010/software/Gaussian09/g09/l302.exe)
 NPDir=0 NMtPBC=     1 NCelOv=     1 NCel=       1 NClECP=     1 NCelD=      1
         NCelK=      1 NCelE2=     1 NClLst=     1 CellRange=     0.0.
 One-electron integrals computed using PRISM.
 NBasis=   230 RedAO= T EigKep=  2.76D-04  NBF=   230
 NBsUse=   230 1.00D-06 EigRej= -1.00D+00 NBFU=   230
 Precomputing XC quadrature grid using
 IXCGrd= 4 IRadAn=           0 IRanWt=          -1 IRanGd=           0 AccXCQ= 0.00D+00.
 Generated NRdTot=       0 NPtTot=           0 NUsed=           0 NTot=          32
 NSgBfM=   229   229   229   229   229 MxSgAt=    22 MxSgA2=    22.
 Leave Link  302 at Fri Aug 20 15:37:43 2021, MaxMem= 24159191040 cpu:        12.8
 (Enter /public/home/users/caep010/software/Gaussian09/g09/l303.exe)
 DipDrv:  MaxL=1.
 Leave Link  303 at Fri Aug 20 15:37:43 2021, MaxMem= 24159191040 cpu:         1.8
 (Enter /public/home/users/caep010/software/Gaussian09/g09/l401.exe)
 ExpMin= 1.61D-01 ExpMax= 5.48D+03 ExpMxC= 8.25D+02 IAcc=1 IRadAn=         1 AccDes= 0.00D+00
 Harris functional with IExCor=  402 and IRadAn=       1 diagonalized for initial guess.
 HarFok:  IExCor=  402 AccDes= 0.00D+00 IRadAn=         1 IDoV= 1 UseB2=F ITyADJ=14
 ICtDFT=  3500011 ScaDFX=  1.000000  1.000000  1.000000  1.000000
 FoFCou: FMM=F IPFlag=           0 FMFlag=      100000 FMFlg1=           0
         NFxFlg=           0 DoJE=T BraDBF=F KetDBF=T FulRan=T
         wScrn=  0.000000 ICntrl=     500 IOpCl=  0 I1Cent=   200000004 NGrid=           0
         NMat0=    1 NMatS0=      1 NMatT0=    0 NMatD0=    1 NMtDS0=    0 NMtDT0=    0
 Petite list used in FoFCou.
 Harris En= -570.774151996717    
 JPrj=0 DoOrth=F DoCkMO=F.
 Leave Link  401 at Fri Aug 20 15:37:43 2021, MaxMem= 24159191040 cpu:        12.4
 (Enter /public/home/users/caep010/software/Gaussian09/g09/l502.exe)
 Closed shell SCF:
 Using DIIS extrapolation, IDIIS=  1040.
 Integral symmetry usage will be decided dynamically.
 Keep R1 ints in memory in canonical form, NReq=359212317.
 IVT=      186342 IEndB=      186342 NGot= 24159191040 MDV= 23806141804
 LenX= 23806141804 LenY= 23806088463
 Requested convergence on RMS density matrix=1.00D-08 within 128 cycles.
 Requested convergence on MAX density matrix=1.00D-06.
 Requested convergence on             energy=1.00D-06.
 No special actions if energy rises.
 FoFCou: FMM=F IPFlag=           0 FMFlag=           0 FMFlg1=           0
         NFxFlg=           0 DoJE=F BraDBF=F KetDBF=F FulRan=T
         wScrn=  0.000000 ICntrl=     600 IOpCl=  0 I1Cent=           0 NGrid=           0
         NMat0=    1 NMatS0=  26565 NMatT0=    0 NMatD0=    1 NMtDS0=    0 NMtDT0=    0
 Symmetry not used in FoFCou.
 Integral accuracy reduced to 1.0D-05 until final iterations.

 Cycle   1  Pass 0  IDiag  1:
 E= -570.085450404578    
 DIIS: error= 5.16D-02 at cycle   1 NSaved=   1.
 NSaved= 1 IEnMin= 1 EnMin= -570.085450404578     IErMin= 1 ErrMin= 5.16D-02
 ErrMax= 5.16D-02  0.00D+00 EMaxC= 1.00D-01 BMatC= 5.74D-01 BMatP= 5.74D-01
 IDIUse=3 WtCom= 4.84D-01 WtEn= 5.16D-01
 Coeff-Com:  0.100D+01
 Coeff-En:   0.100D+01
 Coeff:      0.100D+01
 Gap=     0.106 Goal=   None    Shift=    0.000
 GapD=    0.106 DampG=1.000 DampE=0.500 DampFc=0.5000 IDamp=-1.
 Damping current iteration by 5.00D-01
 RMSDP=6.85D-03 MaxDP=2.84D-01              OVMax= 3.56D-01

 Cycle   2  Pass 0  IDiag  1:
 E= -570.234845520861     Delta-E=       -0.149395116283 Rises=F Damp=T
 DIIS: error= 2.35D-02 at cycle   2 NSaved=   2.
 NSaved= 2 IEnMin= 2 EnMin= -570.234845520861     IErMin= 2 ErrMin= 2.35D-02
 ErrMax= 2.35D-02  0.00D+00 EMaxC= 1.00D-01 BMatC= 8.29D-02 BMatP= 5.74D-01
 IDIUse=3 WtCom= 7.65D-01 WtEn= 2.35D-01
 Coeff-Com:  0.208D+00 0.792D+00
 Coeff-En:   0.324D+00 0.676D+00
 Coeff:      0.235D+00 0.765D+00
 Gap=     0.146 Goal=   None    Shift=    0.000
 RMSDP=2.44D-03 MaxDP=1.03D-01 DE=-1.49D-01 OVMax= 2.59D-01

 Cycle   3  Pass 0  IDiag  1:
 E= -570.542617060265     Delta-E=       -0.307771539404 Rises=F Damp=F
 DIIS: error= 1.68D-02 at cycle   3 NSaved=   3.
 NSaved= 3 IEnMin= 3 EnMin= -570.542617060265     IErMin= 3 ErrMin= 1.68D-02
 ErrMax= 1.68D-02  0.00D+00 EMaxC= 1.00D-01 BMatC= 5.31D-02 BMatP= 8.29D-02
 IDIUse=3 WtCom= 8.32D-01 WtEn= 1.68D-01
 Coeff-Com:  0.696D-01 0.437D+00 0.494D+00
 Coeff-En:   0.000D+00 0.000D+00 0.100D+01
 Coeff:      0.579D-01 0.363D+00 0.579D+00
 Gap=     0.146 Goal=   None    Shift=    0.000
 RMSDP=1.44D-03 MaxDP=5.63D-02 DE=-3.08D-01 OVMax= 1.09D-01

 Cycle   4  Pass 0  IDiag  1:
 E= -570.571548929668     Delta-E=       -0.028931869404 Rises=F Damp=F
 DIIS: error= 1.83D-02 at cycle   4 NSaved=   4.
 NSaved= 4 IEnMin= 4 EnMin= -570.571548929668     IErMin= 3 ErrMin= 1.68D-02
 ErrMax= 1.83D-02  0.00D+00 EMaxC= 1.00D-01 BMatC= 2.30D-02 BMatP= 5.31D-02
 IDIUse=3 WtCom= 8.17D-01 WtEn= 1.83D-01
 Coeff-Com:  0.334D-01 0.163D+00 0.391D+00 0.413D+00
 Coeff-En:   0.000D+00 0.000D+00 0.314D+00 0.686D+00
 Coeff:      0.273D-01 0.133D+00 0.376D+00 0.463D+00
 Gap=     0.142 Goal=   None    Shift=    0.000
 RMSDP=7.88D-04 MaxDP=4.87D-02 DE=-2.89D-02 OVMax= 9.60D-02

 Cycle   5  Pass 0  IDiag  1:
 E= -570.585479290592     Delta-E=       -0.013930360923 Rises=F Damp=F
 DIIS: error= 1.19D-02 at cycle   5 NSaved=   5.
 NSaved= 5 IEnMin= 5 EnMin= -570.585479290592     IErMin= 5 ErrMin= 1.19D-02
 ErrMax= 1.19D-02  0.00D+00 EMaxC= 1.00D-01 BMatC= 6.57D-03 BMatP= 2.30D-02
 IDIUse=3 WtCom= 8.81D-01 WtEn= 1.19D-01
 Coeff-Com:  0.117D-01 0.195D-01 0.197D+00 0.383D+00 0.389D+00
 Coeff-En:   0.000D+00 0.000D+00 0.000D+00 0.251D+00 0.749D+00
 Coeff:      0.103D-01 0.172D-01 0.173D+00 0.367D+00 0.432D+00
 Gap=     0.146 Goal=   None    Shift=    0.000
 RMSDP=3.65D-04 MaxDP=2.15D-02 DE=-1.39D-02 OVMax= 4.64D-02

 Cycle   6  Pass 0  IDiag  1:
 E= -570.590261385527     Delta-E=       -0.004782094935 Rises=F Damp=F
 DIIS: error= 2.79D-03 at cycle   6 NSaved=   6.
 NSaved= 6 IEnMin= 6 EnMin= -570.590261385527     IErMin= 6 ErrMin= 2.79D-03
 ErrMax= 2.79D-03  0.00D+00 EMaxC= 1.00D-01 BMatC= 6.68D-04 BMatP= 6.57D-03
 IDIUse=3 WtCom= 9.72D-01 WtEn= 2.79D-02
 Coeff-Com:  0.313D-02-0.765D-03 0.787D-01 0.197D+00 0.301D+00 0.421D+00
 Coeff-En:   0.000D+00 0.000D+00 0.000D+00 0.000D+00 0.116D+00 0.884D+00
 Coeff:      0.304D-02-0.744D-03 0.765D-01 0.191D+00 0.296D+00 0.434D+00
 Gap=     0.147 Goal=   None    Shift=    0.000
 RMSDP=1.12D-04 MaxDP=5.86D-03 DE=-4.78D-03 OVMax= 9.33D-03

 Cycle   7  Pass 0  IDiag  1:
 E= -570.590817110914     Delta-E=       -0.000555725388 Rises=F Damp=F
 DIIS: error= 2.44D-04 at cycle   7 NSaved=   7.
 NSaved= 7 IEnMin= 7 EnMin= -570.590817110914     IErMin= 7 ErrMin= 2.44D-04
 ErrMax= 2.44D-04  0.00D+00 EMaxC= 1.00D-01 BMatC= 1.81D-05 BMatP= 6.68D-04
 IDIUse=3 WtCom= 9.98D-01 WtEn= 2.44D-03
 Coeff-Com:  0.391D-03-0.222D-02 0.173D-01 0.521D-01 0.102D+00 0.224D+00
 Coeff-Com:  0.607D+00
 Coeff-En:   0.000D+00 0.000D+00 0.000D+00 0.000D+00 0.000D+00 0.000D+00
 Coeff-En:   0.100D+01
 Coeff:      0.390D-03-0.222D-02 0.173D-01 0.519D-01 0.102D+00 0.223D+00
 Coeff:      0.608D+00
 Gap=     0.147 Goal=   None    Shift=    0.000
 RMSDP=2.91D-05 MaxDP=9.07D-04 DE=-5.56D-04 OVMax= 2.25D-03

 Cycle   8  Pass 0  IDiag  1:
 E= -570.590834203219     Delta-E=       -0.000017092305 Rises=F Damp=F
 DIIS: error= 6.85D-05 at cycle   8 NSaved=   8.
 NSaved= 8 IEnMin= 8 EnMin= -570.590834203219     IErMin= 8 ErrMin= 6.85D-05
 ErrMax= 6.85D-05  0.00D+00 EMaxC= 1.00D-01 BMatC= 2.14D-06 BMatP= 1.81D-05
 IDIUse=1 WtCom= 1.00D+00 WtEn= 0.00D+00
 Coeff-Com: -0.224D-04-0.140D-02 0.377D-02 0.144D-01 0.352D-01 0.905D-01
 Coeff-Com:  0.347D+00 0.511D+00
 Coeff:     -0.224D-04-0.140D-02 0.377D-02 0.144D-01 0.352D-01 0.905D-01
 Coeff:      0.347D+00 0.511D+00
 Gap=     0.147 Goal=   None    Shift=    0.000
 RMSDP=8.27D-06 MaxDP=3.04D-04 DE=-1.71D-05 OVMax= 7.35D-04

 Initial convergence to 1.0D-05 achieved.  Increase integral accuracy.
 Cycle   9  Pass 1  IDiag  1:
 E= -570.590865192355     Delta-E=       -0.000030989136 Rises=F Damp=F
 DIIS: error= 1.48D-05 at cycle   1 NSaved=   1.
 NSaved= 1 IEnMin= 1 EnMin= -570.590865192355     IErMin= 1 ErrMin= 1.48D-05
 ErrMax= 1.48D-05  0.00D+00 EMaxC= 1.00D-01 BMatC= 1.63D-07 BMatP= 1.63D-07
 IDIUse=1 WtCom= 1.00D+00 WtEn= 0.00D+00
 Coeff-Com:  0.100D+01
 Coeff:      0.100D+01
 Gap=     0.147 Goal=   None    Shift=    0.000
 RMSDP=8.27D-06 MaxDP=3.04D-04 DE=-3.10D-05 OVMax= 3.00D-04

 Cycle  10  Pass 1  IDiag  1:
 E= -570.590865145900     Delta-E=        0.000000046455 Rises=F Damp=F
 DIIS: error= 3.20D-05 at cycle   2 NSaved=   2.
 NSaved= 2 IEnMin= 1 EnMin= -570.590865192355     IErMin= 1 ErrMin= 1.48D-05
 ErrMax= 3.20D-05  0.00D+00 EMaxC= 1.00D-01 BMatC= 2.43D-07 BMatP= 1.63D-07
 IDIUse=1 WtCom= 1.00D+00 WtEn= 0.00D+00
 Coeff-Com:  0.560D+00 0.440D+00
 Coeff:      0.560D+00 0.440D+00
 Gap=     0.147 Goal=   None    Shift=    0.000
 RMSDP=2.93D-06 MaxDP=1.47D-04 DE= 4.65D-08 OVMax= 2.28D-04

 Cycle  11  Pass 1  IDiag  1:
 E= -570.590865340998     Delta-E=       -0.000000195098 Rises=F Damp=F
 DIIS: error= 2.61D-05 at cycle   3 NSaved=   3.
 NSaved= 3 IEnMin= 3 EnMin= -570.590865340998     IErMin= 1 ErrMin= 1.48D-05
 ErrMax= 2.61D-05  0.00D+00 EMaxC= 1.00D-01 BMatC= 4.00D-08 BMatP= 1.63D-07
 IDIUse=1 WtCom= 1.00D+00 WtEn= 0.00D+00
 Coeff-Com:  0.151D+00 0.282D+00 0.567D+00
 Coeff:      0.151D+00 0.282D+00 0.567D+00
 Gap=     0.147 Goal=   None    Shift=    0.000
 RMSDP=1.19D-06 MaxDP=7.02D-05 DE=-1.95D-07 OVMax= 1.55D-04

 Cycle  12  Pass 1  IDiag  1:
 E= -570.590865355172     Delta-E=       -0.000000014174 Rises=F Damp=F
 DIIS: error= 2.20D-05 at cycle   4 NSaved=   4.
 NSaved= 4 IEnMin= 4 EnMin= -570.590865355172     IErMin= 1 ErrMin= 1.48D-05
 ErrMax= 2.20D-05  0.00D+00 EMaxC= 1.00D-01 BMatC= 2.41D-08 BMatP= 4.00D-08
 IDIUse=1 WtCom= 1.00D+00 WtEn= 0.00D+00
 Coeff-Com: -0.501D-02 0.132D+00 0.474D+00 0.399D+00
 Coeff:     -0.501D-02 0.132D+00 0.474D+00 0.399D+00
 Gap=     0.147 Goal=   None    Shift=    0.000
 RMSDP=6.71D-07 MaxDP=4.19D-05 DE=-1.42D-08 OVMax= 7.26D-05

 Cycle  13  Pass 1  IDiag  1:
 E= -570.590865374333     Delta-E=       -0.000000019161 Rises=F Damp=F
 DIIS: error= 2.08D-06 at cycle   5 NSaved=   5.
 NSaved= 5 IEnMin= 5 EnMin= -570.590865374333     IErMin= 5 ErrMin= 2.08D-06
 ErrMax= 2.08D-06  0.00D+00 EMaxC= 1.00D-01 BMatC= 8.04D-10 BMatP= 2.41D-08
 IDIUse=1 WtCom= 1.00D+00 WtEn= 0.00D+00
 Coeff-Com: -0.109D-01 0.651D-01 0.259D+00 0.250D+00 0.437D+00
 Coeff:     -0.109D-01 0.651D-01 0.259D+00 0.250D+00 0.437D+00
 Gap=     0.147 Goal=   None    Shift=    0.000
 RMSDP=1.49D-07 MaxDP=5.02D-06 DE=-1.92D-08 OVMax= 1.17D-05

 Cycle  14  Pass 1  IDiag  1:
 E= -570.590865375116     Delta-E=       -0.000000000783 Rises=F Damp=F
 DIIS: error= 2.52D-07 at cycle   6 NSaved=   6.
 NSaved= 6 IEnMin= 6 EnMin= -570.590865375116     IErMin= 6 ErrMin= 2.52D-07
 ErrMax= 2.52D-07  0.00D+00 EMaxC= 1.00D-01 BMatC= 2.40D-11 BMatP= 8.04D-10
 IDIUse=1 WtCom= 1.00D+00 WtEn= 0.00D+00
 Coeff-Com: -0.482D-02 0.190D-01 0.809D-01 0.847D-01 0.206D+00 0.614D+00
 Coeff:     -0.482D-02 0.190D-01 0.809D-01 0.847D-01 0.206D+00 0.614D+00
 Gap=     0.147 Goal=   None    Shift=    0.000
 RMSDP=2.64D-08 MaxDP=1.27D-06 DE=-7.83D-10 OVMax= 2.06D-06

 Cycle  15  Pass 1  IDiag  1:
 E= -570.590865375145     Delta-E=       -0.000000000029 Rises=F Damp=F
 DIIS: error= 1.21D-07 at cycle   7 NSaved=   7.
 NSaved= 7 IEnMin= 7 EnMin= -570.590865375145     IErMin= 7 ErrMin= 1.21D-07
 ErrMax= 1.21D-07  0.00D+00 EMaxC= 1.00D-01 BMatC= 2.57D-12 BMatP= 2.40D-11
 IDIUse=1 WtCom= 1.00D+00 WtEn= 0.00D+00
 Coeff-Com: -0.174D-02 0.561D-02 0.246D-01 0.273D-01 0.801D-01 0.323D+00
 Coeff-Com:  0.541D+00
 Coeff:     -0.174D-02 0.561D-02 0.246D-01 0.273D-01 0.801D-01 0.323D+00
 Coeff:      0.541D+00
 Gap=     0.147 Goal=   None    Shift=    0.000
 RMSDP=9.16D-09 MaxDP=3.19D-07 DE=-2.86D-11 OVMax= 6.82D-07

 SCF Done:  E(RB3LYP) =  -570.590865375     A.U. after   15 cycles
            NFock= 15  Conv=0.92D-08     -V/T= 2.0047
 KE= 5.679004628912D+02 PE=-2.742676438525D+03 EE= 8.980536722851D+02
 Leave Link  502 at Fri Aug 20 15:37:55 2021, MaxMem= 24159191040 cpu:       115.9
 (Enter /public/home/users/caep010/software/Gaussian09/g09/l601.exe)
 Copying SCF densities to generalized density rwf, IOpCl= 0 IROHF=0.

 **********************************************************************

            Population analysis using the SCF density.

 **********************************************************************

 Orbital symmetries:
       Occupied  (A) (A) (A) (A) (A) (A) (A) (A) (A) (A) (A) (A)
                 (A) (A) (A) (A) (A) (A) (A) (A) (A) (A) (A) (A)
                 (A) (A) (A) (A) (A) (A) (A) (A) (A) (A) (A) (A)
                 (A) (A) (A) (A) (A) (A) (A) (A)
       Virtual   (A) (A) (A) (A) (A) (A) (A) (A) (A) (A) (A) (A)
                 (A) (A) (A) (A) (A) (A) (A) (A) (A) (A) (A) (A)
                 (A) (A) (A) (A) (A) (A) (A) (A) (A) (A) (A) (A)
                 (A) (A) (A) (A) (A) (A) (A) (A) (A) (A) (A) (A)
                 (A) (A) (A) (A) (A) (A) (A) (A) (A) (A) (A) (A)
                 (A) (A) (A) (A) (A) (A) (A) (A) (A) (A) (A) (A)
                 (A) (A) (A) (A) (A) (A) (A) (A) (A) (A) (A) (A)
                 (A) (A) (A) (A) (A) (A) (A) (A) (A) (A) (A) (A)
                 (A) (A) (A) (A) (A) (A) (A) (A) (A) (A) (A) (A)
                 (A) (A) (A) (A) (A) (A) (A) (A) (A) (A) (A) (A)
                 (A) (A) (A) (A) (A) (A) (A) (A) (A) (A) (A) (A)
                 (A) (A) (A) (A) (A) (A) (A) (A) (A) (A) (A) (A)
                 (A) (A) (A) (A) (A) (A) (A) (A) (A) (A) (A) (A)
                 (A) (A) (A) (A) (A) (A) (A) (A) (A) (A) (A) (A)
                 (A) (A) (A) (A) (A) (A) (A) (A) (A) (A) (A) (A)
                 (A) (A) (A) (A) (A) (A)
 The electronic state is 1-A.
 Alpha  occ. eigenvalues --  -19.16337 -19.15791 -14.55424 -14.33936 -10.26000
 Alpha  occ. eigenvalues --  -10.23464 -10.21004 -10.20410 -10.18446 -10.17168
 Alpha  occ. eigenvalues --  -10.16208 -10.15582  -1.20140  -1.02464  -0.96962
 Alpha  occ. eigenvalues --   -0.87301  -0.82606  -0.78917  -0.75701  -0.72944
 Alpha  occ. eigenvalues --   -0.66852  -0.63234  -0.61597  -0.56704  -0.54006
 Alpha  occ. eigenvalues --   -0.51927  -0.51285  -0.50238  -0.48026  -0.47365
 Alpha  occ. eigenvalues --   -0.46810  -0.45231  -0.43817  -0.43069  -0.41496
 Alpha  occ. eigenvalues --   -0.38833  -0.37846  -0.35492  -0.32684  -0.29454
 Alpha  occ. eigenvalues --   -0.28986  -0.27146  -0.25613  -0.21847
 Alpha virt. eigenvalues --   -0.07134   0.00156   0.02157   0.09391   0.12117
 Alpha virt. eigenvalues --    0.14208   0.15082   0.15878   0.18131   0.18317
 Alpha virt. eigenvalues --    0.19306   0.19560   0.20419   0.21734   0.22418
 Alpha virt. eigenvalues --    0.23342   0.24532   0.27471   0.30172   0.30488
 Alpha virt. eigenvalues --    0.34355   0.35988   0.36363   0.40370   0.47356
 Alpha virt. eigenvalues --    0.48706   0.50026   0.51065   0.51779   0.52116
 Alpha virt. eigenvalues --    0.53329   0.54451   0.54931   0.58183   0.59939
 Alpha virt. eigenvalues --    0.60564   0.62440   0.63471   0.64476   0.67919
 Alpha virt. eigenvalues --    0.69021   0.70338   0.71806   0.72105   0.75031
 Alpha virt. eigenvalues --    0.76586   0.77907   0.78288   0.80171   0.83463
 Alpha virt. eigenvalues --    0.84537   0.87386   0.90496   0.92000   0.93891
 Alpha virt. eigenvalues --    0.94400   0.94992   0.96598   0.96803   0.97520
 Alpha virt. eigenvalues --    0.98501   1.00801   1.01105   1.01572   1.03559
 Alpha virt. eigenvalues --    1.06749   1.08270   1.09305   1.12185   1.14974
 Alpha virt. eigenvalues --    1.16757   1.18272   1.22924   1.23475   1.26055
 Alpha virt. eigenvalues --    1.26295   1.28951   1.31173   1.33039   1.33956
 Alpha virt. eigenvalues --    1.35153   1.38393   1.41748   1.42661   1.44954
 Alpha virt. eigenvalues --    1.45886   1.52547   1.56808   1.58930   1.61677
 Alpha virt. eigenvalues --    1.67501   1.68955   1.71068   1.71901   1.74379
 Alpha virt. eigenvalues --    1.75403   1.77626   1.80675   1.82523   1.82938
 Alpha virt. eigenvalues --    1.84075   1.87131   1.89449   1.92936   1.95044
 Alpha virt. eigenvalues --    1.95650   1.97347   1.99860   2.01719   2.05616
 Alpha virt. eigenvalues --    2.08897   2.09628   2.10156   2.10846   2.14451
 Alpha virt. eigenvalues --    2.14924   2.16538   2.17993   2.20791   2.23066
 Alpha virt. eigenvalues --    2.23571   2.24893   2.26610   2.27705   2.29087
 Alpha virt. eigenvalues --    2.31129   2.34265   2.36720   2.42089   2.44517
 Alpha virt. eigenvalues --    2.45877   2.49610   2.53681   2.54088   2.55920
 Alpha virt. eigenvalues --    2.56199   2.58411   2.60278   2.63614   2.65611
 Alpha virt. eigenvalues --    2.65973   2.67391   2.69704   2.70601   2.75916
 Alpha virt. eigenvalues --    2.81993   2.85300   2.85481   2.85666   2.86347
 Alpha virt. eigenvalues --    2.87793   2.91382   2.94836   2.98663   3.05914
 Alpha virt. eigenvalues --    3.07803   3.11032   3.13089   3.14989   3.25524
 Alpha virt. eigenvalues --    3.27257   3.32143   3.40040   3.50686   3.67148
 Alpha virt. eigenvalues --    3.69311   3.74561   3.75500   3.77074   3.77454
 Alpha virt. eigenvalues --    3.78190   3.78748   3.81394   3.90818   3.97770
 Alpha virt. eigenvalues --    4.08637   4.10428   4.12281   4.15539   4.17290
 Alpha virt. eigenvalues --    4.34576   4.41300   4.42825   4.54727   4.56439
 Alpha virt. eigenvalues --    4.88797
          Condensed to atoms (all electrons):
               1          2          3          4          5          6
     1  C    5.145489   0.350383  -0.025975  -0.056079  -0.008097   0.005755
     2  C    0.350383   4.858351   0.423158   0.020079  -0.062342   0.001147
     3  C   -0.025975   0.423158   4.973051   0.533461  -0.005466   0.008612
     4  C   -0.056079   0.020079   0.533461   4.797011   0.485113  -0.047751
     5  C   -0.008097  -0.062342  -0.005466   0.485113   4.908432   0.375771
     6  H    0.005755   0.001147   0.008612  -0.047751   0.375771   0.677697
     7  C    0.000128   0.008299  -0.069323   0.378168  -0.060407  -0.014528
     8  H    0.000036  -0.000191  -0.002659  -0.023475   0.000599   0.000362
     9  H    0.000059  -0.000205  -0.005139  -0.022918   0.001752   0.000265
    10  C    0.467458  -0.052898  -0.058211  -0.011179   0.487454  -0.050041
    11  H   -0.038190   0.008627   0.000773   0.006560  -0.043341  -0.009865
    12  N    0.156560  -0.036042   0.004790   0.000013   0.004938  -0.000158
    13  O   -0.065272  -0.015407   0.000245  -0.000018  -0.000016   0.000001
    14  O   -0.091962   0.004912  -0.000025  -0.000007   0.001330  -0.000010
    15  N   -0.081553   0.365772  -0.087122   0.006470  -0.000161   0.000009
    16  H   -0.020650  -0.005874   0.009426  -0.000040  -0.000035   0.000000
    17  H    0.008122  -0.018321  -0.021668   0.000006  -0.000017   0.000000
    18  C    0.009806  -0.067926   0.382278  -0.070154   0.008388  -0.000247
    19  H   -0.000281  -0.003784  -0.028211   0.000085  -0.000199   0.000004
    20  H    0.000019  -0.000235   0.004801  -0.024466  -0.007292   0.006746
    21  H   -0.000253   0.004931  -0.019557  -0.013031   0.000050  -0.000011
    22  H   -0.000385  -0.008264  -0.027508   0.003638  -0.000192   0.000005
               7          8          9         10         11         12
     1  C    0.000128   0.000036   0.000059   0.467458  -0.038190   0.156560
     2  C    0.008299  -0.000191  -0.000205  -0.052898   0.008627  -0.036042
     3  C   -0.069323  -0.002659  -0.005139  -0.058211   0.000773   0.004790
     4  C    0.378168  -0.023475  -0.022918  -0.011179   0.006560   0.000013
     5  C   -0.060407   0.000599   0.001752   0.487454  -0.043341   0.004938
     6  H   -0.014528   0.000362   0.000265  -0.050041  -0.009865  -0.000158
     7  C    4.931515   0.389991   0.391869   0.008735  -0.000268   0.000001
     8  H    0.389991   0.565890  -0.037263  -0.000322   0.000005   0.000000
     9  H    0.391869  -0.037263   0.570269  -0.000348   0.000005   0.000000
    10  C    0.008735  -0.000322  -0.000348   4.922730   0.365472  -0.050471
    11  H   -0.000268   0.000005   0.000005   0.365472   0.617967  -0.018366
    12  N    0.000001   0.000000   0.000000  -0.050471  -0.018366   6.045060
    13  O   -0.000000  -0.000000  -0.000000   0.008018   0.000340   0.257768
    14  O    0.000000  -0.000000  -0.000000  -0.005188   0.026029   0.298235
    15  N   -0.000088  -0.000001  -0.000002   0.006940  -0.000107  -0.009998
    16  H    0.000002   0.000000   0.000000  -0.000530  -0.000024   0.000005
    17  H   -0.000006  -0.000000  -0.000001  -0.000090   0.000003  -0.000085
    18  C   -0.016409  -0.000399   0.001111  -0.000121   0.000010  -0.000075
    19  H    0.000481  -0.000170   0.000484   0.000037  -0.000000   0.000001
    20  H    0.391567  -0.030467  -0.031846   0.000076  -0.000007  -0.000000
    21  H    0.009292   0.002440   0.000791   0.000018   0.000000   0.000001
    22  H    0.000213   0.000169  -0.000041   0.000043   0.000000  -0.000001
              13         14         15         16         17         18
     1  C   -0.065272  -0.091962  -0.081553  -0.020650   0.008122   0.009806
     2  C   -0.015407   0.004912   0.365772  -0.005874  -0.018321  -0.067926
     3  C    0.000245  -0.000025  -0.087122   0.009426  -0.021668   0.382278
     4  C   -0.000018  -0.000007   0.006470  -0.000040   0.000006  -0.070154
     5  C   -0.000016   0.001330  -0.000161  -0.000035  -0.000017   0.008388
     6  H    0.000001  -0.000010   0.000009   0.000000   0.000000  -0.000247
     7  C   -0.000000   0.000000  -0.000088   0.000002  -0.000006  -0.016409
     8  H   -0.000000  -0.000000  -0.000001   0.000000  -0.000000  -0.000399
     9  H   -0.000000  -0.000000  -0.000002   0.000000  -0.000001   0.001111
    10  C    0.008018  -0.005188   0.006940  -0.000530  -0.000090  -0.000121
    11  H    0.000340   0.026029  -0.000107  -0.000024   0.000003   0.000010
    12  N    0.257768   0.298235  -0.009998   0.000005  -0.000085  -0.000075
    13  O    8.339192  -0.104551  -0.021191   0.042724   0.001186   0.000005
    14  O   -0.104551   8.282776  -0.000059   0.000455   0.000005   0.000000
    15  N   -0.021191  -0.000059   6.665920   0.355133   0.373063  -0.018686
    16  H    0.042724   0.000455   0.355133   0.395731  -0.031260  -0.000257
    17  H    0.001186   0.000005   0.373063  -0.031260   0.434467   0.011316
    18  C    0.000005   0.000000  -0.018686  -0.000257   0.011316   4.948123
    19  H   -0.000000   0.000000   0.002791   0.000023   0.001823   0.392277
    20  H    0.000000   0.000000   0.000002  -0.000000   0.000000   0.000698
    21  H    0.000000  -0.000000   0.000532   0.000001  -0.000546   0.390548
    22  H    0.000000   0.000000   0.004459   0.000106   0.003255   0.385175
              19         20         21         22
     1  C   -0.000281   0.000019  -0.000253  -0.000385
     2  C   -0.003784  -0.000235   0.004931  -0.008264
     3  C   -0.028211   0.004801  -0.019557  -0.027508
     4  C    0.000085  -0.024466  -0.013031   0.003638
     5  C   -0.000199  -0.007292   0.000050  -0.000192
     6  H    0.000004   0.006746  -0.000011   0.000005
     7  C    0.000481   0.391567   0.009292   0.000213
     8  H   -0.000170  -0.030467   0.002440   0.000169
     9  H    0.000484  -0.031846   0.000791  -0.000041
    10  C    0.000037   0.000076   0.000018   0.000043
    11  H   -0.000000  -0.000007   0.000000   0.000000
    12  N    0.000001  -0.000000   0.000001  -0.000001
    13  O   -0.000000   0.000000   0.000000   0.000000
    14  O    0.000000   0.000000  -0.000000   0.000000
    15  N    0.002791   0.000002   0.000532   0.004459
    16  H    0.000023  -0.000000   0.000001   0.000106
    17  H    0.001823   0.000000  -0.000546   0.003255
    18  C    0.392277   0.000698   0.390548   0.385175
    19  H    0.576373  -0.000008  -0.030531  -0.047157
    20  H   -0.000008   0.577595  -0.000287  -0.000019
    21  H   -0.030531  -0.000287   0.569146  -0.027302
    22  H   -0.047157  -0.000019  -0.027302   0.589383
 Mulliken charges:
               1
     1  C    0.244883
     2  C    0.225830
     3  C    0.010269
     4  C    0.038515
     5  C   -0.086263
     6  H    0.046236
     7  C   -0.349232
     8  H    0.135454
     9  H    0.131158
    10  C   -0.037581
    11  H    0.084377
    12  N    0.347823
    13  O   -0.443025
    14  O   -0.411941
    15  N   -0.562122
    16  H    0.255063
    17  H    0.238747
    18  C   -0.355462
    19  H    0.135959
    20  H    0.113125
    21  H    0.113766
    22  H    0.124422
 Sum of Mulliken charges =  -0.00000
 Mulliken charges with hydrogens summed into heavy atoms:
               1
     1  C    0.244883
     2  C    0.225830
     3  C    0.010269
     4  C    0.038515
     5  C   -0.040027
     7  C    0.030505
    10  C    0.046796
    12  N    0.347823
    13  O   -0.443025
    14  O   -0.411941
    15  N   -0.068312
    18  C    0.018684
 Electronic spatial extent (au):  <R**2>=           2122.7828
 Charge=             -0.0000 electrons
 Dipole moment (field-independent basis, Debye):
    X=             -5.7410    Y=              1.7896    Z=             -0.0057  Tot=              6.0135
 Quadrupole moment (field-independent basis, Debye-Ang):
   XX=            -77.6396   YY=            -60.4367   ZZ=            -69.7140
   XY=              1.7109   XZ=             -0.2281   YZ=              0.2623
 Traceless Quadrupole moment (field-independent basis, Debye-Ang):
   XX=             -8.3762   YY=              8.8268   ZZ=             -0.4506
   XY=              1.7109   XZ=             -0.2281   YZ=              0.2623
 Octapole moment (field-independent basis, Debye-Ang**2):
  XXX=            -53.8337  YYY=             20.3760  ZZZ=              0.5670  XYY=             -3.9069
  XXY=              6.0902  XXZ=             -0.4981  XZZ=              8.6204  YZZ=              2.4289
  YYZ=              0.2802  XYZ=              0.3640
 Hexadecapole moment (field-independent basis, Debye-Ang**3):
 XXXX=          -1905.6461 YYYY=           -696.3442 ZZZZ=            -74.8600 XXXY=             23.4204
 XXXZ=             -0.8255 YYYX=             15.2997 YYYZ=              1.3632 ZZZX=             -0.0073
 ZZZY=              0.2451 XXYY=           -436.3069 XXZZ=           -299.9396 YYZZ=           -150.4112
 XXYZ=              1.1437 YYXZ=             -0.5242 ZZXY=             -4.0401
 N-N= 7.061314379737D+02 E-N=-2.742676451548D+03  KE= 5.679004628912D+02
 No NMR shielding tensors so no spin-rotation constants.
 Leave Link  601 at Fri Aug 20 15:37:56 2021, MaxMem= 24159191040 cpu:        11.2
 (Enter /public/home/users/caep010/software/Gaussian09/g09/l701.exe)
 Compute integral first derivatives.
 ... and contract with generalized density number  0.
 Leave Link  701 at Fri Aug 20 15:37:56 2021, MaxMem= 24159191040 cpu:        11.7
 (Enter /public/home/users/caep010/software/Gaussian09/g09/l702.exe)
 L702 exits ... SP integral derivatives will be done elsewhere.
 Leave Link  702 at Fri Aug 20 15:37:56 2021, MaxMem= 24159191040 cpu:         0.5
 (Enter /public/home/users/caep010/software/Gaussian09/g09/l703.exe)
 Compute integral first derivatives, UseDBF=F ICtDFT=           0.
 Integral derivatives from FoFJK, PRISM(SPDF).
 Calling FoFJK, ICntrl=      2127 FMM=F ISym2X=0 I1Cent= 0 IOpClX= 0 NMat=1 NMatS=1 NMatT=0.
 FoFJK:  IHMeth= 1 ICntrl=    2127 DoSepK=F KAlg= 0 I1Cent=   0 FoldK=F
 IRaf=         0 NMat=   1 IRICut=       1 DoRegI=T DoRafI=F ISym2E= 0.
 FoFCou: FMM=F IPFlag=           0 FMFlag=      100000 FMFlg1=         800
         NFxFlg=           0 DoJE=F BraDBF=F KetDBF=F FulRan=T
         wScrn=  0.000000 ICntrl=    2127 IOpCl=  0 I1Cent=           0 NGrid=           0
         NMat0=    1 NMatS0=      1 NMatT0=    0 NMatD0=    1 NMtDS0=    0 NMtDT0=    0
 Symmetry not used in FoFCou.
 Leave Link  703 at Fri Aug 20 15:37:57 2021, MaxMem= 24159191040 cpu:        28.3
 (Enter /public/home/users/caep010/software/Gaussian09/g09/l716.exe)
 Dipole        =-2.25869972D+00 7.04080256D-01-2.23945142D-03
 ***** Axes restored to original set *****
 -------------------------------------------------------------------
 Center     Atomic                   Forces (Hartrees/Bohr)
 Number     Number              X              Y              Z
 -------------------------------------------------------------------
      1        6          -0.000656666    0.004579303   -0.003556296
      2        6          -0.000923632   -0.006788326    0.003864350
      3        6           0.001179796    0.005469492    0.007802740
      4        6          -0.000088084    0.001783584    0.010824780
      5        6           0.006300022    0.137422911   -0.092062975
      6        1          -0.007471530   -0.148126785    0.081443723
      7        6           0.011513209    0.111434768    0.060623171
      8        1           0.107073836   -0.024937900   -0.069063606
      9        1          -0.100799486    0.001862968   -0.081998674
     10        6          -0.001845477    0.008453577   -0.159328236
     11        1           0.002884039    0.000327565    0.168374619
     12        7          -0.001700875    0.002955562    0.013302016
     13        8           0.000600070   -0.000802410   -0.008480000
     14        8           0.001026720   -0.004014716   -0.007399759
     15        7          -0.002843785   -0.156418113    0.088854345
     16        1           0.006405804    0.164019838    0.096166539
     17        1          -0.002660832   -0.004398371   -0.185805881
     18        6          -0.001022836   -0.005113234    0.129867011
     19        1          -0.113616764    0.048381946   -0.046078704
     20        1          -0.017194857   -0.095210604    0.084589681
     21        1           0.016364818   -0.115861713   -0.048716375
     22        1           0.097476511    0.074980659   -0.043222469
 -------------------------------------------------------------------
 Cartesian Forces:  Max     0.185805881 RMS     0.072552108
 Leave Link  716 at Fri Aug 20 15:37:58 2021, MaxMem= 24159191040 cpu:         0.7
 (Enter /public/home/users/caep010/software/Gaussian09/g09/l103.exe)

 GradGradGradGradGradGradGradGradGradGradGradGradGradGradGradGradGradGrad
 Berny optimization.
 FormGI is forming the generalized inverse of G from B-inverse, IUseBI=4.
 Internal  Forces:  Max     0.190205247 RMS     0.047412258
 Search for a local minimum.
 Step number   1 out of a maximum of  112
 All quantities printed in internal units (Hartrees-Bohrs-Radians)
 RMS Force = .47412D-01 SwitMx=.10000D-02 MixMth= 1
 Mixed Optimization -- RFO/linear search
 Second derivative matrix not updated -- first step.
 ITU=  0
     Eigenvalues ---    0.00608   0.00636   0.01075   0.01076   0.01416
     Eigenvalues ---    0.01486   0.01664   0.01788   0.01929   0.02041
     Eigenvalues ---    0.02192   0.02222   0.02232   0.02232   0.02349
     Eigenvalues ---    0.07447   0.07455   0.07455   0.07464   0.16000
     Eigenvalues ---    0.16000   0.16000   0.16000   0.16000   0.16000
     Eigenvalues ---    0.16000   0.16000   0.16000   0.16000   0.22465
     Eigenvalues ---    0.24481   0.24991   0.24994   0.24997   0.24999
     Eigenvalues ---    0.24999   0.25000   0.25000   0.31157   0.31369
     Eigenvalues ---    0.38694   0.38896   0.40148   0.42519   0.44167
     Eigenvalues ---    0.47017   0.50628   0.53124   0.55355   0.55435
     Eigenvalues ---    0.55492   0.55509   0.55542   0.55543   0.62386
     Eigenvalues ---    0.62456   0.78955   0.79095   0.86278   0.86469
 RFO step:  Lambda=-2.57625092D-01 EMin= 6.08127944D-03
 Linear search not attempted -- first point.
 Maximum step size (   0.300) exceeded in Quadratic search.
    -- Step size scaled by   0.554
 Iteration  1 RMS(Cart)=  0.03156923 RMS(Int)=  0.00009838
 Iteration  2 RMS(Cart)=  0.00013051 RMS(Int)=  0.00000226
 Iteration  3 RMS(Cart)=  0.00000002 RMS(Int)=  0.00000226
 ITry= 1 IFail=0 DXMaxC= 1.19D-01 DCOld= 1.00D+10 DXMaxT= 3.00D-01 DXLimC= 3.00D+00 Rises=F
 Variable       Old X    -DE/DX   Delta X   Delta X   Delta X     New X
                                 (Linear)    (Quad)   (Total)
    R1        2.68890  -0.00605   0.00000  -0.00518  -0.00518   2.68372
    R2        2.64462   0.00217   0.00000   0.00176   0.00176   2.64638
    R3        2.73368  -0.00300   0.00000  -0.00258  -0.00258   2.73110
    R4        2.70810  -0.00436   0.00000  -0.00397  -0.00397   2.70413
    R5        2.56838   0.00317   0.00000   0.00223   0.00223   2.57061
    R6        2.62248   0.00558   0.00000   0.00414   0.00414   2.62661
    R7        2.85713   0.00821   0.00000   0.00800   0.00800   2.86513
    R8        2.67793  -0.00167   0.00000  -0.00111  -0.00111   2.67682
    R9        2.85314   0.00874   0.00000   0.00848   0.00848   2.86162
   R10        1.75801   0.16920   0.00000   0.10637   0.10637   1.86437
   R11        2.58018   0.01426   0.00000   0.01045   0.01045   2.59064
   R12        1.81518   0.12980   0.00000   0.08867   0.08867   1.90384
   R13        1.81383   0.12992   0.00000   0.08859   0.08859   1.90241
   R14        1.81353   0.12851   0.00000   0.08758   0.08758   1.90111
   R15        1.75748   0.16835   0.00000   0.10575   0.10575   1.86323
   R16        2.34697   0.00285   0.00000   0.00141   0.00141   2.34838
   R17        2.34604  -0.00693   0.00000  -0.00342  -0.00342   2.34262
   R18        1.65107   0.19021   0.00000   0.10052   0.10052   1.75159
   R19        1.65184   0.18586   0.00000   0.09835   0.09835   1.75020
   R20        1.81397   0.13177   0.00000   0.08986   0.08986   1.90384
   R21        1.81353   0.12671   0.00000   0.08636   0.08636   1.89989
   R22        1.81447   0.13032   0.00000   0.08894   0.08894   1.90341
    A1        2.11469   0.00127   0.00000   0.00121   0.00121   2.11590
    A2        2.13499  -0.00584   0.00000  -0.00629  -0.00629   2.12870
    A3        2.03324   0.00458   0.00000   0.00509   0.00509   2.03833
    A4        2.05334   0.00301   0.00000   0.00255   0.00255   2.05589
    A5        2.15184  -0.00408   0.00000  -0.00409  -0.00409   2.14776
    A6        2.07791   0.00108   0.00000   0.00154   0.00154   2.07945
    A7        2.09516   0.00093   0.00000   0.00051   0.00051   2.09567
    A8        2.06733  -0.00346   0.00000  -0.00353  -0.00353   2.06380
    A9        2.12066   0.00254   0.00000   0.00302   0.00302   2.12368
   A10        2.10137  -0.00089   0.00000  -0.00073  -0.00073   2.10065
   A11        2.12153  -0.00085   0.00000  -0.00105  -0.00105   2.12048
   A12        2.06024   0.00175   0.00000   0.00178   0.00178   2.06203
   A13        2.09052  -0.00011   0.00000  -0.00070  -0.00070   2.08982
   A14        2.10357  -0.00151   0.00000  -0.00091  -0.00091   2.10266
   A15        2.08910   0.00163   0.00000   0.00161   0.00161   2.09071
   A16        1.91053   0.00314   0.00000   0.00417   0.00417   1.91470
   A17        1.91165   0.00280   0.00000   0.00373   0.00373   1.91537
   A18        1.91113   0.00034   0.00000   0.00043   0.00043   1.91156
   A19        1.91039  -0.00280   0.00000  -0.00367  -0.00368   1.90671
   A20        1.90950  -0.00184   0.00000  -0.00247  -0.00248   1.90703
   A21        1.91061  -0.00165   0.00000  -0.00220  -0.00221   1.90840
   A22        2.09775  -0.00278   0.00000  -0.00261  -0.00261   2.09514
   A23        2.09241  -0.00233   0.00000  -0.00363  -0.00363   2.08878
   A24        2.09303   0.00511   0.00000   0.00624   0.00624   2.09926
   A25        2.10036  -0.00882   0.00000  -0.00963  -0.00963   2.09073
   A26        2.06568  -0.00119   0.00000  -0.00130  -0.00130   2.06439
   A27        2.11708   0.01003   0.00000   0.01095   0.01095   2.12803
   A28        2.09475  -0.00289   0.00000  -0.00384  -0.00384   2.09091
   A29        2.09433  -0.00030   0.00000  -0.00040  -0.00040   2.09392
   A30        2.09411   0.00320   0.00000   0.00424   0.00424   2.09835
   A31        1.91003   0.00307   0.00000   0.00415   0.00414   1.91417
   A32        1.91090   0.00284   0.00000   0.00372   0.00371   1.91461
   A33        1.91050   0.00241   0.00000   0.00316   0.00316   1.91366
   A34        1.91083  -0.00272   0.00000  -0.00354  -0.00355   1.90728
   A35        1.91019  -0.00238   0.00000  -0.00306  -0.00307   1.90712
   A36        1.91135  -0.00322   0.00000  -0.00443  -0.00443   1.90692
    D1       -0.00560   0.00001   0.00000   0.00001   0.00001  -0.00560
    D2        3.12096   0.00039   0.00000   0.00075   0.00075   3.12171
    D3       -3.12164  -0.00037   0.00000  -0.00068  -0.00068  -3.12232
    D4        0.00493   0.00001   0.00000   0.00006   0.00006   0.00499
    D5       -0.01023   0.00014   0.00000   0.00027   0.00027  -0.00996
    D6        3.13141   0.00019   0.00000   0.00038   0.00038   3.13180
    D7        3.10722   0.00035   0.00000   0.00077   0.00077   3.10799
    D8       -0.03431   0.00040   0.00000   0.00088   0.00088  -0.03344
    D9       -0.03298  -0.00028   0.00000  -0.00060  -0.00060  -0.03358
   D10        3.09623   0.00116   0.00000   0.00238   0.00238   3.09861
   D11        3.13305  -0.00060   0.00000  -0.00122  -0.00122   3.13184
   D12       -0.02092   0.00084   0.00000   0.00176   0.00176  -0.01916
   D13        0.02814  -0.00027   0.00000  -0.00055  -0.00055   0.02759
   D14       -3.12303  -0.00019   0.00000  -0.00040  -0.00040  -3.12343
   D15       -3.09908  -0.00058   0.00000  -0.00120  -0.00120  -3.10029
   D16        0.03293  -0.00051   0.00000  -0.00105  -0.00105   0.03188
   D17       -0.00017   0.00027   0.00000   0.00055   0.00055   0.00039
   D18       -3.14151   0.00023   0.00000   0.00047   0.00047  -3.14104
   D19        3.12620   0.00067   0.00000   0.00131   0.00131   3.12751
   D20       -0.01514   0.00063   0.00000   0.00123   0.00123  -0.01392
   D21       -0.03518   0.00044   0.00000   0.00086   0.00086  -0.03431
   D22        3.09714   0.00068   0.00000   0.00137   0.00137   3.09851
   D23        3.11630   0.00039   0.00000   0.00074   0.00074   3.11704
   D24       -0.03457   0.00064   0.00000   0.00125   0.00125  -0.03332
   D25       -1.23360   0.00015   0.00000   0.00034   0.00034  -1.23325
   D26        2.95516  -0.00014   0.00000  -0.00014  -0.00014   2.95502
   D27        0.85980   0.00059   0.00000   0.00106   0.00107   0.86087
   D28        1.89827   0.00022   0.00000   0.00048   0.00048   1.89875
   D29       -0.19616  -0.00007   0.00000  -0.00000  -0.00000  -0.19616
   D30       -2.29152   0.00065   0.00000   0.00120   0.00120  -2.29031
   D31       -3.12315  -0.00027   0.00000  -0.00049  -0.00049  -3.12365
   D32        0.01915  -0.00031   0.00000  -0.00060  -0.00060   0.01855
   D33        0.02739  -0.00049   0.00000  -0.00097  -0.00097   0.02643
   D34       -3.11349  -0.00054   0.00000  -0.00107  -0.00107  -3.11456
   D35        1.14639  -0.00007   0.00000  -0.00020  -0.00020   1.14620
   D36       -0.94826  -0.00028   0.00000  -0.00055  -0.00056  -0.94881
   D37       -3.04354  -0.00020   0.00000  -0.00041  -0.00041  -3.04395
   D38       -2.00426   0.00015   0.00000   0.00028   0.00028  -2.00398
   D39        2.18428  -0.00006   0.00000  -0.00007  -0.00008   2.18420
   D40        0.08899   0.00003   0.00000   0.00007   0.00007   0.08906
   D41        0.00378  -0.00004   0.00000  -0.00002  -0.00002   0.00376
   D42       -3.13787  -0.00009   0.00000  -0.00013  -0.00013  -3.13800
   D43       -3.13710  -0.00008   0.00000  -0.00013  -0.00013  -3.13723
   D44        0.00444  -0.00013   0.00000  -0.00023  -0.00023   0.00420
         Item               Value     Threshold  Converged?
 Maximum Force            0.190205     0.000450     NO 
 RMS     Force            0.047412     0.000300     NO 
 Maximum Displacement     0.118735     0.001800     NO 
 RMS     Displacement     0.031579     0.001200     NO 
 Predicted change in Energy=-1.148027D-01
 Lowest energy point so far.  Saving SCF results.
 GradGradGradGradGradGradGradGradGradGradGradGradGradGradGradGradGradGrad

 Leave Link  103 at Fri Aug 20 15:37:58 2021, MaxMem= 24159191040 cpu:         5.8
 (Enter /public/home/users/caep010/software/Gaussian09/g09/l202.exe)
                          Input orientation:                          
 ---------------------------------------------------------------------
 Center     Atomic      Atomic             Coordinates (Angstroms)
 Number     Number       Type             X           Y           Z
 ---------------------------------------------------------------------
      1          6           0        5.129118    6.992060   -0.924113
      2          6           0        5.116461    7.053878   -2.342876
      3          6           0        5.053926    5.819488   -3.064011
      4          6           0        4.974753    4.614255   -2.376197
      5          6           0        4.997227    4.595364   -0.959988
      6          1           0        4.955817    3.733663   -0.481340
      7          6           0        4.851581    3.293328   -3.106327
      8          1           0        5.691853    3.116911   -3.633413
      9          1           0        4.065865    3.324209   -3.734952
     10          6           0        5.075365    5.765631   -0.250231
     11          1           0        5.093875    5.748973    0.735432
     12          7           0        5.167128    8.183295   -0.106667
     13          8           0        5.225930    9.301013   -0.646642
     14          8           0        5.129235    8.051613    1.125400
     15          7           0        5.144535    8.224690   -3.034866
     16          1           0        5.173709    9.029948   -2.576766
     17          1           0        5.134331    8.215195   -3.960925
     18          6           0        5.064110    5.872330   -4.579218
     19          1           0        4.189272    6.245495   -4.911480
     20          1           0        4.716108    2.552087   -2.439772
     21          1           0        5.192210    4.946544   -4.949752
     22          1           0        5.817691    6.462728   -4.892395
 ---------------------------------------------------------------------
                    Distance matrix (angstroms):
                    1          2          3          4          5
     1  C    0.000000
     2  C    1.420166   0.000000
     3  C    2.441258   1.430966   0.000000
     4  C    2.790400   2.443962   1.389943   0.000000
     5  C    2.400591   2.823276   2.434873   1.416513   0.000000
     6  H    3.292906   3.809849   3.321217   2.089565   0.986584
     7  C    4.303453   3.846395   2.534604   1.514303   2.514614
     8  H    4.761697   4.182854   2.834624   2.082514   3.132974
     9  H    4.741778   4.117288   2.766378   2.082430   3.191190
    10  C    1.400405   2.457729   2.814376   2.419817   1.370907
    11  H    2.073788   3.343541   3.800307   3.314213   2.052950
    12  N    1.445235   2.505750   3.787649   4.233890   3.691920
    13  O    2.327579   2.817589   4.241966   5.002014   4.721612
    14  O    2.307196   3.608958   4.747548   4.909223   4.038803
    15  N    2.444359   1.360308   2.407084   3.673950   4.183160
    16  H    2.624164   1.990687   3.249432   4.424721   4.723416
    17  H    3.273884   1.991748   2.559362   3.937461   4.703998
    18  C    3.823325   2.529826   1.516162   2.538511   3.838481
    19  H    4.164104   2.847962   2.083807   3.115378   4.357753
    20  H    4.709688   4.520597   3.343607   2.079297   2.538458
    21  H    4.515959   3.352968   2.082588   2.604014   4.009933
    22  H    4.062214   2.709470   2.083286   3.233984   4.429902
                    6          7          8          9         10
     6  H    0.000000
     7  C    2.663704   0.000000
     8  H    3.295102   1.007471   0.000000
     9  H    3.397891   1.006714   1.642291   0.000000
    10  C    2.048560   3.784131   4.340702   4.372975   0.000000
    11  H    2.358192   4.565963   5.135381   5.188509   0.985978
    12  N    4.470376   5.745374   6.195283   6.163437   2.423661
    13  O    5.576349   6.502497   6.883386   6.826829   3.560721
    14  O    4.610464   6.373844   6.878526   6.863099   2.668516
    15  N    5.169665   4.940573   5.171771   5.066396   3.715635
    16  H    5.699906   5.770010   6.029012   5.926565   4.009763
    17  H    5.676576   5.003505   5.139124   5.011430   4.446694
    18  C    4.623660   2.977554   2.980091   2.863948   4.330316
    19  H    5.150051   3.523140   3.698545   3.151723   4.768927
    20  H    2.299792   1.006025   1.641914   1.642096   3.905128
    21  H    4.636126   2.499473   2.308668   2.318698   4.771797
    22  H    5.258139   3.764107   3.577061   3.776092   4.752544
                   11         12         13         14         15
    11  H    0.000000
    12  N    2.576901   0.000000
    13  O    3.813732   1.242708   0.000000
    14  O    2.335696   1.239663   2.170365   0.000000
    15  N    4.510752   2.928579   2.620823   4.163893   0.000000
    16  H    4.662813   2.611179   1.949764   3.829510   0.926903
    17  H    5.304683   3.854530   3.488820   5.088958   0.926164
    18  C    5.316165   5.035364   5.219885   6.107060   2.815153
    19  H    5.740423   5.272334   5.347868   6.370990   2.889882
    20  H    4.521583   6.112063   7.001660   6.567032   5.719800
    21  H    5.742375   5.825175   6.122033   6.822967   3.796749
    22  H    5.718897   5.127063   5.141250   6.261978   2.647274
                   16         17         18         19         20
    16  H    0.000000
    17  H    1.606633   0.000000
    18  C    3.740639   2.424094   0.000000
    19  H    3.764730   2.382522   1.007467   0.000000
    20  H    6.495449   5.878743   3.965142   4.475283   0.000000
    21  H    4.722880   3.415437   1.005378   1.641530   3.501442
    22  H    3.516741   2.098989   1.007241   1.642955   4.745730
                   21         22
    21  H    0.000000
    22  H    1.641137   0.000000
 Stoichiometry    C8H10N2O2
 Framework group  C1[X(C8H10N2O2)]
 Deg. of freedom    60
 Full point group                 C1      NOp   1
 RotChk:  IX=0 Diff= 6.40D-03
 Largest Abelian subgroup         C1      NOp   1
 Largest concise Abelian subgroup C1      NOp   1
                         Standard orientation:                         
 ---------------------------------------------------------------------
 Center     Atomic      Atomic             Coordinates (Angstroms)
 Number     Number       Type             X           Y           Z
 ---------------------------------------------------------------------
      1          6           0        0.917758   -0.325897   -0.025556
      2          6           0        0.067429    0.811475   -0.011586
      3          6           0       -1.345970    0.587993   -0.016461
      4          6           0       -1.846146   -0.708746   -0.001179
      5          6           0       -0.963823   -1.816696   -0.022650
      6          1           0       -1.329084   -2.733164   -0.026917
      7          6           0       -3.334729   -0.981931    0.049834
      8          1           0       -3.768911   -0.657556   -0.799439
      9          1           0       -3.741937   -0.501445    0.835192
     10          6           0        0.393457   -1.624402   -0.036817
     11          1           0        1.004951   -2.397644   -0.054813
     12          7           0        2.357677   -0.205074    0.001624
     13          8           0        2.882846    0.921213    0.002191
     14          8           0        3.033719   -1.243666    0.034117
     15          7           0        0.536175    2.088020    0.022304
     16          1           0        1.449913    2.242980    0.037070
     17          1           0       -0.057479    2.798854    0.030685
     18          6           0       -2.263285    1.795135   -0.025916
     19          1           0       -2.222108    2.259433    0.867238
     20          1           0       -3.491958   -1.970907    0.146228
     21          1           0       -3.208142    1.501387   -0.204080
     22          1           0       -1.972869    2.435478   -0.747132
 ---------------------------------------------------------------------
 Rotational constants (GHZ):      1.7554929      0.7131162      0.5100182
 Leave Link  202 at Fri Aug 20 15:37:58 2021, MaxMem= 24159191040 cpu:         1.0
 (Enter /public/home/users/caep010/software/Gaussian09/g09/l301.exe)
 Standard basis: 6-31G(d,p) (6D, 7F)
 Ernie: Thresh=  0.10000D-02 Tol=  0.10000D-05 Strict=F.
 There are   230 symmetry adapted cartesian basis functions of A   symmetry.
 There are   230 symmetry adapted basis functions of A   symmetry.
   230 basis functions,   406 primitive gaussians,   230 cartesian basis functions
    44 alpha electrons       44 beta electrons
       nuclear repulsion energy       703.4418704209 Hartrees.
 IExCor=  402 DFT=T Ex+Corr=B3LYP ExCW=0 ScaHFX=  0.200000
 ScaDFX=  0.800000  0.720000  1.000000  0.810000 ScalE2=  1.000000  1.000000
 IRadAn=      0 IRanWt=     -1 IRanGd=            0 ICorTp=0 IEmpDi=  4
 NAtoms=   22 NActive=   22 NUniq=   22 SFac= 1.00D+00 NAtFMM=   60 NAOKFM=F Big=F
 Integral buffers will be    131072 words long.
 Raffenetti 2 integral format.
 Two-electron integral symmetry is turned on.
 Leave Link  301 at Fri Aug 20 15:37:58 2021, MaxMem= 24159191040 cpu:         1.7
 (Enter /public/home/users/caep010/software/Gaussian09/g09/l302.exe)
 NPDir=0 NMtPBC=     1 NCelOv=     1 NCel=       1 NClECP=     1 NCelD=      1
         NCelK=      1 NCelE2=     1 NClLst=     1 CellRange=     0.0.
 One-electron integrals computed using PRISM.
 NBasis=   230 RedAO= T EigKep=  2.82D-04  NBF=   230
 NBsUse=   230 1.00D-06 EigRej= -1.00D+00 NBFU=   230
 Precomputing XC quadrature grid using
 IXCGrd= 4 IRadAn=           0 IRanWt=          -1 IRanGd=           0 AccXCQ= 0.00D+00.
 Generated NRdTot=       0 NPtTot=           0 NUsed=           0 NTot=          32
 NSgBfM=   229   229   229   229   229 MxSgAt=    22 MxSgA2=    22.
 Leave Link  302 at Fri Aug 20 15:37:58 2021, MaxMem= 24159191040 cpu:        12.3
 (Enter /public/home/users/caep010/software/Gaussian09/g09/l303.exe)
 DipDrv:  MaxL=1.
 Leave Link  303 at Fri Aug 20 15:37:59 2021, MaxMem= 24159191040 cpu:         0.8
 (Enter /public/home/users/caep010/software/Gaussian09/g09/l401.exe)
 Initial guess from the checkpoint file:  "/public/home/users/caep010/.cache/gau_scr/Gau-214953.chk"
 B after Tr=     0.000000    0.000000   -0.000000
         Rot=    0.999999    0.000056    0.000016    0.001380 Ang=   0.16 deg.
 Guess basis will be translated and rotated to current coordinates.
 JPrj=2 DoOrth=T DoCkMO=T.
 Generating alternative initial guess.
 ExpMin= 1.61D-01 ExpMax= 5.48D+03 ExpMxC= 8.25D+02 IAcc=1 IRadAn=         1 AccDes= 0.00D+00
 Harris functional with IExCor=  402 and IRadAn=       1 diagonalized for initial guess.
 HarFok:  IExCor=  402 AccDes= 0.00D+00 IRadAn=         1 IDoV= 1 UseB2=F ITyADJ=14
 ICtDFT=  3500011 ScaDFX=  1.000000  1.000000  1.000000  1.000000
 FoFCou: FMM=F IPFlag=           0 FMFlag=      100000 FMFlg1=           0
         NFxFlg=           0 DoJE=T BraDBF=F KetDBF=T FulRan=T
         wScrn=  0.000000 ICntrl=     500 IOpCl=  0 I1Cent=   200000004 NGrid=           0
         NMat0=    1 NMatS0=      1 NMatT0=    0 NMatD0=    1 NMtDS0=    0 NMtDT0=    0
 Petite list used in FoFCou.
 Harris En= -570.823117198075    
 Leave Link  401 at Fri Aug 20 15:37:59 2021, MaxMem= 24159191040 cpu:        15.1
 (Enter /public/home/users/caep010/software/Gaussian09/g09/l502.exe)
 Closed shell SCF:
 Using DIIS extrapolation, IDIIS=  1040.
 Integral symmetry usage will be decided dynamically.
 Keep R1 ints in memory in canonical form, NReq=359212317.
 IVT=      186342 IEndB=      186342 NGot= 24159191040 MDV= 23806141804
 LenX= 23806141804 LenY= 23806088463
 Requested convergence on RMS density matrix=1.00D-08 within 128 cycles.
 Requested convergence on MAX density matrix=1.00D-06.
 Requested convergence on             energy=1.00D-06.
 No special actions if energy rises.
 FoFCou: FMM=F IPFlag=           0 FMFlag=           0 FMFlg1=           0
         NFxFlg=           0 DoJE=F BraDBF=F KetDBF=F FulRan=T
         wScrn=  0.000000 ICntrl=     600 IOpCl=  0 I1Cent=           0 NGrid=           0
         NMat0=    1 NMatS0=  26565 NMatT0=    0 NMatD0=    1 NMtDS0=    0 NMtDT0=    0
 Symmetry not used in FoFCou.
 Integral accuracy reduced to 1.0D-05 until final iterations.

 Cycle   1  Pass 0  IDiag  1:
 E= -570.694009927375    
 DIIS: error= 3.07D-03 at cycle   1 NSaved=   1.
 NSaved= 1 IEnMin= 1 EnMin= -570.694009927375     IErMin= 1 ErrMin= 3.07D-03
 ErrMax= 3.07D-03  0.00D+00 EMaxC= 1.00D-01 BMatC= 4.62D-03 BMatP= 4.62D-03
 IDIUse=3 WtCom= 9.69D-01 WtEn= 3.07D-02
 Coeff-Com:  0.100D+01
 Coeff-En:   0.100D+01
 Coeff:      0.100D+01
 Gap=     2.015 Goal=   None    Shift=    0.000
 GapD=    2.015 DampG=2.000 DampE=1.000 DampFc=2.0000 IDamp=-1.
 RMSDP=5.68D-04 MaxDP=1.56D-02              OVMax= 1.87D-02

 Cycle   2  Pass 0  IDiag  1:
[...]
 8,0.01454278,0.00605249,0.00011344,0.00165785,0.00088341,-0.00001940,-
 0.00010765,0.00037882,-0.00003781,0.00035906,0.00014247,0.00009603,0.0
 0035284,0.00013654,-0.00114980,-0.01914144,0.02283593,0.00033360,0.005
 19361,-0.00398684,-0.00527257,-0.12210236,0.85387585,0.01573082,-0.004
 09618,0.00008101,0.00031094,-0.00033560,0.00043870,-0.00057148,0.00029
 074,0.00010015,0.00052804,-0.00017575,0.00038161,-0.00083851,-0.000259
 76,-0.00033381,-0.00086045,0.00002765,-0.00001002,0.00005919,0.0000020
 4,-0.00001562,0.00000130,0.00001020,-0.00003608,-0.00000927,-0.0000326
 3,0.00001901,0.00475614,0.00014008,-0.00027654,0.00035268,-0.00000480,
 0.00000225,-0.07309442,-0.01524525,0.00614145,0.02910617,-0.00424267,-
 0.07015437,0.00601165,-0.00105327,-0.01257661,0.01502710,0.00038776,0.
 00520637,0.00123207,-0.00014568,-0.00257343,0.00763680,-0.00035308,-0.
 00608022,-0.00639545,0.00000352,-0.00077643,-0.00044858,0.00001343,0.0
 0020259,-0.00055850,0.00006282,-0.00029047,-0.00016632,-0.00010786,-0.
 00028281,-0.00017065,0.00013702,0.00663478,-0.00841047,0.00002936,0.00
 132632,0.00023776,-0.01507197,-0.42312183,0.13908716,0.02106669,0.5023
 2063,0.00051654,0.00438363,0.02622071,0.00084190,0.01225134,-0.0090278
 6,-0.00031085,-0.00425801,-0.00034649,0.00011012,0.00206533,-0.0041320
 8,0.00007615,0.00126468,0.00534796,-0.00003045,-0.00034359,-0.00015807
 ,0.00000344,-0.00008475,0.00016237,-0.00002742,0.00001392,0.00001244,0
 .00003360,0.00001346,0.00001789,-0.00030271,-0.00555896,-0.00257102,-0
 .00006922,-0.00160668,0.00030816,0.00457706,0.10969270,-0.18586882,-0.
 00755406,-0.18504197,0.24783791,0.01694605,-0.00035393,-0.00143519,0.0
 0538325,-0.00049685,0.00004927,-0.00152784,-0.00002041,-0.00006243,0.0
 0001057,0.00001902,-0.00011300,-0.00061490,0.00019898,-0.00009355,-0.0
 0009543,0.00000144,0.00000509,0.00021816,-0.00000840,-0.00002411,-0.00
 001177,-0.00003597,-0.00002836,-0.00001099,0.00001798,0.00002272,0.002
 17595,-0.00064266,-0.00014963,-0.00012238,-0.00014519,-0.00028775,-0.0
 7757858,-0.00241553,0.00053606,0.02475145,-0.00141408,0.00382102,0.029
 60486,-0.00046459,0.00880268,-0.03616808,-0.00081829,-0.00966867,0.003
 81985,0.00009894,0.00049347,-0.00163593,-0.00001855,-0.00049459,-0.000
 90577,0.00016249,0.00209673,-0.00239407,-0.00000623,-0.00012851,0.0000
 7281,-0.00000355,0.00019370,-0.00025898,0.00002843,-0.00015425,-0.0001
 0953,-0.00004652,-0.00015483,-0.00011366,-0.00054293,-0.00879735,-0.00
 273740,-0.00014867,-0.00332064,-0.00552012,-0.00222846,-0.13022246,0.0
 1640741,-0.00126905,-0.00830911,0.09208629,0.00519478,0.14607641,-0.00
 163065,-0.02982514,-0.06465857,-0.00052332,-0.00452922,0.00663579,0.00
 007769,0.00053306,-0.00050498,0.00002171,0.00007499,0.00386513,-0.0003
 1172,-0.00514268,-0.00402873,-0.00000063,-0.00032963,-0.00005347,0.000
 00420,-0.00008751,-0.00021313,-0.00001399,-0.00020762,-0.00006396,-0.0
 0001978,-0.00020736,-0.00005942,0.00074749,0.01389101,-0.00426331,-0.0
 0027938,-0.00468525,0.00097374,0.00139840,0.03158287,-0.53056754,0.002
 07328,0.05721419,-0.05999401,-0.00212465,-0.05749161,0.65425575,0.0053
 9693,0.00343129,0.00495394,-0.04058451,-0.00733051,-0.00238691,0.00921
 794,-0.00793873,0.00026383,0.00484701,0.00196218,-0.00210126,-0.000850
 12,-0.00009441,0.00228735,-0.00037804,0.00003257,-0.00001075,-0.000253
 20,0.00005962,0.00000732,0.00004856,0.00000171,-0.00000867,-0.00001777
 ,-0.00010153,-0.00000328,0.00408690,-0.00189566,-0.00136531,0.00052369
 ,0.00014808,-0.00010501,-0.00088871,-0.00475423,-0.00138216,0.00241161
 ,0.00181548,-0.00258342,-0.00003595,0.00058551,0.00098473,0.03016417,0
 .00060913,0.01535809,0.02684755,-0.02232461,-0.30641262,0.10035444,-0.
 00602972,-0.06814224,0.01366484,0.00001026,0.00958794,-0.01631277,0.00
 005917,0.00130825,0.01308592,0.00003581,0.00007006,0.00018789,0.000034
 76,-0.00084246,0.00131422,0.00006486,-0.00007703,-0.00002723,-0.000056
 84,-0.00003722,0.00000113,-0.00064111,-0.01075172,-0.00481204,0.000055
 37,0.00028777,-0.00054371,-0.00122948,-0.02944252,-0.00480909,0.000260
 14,0.01796686,-0.01317475,0.00007481,0.00517908,0.00034261,0.00578117,
 0.78653297,0.00306533,0.03801983,-0.03485208,0.00747818,0.10729921,-0.
 19908470,-0.00072458,-0.00625766,0.01942259,-0.00038815,-0.00668336,-0
 .00433664,0.00008802,0.00343577,-0.00131692,0.00003408,0.00014533,0.00
 033603,-0.00007737,-0.00118281,0.00092681,-0.00011090,0.00012504,0.000
 09775,0.00013542,0.00010248,0.00011158,-0.00010144,-0.00491611,-0.0027
 6263,0.00007755,0.00124812,-0.00049166,0.00026867,0.00386121,0.0083238
 7,-0.00040504,-0.00632557,-0.01823718,0.00000211,0.00149981,-0.0061485
 5,0.06133869,0.04614842,0.86774939,-0.00058984,-0.00019987,-0.00096613
 ,-0.00368290,-0.00642081,-0.00003806,0.00348053,0.00041978,0.00072449,
 0.00173567,-0.00071217,0.00036967,0.00015712,-0.00003672,-0.00052807,-
 0.00002061,-0.00000139,0.00000008,-0.00035610,-0.00000755,0.00004015,-
 0.00001138,0.00009608,0.00005599,-0.00001623,-0.00007321,-0.00005451,-
 0.00080174,0.00035465,0.00001724,-0.00003114,0.00003823,-0.00000496,-0
 .00239498,0.00141332,0.00052106,-0.00353288,-0.00079360,-0.00003532,0.
 00195637,-0.00042216,0.00001343,-0.00421201,0.02152440,0.00646559,0.01
 352706,-0.00044723,-0.00172503,-0.00335463,0.00105902,-0.03016517,-0.0
 1107254,0.00025361,0.00125404,0.00442792,-0.00029704,-0.00186811,0.000
 51114,0.00003318,-0.00018529,-0.00148261,0.00000489,-0.00000111,-0.000
 00795,-0.00000783,-0.00009807,0.00026649,0.00002939,-0.00000686,-0.000
 00071,-0.00003222,0.00000286,-0.00000532,-0.00007074,0.00065852,-0.000
 47161,-0.00000385,0.00027285,-0.00000600,0.00054906,0.00845506,0.00513
 087,-0.00060748,-0.01087688,-0.00554208,0.00004000,-0.00220071,0.00045
 780,0.00955998,-0.34454783,-0.16503614,-0.00981787,0.36825634,-0.00074
 566,-0.00631126,-0.00526002,-0.00125626,0.00758588,0.02565658,0.000891
 25,0.00959177,-0.00285725,-0.00004022,-0.00191958,0.00527577,-0.000084
 71,-0.00182242,-0.00418568,-0.00001632,-0.00012107,-0.00013067,-0.0000
 1279,0.00031325,-0.00039226,0.00000953,-0.00004751,-0.00003348,-0.0000
 1793,-0.00006047,-0.00003701,0.00026299,0.00366457,-0.00091109,0.00000
 329,0.00045397,0.00003384,0.00133266,0.02880462,-0.00500894,-0.0006790
 9,-0.01921966,0.00242625,-0.00015686,-0.00633277,0.00417936,0.00265883
 ,-0.16221326,-0.17115197,-0.00452050,0.16933136,0.15810963,0.00312627,
 -0.00200608,-0.00088657,-0.00488214,-0.00328772,0.00761844,-0.00137102
 ,0.00144488,-0.00024702,-0.00068956,-0.00056883,0.00048813,-0.00040890
 ,0.00012999,-0.00058636,0.00005102,-0.00000672,0.00001079,0.00022880,-
 0.00005097,0.00002464,-0.00002325,-0.00000350,-0.00001298,0.00001440,0
 .00004429,0.00001368,0.00151595,0.00037402,0.00061006,0.00021812,-0.00
 013271,0.00005708,0.00035664,0.00126031,0.00034078,0.00093399,-0.00034
 747,0.00096546,-0.00096817,-0.00006987,-0.00034463,-0.00630784,0.00167
 971,-0.07676086,-0.00524503,-0.00035093,0.00241546,0.01397507,-0.00031
 552,-0.00512997,0.00150611,0.00559391,0.00680934,0.03222518,-0.0000790
 9,-0.00057960,0.00137016,-0.00006288,0.00025609,-0.00010890,0.00006907
 ,-0.00016679,-0.00000658,-0.00000044,-0.00000301,-0.00010173,0.0000167
 5,0.00012589,-0.00007525,0.00008967,-0.00007941,0.00001474,-0.00009986
 ,-0.00005853,0.00001111,-0.00026416,0.00090658,0.00120454,-0.00007636,
 -0.00040623,0.00017456,-0.00003342,-0.00403386,0.00045446,0.00021435,0
 .00104611,-0.00540234,-0.00001022,0.00093427,-0.00058222,-0.00190462,-
 0.07420669,-0.00526102,-0.00524172,0.01206652,-0.02104328,0.00201778,0
 .06455036,-0.00053411,0.00266117,0.00406405,-0.00147233,0.00467767,-0.
 01601861,0.00019388,-0.00424273,-0.00049321,0.00017942,0.00106586,-0.0
 0153946,0.00001145,-0.00007019,0.00112403,0.00000030,0.00001294,-0.000
 01233,-0.00002085,-0.00008179,0.00005598,0.00002999,-0.00003177,0.0000
 2686,-0.00004533,-0.00002922,0.00000900,-0.00006327,-0.00088294,-0.001
 02190,0.00004390,0.00023626,0.00002269,-0.00020223,-0.00307198,-0.0008
 7721,0.00007955,0.00082875,-0.00232413,0.00006538,0.00034804,0.0006246
 3,-0.06241924,-0.00269511,-0.46125004,-0.00192654,0.00699862,-0.004941
 14,0.06596150,-0.00188321,0.48256613,0.00534870,-0.00053571,-0.0000730
 1,0.00327084,-0.00010960,-0.00176356,-0.07005258,-0.00151291,0.0013608
 4,0.00309638,0.00008470,0.00173056,0.00784734,-0.00076540,0.00014877,0
 .00060785,-0.00002063,0.00009622,-0.00485857,0.00018691,0.00019973,0.0
 0035948,0.00026000,0.00006133,0.00042172,-0.00033310,-0.00003448,-0.00
 107851,-0.00004774,-0.00002354,-0.00070409,0.00005190,-0.00000202,0.00
 001397,-0.00001512,-0.00010198,-0.00000613,0.00003255,-0.00003118,-0.0
 0006646,-0.00001532,-0.00004297,-0.00434882,0.00015311,-0.00032704,-0.
 00010039,0.00008563,-0.00003620,0.00291025,0.00047085,0.00054973,0.530
 96337,-0.00068598,-0.00482053,-0.00141287,-0.00030916,0.00019690,-0.02
 790155,-0.00113458,-0.09024819,0.00140960,-0.00006028,0.00255239,0.029
 32353,-0.00059857,-0.00370857,0.00096876,-0.00002028,0.00006552,0.0013
 6232,0.00037858,0.00008886,0.00198791,0.00038131,-0.00038120,0.0000895
 7,-0.00050775,-0.00015212,-0.00001713,-0.00002892,-0.00159371,0.000893
 17,0.00003349,0.00010129,-0.00008817,-0.00003001,-0.00006202,-0.001080
 37,0.00000452,0.00019897,-0.00059586,0.00000411,-0.00032069,-0.0010646
 5,0.00049584,-0.00224592,-0.00572462,0.00000217,0.00068788,-0.00042454
 ,-0.00043907,-0.00097211,-0.00156460,0.00456538,0.59309642,0.00003541,
 -0.00087318,0.00107636,-0.00067921,-0.01149689,-0.02190027,0.00057647,
 0.00403942,-0.20331907,0.00062790,0.00954304,-0.02024025,0.00023276,0.
 00202014,0.00349960,-0.00001577,-0.00030837,-0.00007393,-0.00005135,-0
 .00071121,-0.00087843,0.00051868,0.00000243,0.00034156,-0.00050545,0.0
 0011733,0.00030268,-0.00009764,-0.00150882,-0.00023858,-0.00001528,-0.
 00004258,-0.00003150,-0.00001880,-0.00025225,-0.00035884,0.00001677,0.
 00021993,-0.00012843,-0.00000330,0.00000557,0.00011931,0.00069220,0.00
 471458,-0.00189866,-0.00018223,0.00050887,-0.00093472,0.00008014,0.000
 72426,0.00104133,0.00046800,0.02424476,0.48461190,-0.00026368,-0.00026
 875,0.00026945,0.00099947,0.00232182,-0.00079999,0.00457941,-0.0025162
 5,-0.00124512,-0.00046020,-0.00086134,0.00083432,-0.00031579,-0.000288
 93,-0.00025723,0.00003640,-0.00001636,0.00000807,0.00014301,0.00007339
 ,0.00008389,-0.00004323,-0.00003205,-0.00002363,-0.00008664,0.00001163
 ,-0.00004499,0.00000066,0.00034662,-0.00002763,0.00005929,-0.00000475,
 0.00001446,0.00000833,0.00026288,-0.00012199,-0.00000400,-0.00014530,0
 .00020963,-0.00000044,-0.00009956,0.00008932,0.00001868,-0.00035866,0.
 00088298,0.00009923,-0.00028827,0.00020901,-0.00093539,-0.00146118,-0.
 00089182,-0.20681208,0.10139373,-0.06750914,0.22387758,0.00035855,0.00
 031834,0.00026692,-0.00055598,-0.00096447,-0.00107921,-0.00091066,-0.0
 0124085,0.00420315,0.00070389,0.00077138,-0.00025375,-0.00011721,-0.00
 005990,0.00076474,-0.00005570,0.00002661,0.00009848,-0.00012007,-0.000
 16467,0.00043126,-0.00021096,0.00046654,-0.00012967,0.00019186,-0.0002
 4764,0.00006970,-0.00001580,-0.00039840,-0.00019011,-0.00002333,0.0000
 0909,0.00001708,-0.00005540,-0.00023540,-0.00028012,0.00000522,0.00010
 766,0.00002662,0.00000751,0.00001466,0.00023156,-0.00033980,0.00067619
 ,-0.00012702,0.00025935,-0.00006815,-0.00020696,-0.00065767,-0.0007309
 4,-0.00066652,0.10102150,-0.11012842,0.03986007,-0.11157260,0.11776869
 ,0.00099168,-0.00000740,0.00050853,0.00033279,0.00377937,-0.00121579,-
 0.02449787,0.01728303,-0.01485386,-0.00110214,-0.00245232,-0.00261580,
 0.00166795,-0.00003468,-0.00095046,0.00017139,0.00002886,-0.00032117,-
 0.00068705,-0.00040669,0.00006557,-0.00012898,0.00027407,0.00015292,0.
 00011283,0.00011584,0.00005122,-0.00023700,0.00086706,-0.00039767,-0.0
 0009114,0.00001727,0.00004128,-0.00007667,0.00060188,0.00001567,0.0000
 1122,-0.00037683,0.00020589,0.00000201,-0.00020474,0.00003769,0.000124
 14,-0.00166237,0.00218968,0.00026533,-0.00016516,0.00000652,-0.0014124
 2,-0.00142823,-0.00042713,-0.07007691,0.04301779,-0.07417193,0.0756228
 5,-0.04770354,0.08375039,0.00004143,-0.00000365,-0.00002345,0.00064291
 ,-0.00007599,0.00012595,0.00097873,-0.00026945,-0.00019646,-0.00160503
 ,-0.00118819,0.00120701,-0.00027144,0.00006478,0.00016865,0.00046954,-
 0.00000998,-0.00010645,-0.04903333,-0.01077449,0.00925884,-0.00048393,
 -0.02080263,0.01750948,0.00255508,0.02088298,-0.01764757,-0.00014925,0
 .00002304,-0.00002232,-0.00005771,0.00000154,-0.00000056,0.00003840,0.
 00002112,0.00001627,-0.00001764,-0.00000038,-0.00000574,-0.00000098,-0
 .00000273,-0.00001820,-0.00013401,-0.00000213,-0.00002416,-0.00010480,
 0.00000155,0.00000711,0.00004686,0.00000450,-0.00002294,0.00050172,-0.
 00001604,-0.00003962,-0.00002365,-0.00015073,-0.00003511,0.04704667,-0
 .00000699,0.00002176,-0.00019818,-0.00008295,-0.00046138,0.00170871,-0
 .00026996,-0.00335915,-0.00394079,-0.00146456,-0.02253269,0.01957844,0
 .00010964,0.00091022,0.00260243,-0.00002839,0.00036999,-0.00145710,-0.
 01074160,-0.19898304,0.13180237,-0.00049152,0.00436084,-0.00383333,0.0
 0078665,0.00156405,-0.00156126,0.00003458,0.00021485,-0.00033971,0.000
 00114,-0.00002667,-0.00000622,0.00000916,0.00029051,0.00020480,0.00000
 047,0.00000437,-0.00008778,-0.00000084,-0.00004011,-0.00024225,0.00000
 562,-0.00052692,-0.00051373,-0.00000420,-0.00005811,0.00016785,-0.0000
 0997,0.00005481,-0.00004243,-0.00002037,0.00014602,-0.00078644,0.00000
 445,-0.00003205,0.00009267,0.01214456,0.21805056,-0.00000018,0.0000374
 1,-0.00001471,-0.00002069,-0.00055400,0.00068720,-0.00015293,-0.002645
 94,-0.00235381,-0.00099567,-0.01388966,0.01099746,-0.00014821,-0.00238
 910,0.00040238,-0.00001452,-0.00030449,-0.00028303,0.00960666,0.136750
 26,-0.16655389,-0.00058671,0.01295505,-0.01178975,0.00247031,0.0130209
 9,-0.01199401,-0.00001603,-0.00011282,0.00033896,0.00000158,0.00004352
 ,-0.00000031,-0.00000016,-0.00008753,-0.00006622,0.00000253,0.00007721
 ,0.00000110,0.00000084,0.00003508,0.00005658,-0.00001145,-0.00012484,-
 0.00014544,-0.00000872,-0.00009229,0.00004243,0.00000747,-0.00009081,-
 0.00003108,0.00004566,-0.00029852,-0.00077230,-0.00000380,0.00016714,0
 .00012537,-0.01016160,-0.14320490,0.18071774,0.00028199,-0.00004757,-0
 .00003858,0.00049136,-0.00003644,0.00010918,-0.00156528,0.00035055,-0.
 00005199,0.00029021,-0.00000130,0.00005426,-0.00009762,0.00000547,-0.0
 0004350,0.00000042,0.00000269,-0.00000224,0.00088132,-0.00014946,0.000
 08171,-0.00020423,0.00073778,-0.00017230,-0.00042243,-0.00084267,0.000
 31492,-0.00001041,0.00001208,0.00002063,0.00003919,-0.00000519,-0.0000
 0293,-0.00000529,0.00002175,0.00001676,-0.00000683,-0.00000842,-0.0000
 0356,-0.00001597,-0.00000034,-0.00001755,0.00073891,-0.00012863,-0.000
 11096,0.00019264,0.00002076,-0.00000436,-0.00128407,-0.00011377,-0.000
 04477,-0.04655110,-0.00503138,-0.00198136,0.00119102,0.02512503,0.0112
 1594,-0.00042529,0.00002453,-0.00001430,0.04588871,0.00000709,0.000063
 22,-0.00010730,-0.00001523,-0.00059863,0.00174448,0.00008183,0.0049727
 0,0.00102256,-0.00010850,-0.00076849,0.00022902,0.00001414,-0.00003206
 ,-0.00020909,0.00000600,0.00008727,-0.00002896,-0.00034373,-0.00185862
 ,0.00221494,-0.00007755,-0.00089322,0.00083454,0.00005516,-0.00080627,
 0.00082228,0.00000627,0.00015135,-0.00004314,-0.00000066,-0.00000895,-
 0.00000667,0.00000700,0.00012483,0.00042177,-0.00000689,-0.00005162,-0
 .00016253,0.00000166,0.00002737,-0.00021379,0.00016456,-0.00008330,-0.
 00043563,-0.00000916,0.00028209,-0.00001583,-0.00012246,0.00063079,-0.
 00014725,-0.00497359,-0.28016783,-0.10573866,-0.00110986,-0.01395413,-
 0.00547760,0.00004043,0.00006942,0.00052042,0.00568648,0.30528350,-0.0
 0013449,-0.00157823,0.00041625,0.00020312,0.00184721,-0.00660245,-0.00
 079733,-0.03055010,-0.01202282,-0.00015106,-0.00187657,0.00092301,-0.0
 0003705,-0.00022067,-0.00002699,0.00000564,0.00006730,0.00002586,0.000
 12172,0.00040570,-0.00022704,-0.00055291,0.00106671,-0.00001331,0.0006
 2557,0.00088864,0.00002348,0.00001953,0.00011187,-0.00006370,0.0000005
 5,0.00006125,0.00001913,-0.00000759,0.00029790,-0.00038482,-0.00000369
 ,-0.00010884,0.00004856,-0.00000195,-0.00021072,-0.00029007,-0.0000360
 3,0.00120118,0.00004281,0.00001924,-0.00018878,0.00012536,0.00011146,-
 0.00033476,-0.00000860,-0.00195998,-0.10124432,-0.09343909,0.00134106,
 0.01057177,0.00435184,-0.00003972,-0.00003457,0.00049995,0.00232444,0.
 10965950,0.10246724,-0.00026031,0.00030515,-0.00027001,0.00076563,-0.0
 0243609,0.00072649,0.00419934,0.00176411,0.00163592,-0.00046786,0.0009
 3711,-0.00083501,-0.00022107,0.00032510,0.00029458,0.00004719,0.000011
 82,-0.00000673,0.00010710,-0.00003994,-0.00005718,-0.00006747,-0.00000
 827,0.00002715,-0.00003161,0.00005884,0.00000924,-0.00004603,-0.000392
 69,0.00002704,0.00005934,-0.00000217,-0.00001313,0.00000843,-0.0002444
 7,0.00010253,-0.00000072,0.00013515,-0.00020099,0.00000322,0.00008665,
 -0.00008274,0.00055659,0.00042850,-0.00080611,-0.00004860,0.00028639,-
 0.00021924,-0.00126201,0.00118636,0.00052834,-0.22076289,-0.09839711,0
 .06785083,-0.02206799,-0.01288702,0.00782716,-0.00001428,0.00000057,-0
 .00000008,0.00059275,0.00069701,-0.00105052,0.23891124,-0.00022977,0.0
 0035435,0.00042040,0.00051113,-0.00040769,-0.00133387,0.00028280,-0.00
 153908,0.00419110,-0.00064294,0.00084318,-0.00036034,0.00008035,-0.000
 12423,0.00077080,0.00006488,0.00002408,0.00009422,0.00011201,-0.000305
 15,0.00040943,-0.00027498,-0.00018411,0.00008916,0.00029479,0.00037643
 ,-0.00009952,-0.00002165,-0.00034849,-0.00023852,0.00001916,0.00000885
 ,0.00002224,0.00003656,-0.00021758,-0.00033612,0.00001130,0.00007911,0
 .00006133,-0.00001622,-0.00000643,0.00028085,0.00031586,0.00034925,0.0
 0057845,-0.00036755,-0.00013487,-0.00017464,0.00110300,-0.00101361,-0.
 00141957,-0.09856304,-0.10233295,0.03571800,0.01460936,0.00806589,-0.0
 0615829,0.00011191,-0.00003728,0.00018783,-0.02562195,-0.01246943,0.01
 016854,0.10818499,0.10901977,-0.00085556,0.00018804,0.00057908,0.00041
 493,0.00384681,-0.00116530,0.02572138,0.01621792,-0.01426161,0.0008911
 4,-0.00243600,-0.00305302,-0.00161523,0.00029792,-0.00084918,-0.000172
 74,0.00004328,-0.00034289,0.00056262,-0.00055420,0.00003302,-0.0001112
 2,0.00010480,0.00005461,0.00018396,0.00022290,0.00015651,0.00032396,0.
 00076905,-0.00039195,0.00008170,0.00000513,0.00004010,0.00012541,0.000
 51214,-0.00001972,-0.00003357,-0.00034978,0.00019884,-0.00002371,-0.00
 019148,0.00009779,-0.00089752,-0.00148760,0.00247595,-0.00022724,-0.00
 020726,-0.00001149,0.00154573,-0.00136679,-0.00058986,0.06981204,0.038
 11979,-0.07260674,-0.00863970,-0.00607159,0.00345124,0.00005058,0.0000
 9142,0.00013538,-0.01164943,-0.00488304,0.00413541,-0.07548753,-0.0428
 7148,0.08193380\\0.00000041,-0.00000183,0.00000233,0.00000221,-0.00001
 054,0.00000667,-0.00000143,-0.00000035,-0.00000293,-0.00000075,-0.0000
 0347,-0.00001113,-0.00000053,-0.00000311,0.00000197,0.00000249,-0.0000
 0246,-0.00000196,-0.00000054,0.00000294,-0.00000266,-0.00000215,0.0000
 0339,-0.00000248,0.00000161,0.00000421,-0.00000097,0.00000403,0.000001
 90,0.00000331,0.00000035,-0.00000248,0.00000144,0.00000198,-0.00000108
 ,0.00000383,0.00000140,-0.00000285,0.00000450,-0.00000172,-0.00001019,
 -0.00000247,-0.00000877,0.00000325,0.00000016,0.00000612,0.00001174,0.
 00000621,-0.00000005,0.00000174,-0.00000941,0.00000266,0.00000372,0.00
 000089,-0.00000021,0.00000348,0.00000266,0.00000011,0.00000183,-0.0000
 0355,-0.00000074,0.00000067,0.00000092,-0.00000648,-0.00000052,0.00000
 268\\\@


 THE UNDERLYING PHYSICAL LAWS NECESSARY FOR THE 
 MATHEMATICAL THEORY OF A LARGE PART OF PHYSICS AND THE
 WHOLE OF CHEMISTRY ARE THUS COMPLETELY KNOWN, AND THE
 DIFFICULTY IS ONLY THAT THE EXACT APPLICATION OF THESE
 LAWS LEADS TO EQUATIONS MUCH TOO COMPLICATED 
 TO BE SOLUBLE.

                                        -- P. A. M. DIRAC, 1929
 Job cpu time:       0 days  0 hours 17 minutes 15.7 seconds.
 File lengths (MBytes):  RWF=    135 Int=      0 D2E=      0 Chk=      5 Scr=      1
 Normal termination of Gaussian 09 at Fri Aug 20 15:44:31 2021.
