 Entering Gaussian System, Link 0=g09
 Input=B3LYP6-31G.VIKWAN.gjf
 Output=B3LYP6-31G.VIKWAN.log
 Initial command:
 /public/home/users/caep010/software/Gaussian09/g09/l1.exe "/public/home/users/caep010/.cache/gau_scr/Gau-81248.inp" -scrdir="/public/home/users/caep010/.cache/gau_scr/"
 Entering Link 1 = /public/home/users/caep010/software/Gaussian09/g09/l1.exe PID=     81249.
  
 Copyright (c) 1988,1990,1992,1993,1995,1998,2003,2009,2015,
            Gaussian, Inc.  All Rights Reserved.
  
 This is part of the Gaussian(R) 09 program.  It is based on
 the Gaussian(R) 03 system (copyright 2003, Gaussian, Inc.),
 the Gaussian(R) 98 system (copyright 1998, Gaussian, Inc.),
 the Gaussian(R) 94 system (copyright 1995, Gaussian, Inc.),
 the Gaussian 92(TM) system (copyright 1992, Gaussian, Inc.),
 the Gaussian 90(TM) system (copyright 1990, Gaussian, Inc.),
 the Gaussian 88(TM) system (copyright 1988, Gaussian, Inc.),
 the Gaussian 86(TM) system (copyright 1986, Carnegie Mellon
 University), and the Gaussian 82(TM) system (copyright 1983,
 Carnegie Mellon University). Gaussian is a federally registered
 trademark of Gaussian, Inc.
  
 This software contains proprietary and confidential information,
 including trade secrets, belonging to Gaussian, Inc.
  
 This software is provided under written license and may be
 used, copied, transmitted, or stored only in accord with that
 written license.
  
 The following legend is applicable only to US Government
 contracts under FAR:
  
                    RESTRICTED RIGHTS LEGEND
  
 Use, reproduction and disclosure by the US Government is
 subject to restrictions as set forth in subparagraphs (a)
 and (c) of the Commercial Computer Software - Restricted
 Rights clause in FAR 52.227-19.
  
 Gaussian, Inc.
 340 Quinnipiac St., Bldg. 40, Wallingford CT 06492
  
  
 ---------------------------------------------------------------
 Warning -- This program may not be used in any manner that
 competes with the business of Gaussian, Inc. or will provide
 assistance to any competitor of Gaussian, Inc.  The licensee
 of this program is prohibited from giving any competitor of
 Gaussian, Inc. access to this program.  By using this program,
 the user acknowledges that Gaussian, Inc. is engaged in the
 business of creating and licensing software in the field of
 computational chemistry and represents and warrants to the
 licensee that it is not a competitor of Gaussian, Inc. and that
 it will not use this program in any manner prohibited above.
 ---------------------------------------------------------------
  

 Cite this work as:
 Gaussian 09, Revision E.01,
 M. J. Frisch, G. W. Trucks, H. B. Schlegel, G. E. Scuseria, 
 M. A. Robb, J. R. Cheeseman, G. Scalmani, V. Barone, B. Mennucci, 
 G. A. Petersson, H. Nakatsuji, M. Caricato, X. Li, H. P. Hratchian, 
 A. F. Izmaylov, J. Bloino, G. Zheng, J. L. Sonnenberg, M. Hada, 
 M. Ehara, K. Toyota, R. Fukuda, J. Hasegawa, M. Ishida, T. Nakajima, 
 Y. Honda, O. Kitao, H. Nakai, T. Vreven, J. A. Montgomery, Jr., 
 J. E. Peralta, F. Ogliaro, M. Bearpark, J. J. Heyd, E. Brothers, 
 K. N. Kudin, V. N. Staroverov, T. Keith, R. Kobayashi, J. Normand, 
 K. Raghavachari, A. Rendell, J. C. Burant, S. S. Iyengar, J. Tomasi, 
 M. Cossi, N. Rega, J. M. Millam, M. Klene, J. E. Knox, J. B. Cross, 
 V. Bakken, C. Adamo, J. Jaramillo, R. Gomperts, R. E. Stratmann, 
 O. Yazyev, A. J. Austin, R. Cammi, C. Pomelli, J. W. Ochterski, 
 R. L. Martin, K. Morokuma, V. G. Zakrzewski, G. A. Voth, 
 P. Salvador, J. J. Dannenberg, S. Dapprich, A. D. Daniels, 
 O. Farkas, J. B. Foresman, J. V. Ortiz, J. Cioslowski, 
 and D. J. Fox, Gaussian, Inc., Wallingford CT, 2013.
 
 ******************************************
 Gaussian 09:  ES64L-G09RevE.01 30-Nov-2015
                20-Aug-2021 
 ******************************************
 %nproc=32
 Will use up to   32 processors via shared memory.
 %mem=180GB
 -------------------------
 #P OPT Freq B3LYP/6-31G**
 -------------------------
 1/14=-1,18=20,19=15,26=3,38=1/1,3;
 2/9=110,12=2,17=6,18=5,40=1/2;
 3/5=1,6=6,7=101,11=2,16=1,25=1,30=1,71=1,74=-5/1,2,3;
 4//1;
 5/5=2,38=5/2;
 6/7=2,8=2,9=2,10=2,28=1/1;
 7//1,2,3,16;
 1/14=-1,18=20,19=15,26=3/3(2);
 2/9=110/2;
 99//99;
 2/9=110/2;
 3/5=1,6=6,7=101,11=2,16=1,25=1,30=1,71=1,74=-5/1,2,3;
 4/5=5,16=3,69=1/1;
 5/5=2,38=5/2;
 7//1,2,3,16;
 1/14=-1,18=20,19=15,26=3/3(-5);
 2/9=110/2;
 6/7=2,8=2,9=2,10=2,19=2,28=1/1;
 99/9=1/99;
 Leave Link    1 at Fri Aug 20 15:47:43 2021, MaxMem= 24159191040 cpu:         2.2
 (Enter /public/home/users/caep010/software/Gaussian09/g09/l101.exe)
 ------
 VIKWAN
 ------
 Symbolic Z-matrix:
 Charge =  0 Multiplicity = 1
 C                     6.7663    2.4738    8.6702 
 C                     7.9622    2.0062    9.4721 
 C                     7.0389    3.0867    10.0241 
 C                     7.5294    4.521     10.0951 
 C                     6.9245    3.2254    7.3578 
 C                     6.1435    2.7486    11.1961 
 C                     7.993     0.6445    10.1258 
 C                     9.3252    2.4067    8.9473 
 N                     5.5665    1.5964    8.5186 
 O                     5.6938    0.4489    8.2382 
 N                     7.4976    2.5269    6.3901 
 O                     4.478     2.0929    8.6939 
 O                     6.5196    4.3757    7.2267 
 H                     6.7355    2.7383    12.049 
 H                     5.8003    1.8628    11.1942 
 H                     5.4819    3.4276    11.2608 
 H                     8.0587    4.7501    9.3221 
 H                     6.7454    5.132     10.191 
 H                     8.0089    4.5918    10.906 
 H                     8.387     0.0279    9.502 
 H                     7.0538    0.3074    10.3629 
 H                     8.5462    0.6986    10.9078 
 H                     9.3123    3.2692    8.4907 
 H                     9.6903    1.6858    8.335 
 H                     9.9391    2.4868    9.7514 
 H                     7.7304    1.6858    6.5116 
 H                     7.7005    2.8873    5.6587 
 
 NAtoms=     27 NQM=       27 NQMF=       0 NMMI=      0 NMMIF=      0
                NMic=       0 NMicF=      0.
                    Isotopes and Nuclear Properties:
 (Nuclear quadrupole moments (NQMom) in fm**2, nuclear magnetic moments (NMagM)
  in nuclear magnetons)

  Atom         1           2           3           4           5           6           7           8           9          10
 IAtWgt=          12          12          12          12          12          12          12          12          14          16
 AtmWgt=  12.0000000  12.0000000  12.0000000  12.0000000  12.0000000  12.0000000  12.0000000  12.0000000  14.0030740  15.9949146
 NucSpn=           0           0           0           0           0           0           0           0           2           0
 AtZEff=   0.0000000   0.0000000   0.0000000   0.0000000   0.0000000   0.0000000   0.0000000   0.0000000   0.0000000   0.0000000
 NQMom=    0.0000000   0.0000000   0.0000000   0.0000000   0.0000000   0.0000000   0.0000000   0.0000000   2.0440000   0.0000000
 NMagM=    0.0000000   0.0000000   0.0000000   0.0000000   0.0000000   0.0000000   0.0000000   0.0000000   0.4037610   0.0000000
 AtZNuc=   6.0000000   6.0000000   6.0000000   6.0000000   6.0000000   6.0000000   6.0000000   6.0000000   7.0000000   8.0000000

  Atom        11          12          13          14          15          16          17          18          19          20
 IAtWgt=          14          16          16           1           1           1           1           1           1           1
 AtmWgt=  14.0030740  15.9949146  15.9949146   1.0078250   1.0078250   1.0078250   1.0078250   1.0078250   1.0078250   1.0078250
 NucSpn=           2           0           0           1           1           1           1           1           1           1
 AtZEff=   0.0000000   0.0000000   0.0000000   0.0000000   0.0000000   0.0000000   0.0000000   0.0000000   0.0000000   0.0000000
 NQMom=    2.0440000   0.0000000   0.0000000   0.0000000   0.0000000   0.0000000   0.0000000   0.0000000   0.0000000   0.0000000
 NMagM=    0.4037610   0.0000000   0.0000000   2.7928460   2.7928460   2.7928460   2.7928460   2.7928460   2.7928460   2.7928460
 AtZNuc=   7.0000000   8.0000000   8.0000000   1.0000000   1.0000000   1.0000000   1.0000000   1.0000000   1.0000000   1.0000000

  Atom        21          22          23          24          25          26          27
 IAtWgt=           1           1           1           1           1           1           1
 AtmWgt=   1.0078250   1.0078250   1.0078250   1.0078250   1.0078250   1.0078250   1.0078250
 NucSpn=           1           1           1           1           1           1           1
 AtZEff=   0.0000000   0.0000000   0.0000000   0.0000000   0.0000000   0.0000000   0.0000000
 NQMom=    0.0000000   0.0000000   0.0000000   0.0000000   0.0000000   0.0000000   0.0000000
 NMagM=    2.7928460   2.7928460   2.7928460   2.7928460   2.7928460   2.7928460   2.7928460
 AtZNuc=   1.0000000   1.0000000   1.0000000   1.0000000   1.0000000   1.0000000   1.0000000
 Leave Link  101 at Fri Aug 20 15:47:43 2021, MaxMem= 24159191040 cpu:        10.7
 (Enter /public/home/users/caep010/software/Gaussian09/g09/l103.exe)

 GradGradGradGradGradGradGradGradGradGradGradGradGradGradGradGradGradGrad
 Berny optimization.
 Initialization pass.
                           ----------------------------
                           !    Initial Parameters    !
                           ! (Angstroms and Degrees)  !
 --------------------------                            --------------------------
 ! Name  Definition              Value          Derivative Info.                !
 --------------------------------------------------------------------------------
 ! R1    R(1,2)                  1.5139         estimate D2E/DX2                !
 ! R2    R(1,3)                  1.511          estimate D2E/DX2                !
 ! R3    R(1,5)                  1.5206         estimate D2E/DX2                !
 ! R4    R(1,9)                  1.4941         estimate D2E/DX2                !
 ! R5    R(2,3)                  1.5247         estimate D2E/DX2                !
 ! R6    R(2,7)                  1.5108         estimate D2E/DX2                !
 ! R7    R(2,8)                  1.5145         estimate D2E/DX2                !
 ! R8    R(3,4)                  1.5175         estimate D2E/DX2                !
 ! R9    R(3,6)                  1.5132         estimate D2E/DX2                !
 ! R10   R(4,17)                 0.9645         estimate D2E/DX2                !
 ! R11   R(4,18)                 0.9986         estimate D2E/DX2                !
 ! R12   R(4,19)                 0.9447         estimate D2E/DX2                !
 ! R13   R(5,11)                 1.3239         estimate D2E/DX2                !
 ! R14   R(5,13)                 1.2265         estimate D2E/DX2                !
 ! R15   R(6,14)                 1.0383         estimate D2E/DX2                !
 ! R16   R(6,15)                 0.95           estimate D2E/DX2                !
 ! R17   R(6,16)                 0.9502         estimate D2E/DX2                !
 ! R18   R(7,20)                 0.9615         estimate D2E/DX2                !
 ! R19   R(7,21)                 1.0256         estimate D2E/DX2                !
 ! R20   R(7,22)                 0.9594         estimate D2E/DX2                !
 ! R21   R(8,23)                 0.976          estimate D2E/DX2                !
 ! R22   R(8,24)                 1.0139         estimate D2E/DX2                !
 ! R23   R(8,25)                 1.0148         estimate D2E/DX2                !
 ! R24   R(9,10)                 1.1881         estimate D2E/DX2                !
 ! R25   R(9,12)                 1.2092         estimate D2E/DX2                !
 ! R26   R(11,26)                0.8811         estimate D2E/DX2                !
 ! R27   R(11,27)                0.8402         estimate D2E/DX2                !
 ! A1    A(2,1,5)              121.8463         estimate D2E/DX2                !
 ! A2    A(2,1,9)              120.4451         estimate D2E/DX2                !
 ! A3    A(3,1,5)              123.6478         estimate D2E/DX2                !
 ! A4    A(3,1,9)              118.2945         estimate D2E/DX2                !
 ! A5    A(5,1,9)              106.6322         estimate D2E/DX2                !
 ! A6    A(1,2,7)              121.5799         estimate D2E/DX2                !
 ! A7    A(1,2,8)              116.469          estimate D2E/DX2                !
 ! A8    A(3,2,7)              119.6321         estimate D2E/DX2                !
 ! A9    A(3,2,8)              118.8851         estimate D2E/DX2                !
 ! A10   A(7,2,8)              111.7121         estimate D2E/DX2                !
 ! A11   A(1,3,4)              118.9228         estimate D2E/DX2                !
 ! A12   A(1,3,6)              119.7776         estimate D2E/DX2                !
 ! A13   A(2,3,4)              119.4072         estimate D2E/DX2                !
 ! A14   A(2,3,6)              118.7123         estimate D2E/DX2                !
 ! A15   A(4,3,6)              111.4825         estimate D2E/DX2                !
 ! A16   A(3,4,17)             111.3711         estimate D2E/DX2                !
 ! A17   A(3,4,18)             109.2104         estimate D2E/DX2                !
 ! A18   A(3,4,19)             105.965          estimate D2E/DX2                !
 ! A19   A(17,4,18)            111.2539         estimate D2E/DX2                !
 ! A20   A(17,4,19)            113.0544         estimate D2E/DX2                !
 ! A21   A(18,4,19)            105.6763         estimate D2E/DX2                !
 ! A22   A(1,5,11)             114.5255         estimate D2E/DX2                !
 ! A23   A(1,5,13)             121.4305         estimate D2E/DX2                !
 ! A24   A(11,5,13)            124.0274         estimate D2E/DX2                !
 ! A25   A(3,6,14)             107.522          estimate D2E/DX2                !
 ! A26   A(3,6,15)             114.8714         estimate D2E/DX2                !
 ! A27   A(3,6,16)             107.7628         estimate D2E/DX2                !
 ! A28   A(14,6,15)            101.4425         estimate D2E/DX2                !
 ! A29   A(14,6,16)            110.3738         estimate D2E/DX2                !
 ! A30   A(15,6,16)            114.5127         estimate D2E/DX2                !
 ! A31   A(2,7,20)             107.7959         estimate D2E/DX2                !
 ! A32   A(2,7,21)             112.1846         estimate D2E/DX2                !
 ! A33   A(2,7,22)             108.2766         estimate D2E/DX2                !
 ! A34   A(20,7,21)            108.3265         estimate D2E/DX2                !
 ! A35   A(20,7,22)            109.1884         estimate D2E/DX2                !
 ! A36   A(21,7,22)            110.9843         estimate D2E/DX2                !
 ! A37   A(2,8,23)             112.5768         estimate D2E/DX2                !
 ! A38   A(2,8,24)             110.2024         estimate D2E/DX2                !
 ! A39   A(2,8,25)             106.902          estimate D2E/DX2                !
 ! A40   A(23,8,24)            110.5232         estimate D2E/DX2                !
 ! A41   A(23,8,25)            107.995          estimate D2E/DX2                !
 ! A42   A(24,8,25)            108.47           estimate D2E/DX2                !
 ! A43   A(1,9,10)             120.3367         estimate D2E/DX2                !
 ! A44   A(1,9,12)             117.843          estimate D2E/DX2                !
 ! A45   A(10,9,12)            121.8199         estimate D2E/DX2                !
 ! A46   A(5,11,26)            121.1447         estimate D2E/DX2                !
 ! A47   A(5,11,27)            120.9628         estimate D2E/DX2                !
 ! A48   A(26,11,27)           117.7532         estimate D2E/DX2                !
 ! D1    D(5,1,2,7)           -138.3198         estimate D2E/DX2                !
 ! D2    D(5,1,2,8)              3.9757         estimate D2E/DX2                !
 ! D3    D(9,1,2,7)              0.7862         estimate D2E/DX2                !
 ! D4    D(9,1,2,8)            143.0817         estimate D2E/DX2                !
 ! D5    D(5,1,3,4)             -1.4811         estimate D2E/DX2                !
 ! D6    D(5,1,3,6)            141.4788         estimate D2E/DX2                !
 ! D7    D(9,1,3,4)           -139.9672         estimate D2E/DX2                !
 ! D8    D(9,1,3,6)              2.9927         estimate D2E/DX2                !
 ! D9    D(2,1,5,11)            64.1663         estimate D2E/DX2                !
 ! D10   D(2,1,5,13)          -117.2549         estimate D2E/DX2                !
 ! D11   D(3,1,5,11)           137.7793         estimate D2E/DX2                !
 ! D12   D(3,1,5,13)           -43.642          estimate D2E/DX2                !
 ! D13   D(9,1,5,11)           -79.7449         estimate D2E/DX2                !
 ! D14   D(9,1,5,13)            98.8338         estimate D2E/DX2                !
 ! D15   D(2,1,9,10)           -46.3198         estimate D2E/DX2                !
 ! D16   D(2,1,9,12)           133.4748         estimate D2E/DX2                !
 ! D17   D(3,1,9,10)          -116.9573         estimate D2E/DX2                !
 ! D18   D(3,1,9,12)            62.8373         estimate D2E/DX2                !
 ! D19   D(5,1,9,10)            98.2017         estimate D2E/DX2                !
 ! D20   D(5,1,9,12)           -82.0037         estimate D2E/DX2                !
 ! D21   D(7,2,3,4)            140.262          estimate D2E/DX2                !
 ! D22   D(7,2,3,6)             -1.7422         estimate D2E/DX2                !
 ! D23   D(8,2,3,4)             -2.8575         estimate D2E/DX2                !
 ! D24   D(8,2,3,6)           -144.8618         estimate D2E/DX2                !
 ! D25   D(1,2,7,20)            91.2762         estimate D2E/DX2                !
 ! D26   D(1,2,7,21)           -27.9019         estimate D2E/DX2                !
 ! D27   D(1,2,7,22)          -150.7193         estimate D2E/DX2                !
 ! D28   D(3,2,7,20)           161.8273         estimate D2E/DX2                !
 ! D29   D(3,2,7,21)            42.6493         estimate D2E/DX2                !
 ! D30   D(3,2,7,22)           -80.1681         estimate D2E/DX2                !
 ! D31   D(8,2,7,20)           -52.6174         estimate D2E/DX2                !
 ! D32   D(8,2,7,21)          -171.7954         estimate D2E/DX2                !
 ! D33   D(8,2,7,22)            65.3872         estimate D2E/DX2                !
 ! D34   D(1,2,8,23)            31.823          estimate D2E/DX2                !
 ! D35   D(1,2,8,24)           -92.065          estimate D2E/DX2                !
 ! D36   D(1,2,8,25)           150.2487         estimate D2E/DX2                !
 ! D37   D(3,2,8,23)           -36.4478         estimate D2E/DX2                !
 ! D38   D(3,2,8,24)          -160.3357         estimate D2E/DX2                !
 ! D39   D(3,2,8,25)            81.9779         estimate D2E/DX2                !
 ! D40   D(7,2,8,23)           177.7114         estimate D2E/DX2                !
 ! D41   D(7,2,8,24)            53.8234         estimate D2E/DX2                !
 ! D42   D(7,2,8,25)           -63.8629         estimate D2E/DX2                !
 ! D43   D(1,3,4,17)           -30.9483         estimate D2E/DX2                !
 ! D44   D(1,3,4,18)            92.3207         estimate D2E/DX2                !
 ! D45   D(1,3,4,19)          -154.27           estimate D2E/DX2                !
 ! D46   D(2,3,4,17)            38.7027         estimate D2E/DX2                !
 ! D47   D(2,3,4,18)           161.9717         estimate D2E/DX2                !
 ! D48   D(2,3,4,19)           -84.6189         estimate D2E/DX2                !
 ! D49   D(6,3,4,17)          -176.7632         estimate D2E/DX2                !
 ! D50   D(6,3,4,18)           -53.4941         estimate D2E/DX2                !
 ! D51   D(6,3,4,19)            59.9152         estimate D2E/DX2                !
 ! D52   D(1,3,6,14)           145.9023         estimate D2E/DX2                !
 ! D53   D(1,3,6,15)            33.8368         estimate D2E/DX2                !
 ! D54   D(1,3,6,16)           -95.118          estimate D2E/DX2                !
 ! D55   D(2,3,6,14)            76.1965         estimate D2E/DX2                !
 ! D56   D(2,3,6,15)           -35.869          estimate D2E/DX2                !
 ! D57   D(2,3,6,16)          -164.8238         estimate D2E/DX2                !
 ! D58   D(4,3,6,14)           -68.6113         estimate D2E/DX2                !
 ! D59   D(4,3,6,15)           179.3232         estimate D2E/DX2                !
 ! D60   D(4,3,6,16)            50.3684         estimate D2E/DX2                !
 ! D61   D(1,5,11,26)            2.2972         estimate D2E/DX2                !
 ! D62   D(1,5,11,27)         -173.3158         estimate D2E/DX2                !
 ! D63   D(13,5,11,26)        -176.2395         estimate D2E/DX2                !
 ! D64   D(13,5,11,27)           8.1475         estimate D2E/DX2                !
 --------------------------------------------------------------------------------
 Trust Radius=3.00D-01 FncErr=1.00D-07 GrdErr=1.00D-06
 Number of steps in this run=    149 maximum allowed number of steps=    162.
 GradGradGradGradGradGradGradGradGradGradGradGradGradGradGradGradGradGrad

 Leave Link  103 at Fri Aug 20 15:47:44 2021, MaxMem= 24159191040 cpu:         0.6
 (Enter /public/home/users/caep010/software/Gaussian09/g09/l202.exe)
                          Input orientation:                          
 ---------------------------------------------------------------------
 Center     Atomic      Atomic             Coordinates (Angstroms)
 Number     Number       Type             X           Y           Z
 ---------------------------------------------------------------------
      1          6           0        6.766300    2.473800    8.670200
      2          6           0        7.962200    2.006200    9.472100
      3          6           0        7.038900    3.086700   10.024100
      4          6           0        7.529400    4.521000   10.095100
      5          6           0        6.924500    3.225400    7.357800
      6          6           0        6.143500    2.748600   11.196100
      7          6           0        7.993000    0.644500   10.125800
      8          6           0        9.325200    2.406700    8.947300
      9          7           0        5.566500    1.596400    8.518600
     10          8           0        5.693800    0.448900    8.238200
     11          7           0        7.497600    2.526900    6.390100
     12          8           0        4.478000    2.092900    8.693900
     13          8           0        6.519600    4.375700    7.226700
     14          1           0        6.735500    2.738300   12.049000
     15          1           0        5.800300    1.862800   11.194200
     16          1           0        5.481900    3.427600   11.260800
     17          1           0        8.058700    4.750100    9.322100
     18          1           0        6.745400    5.132000   10.191000
     19          1           0        8.008900    4.591800   10.906000
     20          1           0        8.387000    0.027900    9.502000
     21          1           0        7.053800    0.307400   10.362900
     22          1           0        8.546200    0.698600   10.907800
     23          1           0        9.312300    3.269200    8.490700
     24          1           0        9.690300    1.685800    8.335000
     25          1           0        9.939100    2.486800    9.751400
     26          1           0        7.730400    1.685800    6.511600
     27          1           0        7.700500    2.887300    5.658700
 ---------------------------------------------------------------------
                    Distance matrix (angstroms):
                    1          2          3          4          5
     1  C    0.000000
     2  C    1.513892   0.000000
     3  C    1.510961   1.524686   0.000000
     4  C    2.608388   2.626721   1.517514   0.000000
     5  C    1.520633   2.652081   2.672355   3.088251   0.000000
     6  C    2.616021   2.613619   1.513155   2.504860   3.945864
     7  C    2.640057   1.510794   2.623927   3.904244   3.932501
     8  C    2.574734   1.514458   2.617072   3.002100   2.993349
     9  N    1.494100   2.610838   2.579823   3.858965   2.417698
    10  O    2.331759   3.015515   3.457849   4.837303   3.162069
    11  N    2.395094   3.160017   3.705366   4.207668   1.323929
    12  O    2.319906   3.571101   3.052094   4.143679   3.008834
    13  O    2.400370   3.568956   3.123562   3.044426   1.226508
    14  H    3.389277   2.946384   2.076934   2.761525   4.720206
    15  H    2.770750   2.767671   2.097903   3.356164   4.223561
    16  H    3.044770   3.372197   2.017397   2.597429   4.165980
    17  H    2.697557   2.749691   2.073571   0.964455   2.733056
    18  H    3.062564   3.430458   2.072981   0.998586   3.419682
    19  H    3.320961   2.956954   1.995989   0.944718   3.953820
    20  H    3.049752   2.023616   3.383226   4.612504   4.118314
    21  H    2.764268   2.122413   2.799914   4.248804   4.190712
    22  H    3.365447   2.027833   2.959037   4.037958   4.649422
    23  H    2.673387   2.093104   2.748267   2.705519   2.643288
    24  H    3.046815   2.093318   3.441729   3.975651   3.312844
    25  H    3.351988   2.053562   2.974123   3.172184   3.919523
    26  H    2.491985   2.986796   3.844262   4.573864   1.932847
    27  H    3.180070   3.922607   4.419750   4.730739   1.898270
                    6          7          8          9         10
     6  C    0.000000
     7  C    2.998905   0.000000
     8  C    3.911165   2.503791   0.000000
     9  N    2.971447   3.062206   3.868875   0.000000
    10  O    3.773595   2.981210   4.186033   1.188102   0.000000
    11  N    4.998037   4.212399   3.145448   3.020843   3.314702
    12  O    3.076498   4.062441   4.863952   1.209163   2.094891
    13  O    4.306395   4.949499   3.835208   3.209659   4.138217
    14  H    1.038272   3.108698   4.054263   3.890273   4.566036
    15  H    0.949964   2.726475   4.215366   2.698975   3.278474
    16  H    0.950232   3.916567   4.600595   3.298501   4.248961
    17  H    3.344528   4.184041   2.689985   4.099085   5.026720
    18  H    2.655768   4.658156   3.953406   4.084996   5.181768
    19  H    2.638420   4.023698   3.216180   4.542842   5.444306
    20  H    3.912221   0.961539   2.616601   3.373794   3.004623
    21  H    2.735384   1.025646   3.401506   2.697225   2.526652
    22  H    3.171527   0.959417   2.714407   3.923383   3.914754
    23  H    4.198989   3.362016   0.975990   4.102445   4.594713
    24  H    4.679234   2.678077   1.013857   4.128853   4.184651
    25  H    4.069678   2.705836   1.014823   4.629497   4.946249
    26  H    5.058887   3.770372   2.999286   2.952711   2.942585
    27  H    5.753806   5.007064   3.699394   3.794655   4.077556
                   11         12         13         14         15
    11  N    0.000000
    12  O    3.822805   0.000000
    13  O    2.252653   3.395877   0.000000
    14  H    5.713898   4.095063   5.097281   0.000000
    15  H    5.138213   2.837767   4.751117   1.540059   0.000000
    16  H    5.347712   3.062387   4.271964   1.633373   1.598253
    17  H    3.722106   4.502972   2.626729   3.637881   4.116021
    18  H    4.668960   4.076584   3.067580   3.030192   3.547858
    19  H    4.991853   4.858512   3.975168   2.522590   3.522558
    20  H    4.089004   4.494166   5.250480   4.069512   3.594637
    21  H    4.572338   3.550819   5.164512   2.975487   2.163698
    22  H    4.985164   4.836908   5.583786   2.956577   2.996223
    23  H    2.873441   4.979501   3.259020   4.425297   4.649841
    24  H    3.049265   5.240478   4.303165   4.861316   4.830989
    25  H    4.154620   5.576475   4.651347   3.950351   4.427269
    26  H    0.881140   3.937800   3.035287   5.723668   5.067875
    27  H    0.840240   4.497557   2.463429   6.464469   5.941559
                   16         17         18         19         20
    16  H    0.000000
    17  H    3.485321   0.000000
    18  H    2.376107   1.620368   0.000000
    19  H    2.804813   1.592570   1.549023   0.000000
    20  H    4.805304   4.737016   5.405683   4.789923   0.000000
    21  H    3.607318   4.672330   4.837502   4.423037   1.611425
    22  H    4.118493   4.377985   4.838566   3.930102   1.565713
    23  H    4.729747   2.110877   3.598614   3.046604   3.519223
    24  H    5.413391   3.609213   4.898313   4.228709   2.410210
    25  H    4.798961   2.973673   4.170138   3.080552   2.918459
    26  H    5.535749   4.170926   5.136585   5.275713   3.481702
    27  H    6.049598   4.125389   5.147100   5.525811   4.839257
                   21         22         23         24         25
    21  H    0.000000
    22  H    1.636219   0.000000
    23  H    4.168719   3.610715   0.000000
    24  H    3.600486   2.983761   1.635323   0.000000
    25  H    3.667243   2.544620   1.610712   1.646114   0.000000
    26  H    4.146117   4.578937   2.987708   2.676938   4.002032
    27  H    5.404036   5.749667   3.280849   3.544783   4.682085
                   26         27
    26  H    0.000000
    27  H    1.473749   0.000000
 Stoichiometry    C8H14N2O3
 Framework group  C1[X(C8H14N2O3)]
 Deg. of freedom    75
 Full point group                 C1      NOp   1
 Largest Abelian subgroup         C1      NOp   1
 Largest concise Abelian subgroup C1      NOp   1
                         Standard orientation:                         
 ---------------------------------------------------------------------
 Center     Atomic      Atomic             Coordinates (Angstroms)
 Number     Number       Type             X           Y           Z
 ---------------------------------------------------------------------
      1          6           0       -0.239693    0.078374   -0.050069
      2          6           0        0.906748   -0.386575    0.822494
      3          6           0        1.073764   -0.305354   -0.690839
      4          6           0        1.148242   -1.585684   -1.502045
      5          6           0       -1.517284   -0.733278   -0.196033
      6          6           0        1.971083    0.768420   -1.266569
      7          6           0        1.664820    0.572476    1.710214
      8          6           0        0.753748   -1.747230    1.469635
      9          7           0       -0.642644    1.517004   -0.067589
     10          8           0       -0.768960    2.117241    0.949931
     11          7           0       -2.215259   -0.865148    0.921209
     12          8           0       -0.828304    2.038424   -1.142636
     13          8           0       -1.862557   -1.193234   -1.279338
     14          1           0        2.953635    0.468134   -1.116811
     15          1           0        1.953767    1.595909   -0.800316
     16          1           0        1.783601    0.835428   -2.195710
     17          1           0        0.538545   -2.252034   -1.163781
     18          1           0        0.962235   -1.378362   -2.460999
     19          1           0        2.051463   -1.860847   -1.470916
     20          1           0        1.237119    0.576366    2.571384
     21          1           0        1.656963    1.529678    1.341905
     22          1           0        2.562795    0.248392    1.805569
     23          1           0        0.234825   -2.366399    0.921999
     24          1           0        0.338454   -1.652646    2.389684
     25          1           0        1.687578   -2.129944    1.576209
     26          1           0       -1.956179   -0.477458    1.668860
     27          1           0       -2.889482   -1.365550    0.953198
 ---------------------------------------------------------------------
 Rotational constants (GHZ):      0.9060915      0.8597117      0.7492929
 Leave Link  202 at Fri Aug 20 15:47:44 2021, MaxMem= 24159191040 cpu:         0.4
 (Enter /public/home/users/caep010/software/Gaussian09/g09/l301.exe)
 Standard basis: 6-31G(d,p) (6D, 7F)
 Ernie: Thresh=  0.10000D-02 Tol=  0.10000D-05 Strict=F.
 There are   265 symmetry adapted cartesian basis functions of A   symmetry.
 There are   265 symmetry adapted basis functions of A   symmetry.
   265 basis functions,   462 primitive gaussians,   265 cartesian basis functions
    50 alpha electrons       50 beta electrons
       nuclear repulsion energy       922.5503823825 Hartrees.
 IExCor=  402 DFT=T Ex+Corr=B3LYP ExCW=0 ScaHFX=  0.200000
 ScaDFX=  0.800000  0.720000  1.000000  0.810000 ScalE2=  1.000000  1.000000
 IRadAn=      0 IRanWt=     -1 IRanGd=            0 ICorTp=0 IEmpDi=  4
 NAtoms=   27 NActive=   27 NUniq=   27 SFac= 1.00D+00 NAtFMM=   60 NAOKFM=F Big=F
 Integral buffers will be    131072 words long.
 Raffenetti 2 integral format.
 Two-electron integral symmetry is turned on.
 Leave Link  301 at Fri Aug 20 15:47:44 2021, MaxMem= 24159191040 cpu:         2.0
 (Enter /public/home/users/caep010/software/Gaussian09/g09/l302.exe)
 NPDir=0 NMtPBC=     1 NCelOv=     1 NCel=       1 NClECP=     1 NCelD=      1
         NCelK=      1 NCelE2=     1 NClLst=     1 CellRange=     0.0.
 One-electron integrals computed using PRISM.
 NBasis=   265 RedAO= T EigKep=  1.73D-03  NBF=   265
 NBsUse=   265 1.00D-06 EigRej= -1.00D+00 NBFU=   265
 Precomputing XC quadrature grid using
 IXCGrd= 4 IRadAn=           0 IRanWt=          -1 IRanGd=           0 AccXCQ= 0.00D+00.
 Generated NRdTot=       0 NPtTot=           0 NUsed=           0 NTot=          32
 NSgBfM=   265   265   265   265   265 MxSgAt=    27 MxSgA2=    27.
 Leave Link  302 at Fri Aug 20 15:47:44 2021, MaxMem= 24159191040 cpu:        12.9
 (Enter /public/home/users/caep010/software/Gaussian09/g09/l303.exe)
 DipDrv:  MaxL=1.
 Leave Link  303 at Fri Aug 20 15:47:44 2021, MaxMem= 24159191040 cpu:         0.9
 (Enter /public/home/users/caep010/software/Gaussian09/g09/l401.exe)
 ExpMin= 1.61D-01 ExpMax= 5.48D+03 ExpMxC= 8.25D+02 IAcc=1 IRadAn=         1 AccDes= 0.00D+00
 Harris functional with IExCor=  402 and IRadAn=       1 diagonalized for initial guess.
 HarFok:  IExCor=  402 AccDes= 0.00D+00 IRadAn=         1 IDoV= 1 UseB2=F ITyADJ=14
 ICtDFT=  3500011 ScaDFX=  1.000000  1.000000  1.000000  1.000000
 FoFCou: FMM=F IPFlag=           0 FMFlag=      100000 FMFlg1=           0
         NFxFlg=           0 DoJE=T BraDBF=F KetDBF=T FulRan=T
         wScrn=  0.000000 ICntrl=     500 IOpCl=  0 I1Cent=   200000004 NGrid=           0
         NMat0=    1 NMatS0=      1 NMatT0=    0 NMatD0=    1 NMtDS0=    0 NMtDT0=    0
 Petite list used in FoFCou.
 Harris En= -648.419690934248    
 JPrj=0 DoOrth=F DoCkMO=F.
 Leave Link  401 at Fri Aug 20 15:47:45 2021, MaxMem= 24159191040 cpu:        19.0
 (Enter /public/home/users/caep010/software/Gaussian09/g09/l502.exe)
 Closed shell SCF:
 Using DIIS extrapolation, IDIIS=  1040.
 Integral symmetry usage will be decided dynamically.
 Keep R1 ints in memory in canonical form, NReq=630772758.
 IVT=      239708 IEndB=      239708 NGot= 24159191040 MDV= 23537828698
 LenX= 23537828698 LenY= 23537758032
 Requested convergence on RMS density matrix=1.00D-08 within 128 cycles.
 Requested convergence on MAX density matrix=1.00D-06.
 Requested convergence on             energy=1.00D-06.
 No special actions if energy rises.
 FoFCou: FMM=F IPFlag=           0 FMFlag=           0 FMFlg1=           0
         NFxFlg=           0 DoJE=F BraDBF=F KetDBF=F FulRan=T
         wScrn=  0.000000 ICntrl=     600 IOpCl=  0 I1Cent=           0 NGrid=           0
         NMat0=    1 NMatS0=  35245 NMatT0=    0 NMatD0=    1 NMtDS0=    0 NMtDT0=    0
 Symmetry not used in FoFCou.
 Integral accuracy reduced to 1.0D-05 until final iterations.

 Cycle   1  Pass 0  IDiag  1:
 E= -647.532128249959    
 DIIS: error= 3.69D-02 at cycle   1 NSaved=   1.
 NSaved= 1 IEnMin= 1 EnMin= -647.532128249959     IErMin= 1 ErrMin= 3.69D-02
 ErrMax= 3.69D-02  0.00D+00 EMaxC= 1.00D-01 BMatC= 7.43D-01 BMatP= 7.43D-01
 IDIUse=3 WtCom= 6.31D-01 WtEn= 3.69D-01
 Coeff-Com:  0.100D+01
 Coeff-En:   0.100D+01
 Coeff:      0.100D+01
 Gap=     0.129 Goal=   None    Shift=    0.000
 GapD=    0.129 DampG=1.000 DampE=0.500 DampFc=0.5000 IDamp=-1.
 Damping current iteration by 5.00D-01
 RMSDP=7.12D-03 MaxDP=2.68D-01              OVMax= 3.04D-01

 Cycle   2  Pass 0  IDiag  1:
 E= -647.705154811738     Delta-E=       -0.173026561778 Rises=F Damp=T
 DIIS: error= 1.85D-02 at cycle   2 NSaved=   2.
 NSaved= 2 IEnMin= 2 EnMin= -647.705154811738     IErMin= 2 ErrMin= 1.85D-02
 ErrMax= 1.85D-02  0.00D+00 EMaxC= 1.00D-01 BMatC= 1.18D-01 BMatP= 7.43D-01
 IDIUse=3 WtCom= 8.15D-01 WtEn= 1.85D-01
 Coeff-Com:  0.224D+00 0.776D+00
 Coeff-En:   0.347D+00 0.653D+00
 Coeff:      0.247D+00 0.753D+00
 Gap=     0.213 Goal=   None    Shift=    0.000
 RMSDP=2.48D-03 MaxDP=1.31D-01 DE=-1.73D-01 OVMax= 2.15D-01

 Cycle   3  Pass 0  IDiag  1:
 E= -648.075939065991     Delta-E=       -0.370784254253 Rises=F Damp=F
 DIIS: error= 2.27D-02 at cycle   3 NSaved=   3.
 NSaved= 3 IEnMin= 3 EnMin= -648.075939065991     IErMin= 2 ErrMin= 1.85D-02
 ErrMax= 2.27D-02  0.00D+00 EMaxC= 1.00D-01 BMatC= 1.17D-01 BMatP= 1.18D-01
 IDIUse=3 WtCom= 7.73D-01 WtEn= 2.27D-01
 Coeff-Com:  0.950D-01 0.485D+00 0.420D+00
 Coeff-En:   0.000D+00 0.000D+00 0.100D+01
 Coeff:      0.734D-01 0.375D+00 0.552D+00
 Gap=     0.222 Goal=   None    Shift=    0.000
 RMSDP=1.96D-03 MaxDP=8.40D-02 DE=-3.71D-01 OVMax= 1.59D-01

 Cycle   4  Pass 0  IDiag  1:
 E= -648.129675950191     Delta-E=       -0.053736884201 Rises=F Damp=F
 DIIS: error= 1.63D-02 at cycle   4 NSaved=   4.
 NSaved= 4 IEnMin= 4 EnMin= -648.129675950191     IErMin= 4 ErrMin= 1.63D-02
 ErrMax= 1.63D-02  0.00D+00 EMaxC= 1.00D-01 BMatC= 5.73D-02 BMatP= 1.17D-01
 IDIUse=3 WtCom= 8.37D-01 WtEn= 1.63D-01
 Coeff-Com:  0.451D-01 0.168D+00 0.385D+00 0.402D+00
 Coeff-En:   0.000D+00 0.000D+00 0.349D+00 0.651D+00
 Coeff:      0.377D-01 0.140D+00 0.379D+00 0.443D+00
 Gap=     0.196 Goal=   None    Shift=    0.000
 RMSDP=9.63D-04 MaxDP=4.79D-02 DE=-5.37D-02 OVMax= 8.29D-02

 Cycle   5  Pass 0  IDiag  1:
 E= -648.168834708047     Delta-E=       -0.039158757856 Rises=F Damp=F
 DIIS: error= 4.75D-03 at cycle   5 NSaved=   5.
 NSaved= 5 IEnMin= 5 EnMin= -648.168834708047     IErMin= 5 ErrMin= 4.75D-03
 ErrMax= 4.75D-03  0.00D+00 EMaxC= 1.00D-01 BMatC= 7.26D-03 BMatP= 5.73D-02
 IDIUse=3 WtCom= 9.52D-01 WtEn= 4.75D-02
 Coeff-Com:  0.133D-01 0.115D-01 0.197D+00 0.347D+00 0.431D+00
 Coeff-En:   0.000D+00 0.000D+00 0.000D+00 0.121D+00 0.879D+00
 Coeff:      0.127D-01 0.109D-01 0.188D+00 0.337D+00 0.452D+00
 Gap=     0.197 Goal=   None    Shift=    0.000
 RMSDP=3.18D-04 MaxDP=2.27D-02 DE=-3.92D-02 OVMax= 4.56D-02

 Cycle   6  Pass 0  IDiag  1:
 E= -648.173901243922     Delta-E=       -0.005066535875 Rises=F Damp=F
 DIIS: error= 1.66D-03 at cycle   6 NSaved=   6.
 NSaved= 6 IEnMin= 6 EnMin= -648.173901243922     IErMin= 6 ErrMin= 1.66D-03
 ErrMax= 1.66D-03  0.00D+00 EMaxC= 1.00D-01 BMatC= 8.80D-04 BMatP= 7.26D-03
 IDIUse=3 WtCom= 9.83D-01 WtEn= 1.66D-02
 Coeff-Com:  0.383D-02-0.981D-02 0.860D-01 0.181D+00 0.323D+00 0.416D+00
 Coeff-En:   0.000D+00 0.000D+00 0.000D+00 0.000D+00 0.120D+00 0.880D+00
 Coeff:      0.377D-02-0.964D-02 0.846D-01 0.178D+00 0.319D+00 0.424D+00
 Gap=     0.196 Goal=   None    Shift=    0.000
 RMSDP=1.07D-04 MaxDP=6.22D-03 DE=-5.07D-03 OVMax= 1.22D-02

 Cycle   7  Pass 0  IDiag  1:
 E= -648.174554126268     Delta-E=       -0.000652882346 Rises=F Damp=F
 DIIS: error= 5.16D-04 at cycle   7 NSaved=   7.
 NSaved= 7 IEnMin= 7 EnMin= -648.174554126268     IErMin= 7 ErrMin= 5.16D-04
 ErrMax= 5.16D-04  0.00D+00 EMaxC= 1.00D-01 BMatC= 5.41D-05 BMatP= 8.80D-04
 IDIUse=3 WtCom= 9.95D-01 WtEn= 5.16D-03
 Coeff-Com:  0.757D-03-0.427D-02 0.234D-01 0.504D-01 0.121D+00 0.252D+00
 Coeff-Com:  0.556D+00
 Coeff-En:   0.000D+00 0.000D+00 0.000D+00 0.000D+00 0.000D+00 0.134D-01
 Coeff-En:   0.987D+00
 Coeff:      0.753D-03-0.425D-02 0.233D-01 0.502D-01 0.121D+00 0.251D+00
 Coeff:      0.558D+00
 Gap=     0.198 Goal=   None    Shift=    0.000
 RMSDP=2.79D-05 MaxDP=1.37D-03 DE=-6.53D-04 OVMax= 1.96D-03

 Cycle   8  Pass 0  IDiag  1:
 E= -648.174592314704     Delta-E=       -0.000038188436 Rises=F Damp=F
 DIIS: error= 1.40D-04 at cycle   8 NSaved=   8.
 NSaved= 8 IEnMin= 8 EnMin= -648.174592314704     IErMin= 8 ErrMin= 1.40D-04
 ErrMax= 1.40D-04  0.00D+00 EMaxC= 1.00D-01 BMatC= 5.17D-06 BMatP= 5.41D-05
 IDIUse=3 WtCom= 9.99D-01 WtEn= 1.40D-03
 Coeff-Com: -0.453D-04-0.180D-02 0.273D-02 0.628D-02 0.312D-01 0.938D-01
 Coeff-Com:  0.306D+00 0.561D+00
 Coeff-En:   0.000D+00 0.000D+00 0.000D+00 0.000D+00 0.000D+00 0.000D+00
 Coeff-En:   0.000D+00 0.100D+01
 Coeff:     -0.452D-04-0.180D-02 0.273D-02 0.627D-02 0.312D-01 0.937D-01
 Coeff:      0.306D+00 0.562D+00
 Gap=     0.197 Goal=   None    Shift=    0.000
 RMSDP=7.91D-06 MaxDP=4.29D-04 DE=-3.82D-05 OVMax= 3.71D-04

 Initial convergence to 1.0D-05 achieved.  Increase integral accuracy.
 Cycle   9  Pass 1  IDiag  1:
 E= -648.174650893488     Delta-E=       -0.000058578784 Rises=F Damp=F
 DIIS: error= 1.66D-05 at cycle   1 NSaved=   1.
 NSaved= 1 IEnMin= 1 EnMin= -648.174650893488     IErMin= 1 ErrMin= 1.66D-05
 ErrMax= 1.66D-05  0.00D+00 EMaxC= 1.00D-01 BMatC= 3.54D-07 BMatP= 3.54D-07
 IDIUse=1 WtCom= 1.00D+00 WtEn= 0.00D+00
 Coeff-Com:  0.100D+01
 Coeff:      0.100D+01
 Gap=     0.198 Goal=   None    Shift=    0.000
 RMSDP=7.91D-06 MaxDP=4.29D-04 DE=-5.86D-05 OVMax= 1.83D-04

 Cycle  10  Pass 1  IDiag  1:
 E= -648.174651030081     Delta-E=       -0.000000136593 Rises=F Damp=F
 DIIS: error= 2.37D-05 at cycle   2 NSaved=   2.
 NSaved= 2 IEnMin= 2 EnMin= -648.174651030081     IErMin= 1 ErrMin= 1.66D-05
 ErrMax= 2.37D-05  0.00D+00 EMaxC= 1.00D-01 BMatC= 3.34D-07 BMatP= 3.54D-07
 IDIUse=1 WtCom= 1.00D+00 WtEn= 0.00D+00
 Coeff-Com:  0.491D+00 0.509D+00
 Coeff:      0.491D+00 0.509D+00
 Gap=     0.197 Goal=   None    Shift=    0.000
 RMSDP=2.33D-06 MaxDP=9.50D-05 DE=-1.37D-07 OVMax= 1.28D-04

 Cycle  11  Pass 1  IDiag  1:
 E= -648.174651253908     Delta-E=       -0.000000223827 Rises=F Damp=F
 DIIS: error= 1.55D-05 at cycle   3 NSaved=   3.
 NSaved= 3 IEnMin= 3 EnMin= -648.174651253908     IErMin= 3 ErrMin= 1.55D-05
 ErrMax= 1.55D-05  0.00D+00 EMaxC= 1.00D-01 BMatC= 4.63D-08 BMatP= 3.34D-07
 IDIUse=1 WtCom= 1.00D+00 WtEn= 0.00D+00
 Coeff-Com:  0.486D-01 0.269D+00 0.683D+00
 Coeff:      0.486D-01 0.269D+00 0.683D+00
 Gap=     0.197 Goal=   None    Shift=    0.000
 RMSDP=9.57D-07 MaxDP=5.33D-05 DE=-2.24D-07 OVMax= 8.49D-05

 Cycle  12  Pass 1  IDiag  1:
 E= -648.174651277422     Delta-E=       -0.000000023514 Rises=F Damp=F
 DIIS: error= 9.94D-06 at cycle   4 NSaved=   4.
 NSaved= 4 IEnMin= 4 EnMin= -648.174651277422     IErMin= 4 ErrMin= 9.94D-06
 ErrMax= 9.94D-06  0.00D+00 EMaxC= 1.00D-01 BMatC= 1.42D-08 BMatP= 4.63D-08
 IDIUse=1 WtCom= 1.00D+00 WtEn= 0.00D+00
 Coeff-Com: -0.906D-02 0.135D+00 0.460D+00 0.414D+00
 Coeff:     -0.906D-02 0.135D+00 0.460D+00 0.414D+00
 Gap=     0.197 Goal=   None    Shift=    0.000
 RMSDP=4.47D-07 MaxDP=2.43D-05 DE=-2.35D-08 OVMax= 5.06D-05

 Cycle  13  Pass 1  IDiag  1:
 E= -648.174651288488     Delta-E=       -0.000000011067 Rises=F Damp=F
 DIIS: error= 1.20D-06 at cycle   5 NSaved=   5.
 NSaved= 5 IEnMin= 5 EnMin= -648.174651288488     IErMin= 5 ErrMin= 1.20D-06
 ErrMax= 1.20D-06  0.00D+00 EMaxC= 1.00D-01 BMatC= 4.51D-10 BMatP= 1.42D-08
 IDIUse=1 WtCom= 1.00D+00 WtEn= 0.00D+00
 Coeff-Com: -0.770D-02 0.544D-01 0.201D+00 0.228D+00 0.524D+00
 Coeff:     -0.770D-02 0.544D-01 0.201D+00 0.228D+00 0.524D+00
 Gap=     0.197 Goal=   None    Shift=    0.000
 RMSDP=9.88D-08 MaxDP=3.58D-06 DE=-1.11D-08 OVMax= 6.02D-06

 Cycle  14  Pass 1  IDiag  1:
 E= -648.174651288829     Delta-E=       -0.000000000341 Rises=F Damp=F
 DIIS: error= 4.10D-07 at cycle   6 NSaved=   6.
 NSaved= 6 IEnMin= 6 EnMin= -648.174651288829     IErMin= 6 ErrMin= 4.10D-07
 ErrMax= 4.10D-07  0.00D+00 EMaxC= 1.00D-01 BMatC= 5.77D-11 BMatP= 4.51D-10
 IDIUse=1 WtCom= 1.00D+00 WtEn= 0.00D+00
 Coeff-Com: -0.380D-02 0.210D-01 0.809D-01 0.104D+00 0.320D+00 0.478D+00
 Coeff:     -0.380D-02 0.210D-01 0.809D-01 0.104D+00 0.320D+00 0.478D+00
 Gap=     0.197 Goal=   None    Shift=    0.000
 RMSDP=2.93D-08 MaxDP=1.62D-06 DE=-3.41D-10 OVMax= 2.11D-06

 Cycle  15  Pass 1  IDiag  1:
 E= -648.174651288899     Delta-E=       -0.000000000070 Rises=F Damp=F
 DIIS: error= 1.84D-07 at cycle   7 NSaved=   7.
 NSaved= 7 IEnMin= 7 EnMin= -648.174651288899     IErMin= 7 ErrMin= 1.84D-07
 ErrMax= 1.84D-07  0.00D+00 EMaxC= 1.00D-01 BMatC= 7.56D-12 BMatP= 5.77D-11
 IDIUse=1 WtCom= 1.00D+00 WtEn= 0.00D+00
 Coeff-Com: -0.140D-02 0.614D-02 0.247D-01 0.364D-01 0.132D+00 0.296D+00
 Coeff-Com:  0.506D+00
 Coeff:     -0.140D-02 0.614D-02 0.247D-01 0.364D-01 0.132D+00 0.296D+00
 Coeff:      0.506D+00
 Gap=     0.197 Goal=   None    Shift=    0.000
 RMSDP=1.23D-08 MaxDP=8.63D-07 DE=-7.00D-11 OVMax= 1.62D-06

 Cycle  16  Pass 1  IDiag  1:
 E= -648.174651288885     Delta-E=        0.000000000014 Rises=F Damp=F
 DIIS: error= 9.88D-08 at cycle   8 NSaved=   8.
 NSaved= 8 IEnMin= 7 EnMin= -648.174651288899     IErMin= 8 ErrMin= 9.88D-08
 ErrMax= 9.88D-08  0.00D+00 EMaxC= 1.00D-01 BMatC= 2.54D-12 BMatP= 7.56D-12
 IDIUse=1 WtCom= 1.00D+00 WtEn= 0.00D+00
 Coeff-Com: -0.428D-03 0.116D-02 0.523D-02 0.103D-01 0.436D-01 0.135D+00
 Coeff-Com:  0.383D+00 0.423D+00
 Coeff:     -0.428D-03 0.116D-02 0.523D-02 0.103D-01 0.436D-01 0.135D+00
 Coeff:      0.383D+00 0.423D+00
 Gap=     0.197 Goal=   None    Shift=    0.000
 RMSDP=5.85D-09 MaxDP=4.17D-07 DE= 1.41D-11 OVMax= 8.14D-07

 SCF Done:  E(RB3LYP) =  -648.174651289     A.U. after   16 cycles
            NFock= 16  Conv=0.58D-08     -V/T= 2.0039
 KE= 6.456271552407D+02 PE=-3.358156319711D+03 EE= 1.141804130799D+03
 Leave Link  502 at Fri Aug 20 15:48:05 2021, MaxMem= 24159191040 cpu:       186.7
 (Enter /public/home/users/caep010/software/Gaussian09/g09/l601.exe)
 Copying SCF densities to generalized density rwf, IOpCl= 0 IROHF=0.

 **********************************************************************

            Population analysis using the SCF density.

 **********************************************************************

 Orbital symmetries:
       Occupied  (A) (A) (A) (A) (A) (A) (A) (A) (A) (A) (A) (A)
                 (A) (A) (A) (A) (A) (A) (A) (A) (A) (A) (A) (A)
                 (A) (A) (A) (A) (A) (A) (A) (A) (A) (A) (A) (A)
                 (A) (A) (A) (A) (A) (A) (A) (A) (A) (A) (A) (A)
                 (A) (A)
       Virtual   (A) (A) (A) (A) (A) (A) (A) (A) (A) (A) (A) (A)
                 (A) (A) (A) (A) (A) (A) (A) (A) (A) (A) (A) (A)
                 (A) (A) (A) (A) (A) (A) (A) (A) (A) (A) (A) (A)
                 (A) (A) (A) (A) (A) (A) (A) (A) (A) (A) (A) (A)
                 (A) (A) (A) (A) (A) (A) (A) (A) (A) (A) (A) (A)
                 (A) (A) (A) (A) (A) (A) (A) (A) (A) (A) (A) (A)
                 (A) (A) (A) (A) (A) (A) (A) (A) (A) (A) (A) (A)
                 (A) (A) (A) (A) (A) (A) (A) (A) (A) (A) (A) (A)
                 (A) (A) (A) (A) (A) (A) (A) (A) (A) (A) (A) (A)
                 (A) (A) (A) (A) (A) (A) (A) (A) (A) (A) (A) (A)
                 (A) (A) (A) (A) (A) (A) (A) (A) (A) (A) (A) (A)
                 (A) (A) (A) (A) (A) (A) (A) (A) (A) (A) (A) (A)
                 (A) (A) (A) (A) (A) (A) (A) (A) (A) (A) (A) (A)
                 (A) (A) (A) (A) (A) (A) (A) (A) (A) (A) (A) (A)
                 (A) (A) (A) (A) (A) (A) (A) (A) (A) (A) (A) (A)
                 (A) (A) (A) (A) (A) (A) (A) (A) (A) (A) (A) (A)
                 (A) (A) (A) (A) (A) (A) (A) (A) (A) (A) (A) (A)
                 (A) (A) (A) (A) (A) (A) (A) (A) (A) (A) (A)
 The electronic state is 1-A.
 Alpha  occ. eigenvalues --  -19.18070 -19.17241 -19.12567 -14.56856 -14.35416
 Alpha  occ. eigenvalues --  -10.30734 -10.24749 -10.21802 -10.21512 -10.16810
 Alpha  occ. eigenvalues --  -10.15629 -10.15272 -10.14341  -1.25178  -1.06329
 Alpha  occ. eigenvalues --   -1.05346  -0.96477  -0.91283  -0.79113  -0.78830
 Alpha  occ. eigenvalues --   -0.74633  -0.72010  -0.70196  -0.67260  -0.61190
 Alpha  occ. eigenvalues --   -0.56908  -0.55412  -0.54120  -0.53242  -0.50676
 Alpha  occ. eigenvalues --   -0.49785  -0.48245  -0.46041  -0.45667  -0.43744
 Alpha  occ. eigenvalues --   -0.43283  -0.42693  -0.42004  -0.41213  -0.40792
 Alpha  occ. eigenvalues --   -0.40168  -0.39152  -0.34372  -0.32160  -0.31367
 Alpha  occ. eigenvalues --   -0.30919  -0.28947  -0.28225  -0.27300  -0.25654
 Alpha virt. eigenvalues --   -0.05907   0.00819   0.07526   0.10980   0.11564
 Alpha virt. eigenvalues --    0.12762   0.12785   0.14182   0.15142   0.15736
 Alpha virt. eigenvalues --    0.17021   0.18033   0.19447   0.20138   0.20565
 Alpha virt. eigenvalues --    0.21048   0.22124   0.22601   0.23415   0.25037
 Alpha virt. eigenvalues --    0.29268   0.29400   0.29941   0.30700   0.31907
 Alpha virt. eigenvalues --    0.33189   0.35157   0.38461   0.42366   0.44608
 Alpha virt. eigenvalues --    0.45527   0.47467   0.48191   0.50989   0.51188
 Alpha virt. eigenvalues --    0.52951   0.54537   0.56258   0.60161   0.60492
 Alpha virt. eigenvalues --    0.62259   0.65172   0.65774   0.66610   0.67851
 Alpha virt. eigenvalues --    0.71131   0.71440   0.73091   0.74116   0.75131
 Alpha virt. eigenvalues --    0.77989   0.79366   0.80185   0.81924   0.83218
 Alpha virt. eigenvalues --    0.84147   0.84923   0.85914   0.87061   0.88734
 Alpha virt. eigenvalues --    0.90051   0.91286   0.92376   0.94215   0.94965
 Alpha virt. eigenvalues --    0.96244   0.96552   0.97534   0.98454   0.99667
 Alpha virt. eigenvalues --    1.00903   1.01564   1.02467   1.03492   1.04959
 Alpha virt. eigenvalues --    1.06766   1.07926   1.08681   1.09705   1.11166
 Alpha virt. eigenvalues --    1.11996   1.14900   1.16044   1.19754   1.22342
 Alpha virt. eigenvalues --    1.24937   1.26769   1.29858   1.35622   1.36899
 Alpha virt. eigenvalues --    1.39112   1.40798   1.44734   1.46434   1.47110
 Alpha virt. eigenvalues --    1.49666   1.52478   1.56154   1.57053   1.61761
 Alpha virt. eigenvalues --    1.62560   1.64630   1.70458   1.72699   1.74354
 Alpha virt. eigenvalues --    1.74915   1.77648   1.79178   1.81273   1.83091
 Alpha virt. eigenvalues --    1.84471   1.86923   1.88176   1.89366   1.90647
 Alpha virt. eigenvalues --    1.93095   1.94846   1.95159   1.96729   1.98221
 Alpha virt. eigenvalues --    2.00476   2.02262   2.03781   2.06460   2.07389
 Alpha virt. eigenvalues --    2.07777   2.08425   2.08960   2.09879   2.11456
 Alpha virt. eigenvalues --    2.13724   2.17266   2.19469   2.20352   2.21772
 Alpha virt. eigenvalues --    2.24209   2.25221   2.26573   2.26799   2.28478
 Alpha virt. eigenvalues --    2.29748   2.30602   2.31574   2.32388   2.34638
 Alpha virt. eigenvalues --    2.35907   2.36686   2.37485   2.42340   2.46316
 Alpha virt. eigenvalues --    2.47954   2.49868   2.50668   2.54177   2.57025
 Alpha virt. eigenvalues --    2.57766   2.61291   2.66299   2.68169   2.68872
 Alpha virt. eigenvalues --    2.70985   2.71783   2.73519   2.76550   2.78734
 Alpha virt. eigenvalues --    2.80696   2.83225   2.84401   2.86172   2.87081
 Alpha virt. eigenvalues --    2.90177   2.90810   2.91018   2.93799   2.96977
 Alpha virt. eigenvalues --    2.97543   3.00134   3.06910   3.07526   3.11159
 Alpha virt. eigenvalues --    3.11956   3.14135   3.15646   3.18691   3.20421
 Alpha virt. eigenvalues --    3.22633   3.28281   3.35758   3.47898   3.49236
 Alpha virt. eigenvalues --    3.54019   3.60104   3.62592   3.69512   3.72325
 Alpha virt. eigenvalues --    3.75471   3.76824   3.77942   3.81322   3.81606
 Alpha virt. eigenvalues --    3.82814   3.86945   3.91940   3.96439   3.97759
 Alpha virt. eigenvalues --    4.17634   4.24031   4.37035   4.46264   4.50050
 Alpha virt. eigenvalues --    4.56428   4.65321   4.69662   4.80236   4.84591
          Condensed to atoms (all electrons):
               1          2          3          4          5          6
     1  C    5.533831   0.181822   0.223997  -0.036088   0.281005  -0.034007
     2  C    0.181822   5.109610   0.232398  -0.034264  -0.014138  -0.034140
     3  C    0.223997   0.232398   5.024944   0.402629  -0.011395   0.405679
     4  C   -0.036088  -0.034264   0.402629   4.830768  -0.004868  -0.051727
     5  C    0.281005  -0.014138  -0.011395  -0.004868   4.418715   0.001090
     6  C   -0.034007  -0.034140   0.405679  -0.051727   0.001090   4.837802
     7  C   -0.026947   0.388187  -0.033731   0.002883   0.000084  -0.011459
     8  C   -0.034998   0.392893  -0.033026  -0.010376  -0.004807   0.003124
     9  N    0.209881  -0.015116  -0.010635   0.000535  -0.048876  -0.007800
    10  O   -0.082933  -0.007849   0.002897  -0.000096  -0.002585   0.000282
    11  N   -0.132917  -0.002912   0.001305   0.000889   0.301536  -0.000108
    12  O   -0.086553   0.004242  -0.006012  -0.000091   0.002931   0.003778
    13  O   -0.086739   0.003233  -0.007957   0.002403   0.581075   0.000003
    14  H    0.006408  -0.008568  -0.032127  -0.005386  -0.000104   0.383014
    15  H   -0.006106  -0.004857  -0.022108   0.006537   0.000052   0.394374
    16  H   -0.005229   0.006839  -0.031751  -0.005266   0.000203   0.403259
    17  H   -0.006209  -0.006036  -0.022184   0.394049   0.003484   0.006250
    18  H   -0.005690   0.006262  -0.027151   0.399217   0.000262  -0.005412
    19  H    0.006946  -0.007441  -0.037139   0.381345   0.000569  -0.003504
    20  H   -0.006082  -0.030535   0.006793  -0.000156   0.000319   0.000381
    21  H   -0.005232  -0.024211  -0.004503  -0.000105   0.000094   0.000353
    22  H    0.006533  -0.033421  -0.007897   0.000274  -0.000082   0.001546
    23  H   -0.006112  -0.025551  -0.005070   0.000984   0.004227  -0.000116
    24  H   -0.005207  -0.032349   0.006309   0.000241   0.000504  -0.000124
    25  H    0.006366  -0.033291  -0.008312   0.002093  -0.000031   0.000197
    26  H   -0.002026   0.000012   0.000751  -0.000030  -0.014491   0.000011
    27  H    0.011413  -0.000074  -0.000153  -0.000015  -0.009763   0.000003
               7          8          9         10         11         12
     1  C   -0.026947  -0.034998   0.209881  -0.082933  -0.132917  -0.086553
     2  C    0.388187   0.392893  -0.015116  -0.007849  -0.002912   0.004242
     3  C   -0.033731  -0.033026  -0.010635   0.002897   0.001305  -0.006012
     4  C    0.002883  -0.010376   0.000535  -0.000096   0.000889  -0.000091
     5  C    0.000084  -0.004807  -0.048876  -0.002585   0.301536   0.002931
     6  C   -0.011459   0.003124  -0.007800   0.000282  -0.000108   0.003778
     7  C    4.856704  -0.057991  -0.006884   0.002351   0.000192   0.000544
     8  C   -0.057991   4.889582   0.001017  -0.000015  -0.000171  -0.000088
     9  N   -0.006884   0.001017   5.895661   0.283834  -0.001909   0.290852
    10  O    0.002351  -0.000015   0.283834   8.286357  -0.000782  -0.109841
    11  N    0.000192  -0.000171  -0.001909  -0.000782   6.671948   0.000484
    12  O    0.000544  -0.000088   0.290852  -0.109841   0.000484   8.264542
    13  O   -0.000065  -0.000502  -0.002239   0.000048  -0.099186  -0.000074
    14  H    0.002564   0.000193   0.000094  -0.000015   0.000001   0.000234
    15  H    0.001805  -0.000091   0.001800  -0.001045  -0.000001   0.000893
    16  H    0.000273  -0.000144   0.000510   0.000024  -0.000000   0.001330
    17  H   -0.000137   0.001037   0.000028  -0.000002  -0.000983  -0.000008
    18  H   -0.000132   0.000240   0.000206   0.000000   0.000003   0.000040
    19  H    0.000257   0.001261  -0.000086   0.000001   0.000007  -0.000003
    20  H    0.395158  -0.005713   0.000652   0.001264  -0.000073   0.000007
    21  H    0.390527   0.005894  -0.000171   0.005818  -0.000006  -0.000819
    22  H    0.389113  -0.003471   0.000016   0.000522  -0.000003   0.000002
    23  H    0.006476   0.393378   0.000035   0.000006   0.001246   0.000001
    24  H   -0.005885   0.387324   0.000214  -0.000037   0.001014  -0.000000
    25  H   -0.003713   0.388577  -0.000074  -0.000001   0.000398   0.000001
    26  H    0.000031   0.000009  -0.001283   0.006154   0.362001   0.000052
    27  H    0.000016  -0.000187   0.000038   0.000006   0.365068  -0.000006
              13         14         15         16         17         18
     1  C   -0.086739   0.006408  -0.006106  -0.005229  -0.006209  -0.005690
     2  C    0.003233  -0.008568  -0.004857   0.006839  -0.006036   0.006262
     3  C   -0.007957  -0.032127  -0.022108  -0.031751  -0.022184  -0.027151
     4  C    0.002403  -0.005386   0.006537  -0.005266   0.394049   0.399217
     5  C    0.581075  -0.000104   0.000052   0.000203   0.003484   0.000262
     6  C    0.000003   0.383014   0.394374   0.403259   0.006250  -0.005412
     7  C   -0.000065   0.002564   0.001805   0.000273  -0.000137  -0.000132
     8  C   -0.000502   0.000193  -0.000091  -0.000144   0.001037   0.000240
     9  N   -0.002239   0.000094   0.001800   0.000510   0.000028   0.000206
    10  O    0.000048  -0.000015  -0.001045   0.000024  -0.000002   0.000000
    11  N   -0.099186   0.000001  -0.000001  -0.000000  -0.000983   0.000003
    12  O   -0.000074   0.000234   0.000893   0.001330  -0.000008   0.000040
    13  O    8.085265  -0.000003  -0.000002   0.000002   0.005488   0.000844
    14  H   -0.000003   0.622352  -0.043931  -0.033359   0.000034  -0.000549
    15  H   -0.000002  -0.043931   0.591131  -0.027064  -0.000336   0.000037
    16  H    0.000002  -0.033359  -0.027064   0.552775   0.000048   0.005252
    17  H    0.005488   0.000034  -0.000336   0.000048   0.575097  -0.024604
    18  H    0.000844  -0.000549   0.000037   0.005252  -0.024604   0.567848
    19  H    0.000515   0.004011  -0.000133  -0.001024  -0.033035  -0.044659
    20  H    0.000001  -0.000078  -0.000080  -0.000010   0.000004   0.000004
    21  H   -0.000002  -0.000279   0.002287   0.000038   0.000003   0.000002
    22  H    0.000001  -0.000057  -0.000041  -0.000064   0.000004  -0.000011
    23  H   -0.000429   0.000011  -0.000002   0.000001   0.001719  -0.000093
    24  H   -0.000004  -0.000012   0.000002   0.000005  -0.000039  -0.000003
    25  H   -0.000009  -0.000023   0.000000  -0.000010  -0.000131  -0.000050
    26  H    0.004544   0.000000   0.000001  -0.000001   0.000013  -0.000004
    27  H    0.004064  -0.000000   0.000000   0.000000   0.000037   0.000000
              19         20         21         22         23         24
     1  C    0.006946  -0.006082  -0.005232   0.006533  -0.006112  -0.005207
     2  C   -0.007441  -0.030535  -0.024211  -0.033421  -0.025551  -0.032349
     3  C   -0.037139   0.006793  -0.004503  -0.007897  -0.005070   0.006309
     4  C    0.381345  -0.000156  -0.000105   0.000274   0.000984   0.000241
     5  C    0.000569   0.000319   0.000094  -0.000082   0.004227   0.000504
     6  C   -0.003504   0.000381   0.000353   0.001546  -0.000116  -0.000124
     7  C    0.000257   0.395158   0.390527   0.389113   0.006476  -0.005885
     8  C    0.001261  -0.005713   0.005894  -0.003471   0.393378   0.387324
     9  N   -0.000086   0.000652  -0.000171   0.000016   0.000035   0.000214
    10  O    0.000001   0.001264   0.005818   0.000522   0.000006  -0.000037
    11  N    0.000007  -0.000073  -0.000006  -0.000003   0.001246   0.001014
    12  O   -0.000003   0.000007  -0.000819   0.000002   0.000001  -0.000000
    13  O    0.000515   0.000001  -0.000002   0.000001  -0.000429  -0.000004
    14  H    0.004011  -0.000078  -0.000279  -0.000057   0.000011  -0.000012
    15  H   -0.000133  -0.000080   0.002287  -0.000041  -0.000002   0.000002
    16  H   -0.001024  -0.000010   0.000038  -0.000064   0.000001   0.000005
    17  H   -0.033035   0.000004   0.000003   0.000004   0.001719  -0.000039
    18  H   -0.044659   0.000004   0.000002  -0.000011  -0.000093  -0.000003
    19  H    0.625797  -0.000010   0.000003  -0.000034   0.000118  -0.000060
    20  H   -0.000010   0.587024  -0.029008  -0.040879   0.000006   0.005565
    21  H    0.000003  -0.029008   0.576332  -0.030714  -0.000288   0.000036
    22  H   -0.000034  -0.040879  -0.030714   0.600588  -0.000067  -0.000782
    23  H    0.000118   0.000006  -0.000288  -0.000067   0.578759  -0.032460
    24  H   -0.000060   0.005565   0.000036  -0.000782  -0.032460   0.603964
    25  H   -0.000068  -0.000825  -0.000044   0.003997  -0.031671  -0.035336
    26  H   -0.000001   0.000047  -0.000026   0.000012  -0.000068   0.000674
    27  H   -0.000001   0.000001  -0.000000  -0.000000   0.000080   0.000126
              25         26         27
     1  C    0.006366  -0.002026   0.011413
     2  C   -0.033291   0.000012  -0.000074
     3  C   -0.008312   0.000751  -0.000153
     4  C    0.002093  -0.000030  -0.000015
     5  C   -0.000031  -0.014491  -0.009763
     6  C    0.000197   0.000011   0.000003
     7  C   -0.003713   0.000031   0.000016
     8  C    0.388577   0.000009  -0.000187
     9  N   -0.000074  -0.001283   0.000038
    10  O   -0.000001   0.006154   0.000006
    11  N    0.000398   0.362001   0.365068
    12  O    0.000001   0.000052  -0.000006
    13  O   -0.000009   0.004544   0.004064
    14  H   -0.000023   0.000000  -0.000000
    15  H    0.000000   0.000001   0.000000
    16  H   -0.000010  -0.000001   0.000000
    17  H   -0.000131   0.000013   0.000037
    18  H   -0.000050  -0.000004   0.000000
    19  H   -0.000068  -0.000001  -0.000001
    20  H   -0.000825   0.000047   0.000001
    21  H   -0.000044  -0.000026  -0.000000
    22  H    0.003997   0.000012  -0.000000
    23  H   -0.031671  -0.000068   0.000080
    24  H   -0.035336   0.000674   0.000126
    25  H    0.592101  -0.000025   0.000004
    26  H   -0.000025   0.417690  -0.031207
    27  H    0.000004  -0.031207   0.418546
 Mulliken charges:
               1
     1  C    0.100872
     2  C   -0.010744
     3  C   -0.006549
     4  C   -0.276376
     5  C    0.514991
     6  C   -0.292748
     7  C   -0.290222
     8  C   -0.312947
     9  N    0.409699
    10  O   -0.384363
    11  N   -0.467042
    12  O   -0.366436
    13  O   -0.490273
    14  H    0.105572
    15  H    0.106878
    16  H    0.133363
    17  H    0.106410
    18  H    0.128140
    19  H    0.106369
    20  H    0.116224
    21  H    0.114021
    22  H    0.114915
    23  H    0.114880
    24  H    0.106322
    25  H    0.119878
    26  H    0.257162
    27  H    0.242003
 Sum of Mulliken charges =  -0.00000
 Mulliken charges with hydrogens summed into heavy atoms:
               1
     1  C    0.100872
     2  C   -0.010744
     3  C   -0.006549
     4  C    0.064543
     5  C    0.514991
     6  C    0.053066
     7  C    0.054939
     8  C    0.028134
     9  N    0.409699
    10  O   -0.384363
    11  N    0.032123
    12  O   -0.366436
    13  O   -0.490273
 Electronic spatial extent (au):  <R**2>=           2010.7148
 Charge=             -0.0000 electrons
 Dipole moment (field-independent basis, Debye):
    X=              2.0745    Y=             -2.7981    Z=              3.5957  Tot=              5.0062
 Quadrupole moment (field-independent basis, Debye-Ang):
   XX=            -71.1585   YY=            -82.7453   ZZ=            -76.9418
   XY=              3.2958   XZ=             -8.5008   YZ=             -3.7395
 Traceless Quadrupole moment (field-independent basis, Debye-Ang):
   XX=              5.7900   YY=             -5.7968   ZZ=              0.0067
   XY=              3.2958   XZ=             -8.5008   YZ=             -3.7395
 Octapole moment (field-independent basis, Debye-Ang**2):
  XXX=            -23.2821  YYY=             -9.5778  ZZZ=              8.0207  XYY=              4.2096
  XXY=             -1.9316  XXZ=             17.5059  XZZ=              0.6750  YZZ=             -1.8809
  YYZ=              3.9418  XYZ=              8.9254
 Hexadecapole moment (field-independent basis, Debye-Ang**3):
 XXXX=           -897.9749 YYYY=           -873.7351 ZZZZ=           -668.3014 XXXY=             20.1886
 XXXZ=            -41.7353 YYYX=             23.2492 YYYZ=             -3.5000 ZZZX=            -25.9322
 ZZZY=             -5.0331 XXYY=           -293.1865 XXZZ=           -268.6792 YYZZ=           -271.9000
 XXYZ=            -23.4288 YYXZ=            -11.7282 ZZXY=              1.0837
 N-N= 9.225503823825D+02 E-N=-3.358156318706D+03  KE= 6.456271552408D+02
 No NMR shielding tensors so no spin-rotation constants.
 Leave Link  601 at Fri Aug 20 15:48:06 2021, MaxMem= 24159191040 cpu:        11.5
 (Enter /public/home/users/caep010/software/Gaussian09/g09/l701.exe)
 Compute integral first derivatives.
 ... and contract with generalized density number  0.
 Leave Link  701 at Fri Aug 20 15:48:06 2021, MaxMem= 24159191040 cpu:        12.3
 (Enter /public/home/users/caep010/software/Gaussian09/g09/l702.exe)
 L702 exits ... SP integral derivatives will be done elsewhere.
 Leave Link  702 at Fri Aug 20 15:48:06 2021, MaxMem= 24159191040 cpu:         0.5
 (Enter /public/home/users/caep010/software/Gaussian09/g09/l703.exe)
 Compute integral first derivatives, UseDBF=F ICtDFT=           0.
 Integral derivatives from FoFJK, PRISM(SPDF).
 Calling FoFJK, ICntrl=      2127 FMM=F ISym2X=0 I1Cent= 0 IOpClX= 0 NMat=1 NMatS=1 NMatT=0.
 FoFJK:  IHMeth= 1 ICntrl=    2127 DoSepK=F KAlg= 0 I1Cent=   0 FoldK=F
 IRaf=         0 NMat=   1 IRICut=       1 DoRegI=T DoRafI=F ISym2E= 0.
 FoFCou: FMM=F IPFlag=           0 FMFlag=      100000 FMFlg1=         800
         NFxFlg=           0 DoJE=F BraDBF=F KetDBF=F FulRan=T
         wScrn=  0.000000 ICntrl=    2127 IOpCl=  0 I1Cent=           0 NGrid=           0
         NMat0=    1 NMatS0=      1 NMatT0=    0 NMatD0=    1 NMtDS0=    0 NMtDT0=    0
 Symmetry not used in FoFCou.
 Leave Link  703 at Fri Aug 20 15:48:07 2021, MaxMem= 24159191040 cpu:        43.4
 (Enter /public/home/users/caep010/software/Gaussian09/g09/l716.exe)
 Dipole        = 8.16165486D-01-1.10086889D+00 1.41466039D+00
 ***** Axes restored to original set *****
 -------------------------------------------------------------------
 Center     Atomic                   Forces (Hartrees/Bohr)
 Number     Number              X              Y              Z
 -------------------------------------------------------------------
      1        6          -0.001889098   -0.003765548    0.000450861
      2        6          -0.006044998    0.002983344   -0.003265370
      3        6           0.001872396   -0.001728292   -0.010125832
      4        6          -0.081332420   -0.088806850   -0.030867567
      5        6          -0.022301417    0.033410365    0.022949822
      6        6           0.130951576    0.023319135   -0.034223103
      7        6          -0.077698292    0.084108039   -0.037757158
      8        6          -0.054692002   -0.048600068    0.043232244
      9        7          -0.003432551    0.035220003    0.018386847
     10        8           0.026346544   -0.069277858   -0.021941148
     11        7          -0.087564189    0.024199602    0.179724850
     12        8          -0.026547820    0.029534659    0.006904955
     13        8           0.006240933   -0.003748117   -0.000592911
     14        1           0.026467140    0.009795032    0.038440599
     15        1          -0.061607141   -0.128023782   -0.010387763
     16        1          -0.104105976    0.095030860    0.013436406
     17        1           0.064888622    0.034251312   -0.092806510
     18        1          -0.064774732    0.051252647   -0.000610953
     19        1           0.085061744    0.013751343    0.126751199
     20        1           0.050589720   -0.085289699   -0.080898936
     21        1          -0.045154308   -0.018217417    0.014214941
     22        1           0.073176698    0.005576087    0.108575100
     23        1           0.000037912    0.092180676   -0.052205358
     24        1           0.024594040   -0.045429714   -0.041307680
     25        1           0.043380349    0.004755898    0.050474356
     26        1           0.045303008   -0.167105147    0.028015479
     27        1           0.058234263    0.120623491   -0.234567371
 -------------------------------------------------------------------
 Cartesian Forces:  Max     0.234567371 RMS     0.066204396
 Leave Link  716 at Fri Aug 20 15:48:08 2021, MaxMem= 24159191040 cpu:         0.7
 (Enter /public/home/users/caep010/software/Gaussian09/g09/l103.exe)

 GradGradGradGradGradGradGradGradGradGradGradGradGradGradGradGradGradGrad
 Berny optimization.
 FormGI is forming the generalized inverse of G from B-inverse, IUseBI=4.
 Internal  Forces:  Max     0.269984029 RMS     0.043015975
 Search for a local minimum.
 Step number   1 out of a maximum of  149
 All quantities printed in internal units (Hartrees-Bohrs-Radians)
 RMS Force = .43016D-01 SwitMx=.10000D-02 MixMth= 1
 Mixed Optimization -- RFO/linear search
 Second derivative matrix not updated -- first step.
 ITU=  0
     Eigenvalues ---    0.00447   0.00447   0.00493   0.00534   0.00575
     Eigenvalues ---    0.00592   0.00623   0.01408   0.01926   0.01927
     Eigenvalues ---    0.02470   0.02608   0.02698   0.02716   0.04609
     Eigenvalues ---    0.04731   0.05321   0.05520   0.05640   0.05720
     Eigenvalues ---    0.06168   0.06217   0.06268   0.06347   0.09533
     Eigenvalues ---    0.09780   0.14868   0.16000   0.16000   0.16000
     Eigenvalues ---    0.16000   0.16000   0.16000   0.16000   0.16000
     Eigenvalues ---    0.16000   0.16000   0.16000   0.16000   0.16000
     Eigenvalues ---    0.16000   0.17626   0.19191   0.19558   0.22921
     Eigenvalues ---    0.23238   0.24993   0.25000   0.25000   0.25000
     Eigenvalues ---    0.30306   0.30607   0.30724   0.30907   0.31036
     Eigenvalues ---    0.31271   0.33004   0.41546   0.43449   0.45174
     Eigenvalues ---    0.45333   0.47938   0.52172   0.54526   0.55144
     Eigenvalues ---    0.55599   0.57628   0.57689   0.58895   0.60963
     Eigenvalues ---    0.76585   0.91871   0.92557   1.00351   1.11036
 RFO step:  Lambda=-2.76029121D-01 EMin= 4.47024121D-03
 Linear search not attempted -- first point.
 Maximum step size (   0.300) exceeded in Quadratic search.
    -- Step size scaled by   0.542
 Iteration  1 RMS(Cart)=  0.02797066 RMS(Int)=  0.00016660
 Iteration  2 RMS(Cart)=  0.00019804 RMS(Int)=  0.00000454
 Iteration  3 RMS(Cart)=  0.00000005 RMS(Int)=  0.00000454
 ITry= 1 IFail=0 DXMaxC= 1.28D-01 DCOld= 1.00D+10 DXMaxT= 3.00D-01 DXLimC= 3.00D+00 Rises=F
 Variable       Old X    -DE/DX   Delta X   Delta X   Delta X     New X
                                 (Linear)    (Quad)   (Total)
    R1        2.86084   0.00502   0.00000   0.00499   0.00499   2.86583
    R2        2.85530   0.00047   0.00000  -0.00035  -0.00035   2.85495
    R3        2.87358   0.00750   0.00000   0.00702   0.00702   2.88060
    R4        2.82344   0.00523   0.00000   0.00468   0.00468   2.82812
    R5        2.88124   0.00671   0.00000   0.00678   0.00678   2.88802
    R6        2.85499   0.01427   0.00000   0.01315   0.01315   2.86813
    R7        2.86191   0.01269   0.00000   0.01176   0.01176   2.87367
    R8        2.86769   0.01124   0.00000   0.01047   0.01047   2.87816
    R9        2.85945   0.01051   0.00000   0.00972   0.00972   2.86917
   R10        1.82256   0.11813   0.00000   0.07802   0.07802   1.90057
   R11        1.88705   0.08215   0.00000   0.05899   0.05899   1.94604
   R12        1.78526   0.15301   0.00000   0.09594   0.09594   1.88120
   R13        2.50186   0.03827   0.00000   0.02344   0.02344   2.52530
   R14        2.31776  -0.00551   0.00000  -0.00249  -0.00249   2.31528
   R15        1.96205   0.04657   0.00000   0.03653   0.03653   1.99858
   R16        1.79517   0.14165   0.00000   0.09008   0.09008   1.88525
   R17        1.79568   0.14130   0.00000   0.08992   0.08992   1.88560
   R18        1.81705   0.12791   0.00000   0.08384   0.08384   1.90089
   R19        1.93819   0.05063   0.00000   0.03865   0.03865   1.97684
   R20        1.81304   0.13100   0.00000   0.08540   0.08540   1.89843
   R21        1.84435   0.10588   0.00000   0.07199   0.07199   1.91634
   R22        1.91591   0.06611   0.00000   0.04916   0.04916   1.96508
   R23        1.91774   0.06661   0.00000   0.04964   0.04964   1.96738
   R24        2.24519   0.07491   0.00000   0.02930   0.02930   2.27449
   R25        2.28499   0.03703   0.00000   0.01570   0.01570   2.30068
   R26        1.66511   0.17534   0.00000   0.09128   0.09128   1.75639
   R27        1.58782   0.26998   0.00000   0.12257   0.12257   1.71039
    A1        2.12662   0.00088   0.00000   0.00150   0.00150   2.12812
    A2        2.10216  -0.00306   0.00000  -0.00378  -0.00378   2.09838
    A3        2.15806  -0.00211   0.00000  -0.00232  -0.00232   2.15574
    A4        2.06463  -0.00015   0.00000  -0.00008  -0.00007   2.06456
    A5        1.86108   0.00199   0.00000   0.00204   0.00204   1.86313
    A6        2.12197  -0.00141   0.00000  -0.00203  -0.00203   2.11994
    A7        2.03277   0.00404   0.00000   0.00482   0.00482   2.03759
    A8        2.08797   0.00201   0.00000   0.00211   0.00210   2.09008
    A9        2.07494   0.00034   0.00000   0.00013   0.00014   2.07508
   A10        1.94974  -0.00222   0.00000  -0.00212  -0.00212   1.94762
   A11        2.07559   0.00267   0.00000   0.00292   0.00291   2.07851
   A12        2.09051  -0.00368   0.00000  -0.00439  -0.00439   2.08613
   A13        2.08405   0.00244   0.00000   0.00292   0.00291   2.08696
   A14        2.07192  -0.00226   0.00000  -0.00221  -0.00221   2.06971
   A15        1.94574   0.00029   0.00000   0.00020   0.00020   1.94594
   A16        1.94379   0.00558   0.00000   0.00637   0.00636   1.95015
   A17        1.90608  -0.00113   0.00000  -0.00136  -0.00136   1.90472
   A18        1.84944   0.00556   0.00000   0.00737   0.00735   1.85679
   A19        1.94175  -0.00540   0.00000  -0.00759  -0.00758   1.93416
   A20        1.97317  -0.00658   0.00000  -0.00841  -0.00844   1.96474
   A21        1.84440   0.00234   0.00000   0.00423   0.00422   1.84862
   A22        1.99885  -0.00266   0.00000  -0.00275  -0.00275   1.99610
   A23        2.11936   0.00423   0.00000   0.00437   0.00437   2.12373
   A24        2.16469  -0.00157   0.00000  -0.00162  -0.00162   2.16306
   A25        1.87661  -0.00165   0.00000  -0.00124  -0.00124   1.87537
   A26        2.00488  -0.00520   0.00000  -0.00644  -0.00643   1.99845
   A27        1.88082   0.00847   0.00000   0.00967   0.00967   1.89049
   A28        1.77051   0.00867   0.00000   0.01251   0.01252   1.78303
   A29        1.92639  -0.00389   0.00000  -0.00501  -0.00501   1.92137
   A30        1.99862  -0.00668   0.00000  -0.00955  -0.00954   1.98908
   A31        1.88139   0.00481   0.00000   0.00621   0.00620   1.88759
   A32        1.95799   0.00197   0.00000   0.00227   0.00226   1.96025
   A33        1.88978   0.00178   0.00000   0.00215   0.00214   1.89193
   A34        1.89065  -0.00315   0.00000  -0.00382  -0.00383   1.88683
   A35        1.90570  -0.00176   0.00000  -0.00181  -0.00182   1.90388
   A36        1.93704  -0.00350   0.00000  -0.00479  -0.00479   1.93225
   A37        1.96484   0.00142   0.00000   0.00172   0.00172   1.96655
   A38        1.92339   0.00059   0.00000   0.00049   0.00048   1.92388
   A39        1.86579   0.00487   0.00000   0.00634   0.00633   1.87212
   A40        1.92899  -0.00274   0.00000  -0.00389  -0.00389   1.92511
   A41        1.88487  -0.00163   0.00000  -0.00155  -0.00156   1.88330
   A42        1.89316  -0.00245   0.00000  -0.00299  -0.00300   1.89016
   A43        2.10027  -0.01580   0.00000  -0.01629  -0.01629   2.08398
   A44        2.05675  -0.01022   0.00000  -0.01053  -0.01054   2.04621
   A45        2.12616   0.02603   0.00000   0.02684   0.02683   2.15299
   A46        2.11437  -0.00072   0.00000  -0.00086  -0.00087   2.11351
   A47        2.11120  -0.00502   0.00000  -0.00621  -0.00621   2.10499
   A48        2.05518   0.00590   0.00000   0.00737   0.00736   2.06254
    D1       -2.41414  -0.00009   0.00000  -0.00025  -0.00025  -2.41439
    D2        0.06939  -0.00012   0.00000   0.00020   0.00020   0.06959
    D3        0.01372   0.00034   0.00000   0.00010   0.00010   0.01383
    D4        2.49725   0.00032   0.00000   0.00055   0.00055   2.49780
    D5       -0.02585  -0.00058   0.00000  -0.00100  -0.00100  -0.02685
    D6        2.46927  -0.00167   0.00000  -0.00303  -0.00303   2.46624
    D7       -2.44289  -0.00099   0.00000  -0.00128  -0.00128  -2.44417
    D8        0.05223  -0.00207   0.00000  -0.00332  -0.00332   0.04892
    D9        1.11991   0.00071   0.00000   0.00197   0.00197   1.12189
   D10       -2.04648   0.00050   0.00000   0.00160   0.00160  -2.04488
   D11        2.40470   0.00226   0.00000   0.00399   0.00399   2.40869
   D12       -0.76170   0.00204   0.00000   0.00362   0.00362  -0.75808
   D13       -1.39181   0.00209   0.00000   0.00374   0.00374  -1.38807
   D14        1.72498   0.00188   0.00000   0.00337   0.00337   1.72834
   D15       -0.80843  -0.00241   0.00000  -0.00485  -0.00485  -0.81328
   D16        2.32957   0.00116   0.00000   0.00204   0.00204   2.33161
   D17       -2.04129  -0.00317   0.00000  -0.00562  -0.00562  -2.04691
   D18        1.09672   0.00039   0.00000   0.00126   0.00126   1.09798
   D19        1.71394  -0.00208   0.00000  -0.00433  -0.00433   1.70961
   D20       -1.43123   0.00148   0.00000   0.00256   0.00256  -1.42868
   D21        2.44803   0.00090   0.00000   0.00168   0.00168   2.44971
   D22       -0.03041   0.00004   0.00000   0.00015   0.00015  -0.03026
   D23       -0.04987   0.00147   0.00000   0.00223   0.00223  -0.04764
   D24       -2.52832   0.00062   0.00000   0.00070   0.00070  -2.52761
   D25        1.59307   0.00093   0.00000   0.00101   0.00101   1.59408
   D26       -0.48698   0.00054   0.00000   0.00035   0.00035  -0.48663
   D27       -2.63055   0.00243   0.00000   0.00341   0.00342  -2.62713
   D28        2.82442  -0.00137   0.00000  -0.00190  -0.00191   2.82251
   D29        0.74437  -0.00176   0.00000  -0.00256  -0.00257   0.74181
   D30       -1.39920   0.00013   0.00000   0.00050   0.00050  -1.39870
   D31       -0.91835  -0.00115   0.00000  -0.00178  -0.00178  -0.92013
   D32       -2.99840  -0.00155   0.00000  -0.00244  -0.00244  -3.00083
   D33        1.14122   0.00034   0.00000   0.00062   0.00063   1.14185
   D34        0.55542  -0.00154   0.00000  -0.00241  -0.00241   0.55300
   D35       -1.60684   0.00057   0.00000   0.00105   0.00105  -1.60579
   D36        2.62233   0.00038   0.00000   0.00071   0.00071   2.62305
   D37       -0.63613  -0.00069   0.00000  -0.00140  -0.00140  -0.63754
   D38       -2.79839   0.00142   0.00000   0.00206   0.00206  -2.79633
   D39        1.43078   0.00123   0.00000   0.00172   0.00172   1.43251
   D40        3.10165  -0.00155   0.00000  -0.00229  -0.00229   3.09936
   D41        0.93940   0.00056   0.00000   0.00117   0.00117   0.94057
   D42       -1.11462   0.00037   0.00000   0.00083   0.00084  -1.11378
   D43       -0.54015  -0.00082   0.00000  -0.00076  -0.00075  -0.54090
   D44        1.61130  -0.00470   0.00000  -0.00703  -0.00704   1.60426
   D45       -2.69252   0.00028   0.00000   0.00094   0.00093  -2.69159
   D46        0.67549   0.00185   0.00000   0.00236   0.00236   0.67785
   D47        2.82694  -0.00203   0.00000  -0.00392  -0.00393   2.82301
   D48       -1.47688   0.00295   0.00000   0.00405   0.00405  -1.47283
   D49       -3.08510   0.00167   0.00000   0.00283   0.00284  -3.08226
   D50       -0.93365  -0.00221   0.00000  -0.00345  -0.00345  -0.93710
   D51        1.04572   0.00277   0.00000   0.00452   0.00452   1.05024
   D52        2.54648   0.00226   0.00000   0.00426   0.00425   2.55073
[...]
 7,-0.00007598,-0.00006976,0.00009085,0.00024782,-0.00022758,0.00051419
 ,0.00017106,-0.00012247,0.00012865,0.00021180,-0.00001552,-0.00002440,
 -0.00012108,0.00016820,0.00022258,-0.00000353,0.00014734,0.00012742,-0
 .00009598,-0.00004814,-0.00002589,-0.00002120,-0.00020450,-0.00068733,
 -0.00013224,-0.00004656,0.00006894,-0.00005675,-0.06986231,0.17573597,
 0.00020679,-0.00128372,0.00120868,-0.00581523,0.01045134,0.00957982,0.
 00050505,0.00345271,-0.00061063,-0.00084912,0.00029955,-0.00011540,0.0
 0033306,0.00022037,-0.00010140,0.00038963,0.00005690,-0.00011661,0.066
 47931,-0.11656909,-0.16581131,-0.00047446,0.00028366,0.00038073,-0.000
 04951,0.00073939,-0.00022078,-0.00004124,-0.00041858,-0.00042047,0.000
 02483,-0.00005066,0.00008755,-0.00018783,-0.00015565,0.00034667,-0.000
 11061,-0.00013618,-0.00000126,-0.00005703,0.00011528,0.00011052,-0.000
 17588,-0.00020119,-0.00004875,-0.00003697,-0.00009030,0.00007553,-0.00
 001033,-0.00005969,0.00002707,0.00002821,0.00030756,0.00009666,0.00001
 487,0.00000543,0.00002152,-0.07269997,0.12419884,0.17769150,0.00036792
 ,-0.00024630,-0.00007813,0.00258144,0.00069709,-0.00117748,-0.00036516
 ,-0.00018318,0.00044647,0.00023313,-0.00001670,0.00003699,-0.00001524,
 -0.00012140,-0.00019781,-0.00197722,0.00144001,0.00059129,-0.27709956,
 -0.07992869,0.06867955,0.00083139,-0.00042220,0.00040666,-0.00002757,-
 0.00071164,-0.00146522,-0.00079118,0.00117065,-0.00146784,0.00011321,0
 .00006280,0.00009770,0.00003881,0.00016635,0.00022007,0.00011713,0.000
 04736,0.00005710,0.00004744,-0.00016895,0.00001800,-0.00047070,0.00274
 325,0.00083985,0.00017001,0.00042062,-0.00013453,-0.00001196,0.0000383
 9,0.00000113,0.00003558,-0.00009328,-0.00000918,-0.00003517,-0.0000002
 1,0.00001552,-0.01037138,-0.00343946,0.00188113,0.30221279,-0.00101776
 ,0.00104741,-0.00012132,-0.02752463,-0.00657135,0.00595105,-0.00132483
 ,0.00087395,0.00006187,0.00013479,0.00005165,-0.00032051,-0.00019209,-
 0.00019176,0.00012819,-0.00000448,-0.00136521,-0.00021918,-0.07701539,
 -0.07598879,0.02484334,0.00147985,-0.00571959,0.00254628,0.00009755,-0
 .00011716,0.00082962,0.00005334,0.00003531,-0.00007883,0.00006484,0.00
 007789,0.00002115,0.00090423,-0.00010639,-0.00026793,0.00030133,0.0001
 9340,-0.00009734,0.00010113,0.00014196,-0.00001822,0.00232970,-0.00101
 541,-0.00084188,0.00017818,0.00051199,0.00002238,0.00000908,0.00020379
 ,0.00000810,0.00007358,-0.00003934,0.00000598,-0.00004269,-0.00002862,
 -0.00000239,0.02002902,0.00738550,-0.00481978,0.08276238,0.08113946,0.
 00099610,-0.00019155,0.00040766,0.01140728,0.00224164,-0.00527451,0.00
 031813,-0.00015365,0.00053892,-0.00004374,0.00000695,-0.00014948,0.000
 27406,0.00019721,-0.00025708,0.00032977,-0.00086842,-0.00021215,0.0666
 6610,0.02511052,-0.06679203,-0.00049798,0.00259025,-0.00112367,-0.0014
 4646,0.00332309,0.00012118,-0.00003903,-0.00204883,-0.00053812,-0.0001
 3632,-0.00006398,0.00002754,0.00024087,-0.00042299,-0.00046840,-0.0002
 7344,-0.00035385,0.00011159,-0.00002861,-0.00018630,-0.00012743,0.0007
 4382,-0.00097273,0.00050046,-0.00002911,0.00000107,-0.00001640,0.00003
 936,-0.00001389,0.00002203,-0.00003974,0.00003725,0.00003396,-0.000013
 43,-0.00003195,-0.00001112,0.01974397,0.00724155,-0.00572772,-0.074360
 17,-0.02757668,0.06943241,0.00092496,-0.00046669,-0.00004622,-0.001539
 22,0.00148617,-0.00050620,0.00017531,-0.00017746,-0.00022786,-0.000117
 93,0.00002266,-0.00002921,-0.00028651,-0.00002112,0.00043912,-0.000121
 05,-0.00008816,0.00006308,-0.14025489,-0.00170883,-0.12467036,0.000309
 58,-0.00038230,0.00076780,0.00066540,-0.00110371,-0.00028252,-0.000364
 47,0.00088169,-0.00031896,0.00004537,0.00003125,-0.00013415,-0.0000150
 7,0.00005717,0.00014785,0.00019629,0.00015058,-0.00009125,0.00003700,0
 .00030523,0.00025177,0.00006527,0.00001901,-0.00029362,0.00001272,0.00
 006440,0.00020924,-0.00000541,-0.00001630,0.00000113,0.00000019,0.0000
 2620,0.00002168,0.00002639,0.00005756,0.00003784,0.00784617,-0.0008328
 2,0.01088094,-0.01590397,0.00026077,-0.02471473,0.14787405,-0.00070842
 ,-0.00530907,0.00430370,0.01903319,-0.00294684,0.02647338,-0.00008742,
 0.00225463,-0.00048355,-0.00022723,0.00015626,-0.00005266,0.00195316,0
 .00012240,-0.00173230,0.00000441,-0.00026830,-0.00011386,-0.00111078,-
 0.04626439,-0.00149149,0.00100079,0.00111178,-0.00017575,-0.00108080,-
 0.00151515,-0.00104659,-0.00035099,0.00138932,-0.00013903,-0.00002627,
 0.00006482,0.00060719,-0.00005689,0.00039751,0.00033680,-0.00072382,-0
 .00048351,0.00035806,0.00018815,-0.00003319,-0.00020902,0.00010161,0.0
 0003418,0.00001440,-0.00000999,0.00005091,-0.00008737,0.00005080,-0.00
 000249,0.00006170,-0.00001980,0.00008112,0.00001618,-0.00000464,-0.000
 12641,-0.00008063,-0.01399565,0.00036309,-0.01629519,-0.00466185,-0.00
 065599,-0.00857309,0.00142238,0.05186375,0.00118017,0.00143163,-0.0005
 2826,-0.00754593,0.00172262,-0.01046368,0.00007356,-0.00003306,0.00067
 054,-0.00011783,-0.00004475,0.00003556,-0.00069908,-0.00044545,0.00087
 166,-0.00020297,0.00020750,-0.00018782,-0.12445028,-0.00173044,-0.2189
 7058,-0.00056497,-0.00084338,0.00036935,0.00111076,-0.00014964,0.00002
 767,-0.00044072,0.00008720,-0.00011973,0.00002648,0.00008309,-0.000243
 25,-0.00050292,0.00003917,0.00017884,0.00044442,0.00034811,-0.00016612
 ,-0.00005151,0.00001866,0.00023771,-0.00002109,0.00010455,0.00004071,-
 0.00006667,-0.00001029,0.00003428,-0.00002617,0.00001619,-0.00004186,0
 .00001729,0.00004638,-0.00000944,0.00001075,0.00006084,0.00006940,-0.0
 1318866,0.00038390,-0.01672532,0.00589996,-0.00063850,0.00879073,0.138
 27279,-0.00120531,0.23569720,0.00089129,-0.00053398,-0.00081514,0.0015
 0867,-0.02739485,0.01526996,0.00135403,-0.00065107,0.00041154,-0.00062
 778,0.00043931,0.00023541,-0.00416344,-0.00383666,-0.00081347,-0.00003
 410,0.00007206,0.00000561,-0.00635920,-0.00064578,0.00119935,-0.049476
 23,-0.00194404,0.00170261,0.00004516,-0.00044912,-0.00055890,-0.000024
 97,0.00028020,-0.00002174,0.00063466,0.00101549,0.00071554,0.00024105,
 0.00009076,0.00014239,0.00131193,0.00238532,-0.00052615,0.00002886,-0.
 00000721,-0.00003561,0.00016287,0.00003215,-0.00005563,-0.00004065,0.0
 0007160,0.00000325,-0.00034162,0.00169082,0.00094887,0.00010290,0.0000
 4693,-0.00016047,0.00013794,-0.00000937,-0.00025430,-0.00002925,0.0001
 0840,-0.00022765,0.00003261,-0.00189849,0.00091080,0.00006802,0.000276
 48,0.00014823,0.05465114,0.00031677,-0.00031810,0.00067252,-0.00120492
 ,-0.00605481,0.00192366,0.00004843,-0.00003661,0.00000772,0.00093435,-
 0.00079269,-0.00044897,-0.00004810,-0.00026699,-0.00000163,-0.00006874
 ,-0.00003660,-0.00005155,-0.00206335,0.00026684,0.00030324,-0.00642354
 ,-0.25880017,0.12026835,0.00004117,-0.00017152,-0.00008021,-0.00004105
 ,0.00006353,-0.00004639,0.00003620,0.00000215,-0.00007467,0.00001994,0
 .00002577,0.00000654,0.00200063,-0.00075710,0.00095461,0.00000776,-0.0
 0001201,-0.00000983,0.00002654,-0.00002199,0.00001315,-0.00002396,0.00
 004183,0.00001013,0.00172205,-0.00118732,-0.00122813,0.00012420,0.0000
 8375,-0.00005650,-0.00004828,-0.00001795,-0.00000151,0.00007231,0.0004
 4698,0.00002313,0.00011303,-0.00017834,0.00045784,0.00020045,0.0000194
 4,0.00004170,0.00396223,0.28065207,-0.00041081,0.00023249,-0.00006896,
 -0.00016025,0.00550174,-0.00489710,-0.00001490,0.00080566,0.00032283,0
 .00015039,0.00043372,-0.00076040,-0.00275817,-0.00201310,0.00008586,-0
 .00015233,-0.00020939,-0.00014592,0.00145927,-0.00029316,-0.00024914,0
 .00452664,0.12088808,-0.11764108,-0.00013084,0.00004936,-0.00014457,0.
 00003390,-0.00008796,-0.00002427,0.00041097,0.00044524,0.00029226,0.00
 016322,-0.00001796,-0.00002449,-0.00006614,0.00144457,-0.00171256,0.00
 001917,0.00003194,-0.00005182,-0.00008523,-0.00005402,0.00006783,0.000
 03149,-0.00000418,0.00002291,0.00057081,-0.00126737,0.00060689,-0.0003
 5999,-0.00014462,0.00029456,0.00005978,-0.00005615,-0.00010213,-0.0000
 9107,0.00034670,0.00015612,-0.00008382,0.00052898,0.00038010,0.0000778
 5,-0.00030119,0.00029996,-0.00332080,-0.13102935,0.12408714,0.00199232
 ,0.00043349,-0.00063583,-0.01654482,0.02338589,0.01930217,-0.00293357,
 -0.00400567,0.00310975,0.00016352,-0.00091020,0.00001159,-0.00068188,0
 .00015885,0.00033010,-0.00132143,0.00139106,-0.00093510,0.00081414,0.0
 0167800,-0.00043045,-0.08683987,0.07275958,0.05867243,-0.00009237,0.00
 074891,0.00039005,0.00019891,-0.00054714,-0.00024736,0.00031607,-0.000
 14122,-0.00050424,0.00019381,-0.00021295,-0.00023987,0.00017717,-0.000
 10867,-0.00027543,0.00008008,0.00000917,0.00002163,-0.00001502,-0.0001
 0013,0.00000885,-0.00046477,-0.00015236,0.00058818,0.00007127,0.000008
 96,-0.00011200,0.00007749,0.00016874,0.00000099,-0.00003169,0.00009616
 ,0.00019080,0.00017099,-0.00107262,-0.00005260,0.00016041,0.00004730,-
 0.00048522,0.00003437,-0.00019320,-0.00003993,-0.00021226,-0.00034338,
 -0.00087298,0.09686491,0.00061831,0.00017790,-0.00005435,-0.00347711,0
 .00616093,0.00645223,-0.00215876,-0.00065624,0.00060607,0.00017212,-0.
 00040752,0.00038271,0.00001408,-0.00081021,-0.00064322,-0.00032985,0.0
 0042060,-0.00002434,-0.00075766,0.00073915,0.00079936,0.07359046,-0.18
 252077,-0.10933421,0.00008603,-0.00024868,0.00007086,0.00000438,0.0001
 1290,0.00007243,-0.00011623,0.00034401,0.00038554,0.00005588,0.0000978
 8,-0.00000511,0.00041371,0.00035240,0.00064069,-0.00000176,-0.00001853
 ,0.00001851,0.00004739,0.00005777,-0.00005246,-0.00013537,0.00006449,0
 .00012928,0.00004113,0.00041772,-0.00027623,0.00016591,0.00010059,-0.0
 0012904,0.00000659,0.00005022,-0.00001147,-0.00024623,0.00015032,-0.00
 004962,0.00010024,0.00024713,0.00006526,0.00002677,-0.00007014,0.00002
 146,0.01018560,-0.01806472,-0.01821868,-0.07885900,0.19522969,0.000664
 68,0.00017212,0.00094675,0.00366615,-0.00550324,-0.00554162,0.00003695
 ,0.00182517,0.00035922,-0.00019597,0.00046925,-0.00013657,0.00041239,0
 .00035647,-0.00012512,0.00017897,-0.00030010,0.00026001,-0.00026581,-0
 .00086586,0.00004151,0.05930585,-0.10794093,-0.13660051,-0.00004355,-0
 .00056304,0.00009313,0.00002530,0.00032930,0.00002851,0.00000018,-0.00
 013288,0.00007350,0.00008040,0.00013261,0.00001078,-0.00024715,-0.0001
 8060,-0.00015331,-0.00004304,0.00001351,-0.00000552,0.00005867,0.00005
 478,-0.00000990,0.00012414,0.00005751,-0.00012003,-0.00002708,-0.00019
 969,-0.00000298,-0.00003429,-0.00007506,0.00009973,-0.00010758,0.00005
 088,0.00008557,0.00024789,0.00075999,0.00023785,-0.00027404,0.00018961
 ,0.00025093,0.00010435,-0.00008857,-0.00022691,-0.00730594,0.01151743,
 0.01135095,-0.06739244,0.11946942,0.14439289,-0.00353010,-0.00359079,0
 .00060134,-0.02122595,-0.00202055,-0.02502344,0.00203981,0.00022887,-0
 .00071114,-0.00013951,0.00011258,0.00016176,-0.00012180,-0.00154214,0.
 00164827,0.00019342,-0.00006218,0.00001907,0.00074479,0.00111790,-0.00
 088172,-0.12969260,-0.01225555,-0.12207990,-0.00039026,0.00246299,-0.0
 0005246,-0.00011030,-0.00038897,-0.00005718,0.00006498,0.00004642,-0.0
 0054109,-0.00115615,-0.00073714,0.00021917,0.00050205,0.00048937,-0.00
 017807,-0.00008580,0.00001845,0.00017016,-0.00002316,0.00002936,-0.000
 02390,0.00003585,-0.00001763,-0.00002480,-0.00007667,0.00003225,-0.000
 16273,0.00012499,0.00011422,0.00008710,-0.00006068,0.00033950,0.000306
 88,0.00000341,-0.00005187,0.00012683,0.00023559,0.00026307,0.00032644,
 0.00034885,-0.00068427,0.00068441,0.00026833,0.00078877,0.00122915,0.0
 0808892,0.00031570,0.01106510,0.14406084,-0.00063144,-0.00061469,0.000
 72211,-0.00483557,-0.00164036,-0.00663398,0.00030287,0.00068442,0.0006
 0734,-0.00025815,0.00018432,-0.00005599,-0.00047466,-0.00158655,-0.000
 04988,0.00003396,-0.00001549,-0.00003070,-0.00016330,0.00022956,-0.000
 84006,-0.01240109,-0.04954132,-0.01739329,-0.00006979,0.00040244,-0.00
 019775,-0.00006986,-0.00012369,-0.00000787,0.00006814,0.00045836,0.000
 30139,-0.00016390,-0.00012948,0.00006067,0.00128630,0.00038584,0.00018
 480,0.00000556,0.00002659,-0.00000621,-0.00004584,-0.00003066,-0.00000
 326,-0.00000801,-0.00001600,-0.00000206,0.00001426,0.00006527,0.000324
 79,-0.00009690,-0.00001692,-0.00006265,0.00015281,-0.00011977,-0.00020
 505,-0.00012328,0.00000835,-0.00005644,0.00025412,0.00008885,0.0001584
 7,-0.00020736,-0.00020209,0.00051753,0.01677790,0.00513700,0.02302889,
 -0.01428033,-0.00191925,-0.01955532,0.01495462,0.04831946,0.00256030,0
 .00073962,0.00057290,0.00544292,0.00138487,0.00824520,-0.00096655,-0.0
 0016885,0.00081689,-0.00011466,-0.00006346,-0.00011446,0.00066498,0.00
 100185,-0.00014298,-0.00020007,0.00025482,-0.00009107,0.00020973,-0.00
 005805,0.00031324,-0.12228829,-0.01764248,-0.22558471,0.00053048,-0.00
 049067,0.00042430,-0.00001579,0.00004707,0.00006931,-0.00023602,-0.000
 15945,-0.00003841,0.00017309,0.00015049,-0.00015834,-0.00090672,-0.000
 27199,-0.00002841,0.00002214,-0.00000717,0.00001191,0.00000828,0.00000
 058,-0.00000104,-0.00007780,-0.00000274,0.00006717,-0.00005928,-0.0000
 8395,-0.00018348,0.00001506,0.00011468,0.00002690,0.00001037,-0.000119
 46,0.00017225,-0.00000327,0.00009477,-0.00010171,0.00000755,-0.0001845
 0,0.00023510,-0.00003368,-0.00017150,0.00027589,-0.00762354,-0.0031740
 2,-0.01212090,-0.01033829,-0.00032240,-0.01529827,0.13299168,0.0191487
 4,0.24262304,0.00025686,0.00023788,0.00241551,-0.00000075,-0.00020386,
 -0.00098083,-0.00104504,-0.00000538,-0.00017004,-0.00008469,-0.0000343
 5,-0.00001541,-0.01261631,-0.00944547,-0.00364829,0.00024852,0.0001142
 2,0.00011077,0.00007159,0.00006880,-0.00006544,0.00025020,-0.00008873,
 -0.00005188,0.00144154,0.00272342,0.00487697,-0.00158994,-0.00222748,-
 0.00140492,-0.02625588,-0.09823278,0.00649023,-0.00097388,-0.00005194,
 -0.00048199,0.00683749,-0.00163867,-0.00196222,-0.00010878,-0.00004066
 ,0.00005572,0.00002353,-0.00007899,0.00005599,-0.00004477,0.00006866,0
 .00004717,0.00003799,-0.00008130,-0.00014531,-0.00002679,0.00003273,0.
 00003747,0.00002114,0.00000559,-0.00000514,-0.00000793,0.00011022,-0.0
 0006261,-0.00009011,-0.00004740,0.00010421,-0.00004141,-0.00001844,0.0
 0003345,-0.00017039,-0.00009481,-0.00010395,-0.00016578,0.00011699,0.0
 0001499,-0.00000907,-0.00002819,0.00014406,0.03915708,0.00025318,0.000
 00980,0.00088692,-0.00026423,-0.00025635,-0.00046210,-0.00059495,-0.00
 013204,0.00006501,-0.00005955,-0.00002344,0.00001140,-0.00020510,-0.01
 253032,-0.00189048,0.00022440,0.00008249,0.00008349,0.00007747,0.00022
 909,0.00022967,-0.00001721,0.00000936,0.00004510,-0.00199467,0.0071163
 2,0.00327340,-0.00137839,-0.00546354,-0.00103313,-0.11348821,-0.433223
 15,0.00812288,0.00289400,-0.00261949,-0.00095054,-0.00044967,0.0044328
 9,-0.00051072,-0.00009256,-0.00002826,0.00004595,0.00000851,-0.0000688
 2,0.00007817,-0.00001116,0.00004172,0.00001438,-0.00004786,-0.00001345
 ,-0.00009536,0.00003009,-0.00000142,-0.00004401,0.00000894,-0.00001018
 ,0.00004446,0.00006597,-0.00005605,0.00000873,-0.00004166,-0.00004416,
 0.00006398,-0.00001194,-0.00012530,0.00000015,-0.00009365,-0.00005452,
 -0.00008567,0.00002516,0.00003579,-0.00003204,0.00003497,-0.00003290,0
 .00002559,0.11260752,0.44483146,-0.00060376,0.00050006,-0.00158663,-0.
 00008492,0.00045349,-0.00024163,0.00019891,-0.00022306,-0.00006968,-0.
 00005800,-0.00015074,0.00010588,-0.00341618,-0.02513760,0.01839773,-0.
 00001269,0.00007903,0.00005961,-0.00001115,-0.00010040,-0.00012956,-0.
 00011918,-0.00012483,0.00020041,0.00509515,-0.00938109,-0.00861340,-0.
 00013667,0.00578983,0.00361577,0.00341679,0.00705371,-0.07754831,-0.00
 258415,0.00257516,0.00038672,-0.00428591,-0.00562428,-0.00680053,0.000
 06173,0.00003481,0.00009299,-0.00001670,0.00009457,-0.00013105,-0.0000
 1383,-0.00006330,-0.00002123,0.00017883,0.00009853,0.00022264,-0.00002
 808,0.00003545,0.00001338,0.00006488,0.00014075,-0.00003906,-0.0000792
 4,0.00003091,-0.00001566,0.00005432,0.00006027,-0.00013950,0.00006579,
 0.00006427,0.00006455,0.00017564,0.00006264,0.00007299,0.00002761,0.00
 000410,-0.00000572,0.00009655,0.00008947,-0.00005347,-0.00334160,-0.00
 356249,0.06560312,0.00351757,-0.00377686,-0.00313952,-0.00059037,-0.00
 035046,0.00119370,0.00140753,0.00060100,0.00007014,0.00003672,0.000074
 59,0.00003516,0.00418941,0.00587814,-0.01266862,-0.00035158,-0.0000971
 0,-0.00031725,0.00008038,0.00007391,0.00022818,-0.00015832,0.00003680,
 -0.00022252,0.00069165,-0.00088183,-0.00017615,-0.00025599,0.00050601,
 0.00069440,-0.04110486,-0.06746070,0.09868228,-0.00011703,0.00016882,-
 0.00019254,-0.00425982,0.00281958,0.00197090,0.00010763,0.00002357,-0.
 00012251,0.00001881,0.00000605,0.00001213,-0.00002005,0.00000246,0.000
 03457,-0.00005582,-0.00005737,-0.00001789,-0.00001368,0.00003246,-0.00
 000303,-0.00003840,-0.00002749,0.00002073,-0.00001211,0.00004470,-0.00
 001965,-0.00001825,-0.00002237,0.00000707,0.00001998,-0.00007052,0.000
 01644,0.00004044,-0.00005471,-0.00012136,-0.00010091,0.00012067,-0.000
 04911,-0.00008980,0.00000714,0.00008331,-0.00511443,0.00252058,0.00535
 584,0.04219130,-0.00333256,-0.00089132,-0.00202272,0.00051182,0.000182
 30,-0.00045303,-0.00014848,0.00030177,-0.00048021,0.00013439,0.0000982
 8,0.00005924,0.00811430,0.01652715,-0.01558391,-0.00013436,-0.00002377
 ,-0.00004010,-0.00010712,-0.00014833,-0.00019319,0.00006277,0.00008428
 ,0.00009462,0.00054159,-0.00238399,-0.00051353,-0.00034262,0.00033882,
 0.00203012,-0.06182506,-0.13770210,0.14088803,-0.00051886,0.00063597,-
 0.00001236,0.00080850,-0.00355373,0.00280736,0.00004640,0.00001908,-0.
 00004124,-0.00000807,0.00001856,-0.00002624,0.00002872,-0.00001880,-0.
 00001216,-0.00001927,0.00003200,0.00000618,0.00002458,-0.00004825,-0.0
 0001524,-0.00001556,-0.00001733,0.00000119,-0.00000673,-0.00000371,0.0
 0002319,0.00001924,0.00002381,-0.00003718,0.00000441,0.00009367,-0.000
 02986,0.00002898,0.00003210,0.00004545,0.00001559,-0.00004343,0.000039
 30,0.00000205,-0.00000127,-0.00004238,-0.00376756,-0.00210553,0.027200
 73,0.05988292,0.12855377,-0.00093166,-0.00349544,-0.00210241,-0.000176
 54,-0.00009739,-0.00071193,0.00012649,0.00101004,-0.00026120,0.0002057
 6,0.00007918,0.00018722,0.00983018,0.01569558,-0.02848564,-0.00030045,
 -0.00001450,-0.00019006,-0.00000175,-0.00005546,-0.00001740,0.00012195
 ,0.00018239,0.00008356,-0.00041801,-0.00149381,-0.00017058,-0.00035398
 ,0.00015123,0.00127074,0.08512726,0.14407688,-0.36191526,-0.00008278,0
 .00014429,0.00012067,0.00049305,0.00209277,0.00631920,0.00009129,0.000
 01842,-0.00006072,-0.00000066,0.00000561,-0.00001338,0.00000858,-0.000
 00730,0.00001560,-0.00014387,-0.00011032,-0.00014928,-0.00000969,-0.00
 005306,-0.00002705,-0.00003375,-0.00003304,0.00008153,-0.00001250,0.00
 002742,-0.00000323,-0.00000505,-0.00000976,-0.00001500,0.00000752,0.00
 001141,0.00001891,-0.00014988,-0.00005993,-0.00009705,-0.00009239,0.00
 000324,-0.00000485,0.00000251,-0.00004368,0.00006317,-0.00194694,-0.00
 433275,0.00655963,-0.09135468,-0.15369205,0.37950479\\-0.00001140,-0.0
 0000691,-0.00002983,-0.00001080,0.00000018,0.00000818,0.00001263,0.000
 01432,0.00001437,-0.00000407,-0.00001614,0.00001038,-0.00000665,-0.000
 00388,0.00003761,-0.00000365,0.00000582,0.00000387,-0.00000428,0.00000
 042,0.00000065,0.00000217,-0.00000381,0.00000656,0.00003071,0.00000582
 ,-0.00002656,-0.00000454,0.00001325,-0.00000029,-0.00000941,-0.0000263
 6,0.00000190,-0.00002619,0.00000836,0.00000735,0.00001261,0.00001312,-
 0.00000494,-0.00000041,-0.00000211,-0.00000018,-0.00000421,-0.00000589
 ,-0.00000247,0.00000913,-0.00000206,-0.00000069,0.00001540,0.00000152,
 -0.00000429,0.00000619,-0.00000051,-0.00000170,0.00000483,-0.00000251,
 0.00000258,-0.00000435,-0.00000152,-0.00000547,-0.00001055,-0.00000085
 ,0.00000119,-0.00000491,-0.00000588,0.00000299,0.00000208,-0.00000059,
 -0.00000020,-0.00000308,-0.00000767,-0.00000492,0.00000235,-0.00000635
 ,0.00000627,0.00000373,0.00001945,-0.00000431,0.00000669,0.00001078,-0
 .00001805\\\@


 WOMEN HOLD UP HALF THE SKY. -- MAO TSE TUNG
 Job cpu time:       0 days  0 hours 29 minutes 47.3 seconds.
 File lengths (MBytes):  RWF=    210 Int=      0 D2E=      0 Chk=      7 Scr=      1
 Normal termination of Gaussian 09 at Fri Aug 20 15:57:13 2021.
