 Entering Gaussian System, Link 0=g09
 Input=B3LYP6-31G.GULGAV.gjf
 Output=B3LYP6-31G.GULGAV.log
 Initial command:
 /public/home/users/caep010/software/Gaussian09/g09/l1.exe "/public/home/users/caep010/.cache/gau_scr/Gau-138525.inp" -scrdir="/public/home/users/caep010/.cache/gau_scr/"
 Entering Link 1 = /public/home/users/caep010/software/Gaussian09/g09/l1.exe PID=    138526.
  
 Copyright (c) 1988,1990,1992,1993,1995,1998,2003,2009,2015,
            Gaussian, Inc.  All Rights Reserved.
  
 This is part of the Gaussian(R) 09 program.  It is based on
 the Gaussian(R) 03 system (copyright 2003, Gaussian, Inc.),
 the Gaussian(R) 98 system (copyright 1998, Gaussian, Inc.),
 the Gaussian(R) 94 system (copyright 1995, Gaussian, Inc.),
 the Gaussian 92(TM) system (copyright 1992, Gaussian, Inc.),
 the Gaussian 90(TM) system (copyright 1990, Gaussian, Inc.),
 the Gaussian 88(TM) system (copyright 1988, Gaussian, Inc.),
 the Gaussian 86(TM) system (copyright 1986, Carnegie Mellon
 University), and the Gaussian 82(TM) system (copyright 1983,
 Carnegie Mellon University). Gaussian is a federally registered
 trademark of Gaussian, Inc.
  
 This software contains proprietary and confidential information,
 including trade secrets, belonging to Gaussian, Inc.
  
 This software is provided under written license and may be
 used, copied, transmitted, or stored only in accord with that
 written license.
  
 The following legend is applicable only to US Government
 contracts under FAR:
  
                    RESTRICTED RIGHTS LEGEND
  
 Use, reproduction and disclosure by the US Government is
 subject to restrictions as set forth in subparagraphs (a)
 and (c) of the Commercial Computer Software - Restricted
 Rights clause in FAR 52.227-19.
  
 Gaussian, Inc.
 340 Quinnipiac St., Bldg. 40, Wallingford CT 06492
  
  
 ---------------------------------------------------------------
 Warning -- This program may not be used in any manner that
 competes with the business of Gaussian, Inc. or will provide
 assistance to any competitor of Gaussian, Inc.  The licensee
 of this program is prohibited from giving any competitor of
 Gaussian, Inc. access to this program.  By using this program,
 the user acknowledges that Gaussian, Inc. is engaged in the
 business of creating and licensing software in the field of
 computational chemistry and represents and warrants to the
 licensee that it is not a competitor of Gaussian, Inc. and that
 it will not use this program in any manner prohibited above.
 ---------------------------------------------------------------
  

 Cite this work as:
 Gaussian 09, Revision E.01,
 M. J. Frisch, G. W. Trucks, H. B. Schlegel, G. E. Scuseria, 
 M. A. Robb, J. R. Cheeseman, G. Scalmani, V. Barone, B. Mennucci, 
 G. A. Petersson, H. Nakatsuji, M. Caricato, X. Li, H. P. Hratchian, 
 A. F. Izmaylov, J. Bloino, G. Zheng, J. L. Sonnenberg, M. Hada, 
 M. Ehara, K. Toyota, R. Fukuda, J. Hasegawa, M. Ishida, T. Nakajima, 
 Y. Honda, O. Kitao, H. Nakai, T. Vreven, J. A. Montgomery, Jr., 
 J. E. Peralta, F. Ogliaro, M. Bearpark, J. J. Heyd, E. Brothers, 
 K. N. Kudin, V. N. Staroverov, T. Keith, R. Kobayashi, J. Normand, 
 K. Raghavachari, A. Rendell, J. C. Burant, S. S. Iyengar, J. Tomasi, 
 M. Cossi, N. Rega, J. M. Millam, M. Klene, J. E. Knox, J. B. Cross, 
 V. Bakken, C. Adamo, J. Jaramillo, R. Gomperts, R. E. Stratmann, 
 O. Yazyev, A. J. Austin, R. Cammi, C. Pomelli, J. W. Ochterski, 
 R. L. Martin, K. Morokuma, V. G. Zakrzewski, G. A. Voth, 
 P. Salvador, J. J. Dannenberg, S. Dapprich, A. D. Daniels, 
 O. Farkas, J. B. Foresman, J. V. Ortiz, J. Cioslowski, 
 and D. J. Fox, Gaussian, Inc., Wallingford CT, 2013.
 
 ******************************************
 Gaussian 09:  ES64L-G09RevE.01 30-Nov-2015
                20-Aug-2021 
 ******************************************
 %nproc=32
 Will use up to   32 processors via shared memory.
 %mem=180GB
 -------------------------
 #P OPT Freq B3LYP/6-31G**
 -------------------------
 1/14=-1,18=20,19=15,26=3,38=1/1,3;
 2/9=110,12=2,17=6,18=5,40=1/2;
 3/5=1,6=6,7=101,11=2,16=1,25=1,30=1,71=1,74=-5/1,2,3;
 4//1;
 5/5=2,38=5/2;
 6/7=2,8=2,9=2,10=2,28=1/1;
 7//1,2,3,16;
 1/14=-1,18=20,19=15,26=3/3(2);
 2/9=110/2;
 99//99;
 2/9=110/2;
 3/5=1,6=6,7=101,11=2,16=1,25=1,30=1,71=1,74=-5/1,2,3;
 4/5=5,16=3,69=1/1;
 5/5=2,38=5/2;
 7//1,2,3,16;
 1/14=-1,18=20,19=15,26=3/3(-5);
 2/9=110/2;
 6/7=2,8=2,9=2,10=2,19=2,28=1/1;
 99/9=1/99;
 Leave Link    1 at Fri Aug 20 15:38:31 2021, MaxMem= 24159191040 cpu:         2.2
 (Enter /public/home/users/caep010/software/Gaussian09/g09/l101.exe)
 ------
 GULGAV
 ------
 Symbolic Z-matrix:
 Charge =  0 Multiplicity = 1
 O                     11.8027   1.9602    5.0555 
 N                     11.1475   1.9031    4.0379 
 O                     11.6246   1.7661    2.9238 
 C                     9.7029    1.9285    4.1473 
 N                     8.9686    1.2854    3.2128 
 C                     7.7186    1.4423    3.6221 
 H                     6.9699    1.1248    3.2336 
 N                     7.6383    2.1598    4.7388 
 H                     6.9809    2.3675    5.2753 
 C                     8.9103    2.4836    5.0957 
 N                     9.1488    3.3672    6.189 
 O                     10.2284   3.9277    6.2547 
 O                     8.2265    3.5413    6.9824 
 
 NAtoms=     13 NQM=       13 NQMF=       0 NMMI=      0 NMMIF=      0
                NMic=       0 NMicF=      0.
                    Isotopes and Nuclear Properties:
 (Nuclear quadrupole moments (NQMom) in fm**2, nuclear magnetic moments (NMagM)
  in nuclear magnetons)

  Atom         1           2           3           4           5           6           7           8           9          10
 IAtWgt=          16          14          16          12          14          12           1          14           1          12
 AtmWgt=  15.9949146  14.0030740  15.9949146  12.0000000  14.0030740  12.0000000   1.0078250  14.0030740   1.0078250  12.0000000
 NucSpn=           0           2           0           0           2           0           1           2           1           0
 AtZEff=   0.0000000   0.0000000   0.0000000   0.0000000   0.0000000   0.0000000   0.0000000   0.0000000   0.0000000   0.0000000
 NQMom=    0.0000000   2.0440000   0.0000000   0.0000000   2.0440000   0.0000000   0.0000000   2.0440000   0.0000000   0.0000000
 NMagM=    0.0000000   0.4037610   0.0000000   0.0000000   0.4037610   0.0000000   2.7928460   0.4037610   2.7928460   0.0000000
 AtZNuc=   8.0000000   7.0000000   8.0000000   6.0000000   7.0000000   6.0000000   1.0000000   7.0000000   1.0000000   6.0000000

  Atom        11          12          13
 IAtWgt=          14          16          16
 AtmWgt=  14.0030740  15.9949146  15.9949146
 NucSpn=           2           0           0
 AtZEff=   0.0000000   0.0000000   0.0000000
 NQMom=    2.0440000   0.0000000   0.0000000
 NMagM=    0.4037610   0.0000000   0.0000000
 AtZNuc=   7.0000000   8.0000000   8.0000000
 Leave Link  101 at Fri Aug 20 15:38:31 2021, MaxMem= 24159191040 cpu:        10.5
 (Enter /public/home/users/caep010/software/Gaussian09/g09/l103.exe)

 GradGradGradGradGradGradGradGradGradGradGradGradGradGradGradGradGradGrad
 Berny optimization.
 Initialization pass.
                           ----------------------------
                           !    Initial Parameters    !
                           ! (Angstroms and Degrees)  !
 --------------------------                            --------------------------
 ! Name  Definition              Value          Derivative Info.                !
 --------------------------------------------------------------------------------
 ! R1    R(1,2)                  1.2116         estimate D2E/DX2                !
 ! R2    R(2,3)                  1.2197         estimate D2E/DX2                !
 ! R3    R(2,4)                  1.449          estimate D2E/DX2                !
 ! R4    R(4,5)                  1.3513         estimate D2E/DX2                !
 ! R5    R(4,10)                 1.3549         estimate D2E/DX2                !
 ! R6    R(5,6)                  1.3246         estimate D2E/DX2                !
 ! R7    R(6,7)                  0.9013         estimate D2E/DX2                !
 ! R8    R(6,8)                  1.3298         estimate D2E/DX2                !
 ! R9    R(8,9)                  0.8736         estimate D2E/DX2                !
 ! R10   R(8,10)                 1.3602         estimate D2E/DX2                !
 ! R11   R(10,11)                1.4258         estimate D2E/DX2                !
 ! R12   R(11,12)                1.2182         estimate D2E/DX2                !
 ! R13   R(11,13)                1.229          estimate D2E/DX2                !
 ! A1    A(1,2,3)              124.1197         estimate D2E/DX2                !
 ! A2    A(1,2,4)              118.3524         estimate D2E/DX2                !
 ! A3    A(3,2,4)              117.447          estimate D2E/DX2                !
 ! A4    A(2,4,5)              118.7641         estimate D2E/DX2                !
 ! A5    A(2,4,10)             130.0346         estimate D2E/DX2                !
 ! A6    A(5,4,10)             111.1714         estimate D2E/DX2                !
 ! A7    A(4,5,6)              104.0476         estimate D2E/DX2                !
 ! A8    A(5,6,7)              127.5167         estimate D2E/DX2                !
 ! A9    A(5,6,8)              112.3571         estimate D2E/DX2                !
 ! A10   A(7,6,8)              120.1262         estimate D2E/DX2                !
 ! A11   A(6,8,9)              133.5878         estimate D2E/DX2                !
 ! A12   A(6,8,10)             106.9967         estimate D2E/DX2                !
 ! A13   A(9,8,10)             119.0772         estimate D2E/DX2                !
 ! A14   A(4,10,8)             105.4175         estimate D2E/DX2                !
 ! A15   A(4,10,11)            133.8498         estimate D2E/DX2                !
 ! A16   A(8,10,11)            120.3407         estimate D2E/DX2                !
 ! A17   A(10,11,12)           118.3419         estimate D2E/DX2                !
 ! A18   A(10,11,13)           117.2114         estimate D2E/DX2                !
 ! A19   A(12,11,13)           124.4073         estimate D2E/DX2                !
 ! D1    D(1,2,4,5)           -150.0675         estimate D2E/DX2                !
 ! D2    D(1,2,4,10)            27.7485         estimate D2E/DX2                !
 ! D3    D(3,2,4,5)             26.7987         estimate D2E/DX2                !
 ! D4    D(3,2,4,10)          -155.3854         estimate D2E/DX2                !
 ! D5    D(2,4,5,6)            177.2663         estimate D2E/DX2                !
 ! D6    D(10,4,5,6)            -0.9406         estimate D2E/DX2                !
 ! D7    D(2,4,10,8)          -177.3849         estimate D2E/DX2                !
 ! D8    D(2,4,10,11)           10.0803         estimate D2E/DX2                !
 ! D9    D(5,4,10,8)             0.562          estimate D2E/DX2                !
 ! D10   D(5,4,10,11)         -171.9727         estimate D2E/DX2                !
 ! D11   D(4,5,6,7)           -178.9872         estimate D2E/DX2                !
 ! D12   D(4,5,6,8)              0.9872         estimate D2E/DX2                !
 ! D13   D(5,6,8,9)           -173.6816         estimate D2E/DX2                !
 ! D14   D(5,6,8,10)            -0.6744         estimate D2E/DX2                !
 ! D15   D(7,6,8,9)              6.2949         estimate D2E/DX2                !
 ! D16   D(7,6,8,10)           179.3021         estimate D2E/DX2                !
 ! D17   D(6,8,10,4)             0.0558         estimate D2E/DX2                !
 ! D18   D(6,8,10,11)          173.8232         estimate D2E/DX2                !
 ! D19   D(9,8,10,4)           174.265          estimate D2E/DX2                !
 ! D20   D(9,8,10,11)          -11.9676         estimate D2E/DX2                !
 ! D21   D(4,10,11,12)          11.9096         estimate D2E/DX2                !
 ! D22   D(4,10,11,13)        -170.2723         estimate D2E/DX2                !
 ! D23   D(8,10,11,12)        -159.7458         estimate D2E/DX2                !
 ! D24   D(8,10,11,13)          18.0722         estimate D2E/DX2                !
 --------------------------------------------------------------------------------
 Trust Radius=3.00D-01 FncErr=1.00D-07 GrdErr=1.00D-06
 Number of steps in this run=     66 maximum allowed number of steps=    100.
 GradGradGradGradGradGradGradGradGradGradGradGradGradGradGradGradGradGrad

 Leave Link  103 at Fri Aug 20 15:38:31 2021, MaxMem= 24159191040 cpu:         0.6
 (Enter /public/home/users/caep010/software/Gaussian09/g09/l202.exe)
                          Input orientation:                          
 ---------------------------------------------------------------------
 Center     Atomic      Atomic             Coordinates (Angstroms)
 Number     Number       Type             X           Y           Z
 ---------------------------------------------------------------------
      1          8           0       11.802700    1.960200    5.055500
      2          7           0       11.147500    1.903100    4.037900
      3          8           0       11.624600    1.766100    2.923800
      4          6           0        9.702900    1.928500    4.147300
      5          7           0        8.968600    1.285400    3.212800
      6          6           0        7.718600    1.442300    3.622100
      7          1           0        6.969900    1.124800    3.233600
      8          7           0        7.638300    2.159800    4.738800
      9          1           0        6.980900    2.367500    5.275300
     10          6           0        8.910300    2.483600    5.095700
     11          7           0        9.148800    3.367200    6.189000
     12          8           0       10.228400    3.927700    6.254700
     13          8           0        8.226500    3.541300    6.982400
 ---------------------------------------------------------------------
                    Distance matrix (angstroms):
                    1          2          3          4          5
     1  O    0.000000
     2  N    1.211634   0.000000
     3  O    2.147915   1.219677   0.000000
     4  C    2.288011   1.448959   2.283913   0.000000
     5  N    3.447176   2.410383   2.714577   1.351319   0.000000
     6  C    4.359212   3.484621   3.981119   2.109425   1.324630
     7  H    5.231937   4.324927   4.708872   2.991667   2.005250
     8  N    4.181192   3.587707   4.397705   2.160080   2.205210
     9  H    4.843961   4.371199   5.239769   2.978991   3.061992
    10  C    2.939650   2.541847   3.549561   1.354922   2.232576
    11  N    3.210554   3.281101   4.399391   2.558403   3.636500
    12  O    2.790620   3.139738   4.209131   2.951963   4.221611
    13  O    4.359131   4.459374   5.583068   3.580317   4.455298
                    6          7          8          9         10
     6  C    0.000000
     7  H    0.901271   0.000000
     8  N    1.329764   1.945151   0.000000
     9  H    2.033044   2.390181   0.873582   0.000000
    10  C    2.162395   3.013122   1.360224   1.941216   0.000000
    11  N    3.512789   4.302366   2.417127   2.556176   1.425811
    12  O    4.405325   5.253676   3.483108   3.733591   2.272904
    13  O    3.994419   4.633791   2.699678   2.417337   2.268468
                   11         12         13
    11  N    0.000000
    12  O    1.218201   0.000000
    13  O    1.228996   2.164822   0.000000
 Stoichiometry    C3H2N4O4
 Framework group  C1[X(C3H2N4O4)]
 Deg. of freedom    33
 Full point group                 C1      NOp   1
 Largest Abelian subgroup         C1      NOp   1
 Largest concise Abelian subgroup C1      NOp   1
                         Standard orientation:                         
 ---------------------------------------------------------------------
 Center     Atomic      Atomic             Coordinates (Angstroms)
 Number     Number       Type             X           Y           Z
 ---------------------------------------------------------------------
      1          8           0       -1.438931   -1.668117    0.620570
      2          7           0       -1.696556   -0.621075    0.067949
      3          8           0       -2.787411   -0.346660   -0.403585
      4          6           0       -0.671919    0.402333    0.020633
      5          7           0       -1.049264    1.699678   -0.003241
      6          6           0        0.094458    2.367613    0.016966
      7          1           0        0.207901    3.261700    0.022226
      8          7           0        1.151300    1.560659    0.030588
      9          1           0        2.010475    1.694777    0.114109
     10          6           0        0.677889    0.285482    0.033995
     11          7           0        1.575190   -0.816228   -0.084427
     12          8           0        1.128665   -1.889055   -0.450037
     13          8           0        2.761972   -0.602454    0.152805
 ---------------------------------------------------------------------
 Rotational constants (GHZ):      1.7147234      1.1574010      0.7156350
 Leave Link  202 at Fri Aug 20 15:38:31 2021, MaxMem= 24159191040 cpu:         0.7
 (Enter /public/home/users/caep010/software/Gaussian09/g09/l301.exe)
 Standard basis: 6-31G(d,p) (6D, 7F)
 Ernie: Thresh=  0.10000D-02 Tol=  0.10000D-05 Strict=F.
 There are   175 symmetry adapted cartesian basis functions of A   symmetry.
 There are   175 symmetry adapted basis functions of A   symmetry.
   175 basis functions,   322 primitive gaussians,   175 cartesian basis functions
    40 alpha electrons       40 beta electrons
       nuclear repulsion energy       627.9142092471 Hartrees.
 IExCor=  402 DFT=T Ex+Corr=B3LYP ExCW=0 ScaHFX=  0.200000
 ScaDFX=  0.800000  0.720000  1.000000  0.810000 ScalE2=  1.000000  1.000000
 IRadAn=      0 IRanWt=     -1 IRanGd=            0 ICorTp=0 IEmpDi=  4
 NAtoms=   13 NActive=   13 NUniq=   13 SFac= 1.00D+00 NAtFMM=   60 NAOKFM=F Big=F
 Integral buffers will be    131072 words long.
 Raffenetti 2 integral format.
 Two-electron integral symmetry is turned on.
 Leave Link  301 at Fri Aug 20 15:38:31 2021, MaxMem= 24159191040 cpu:         2.3
 (Enter /public/home/users/caep010/software/Gaussian09/g09/l302.exe)
 NPDir=0 NMtPBC=     1 NCelOv=     1 NCel=       1 NClECP=     1 NCelD=      1
         NCelK=      1 NCelE2=     1 NClLst=     1 CellRange=     0.0.
 One-electron integrals computed using PRISM.
 NBasis=   175 RedAO= T EigKep=  7.45D-04  NBF=   175
 NBsUse=   175 1.00D-06 EigRej= -1.00D+00 NBFU=   175
 Precomputing XC quadrature grid using
 IXCGrd= 4 IRadAn=           0 IRanWt=          -1 IRanGd=           0 AccXCQ= 0.00D+00.
 Generated NRdTot=       0 NPtTot=           0 NUsed=           0 NTot=          32
 NSgBfM=   174   174   174   174   174 MxSgAt=    13 MxSgA2=    13.
 Leave Link  302 at Fri Aug 20 15:38:32 2021, MaxMem= 24159191040 cpu:        11.4
 (Enter /public/home/users/caep010/software/Gaussian09/g09/l303.exe)
 DipDrv:  MaxL=1.
 Leave Link  303 at Fri Aug 20 15:38:32 2021, MaxMem= 24159191040 cpu:         1.0
 (Enter /public/home/users/caep010/software/Gaussian09/g09/l401.exe)
 ExpMin= 1.61D-01 ExpMax= 5.48D+03 ExpMxC= 8.25D+02 IAcc=1 IRadAn=         1 AccDes= 0.00D+00
 Harris functional with IExCor=  402 and IRadAn=       1 diagonalized for initial guess.
 HarFok:  IExCor=  402 AccDes= 0.00D+00 IRadAn=         1 IDoV= 1 UseB2=F ITyADJ=14
 ICtDFT=  3500011 ScaDFX=  1.000000  1.000000  1.000000  1.000000
 FoFCou: FMM=F IPFlag=           0 FMFlag=      100000 FMFlg1=           0
         NFxFlg=           0 DoJE=T BraDBF=F KetDBF=T FulRan=T
         wScrn=  0.000000 ICntrl=     500 IOpCl=  0 I1Cent=   200000004 NGrid=           0
         NMat0=    1 NMatS0=      1 NMatT0=    0 NMatD0=    1 NMtDS0=    0 NMtDT0=    0
 Petite list used in FoFCou.
 Harris En= -635.166950065273    
 JPrj=0 DoOrth=F DoCkMO=F.
 Leave Link  401 at Fri Aug 20 15:38:32 2021, MaxMem= 24159191040 cpu:        11.2
 (Enter /public/home/users/caep010/software/Gaussian09/g09/l502.exe)
 Closed shell SCF:
 Using DIIS extrapolation, IDIIS=  1040.
 Integral symmetry usage will be decided dynamically.
 Keep R1 ints in memory in canonical form, NReq=121430826.
 IVT=      117326 IEndB=      117326 NGot= 24159191040 MDV= 24040486015
 LenX= 24040486015 LenY= 24040454949
 Requested convergence on RMS density matrix=1.00D-08 within 128 cycles.
 Requested convergence on MAX density matrix=1.00D-06.
 Requested convergence on             energy=1.00D-06.
 No special actions if energy rises.
 FoFCou: FMM=F IPFlag=           0 FMFlag=           0 FMFlg1=           0
         NFxFlg=           0 DoJE=F BraDBF=F KetDBF=F FulRan=T
         wScrn=  0.000000 ICntrl=     600 IOpCl=  0 I1Cent=           0 NGrid=           0
         NMat0=    1 NMatS0=  15400 NMatT0=    0 NMatD0=    1 NMtDS0=    0 NMtDT0=    0
 Symmetry not used in FoFCou.
 Integral accuracy reduced to 1.0D-05 until final iterations.

 Cycle   1  Pass 0  IDiag  1:
 E= -634.782971815194    
 DIIS: error= 3.33D-02 at cycle   1 NSaved=   1.
 NSaved= 1 IEnMin= 1 EnMin= -634.782971815194     IErMin= 1 ErrMin= 3.33D-02
 ErrMax= 3.33D-02  0.00D+00 EMaxC= 1.00D-01 BMatC= 4.91D-01 BMatP= 4.91D-01
 IDIUse=3 WtCom= 6.67D-01 WtEn= 3.33D-01
 Coeff-Com:  0.100D+01
 Coeff-En:   0.100D+01
 Coeff:      0.100D+01
 Gap=     0.129 Goal=   None    Shift=    0.000
 GapD=    0.129 DampG=1.000 DampE=0.500 DampFc=0.5000 IDamp=-1.
 Damping current iteration by 5.00D-01
 RMSDP=9.40D-03 MaxDP=2.57D-01              OVMax= 3.15D-01

 Cycle   2  Pass 0  IDiag  1:
 E= -634.794867110789     Delta-E=       -0.011895295595 Rises=F Damp=T
 DIIS: error= 1.59D-02 at cycle   2 NSaved=   2.
 NSaved= 2 IEnMin= 2 EnMin= -634.794867110789     IErMin= 2 ErrMin= 1.59D-02
 ErrMax= 1.59D-02  0.00D+00 EMaxC= 1.00D-01 BMatC= 1.34D-01 BMatP= 4.91D-01
 IDIUse=3 WtCom= 8.41D-01 WtEn= 1.59D-01
 Coeff-Com:  0.324D+00 0.676D+00
 Coeff-En:   0.488D+00 0.512D+00
 Coeff:      0.350D+00 0.650D+00
 Gap=     0.154 Goal=   None    Shift=    0.000
 RMSDP=2.64D-03 MaxDP=8.20D-02 DE=-1.19D-02 OVMax= 1.92D-01

 Cycle   3  Pass 0  IDiag  1:
 E= -635.122555053538     Delta-E=       -0.327687942749 Rises=F Damp=F
 DIIS: error= 7.72D-03 at cycle   3 NSaved=   3.
 NSaved= 3 IEnMin= 3 EnMin= -635.122555053538     IErMin= 3 ErrMin= 7.72D-03
 ErrMax= 7.72D-03  0.00D+00 EMaxC= 1.00D-01 BMatC= 2.00D-02 BMatP= 1.34D-01
 IDIUse=3 WtCom= 9.23D-01 WtEn= 7.72D-02
 Coeff-Com:  0.150D+00 0.291D+00 0.559D+00
 Coeff-En:   0.000D+00 0.000D+00 0.100D+01
 Coeff:      0.138D+00 0.268D+00 0.593D+00
 Gap=     0.173 Goal=   None    Shift=    0.000
 RMSDP=1.35D-03 MaxDP=4.08D-02 DE=-3.28D-01 OVMax= 6.82D-02

 Cycle   4  Pass 0  IDiag  1:
 E= -635.121010202542     Delta-E=        0.001544850997 Rises=F Damp=F
 DIIS: error= 9.79D-03 at cycle   4 NSaved=   4.
 NSaved= 4 IEnMin= 3 EnMin= -635.122555053538     IErMin= 3 ErrMin= 7.72D-03
 ErrMax= 9.79D-03  0.00D+00 EMaxC= 1.00D-01 BMatC= 2.31D-02 BMatP= 2.00D-02
 IDIUse=3 WtCom= 9.18D-02 WtEn= 9.08D-01
 Coeff-Com:  0.563D-01 0.875D-01 0.478D+00 0.379D+00
 Coeff-En:   0.000D+00 0.000D+00 0.517D+00 0.483D+00
 Coeff:      0.517D-02 0.803D-02 0.513D+00 0.474D+00
 Gap=     0.177 Goal=   None    Shift=    0.000
 RMSDP=9.06D-04 MaxDP=3.26D-02 DE= 1.54D-03 OVMax= 7.03D-02

 Cycle   5  Pass 0  IDiag  1:
 E= -635.135987001717     Delta-E=       -0.014976799175 Rises=F Damp=F
 DIIS: error= 3.12D-03 at cycle   5 NSaved=   5.
 NSaved= 5 IEnMin= 5 EnMin= -635.135987001717     IErMin= 5 ErrMin= 3.12D-03
 ErrMax= 3.12D-03  0.00D+00 EMaxC= 1.00D-01 BMatC= 4.47D-03 BMatP= 2.00D-02
 IDIUse=3 WtCom= 9.69D-01 WtEn= 3.12D-02
 Coeff-Com:  0.127D-01 0.189D-01 0.274D+00 0.321D+00 0.374D+00
 Coeff-En:   0.000D+00 0.000D+00 0.000D+00 0.200D+00 0.800D+00
 Coeff:      0.123D-01 0.183D-01 0.265D+00 0.317D+00 0.387D+00
 Gap=     0.168 Goal=   None    Shift=    0.000
 RMSDP=3.71D-04 MaxDP=1.23D-02 DE=-1.50D-02 OVMax= 2.47D-02

 Cycle   6  Pass 0  IDiag  1:
 E= -635.139591599906     Delta-E=       -0.003604598189 Rises=F Damp=F
 DIIS: error= 4.38D-04 at cycle   6 NSaved=   6.
 NSaved= 6 IEnMin= 6 EnMin= -635.139591599906     IErMin= 6 ErrMin= 4.38D-04
 ErrMax= 4.38D-04  0.00D+00 EMaxC= 1.00D-01 BMatC= 1.39D-04 BMatP= 4.47D-03
 IDIUse=3 WtCom= 9.96D-01 WtEn= 4.38D-03
 Coeff-Com:  0.108D-02 0.740D-03 0.968D-01 0.136D+00 0.223D+00 0.543D+00
 Coeff-En:   0.000D+00 0.000D+00 0.000D+00 0.000D+00 0.000D+00 0.100D+01
 Coeff:      0.108D-02 0.737D-03 0.964D-01 0.135D+00 0.222D+00 0.545D+00
 Gap=     0.167 Goal=   None    Shift=    0.000
 RMSDP=7.12D-05 MaxDP=1.85D-03 DE=-3.60D-03 OVMax= 3.86D-03

 Cycle   7  Pass 0  IDiag  1:
 E= -635.139694669875     Delta-E=       -0.000103069970 Rises=F Damp=F
 DIIS: error= 3.11D-04 at cycle   7 NSaved=   7.
 NSaved= 7 IEnMin= 7 EnMin= -635.139694669875     IErMin= 7 ErrMin= 3.11D-04
 ErrMax= 3.11D-04  0.00D+00 EMaxC= 1.00D-01 BMatC= 2.15D-05 BMatP= 1.39D-04
 IDIUse=3 WtCom= 9.97D-01 WtEn= 3.11D-03
 Coeff-Com: -0.128D-03-0.661D-03 0.486D-01 0.712D-01 0.126D+00 0.367D+00
 Coeff-Com:  0.389D+00
 Coeff-En:   0.000D+00 0.000D+00 0.000D+00 0.000D+00 0.000D+00 0.646D-01
 Coeff-En:   0.935D+00
 Coeff:     -0.127D-03-0.659D-03 0.484D-01 0.710D-01 0.125D+00 0.366D+00
 Coeff:      0.390D+00
 Gap=     0.167 Goal=   None    Shift=    0.000
 RMSDP=3.00D-05 MaxDP=1.09D-03 DE=-1.03D-04 OVMax= 2.12D-03

 Cycle   8  Pass 0  IDiag  1:
 E= -635.139707956337     Delta-E=       -0.000013286462 Rises=F Damp=F
 DIIS: error= 1.92D-04 at cycle   8 NSaved=   8.
 NSaved= 8 IEnMin= 8 EnMin= -635.139707956337     IErMin= 8 ErrMin= 1.92D-04
 ErrMax= 1.92D-04  0.00D+00 EMaxC= 1.00D-01 BMatC= 5.45D-06 BMatP= 2.15D-05
 IDIUse=3 WtCom= 9.98D-01 WtEn= 1.92D-03
 Coeff-Com: -0.407D-03-0.692D-03 0.143D-01 0.223D-01 0.442D-01 0.157D+00
 Coeff-Com:  0.319D+00 0.445D+00
 Coeff-En:   0.000D+00 0.000D+00 0.000D+00 0.000D+00 0.000D+00 0.000D+00
 Coeff-En:   0.248D+00 0.752D+00
 Coeff:     -0.406D-03-0.691D-03 0.143D-01 0.222D-01 0.441D-01 0.157D+00
 Coeff:      0.318D+00 0.445D+00
 Gap=     0.167 Goal=   None    Shift=    0.000
 RMSDP=1.24D-05 MaxDP=4.74D-04 DE=-1.33D-05 OVMax= 8.73D-04

 Cycle   9  Pass 0  IDiag  1:
 E= -635.139712006476     Delta-E=       -0.000004050139 Rises=F Damp=F
 DIIS: error= 3.39D-05 at cycle   9 NSaved=   9.
 NSaved= 9 IEnMin= 9 EnMin= -635.139712006476     IErMin= 9 ErrMin= 3.39D-05
 ErrMax= 3.39D-05  0.00D+00 EMaxC= 1.00D-01 BMatC= 4.03D-07 BMatP= 5.45D-06
 IDIUse=1 WtCom= 1.00D+00 WtEn= 0.00D+00
 Coeff-Com: -0.249D-03-0.387D-03 0.408D-02 0.680D-02 0.151D-01 0.621D-01
 Coeff-Com:  0.160D+00 0.287D+00 0.466D+00
 Coeff:     -0.249D-03-0.387D-03 0.408D-02 0.680D-02 0.151D-01 0.621D-01
 Coeff:      0.160D+00 0.287D+00 0.466D+00
 Gap=     0.167 Goal=   None    Shift=    0.000
 RMSDP=4.24D-06 MaxDP=1.02D-04 DE=-4.05D-06 OVMax= 2.22D-04

 Initial convergence to 1.0D-05 achieved.  Increase integral accuracy.
 Cycle  10  Pass 1  IDiag  1:
 E= -635.139726024422     Delta-E=       -0.000014017946 Rises=F Damp=F
 DIIS: error= 1.25D-05 at cycle   1 NSaved=   1.
 NSaved= 1 IEnMin= 1 EnMin= -635.139726024422     IErMin= 1 ErrMin= 1.25D-05
 ErrMax= 1.25D-05  0.00D+00 EMaxC= 1.00D-01 BMatC= 8.43D-08 BMatP= 8.43D-08
 IDIUse=1 WtCom= 1.00D+00 WtEn= 0.00D+00
 Coeff-Com:  0.100D+01
 Coeff:      0.100D+01
 Gap=     0.167 Goal=   None    Shift=    0.000
 RMSDP=4.24D-06 MaxDP=1.02D-04 DE=-1.40D-05 OVMax= 1.45D-04

 Cycle  11  Pass 1  IDiag  1:
 E= -635.139725979480     Delta-E=        0.000000044942 Rises=F Damp=F
 DIIS: error= 1.85D-05 at cycle   2 NSaved=   2.
 NSaved= 2 IEnMin= 1 EnMin= -635.139726024422     IErMin= 1 ErrMin= 1.25D-05
 ErrMax= 1.85D-05  0.00D+00 EMaxC= 1.00D-01 BMatC= 1.43D-07 BMatP= 8.43D-08
 IDIUse=1 WtCom= 1.00D+00 WtEn= 0.00D+00
 Coeff-Com:  0.583D+00 0.417D+00
 Coeff:      0.583D+00 0.417D+00
 Gap=     0.167 Goal=   None    Shift=    0.000
 RMSDP=2.58D-06 MaxDP=6.74D-05 DE= 4.49D-08 OVMax= 1.25D-04

 Cycle  12  Pass 1  IDiag  1:
 E= -635.139726087448     Delta-E=       -0.000000107968 Rises=F Damp=F
 DIIS: error= 7.43D-06 at cycle   3 NSaved=   3.
 NSaved= 3 IEnMin= 3 EnMin= -635.139726087448     IErMin= 3 ErrMin= 7.43D-06
 ErrMax= 7.43D-06  0.00D+00 EMaxC= 1.00D-01 BMatC= 2.21D-08 BMatP= 8.43D-08
 IDIUse=1 WtCom= 1.00D+00 WtEn= 0.00D+00
 Coeff-Com:  0.565D-01 0.275D+00 0.668D+00
 Coeff:      0.565D-01 0.275D+00 0.668D+00
 Gap=     0.167 Goal=   None    Shift=    0.000
 RMSDP=1.06D-06 MaxDP=3.54D-05 DE=-1.08D-07 OVMax= 6.58D-05

 Cycle  13  Pass 1  IDiag  1:
 E= -635.139726095328     Delta-E=       -0.000000007880 Rises=F Damp=F
 DIIS: error= 7.77D-06 at cycle   4 NSaved=   4.
 NSaved= 4 IEnMin= 4 EnMin= -635.139726095328     IErMin= 3 ErrMin= 7.43D-06
 ErrMax= 7.77D-06  0.00D+00 EMaxC= 1.00D-01 BMatC= 1.36D-08 BMatP= 2.21D-08
 IDIUse=1 WtCom= 1.00D+00 WtEn= 0.00D+00
 Coeff-Com: -0.810D-02 0.180D+00 0.533D+00 0.295D+00
 Coeff:     -0.810D-02 0.180D+00 0.533D+00 0.295D+00
 Gap=     0.167 Goal=   None    Shift=    0.000
 RMSDP=5.60D-07 MaxDP=1.78D-05 DE=-7.88D-09 OVMax= 3.84D-05

 Cycle  14  Pass 1  IDiag  1:
 E= -635.139726106138     Delta-E=       -0.000000010810 Rises=F Damp=F
 DIIS: error= 7.73D-07 at cycle   5 NSaved=   5.
 NSaved= 5 IEnMin= 5 EnMin= -635.139726106138     IErMin= 5 ErrMin= 7.73D-07
 ErrMax= 7.73D-07  0.00D+00 EMaxC= 1.00D-01 BMatC= 2.67D-10 BMatP= 1.36D-08
 IDIUse=1 WtCom= 1.00D+00 WtEn= 0.00D+00
 Coeff-Com: -0.100D-01 0.824D-01 0.259D+00 0.174D+00 0.495D+00
 Coeff:     -0.100D-01 0.824D-01 0.259D+00 0.174D+00 0.495D+00
 Gap=     0.167 Goal=   None    Shift=    0.000
 RMSDP=9.19D-08 MaxDP=2.45D-06 DE=-1.08D-08 OVMax= 4.09D-06

 Cycle  15  Pass 1  IDiag  1:
 E= -635.139726106345     Delta-E=       -0.000000000207 Rises=F Damp=F
 DIIS: error= 1.89D-07 at cycle   6 NSaved=   6.
 NSaved= 6 IEnMin= 6 EnMin= -635.139726106345     IErMin= 6 ErrMin= 1.89D-07
 ErrMax= 1.89D-07  0.00D+00 EMaxC= 1.00D-01 BMatC= 1.22D-11 BMatP= 2.67D-10
 IDIUse=1 WtCom= 1.00D+00 WtEn= 0.00D+00
 Coeff-Com: -0.468D-02 0.297D-01 0.976D-01 0.673D-01 0.252D+00 0.558D+00
 Coeff:     -0.468D-02 0.297D-01 0.976D-01 0.673D-01 0.252D+00 0.558D+00
 Gap=     0.167 Goal=   None    Shift=    0.000
 RMSDP=2.50D-08 MaxDP=8.57D-07 DE=-2.07D-10 OVMax= 1.19D-06

 Cycle  16  Pass 1  IDiag  1:
 E= -635.139726106336     Delta-E=        0.000000000009 Rises=F Damp=F
 DIIS: error= 7.66D-08 at cycle   7 NSaved=   7.
 NSaved= 7 IEnMin= 6 EnMin= -635.139726106345     IErMin= 7 ErrMin= 7.66D-08
 ErrMax= 7.66D-08  0.00D+00 EMaxC= 1.00D-01 BMatC= 1.97D-12 BMatP= 1.22D-11
 IDIUse=1 WtCom= 1.00D+00 WtEn= 0.00D+00
 Coeff-Com: -0.133D-02 0.624D-02 0.222D-01 0.153D-01 0.798D-01 0.315D+00
 Coeff-Com:  0.562D+00
 Coeff:     -0.133D-02 0.624D-02 0.222D-01 0.153D-01 0.798D-01 0.315D+00
 Coeff:      0.562D+00
 Gap=     0.167 Goal=   None    Shift=    0.000
 RMSDP=1.20D-08 MaxDP=3.65D-07 DE= 9.09D-12 OVMax= 7.29D-07

 Cycle  17  Pass 1  IDiag  1:
 E= -635.139726106344     Delta-E=       -0.000000000008 Rises=F Damp=F
 DIIS: error= 8.08D-08 at cycle   8 NSaved=   8.
 NSaved= 8 IEnMin= 6 EnMin= -635.139726106345     IErMin= 7 ErrMin= 7.66D-08
 ErrMax= 8.08D-08  0.00D+00 EMaxC= 1.00D-01 BMatC= 1.55D-12 BMatP= 1.97D-12
 IDIUse=1 WtCom= 1.00D+00 WtEn= 0.00D+00
 Coeff-Com:  0.975D-05-0.197D-02-0.506D-02-0.334D-02 0.739D-02 0.137D+00
 Coeff-Com:  0.478D+00 0.388D+00
 Coeff:      0.975D-05-0.197D-02-0.506D-02-0.334D-02 0.739D-02 0.137D+00
 Coeff:      0.478D+00 0.388D+00
 Gap=     0.167 Goal=   None    Shift=    0.000
 RMSDP=6.56D-09 MaxDP=2.27D-07 DE=-7.50D-12 OVMax= 4.06D-07

 SCF Done:  E(RB3LYP) =  -635.139726106     A.U. after   17 cycles
            NFock= 17  Conv=0.66D-08     -V/T= 2.0069
 KE= 6.307600849019D+02 PE=-2.742439831753D+03 EE= 8.486258114971D+02
 Leave Link  502 at Fri Aug 20 15:38:38 2021, MaxMem= 24159191040 cpu:        67.9
 (Enter /public/home/users/caep010/software/Gaussian09/g09/l601.exe)
 Copying SCF densities to generalized density rwf, IOpCl= 0 IROHF=0.

 **********************************************************************

            Population analysis using the SCF density.

 **********************************************************************

 Orbital symmetries:
       Occupied  (A) (A) (A) (A) (A) (A) (A) (A) (A) (A) (A) (A)
                 (A) (A) (A) (A) (A) (A) (A) (A) (A) (A) (A) (A)
                 (A) (A) (A) (A) (A) (A) (A) (A) (A) (A) (A) (A)
                 (A) (A) (A) (A)
       Virtual   (A) (A) (A) (A) (A) (A) (A) (A) (A) (A) (A) (A)
                 (A) (A) (A) (A) (A) (A) (A) (A) (A) (A) (A) (A)
                 (A) (A) (A) (A) (A) (A) (A) (A) (A) (A) (A) (A)
                 (A) (A) (A) (A) (A) (A) (A) (A) (A) (A) (A) (A)
                 (A) (A) (A) (A) (A) (A) (A) (A) (A) (A) (A) (A)
                 (A) (A) (A) (A) (A) (A) (A) (A) (A) (A) (A) (A)
                 (A) (A) (A) (A) (A) (A) (A) (A) (A) (A) (A) (A)
                 (A) (A) (A) (A) (A) (A) (A) (A) (A) (A) (A) (A)
                 (A) (A) (A) (A) (A) (A) (A) (A) (A) (A) (A) (A)
                 (A) (A) (A) (A) (A) (A) (A) (A) (A) (A) (A) (A)
                 (A) (A) (A) (A) (A) (A) (A) (A) (A) (A) (A) (A)
                 (A) (A) (A)
 The electronic state is 1-A.
 Alpha  occ. eigenvalues --  -19.21210 -19.21172 -19.19449 -19.19171 -14.61198
 Alpha  occ. eigenvalues --  -14.59082 -14.45602 -14.38541 -10.32442 -10.31105
 Alpha  occ. eigenvalues --  -10.29965  -1.26816  -1.25286  -1.11540  -1.08829
 Alpha  occ. eigenvalues --   -1.07236  -0.96886  -0.87924  -0.80135  -0.74658
 Alpha  occ. eigenvalues --   -0.72636  -0.62054  -0.61248  -0.57809  -0.57361
 Alpha  occ. eigenvalues --   -0.56452  -0.55452  -0.53688  -0.52579  -0.50269
 Alpha  occ. eigenvalues --   -0.49979  -0.36194  -0.35935  -0.33938  -0.33804
 Alpha  occ. eigenvalues --   -0.32918  -0.32215  -0.31478  -0.31300  -0.29350
 Alpha virt. eigenvalues --   -0.12642  -0.07360  -0.02525   0.03945   0.07619
 Alpha virt. eigenvalues --    0.10183   0.14278   0.14833   0.18917   0.20736
 Alpha virt. eigenvalues --    0.24339   0.25680   0.29142   0.29332   0.35413
 Alpha virt. eigenvalues --    0.37591   0.45391   0.46530   0.47715   0.50861
 Alpha virt. eigenvalues --    0.51531   0.52706   0.54249   0.57535   0.58708
 Alpha virt. eigenvalues --    0.61092   0.64351   0.68564   0.68969   0.70428
 Alpha virt. eigenvalues --    0.72120   0.73736   0.75122   0.75551   0.78589
 Alpha virt. eigenvalues --    0.80549   0.81416   0.84290   0.85858   0.87657
 Alpha virt. eigenvalues --    0.88217   0.89063   0.91957   0.93087   0.95966
 Alpha virt. eigenvalues --    0.98923   0.99588   1.02418   1.05096   1.07488
 Alpha virt. eigenvalues --    1.10063   1.10355   1.13587   1.15686   1.21789
 Alpha virt. eigenvalues --    1.24082   1.26382   1.28279   1.29331   1.33382
 Alpha virt. eigenvalues --    1.35528   1.36647   1.38870   1.39830   1.46324
 Alpha virt. eigenvalues --    1.48252   1.50913   1.57141   1.59781   1.63029
 Alpha virt. eigenvalues --    1.66978   1.67764   1.70916   1.77526   1.78387
 Alpha virt. eigenvalues --    1.78581   1.80629   1.82894   1.85178   1.89058
 Alpha virt. eigenvalues --    1.90399   1.92457   1.94990   1.95707   1.97733
 Alpha virt. eigenvalues --    2.02284   2.04162   2.05940   2.08424   2.09195
 Alpha virt. eigenvalues --    2.11669   2.13790   2.20551   2.21954   2.23837
 Alpha virt. eigenvalues --    2.29308   2.31802   2.41694   2.43275   2.44340
 Alpha virt. eigenvalues --    2.47869   2.52178   2.54392   2.55547   2.59028
 Alpha virt. eigenvalues --    2.63257   2.67717   2.69080   2.71201   2.73178
 Alpha virt. eigenvalues --    2.82509   2.83258   2.85879   2.87794   2.89032
 Alpha virt. eigenvalues --    2.89919   2.98693   3.04479   3.08032   3.21576
 Alpha virt. eigenvalues --    3.29690   3.38502   3.65191   3.69724   3.70768
 Alpha virt. eigenvalues --    3.82711   3.83867   3.91693   3.99052   4.04830
 Alpha virt. eigenvalues --    4.14952   4.25004   4.29831   4.45636   4.77210
          Condensed to atoms (all electrons):
               1          2          3          4          5          6
     1  O    8.233847   0.323579  -0.097046  -0.089469   0.001510  -0.000111
     2  N    0.323579   6.045230   0.298799   0.119647  -0.060527   0.003142
     3  O   -0.097046   0.298799   8.232614  -0.082171  -0.000369   0.000499
     4  C   -0.089469   0.119647  -0.082171   5.103459   0.443933  -0.087868
     5  N    0.001510  -0.060527  -0.000369   0.443933   6.742320   0.485863
     6  C   -0.000111   0.003142   0.000499  -0.087868   0.485863   4.543496
     7  H    0.000003  -0.000180   0.000009   0.004519  -0.040063   0.413417
     8  N    0.000139   0.003736  -0.000055  -0.075878  -0.058633   0.380748
     9  H    0.000008   0.000046   0.000002   0.018702   0.003986  -0.022436
    10  C    0.002905  -0.087160   0.004619   0.267420  -0.082405  -0.094279
    11  N   -0.002330  -0.003185  -0.000020  -0.064609   0.004707   0.003458
    12  O   -0.001474  -0.000000  -0.000019  -0.001978   0.000049   0.000017
    13  O   -0.000011  -0.000028   0.000000   0.005157  -0.000110   0.000184
               7          8          9         10         11         12
     1  O    0.000003   0.000139   0.000008   0.002905  -0.002330  -0.001474
     2  N   -0.000180   0.003736   0.000046  -0.087160  -0.003185  -0.000000
     3  O    0.000009  -0.000055   0.000002   0.004619  -0.000020  -0.000019
     4  C    0.004519  -0.075878   0.018702   0.267420  -0.064609  -0.001978
     5  N   -0.040063  -0.058633   0.003986  -0.082405   0.004707   0.000049
     6  C    0.413417   0.380748  -0.022436  -0.094279   0.003458   0.000017
     7  H    0.570209  -0.059653  -0.001666   0.004793  -0.000156   0.000003
     8  N   -0.059653   6.620906   0.364002   0.321672  -0.046408   0.002619
     9  H   -0.001666   0.364002   0.408411  -0.036631  -0.009766   0.000296
    10  C    0.004793   0.321672  -0.036631   5.257080   0.103407  -0.079833
    11  N   -0.000156  -0.046408  -0.009766   0.103407   6.080373   0.323980
    12  O    0.000003   0.002619   0.000296  -0.079833   0.323980   8.207092
    13  O   -0.000009  -0.011595   0.023917  -0.078596   0.260419  -0.091411
              13
     1  O   -0.000011
     2  N   -0.000028
     3  O    0.000000
     4  C    0.005157
     5  N   -0.000110
     6  C    0.000184
     7  H   -0.000009
     8  N   -0.011595
     9  H    0.023917
    10  C   -0.078596
    11  N    0.260419
    12  O   -0.091411
    13  O    8.299417
 Mulliken charges:
               1
     1  O   -0.371551
     2  N    0.356902
     3  O   -0.356862
     4  C    0.439137
     5  N   -0.440260
     6  C    0.373869
     7  H    0.108773
     8  N   -0.441602
     9  H    0.251130
    10  C    0.497008
    11  N    0.350131
    12  O   -0.359340
    13  O   -0.407335
 Sum of Mulliken charges =  -0.00000
 Mulliken charges with hydrogens summed into heavy atoms:
               1
     1  O   -0.371551
     2  N    0.356902
     3  O   -0.356862
     4  C    0.439137
     5  N   -0.440260
     6  C    0.482642
     8  N   -0.190472
    10  C    0.497008
    11  N    0.350131
    12  O   -0.359340
    13  O   -0.407335
 Electronic spatial extent (au):  <R**2>=           1453.1635
 Charge=             -0.0000 electrons
 Dipole moment (field-independent basis, Debye):
    X=              3.4974    Y=              5.4506    Z=              0.2025  Tot=              6.4793
 Quadrupole moment (field-independent basis, Debye-Ang):
   XX=            -70.8778   YY=            -56.7065   ZZ=            -58.1131
   XY=              7.4797   XZ=             -0.9026   YZ=              0.8169
 Traceless Quadrupole moment (field-independent basis, Debye-Ang):
   XX=             -8.9787   YY=              5.1926   ZZ=              3.7861
   XY=              7.4797   XZ=             -0.9026   YZ=              0.8169
 Octapole moment (field-independent basis, Debye-Ang**2):
  XXX=             13.8084  YYY=             26.8380  ZZZ=             -0.5414  XYY=             15.6020
  XXY=              9.6685  XXZ=              2.7333  XZZ=              1.3612  YZZ=             -4.9418
  YYZ=              0.2087  XYZ=             -2.1378
 Hexadecapole moment (field-independent basis, Debye-Ang**3):
 XXXX=          -1048.8208 YYYY=           -614.6597 ZZZZ=            -70.9804 XXXY=             37.1374
 XXXZ=            -16.0330 YYYX=             35.2545 YYYZ=              1.5312 ZZZX=             -0.3800
 ZZZY=              0.4678 XXYY=           -277.9474 XXZZ=           -164.3414 YYZZ=           -128.4883
 XXYZ=              2.7698 YYXZ=              7.5611 ZZXY=              0.3178
 N-N= 6.279142092471D+02 E-N=-2.742439834867D+03  KE= 6.307600849019D+02
 No NMR shielding tensors so no spin-rotation constants.
 Leave Link  601 at Fri Aug 20 15:38:38 2021, MaxMem= 24159191040 cpu:        11.4
 (Enter /public/home/users/caep010/software/Gaussian09/g09/l701.exe)
 Compute integral first derivatives.
 ... and contract with generalized density number  0.
 Leave Link  701 at Fri Aug 20 15:38:38 2021, MaxMem= 24159191040 cpu:        10.6
 (Enter /public/home/users/caep010/software/Gaussian09/g09/l702.exe)
 L702 exits ... SP integral derivatives will be done elsewhere.
 Leave Link  702 at Fri Aug 20 15:38:38 2021, MaxMem= 24159191040 cpu:         0.6
 (Enter /public/home/users/caep010/software/Gaussian09/g09/l703.exe)
 Compute integral first derivatives, UseDBF=F ICtDFT=           0.
 Integral derivatives from FoFJK, PRISM(SPDF).
 Calling FoFJK, ICntrl=      2127 FMM=F ISym2X=0 I1Cent= 0 IOpClX= 0 NMat=1 NMatS=1 NMatT=0.
 FoFJK:  IHMeth= 1 ICntrl=    2127 DoSepK=F KAlg= 0 I1Cent=   0 FoldK=F
 IRaf=         0 NMat=   1 IRICut=       1 DoRegI=T DoRafI=F ISym2E= 0.
 FoFCou: FMM=F IPFlag=           0 FMFlag=      100000 FMFlg1=         800
         NFxFlg=           0 DoJE=F BraDBF=F KetDBF=F FulRan=T
         wScrn=  0.000000 ICntrl=    2127 IOpCl=  0 I1Cent=           0 NGrid=           0
         NMat0=    1 NMatS0=      1 NMatT0=    0 NMatD0=    1 NMtDS0=    0 NMtDT0=    0
 Symmetry not used in FoFCou.
 Leave Link  703 at Fri Aug 20 15:38:39 2021, MaxMem= 24159191040 cpu:        17.5
 (Enter /public/home/users/caep010/software/Gaussian09/g09/l716.exe)
 Dipole        = 1.37599146D+00 2.14442876D+00 7.96764674D-02
 ***** Axes restored to original set *****
 -------------------------------------------------------------------
 Center     Atomic                   Forces (Hartrees/Bohr)
 Number     Number              X              Y              Z
 -------------------------------------------------------------------
      1        8           0.004844312    0.002501931    0.027145427
      2        7           0.007219259   -0.004662508   -0.011572632
      3        8          -0.004238653    0.001261753   -0.015094536
      4        6           0.015228855   -0.008527755   -0.022665209
      5        7          -0.005683140   -0.002620232    0.001168226
      6        6           0.170696714    0.063049930    0.074803824
      7        1          -0.178732639   -0.080961001   -0.100838748
      8        7           0.147206944   -0.028542932   -0.084834532
      9        1          -0.156457756    0.044668592    0.112771586
     10        6           0.000769249    0.010211369    0.014067124
     11        7           0.005145591    0.007547833    0.005372309
     12        8           0.010660888    0.001390653   -0.003660780
     13        8          -0.016659625   -0.005317634    0.003337941
 -------------------------------------------------------------------
 Cartesian Forces:  Max     0.178732639 RMS     0.063889261
 Leave Link  716 at Fri Aug 20 15:38:39 2021, MaxMem= 24159191040 cpu:         0.7
 (Enter /public/home/users/caep010/software/Gaussian09/g09/l103.exe)

 GradGradGradGradGradGradGradGradGradGradGradGradGradGradGradGradGradGrad
 Berny optimization.
 FormGI is forming the generalized inverse of G from B-inverse, IUseBI=4.
 Internal  Forces:  Max     0.220464222 RMS     0.040546155
 Search for a local minimum.
 Step number   1 out of a maximum of   66
 All quantities printed in internal units (Hartrees-Bohrs-Radians)
 RMS Force = .40546D-01 SwitMx=.10000D-02 MixMth= 1
 Mixed Optimization -- RFO/linear search
 Second derivative matrix not updated -- first step.
 ITU=  0
     Eigenvalues ---    0.01044   0.01065   0.01350   0.01361   0.01951
     Eigenvalues ---    0.02087   0.02436   0.02526   0.02561   0.02647
     Eigenvalues ---    0.15838   0.16000   0.22650   0.24662   0.24739
     Eigenvalues ---    0.24987   0.25000   0.25000   0.25000   0.25000
     Eigenvalues ---    0.38382   0.41597   0.47622   0.48561   0.53956
     Eigenvalues ---    0.57571   0.59297   0.70296   0.79139   0.91506
     Eigenvalues ---    0.95526   0.96185   0.99188
 RFO step:  Lambda=-1.10966890D-01 EMin= 1.04414433D-02
 Linear search not attempted -- first point.
 Maximum step size (   0.300) exceeded in Quadratic search.
    -- Step size scaled by   0.808
 Iteration  1 RMS(Cart)=  0.04224974 RMS(Int)=  0.00257256
 Iteration  2 RMS(Cart)=  0.00243036 RMS(Int)=  0.00002868
 Iteration  3 RMS(Cart)=  0.00000411 RMS(Int)=  0.00002847
 Iteration  4 RMS(Cart)=  0.00000000 RMS(Int)=  0.00002847
 ITry= 1 IFail=0 DXMaxC= 1.46D-01 DCOld= 1.00D+10 DXMaxT= 3.00D-01 DXLimC= 3.00D+00 Rises=F
 Variable       Old X    -DE/DX   Delta X   Delta X   Delta X     New X
                                 (Linear)    (Quad)   (Total)
    R1        2.28966   0.02554   0.00000   0.01870   0.01870   2.30836
    R2        2.30486   0.01199   0.00000   0.00908   0.00908   2.31394
    R3        2.73814   0.00778   0.00000   0.01270   0.01270   2.75084
    R4        2.55362   0.00638   0.00000   0.00685   0.00686   2.56048
    R5        2.56043   0.02929   0.00000   0.03653   0.03654   2.59697
    R6        2.50319   0.00231   0.00000   0.00187   0.00187   2.50506
    R7        1.70316   0.22046   0.00000   0.21877   0.21877   1.92193
    R8        2.51289   0.02973   0.00000   0.03440   0.03439   2.54728
    R9        1.65083   0.19762   0.00000   0.17688   0.17688   1.82771
   R10        2.57045   0.01281   0.00000   0.01732   0.01731   2.58776
   R11        2.69439   0.00597   0.00000   0.00916   0.00916   2.70355
   R12        2.30207   0.00989   0.00000   0.00745   0.00745   2.30951
   R13        2.32247   0.01390   0.00000   0.01094   0.01094   2.33341
    A1        2.16630   0.01568   0.00000   0.03532   0.03527   2.20156
    A2        2.06564  -0.00878   0.00000  -0.01942  -0.01947   2.04616
    A3        2.04984  -0.00677   0.00000  -0.01490  -0.01496   2.03488
    A4        2.07282   0.00375   0.00000   0.00878   0.00877   2.08159
    A5        2.26953  -0.00057   0.00000  -0.00088  -0.00089   2.26865
    A6        1.94031  -0.00322   0.00000  -0.00810  -0.00810   1.93221
    A7        1.81597   0.00908   0.00000   0.01634   0.01634   1.83231
    A8        2.22559  -0.00559   0.00000  -0.01721  -0.01720   2.20838
    A9        1.96100  -0.00245   0.00000  -0.00620  -0.00621   1.95479
   A10        2.09660   0.00804   0.00000   0.02341   0.02341   2.12001
   A11        2.33155  -0.00841   0.00000  -0.02713  -0.02714   2.30441
   A12        1.86744  -0.00171   0.00000  -0.00082  -0.00083   1.86661
   A13        2.07829   0.01018   0.00000   0.02845   0.02846   2.10675
   A14        1.83988  -0.00169   0.00000  -0.00115  -0.00114   1.83874
   A15        2.33612   0.00955   0.00000   0.02028   0.02027   2.35639
   A16        2.10034  -0.00779   0.00000  -0.01881  -0.01881   2.08153
   A17        2.06546   0.00013   0.00000   0.00034   0.00034   2.06579
   A18        2.04573  -0.01296   0.00000  -0.02896  -0.02896   2.01676
   A19        2.17132   0.01285   0.00000   0.02880   0.02879   2.20011
    D1       -2.61917   0.00016   0.00000   0.00088   0.00088  -2.61829
    D2        0.48430  -0.00099   0.00000  -0.00634  -0.00635   0.47796
    D3        0.46772   0.00324   0.00000   0.02131   0.02131   0.48904
    D4       -2.71199   0.00209   0.00000   0.01409   0.01408  -2.69790
    D5        3.09388  -0.00016   0.00000  -0.00155  -0.00156   3.09232
    D6       -0.01642   0.00076   0.00000   0.00430   0.00429  -0.01212
    D7       -3.09595   0.00017   0.00000   0.00215   0.00215  -3.09380
    D8        0.17593   0.00039   0.00000   0.00108   0.00105   0.17699
    D9        0.00981  -0.00079   0.00000  -0.00435  -0.00431   0.00550
   D10       -3.00149  -0.00057   0.00000  -0.00541  -0.00540  -3.00689
   D11       -3.12392  -0.00078   0.00000  -0.00435  -0.00430  -3.12822
   D12        0.01723  -0.00052   0.00000  -0.00274  -0.00275   0.01448
   D13       -3.03132  -0.00137   0.00000  -0.00736  -0.00728  -3.03860
   D14       -0.01177   0.00016   0.00000   0.00034   0.00033  -0.01144
   D15        0.10987  -0.00113   0.00000  -0.00590  -0.00583   0.10404
   D16        3.12941   0.00039   0.00000   0.00181   0.00178   3.13120
   D17        0.00097   0.00037   0.00000   0.00238   0.00237   0.00334
   D18        3.03379   0.00168   0.00000   0.00660   0.00654   3.04033
   D19        3.04150   0.00025   0.00000   0.00453   0.00463   3.04613
   D20       -0.20887   0.00156   0.00000   0.00875   0.00881  -0.20006
   D21        0.20786  -0.00045   0.00000  -0.00268  -0.00269   0.20517
   D22       -2.97181   0.00041   0.00000   0.00294   0.00293  -2.96888
   D23       -2.78809  -0.00080   0.00000  -0.00544  -0.00542  -2.79351
   D24        0.31542   0.00007   0.00000   0.00018   0.00019   0.31561
         Item               Value     Threshold  Converged?
 Maximum Force            0.220464     0.000450     NO 
 RMS     Force            0.040546     0.000300     NO 
 Maximum Displacement     0.145862     0.001800     NO 
 RMS     Displacement     0.043768     0.001200     NO 
 Predicted change in Energy=-5.848396D-02
 Lowest energy point so far.  Saving SCF results.
 GradGradGradGradGradGradGradGradGradGradGradGradGradGradGradGradGradGrad

 Leave Link  103 at Fri Aug 20 15:38:39 2021, MaxMem= 24159191040 cpu:         3.5
 (Enter /public/home/users/caep010/software/Gaussian09/g09/l202.exe)
                          Input orientation:                          
 ---------------------------------------------------------------------
 Center     Atomic      Atomic             Coordinates (Angstroms)
 Number     Number       Type             X           Y           Z
 ---------------------------------------------------------------------
      1          8           0       11.826756    1.955513    5.060399
      2          7           0       11.182429    1.891508    4.024597
      3          8           0       11.640170    1.763662    2.896110
      4          6           0        9.731671    1.925497    4.139277
      5          7           0        8.978933    1.279277    3.216414
      6          6           0        7.727106    1.439657    3.621965
      7          1           0        6.892713    1.073794    3.169966
      8          7           0        7.651875    2.173440    4.750197
      9          1           0        6.909240    2.400430    5.326751
     10          6           0        8.935173    2.495438    5.103300
     11          7           0        9.156018    3.382876    6.203508
     12          8           0       10.235397    3.950407    6.283992
     13          8           0        8.200518    3.526002    6.972426
 ---------------------------------------------------------------------
                    Distance matrix (angstroms):
                    1          2          3          4          5
     1  O    0.000000
     2  N    1.221531   0.000000
     3  O    2.180772   1.224482   0.000000
     4  C    2.288832   1.455681   2.283424   0.000000
     5  N    3.459432   2.425568   2.723858   1.354950   0.000000
     6  C    4.375195   3.507925   3.992983   2.126483   1.325619
     7  H    5.356860   4.449799   4.805129   3.118436   2.096830
     8  N    4.192058   3.615355   4.417245   2.181799   2.216551
     9  H    4.944781   4.496081   5.356789   3.098672   3.161350
    10  C    2.941873   2.564856   3.567099   1.374257   2.245284
    11  N    3.236805   3.328388   4.442043   2.591598   3.657761
    12  O    2.830054   3.200124   4.270010   2.992290   4.257190
    13  O    4.389976   4.500340   5.617242   3.596218   4.445372
                    6          7          8          9         10
     6  C    0.000000
     7  H    1.017040   0.000000
     8  N    1.347963   2.069463   0.000000
     9  H    2.120916   2.532185   0.967185   0.000000
    10  C    2.183679   3.151269   1.369386   2.040432   0.000000
    11  N    3.533023   4.433597   2.416049   2.604211   1.430656
    12  O    4.436415   5.398666   3.490663   3.792369   2.280691
    13  O    3.975242   4.709818   2.658710   2.375407   2.257302
                   11         12         13
    11  N    0.000000
    12  O    1.222141   0.000000
    13  O    1.234788   2.189702   0.000000
 Stoichiometry    C3H2N4O4
 Framework group  C1[X(C3H2N4O4)]
 Deg. of freedom    33
 Full point group                 C1      NOp   1
 RotChk:  IX=0 Diff= 6.30D-03
 Largest Abelian subgroup         C1      NOp   1
 Largest concise Abelian subgroup C1      NOp   1
                         Standard orientation:                         
 ---------------------------------------------------------------------
 Center     Atomic      Atomic             Coordinates (Angstroms)
 Number     Number       Type             X           Y           Z
 ---------------------------------------------------------------------
      1          8           0       -1.454804   -1.671260    0.629213
      2          7           0       -1.729385   -0.619189    0.072536
      3          8           0       -2.812141   -0.321710   -0.415831
      4          6           0       -0.689451    0.398065    0.020215
      5          7           0       -1.042563    1.706090    0.003725
      6          6           0        0.104209    2.370889    0.018603
      7          1           0        0.218084    3.381521    0.023577
      8          7           0        1.167863    1.542882    0.025671
      9          1           0        2.116998    1.708617    0.110054
     10          6           0        0.678222    0.264033    0.029666
     11          7           0        1.588173   -0.833573   -0.088756
     12          8           0        1.149337   -1.914942   -0.451654
     13          8           0        2.769911   -0.574779    0.158676
 ---------------------------------------------------------------------
 Rotational constants (GHZ):      1.7026579      1.1364113      0.7062762
 Leave Link  202 at Fri Aug 20 15:38:39 2021, MaxMem= 24159191040 cpu:         0.2
 (Enter /public/home/users/caep010/software/Gaussian09/g09/l301.exe)
 Standard basis: 6-31G(d,p) (6D, 7F)
 Ernie: Thresh=  0.10000D-02 Tol=  0.10000D-05 Strict=F.
 There are   175 symmetry adapted cartesian basis functions of A   symmetry.
 There are   175 symmetry adapted basis functions of A   symmetry.
   175 basis functions,   322 primitive gaussians,   175 cartesian basis functions
    40 alpha electrons       40 beta electrons
       nuclear repulsion energy       622.8711849637 Hartrees.
 IExCor=  402 DFT=T Ex+Corr=B3LYP ExCW=0 ScaHFX=  0.200000
 ScaDFX=  0.800000  0.720000  1.000000  0.810000 ScalE2=  1.000000  1.000000
 IRadAn=      0 IRanWt=     -1 IRanGd=            0 ICorTp=0 IEmpDi=  4
 NAtoms=   13 NActive=   13 NUniq=   13 SFac= 1.00D+00 NAtFMM=   60 NAOKFM=F Big=F
 Integral buffers will be    131072 words long.
 Raffenetti 2 integral format.
 Two-electron integral symmetry is turned on.
 Leave Link  301 at Fri Aug 20 15:38:39 2021, MaxMem= 24159191040 cpu:         1.8
 (Enter /public/home/users/caep010/software/Gaussian09/g09/l302.exe)
 NPDir=0 NMtPBC=     1 NCelOv=     1 NCel=       1 NClECP=     1 NCelD=      1
         NCelK=      1 NCelE2=     1 NClLst=     1 CellRange=     0.0.
 One-electron integrals computed using PRISM.
 NBasis=   175 RedAO= T EigKep=  7.84D-04  NBF=   175
 NBsUse=   175 1.00D-06 EigRej= -1.00D+00 NBFU=   175
 Precomputing XC quadrature grid using
 IXCGrd= 4 IRadAn=           0 IRanWt=          -1 IRanGd=           0 AccXCQ= 0.00D+00.
 Generated NRdTot=       0 NPtTot=           0 NUsed=           0 NTot=          32
 NSgBfM=   174   174   174   174   174 MxSgAt=    13 MxSgA2=    13.
 Leave Link  302 at Fri Aug 20 15:38:40 2021, MaxMem= 24159191040 cpu:        11.1
 (Enter /public/home/users/caep010/software/Gaussian09/g09/l303.exe)
 DipDrv:  MaxL=1.
 Leave Link  303 at Fri Aug 20 15:38:40 2021, MaxMem= 24159191040 cpu:         0.6
 (Enter /public/home/users/caep010/software/Gaussian09/g09/l401.exe)
 Initial guess from the checkpoint file:  "/public/home/users/caep010/.cache/gau_scr/Gau-138526.chk"
 B after Tr=    -0.000000   -0.000000    0.000000
         Rot=    0.999999    0.000247    0.000326    0.001552 Ang=   0.18 deg.
 Guess basis will be translated and rotated to current coordinates.
 JPrj=2 DoOrth=T DoCkMO=T.
 Generating alternative initial guess.
 ExpMin= 1.61D-01 ExpMax= 5.48D+03 ExpMxC= 8.25D+02 IAcc=1 IRadAn=         1 AccDes= 0.00D+00
 Harris functional with IExCor=  402 and IRadAn=       1 diagonalized for initial guess.
 HarFok:  IExCor=  402 AccDes= 0.00D+00 IRadAn=         1 IDoV= 1 UseB2=F ITyADJ=14
 ICtDFT=  3500011 ScaDFX=  1.000000  1.000000  1.000000  1.000000
 FoFCou: FMM=F IPFlag=           0 FMFlag=      100000 FMFlg1=           0
         NFxFlg=           0 DoJE=T BraDBF=F KetDBF=T FulRan=T
         wScrn=  0.000000 ICntrl=     500 IOpCl=  0 I1Cent=   200000004 NGrid=           0
         NMat0=    1 NMatS0=      1 NMatT0=    0 NMatD0=    1 NMtDS0=    0 NMtDT0=    0
 Petite list used in FoFCou.
 Harris En= -635.207099971093    
 Leave Link  401 at Fri Aug 20 15:38:41 2021, MaxMem= 24159191040 cpu:        16.9
 (Enter /public/home/users/caep010/software/Gaussian09/g09/l502.exe)
 Closed shell SCF:
 Using DIIS extrapolation, IDIIS=  1040.
 Integral symmetry usage will be decided dynamically.
 Keep R1 ints in memory in canonical form, NReq=121430826.
 IVT=      117326 IEndB=      117326 NGot= 24159191040 MDV= 24040486015
 LenX= 24040486015 LenY= 24040454949
 Requested convergence on RMS density matrix=1.00D-08 within 128 cycles.
 Requested convergence on MAX density matrix=1.00D-06.
 Requested convergence on             energy=1.00D-06.
 No special actions if energy rises.
 FoFCou: FMM=F IPFlag=           0 FMFlag=           0 FMFlg1=           0
         NFxFlg=           0 DoJE=F BraDBF=F KetDBF=F FulRan=T
         wScrn=  0.000000 ICntrl=     600 IOpCl=  0 I1Cent=           0 NGrid=           0
         NMat0=    1 NMatS0=  15400 NMatT0=    0 NMatD0=    1 NMtDS0=    0 NMtDT0=    0
 Symmetry not used in FoFCou.
 Integral accuracy reduced to 1.0D-05 until final iterations.

 Cycle   1  Pass 0  IDiag  1:
 E= -635.185688174682    
 DIIS: error= 3.94D-03 at cycle   1 NSaved=   1.
 NSaved= 1 IEnMin= 1 EnMin= -635.185688174682     IErMin= 1 ErrMin= 3.94D-03
 ErrMax= 3.94D-03  0.00D+00 EMaxC= 1.00D-01 BMatC= 5.63D-03 BMatP= 5.63D-03
 IDIUse=3 WtCom= 9.61D-01 WtEn= 3.94D-02
 Coeff-Com:  0.100D+01
 Coeff-En:   0.100D+01
 Coeff:      0.100D+01
 Gap=     1.539 Goal=   None    Shift=    0.000
 GapD=    1.539 DampG=2.000 DampE=1.000 DampFc=2.0000 IDamp=-1.
 RMSDP=8.67D-04 MaxDP=1.81D-02              OVMax= 1.77D-02

 Cycle   2  Pass 0  IDiag  1:
 E= -635.191216431085     Delta-E=       -0.005528256402 Rises=F Damp=F
 DIIS: error= 3.24D-03 at cycle   2 NSaved=   2.
 NSaved= 2 IEnMin= 2 EnMin= -635.191216431085     IErMin= 2 ErrMin= 3.24D-03
 ErrMax= 3.24D-03  0.00D+00 EMaxC= 1.00D-01 BMatC= 1.41D-03 BMatP= 5.63D-03
 IDIUse=3 WtCom= 9.68D-01 WtEn= 3.24D-02
 Coeff-Com:  0.265D+00 0.735D+00
 Coeff-En:   0.000D+00 0.100D+01
 Coeff:      0.256D+00 0.744D+00
 Gap=     0.168 Goal=   None    Shift=    0.000
 RMSDP=3.99D-04 MaxDP=1.66D-02 DE=-5.53D-03 OVMax= 2.58D-02

 Cycle   3  Pass 0  IDiag  1:
 E= -635.190929531666     Delta-E=        0.000286899418 Rises=F Damp=F
 DIIS: error= 4.05D-03 at cycle   3 NSaved=   3.
 NSaved= 3 IEnMin= 2 EnMin= -635.191216431085     IErMin= 2 ErrMin= 3.24D-03
 ErrMax= 4.05D-03  0.00D+00 EMaxC= 1.00D-01 BMatC= 1.81D-03 BMatP= 1.41D-03
 IDIUse=3 WtCom= 1.36D-01 WtEn= 8.64D-01
 Coeff-Com:  0.370D-01 0.524D+00 0.439D+00
 Coeff-En:   0.000D+00 0.540D+00 0.460D+00
 Coeff:      0.502D-02 0.538D+00 0.457D+00
 Gap=     0.168 Goal=   None    Shift=    0.000
 RMSDP=2.33D-04 MaxDP=8.07D-03 DE= 2.87D-04 OVMax= 1.44D-02

 Cycle   4  Pass 0  IDiag  1:
 E= -635.192452565512     Delta-E=       -0.001523033846 Rises=F Damp=F
 DIIS: error= 5.42D-04 at cycle   4 NSaved=   4.
 NSaved= 4 IEnMin= 4 EnMin= -635.192452565512     IErMin= 4 ErrMin= 5.42D-04
 ErrMax= 5.42D-04  0.00D+00 EMaxC= 1.00D-01 BMatC= 8.54D-05 BMatP= 1.41D-03
 IDIUse=3 WtCom= 9.95D-01 WtEn= 5.42D-03
 Coeff-Com:  0.770D-02 0.279D+00 0.260D+00 0.454D+00
 Coeff-En:   0.000D+00 0.000D+00 0.000D+00 0.100D+01
 Coeff:      0.766D-02 0.277D+00 0.258D+00 0.457D+00
 Gap=     0.168 Goal=   None    Shift=    0.000
 RMSDP=7.55D-05 MaxDP=2.41D-03 DE=-1.52D-03 OVMax= 4.57D-03

 Cycle   5  Pass 0  IDiag  1:
 E= -635.192496501359     Delta-E=       -0.000043935847 Rises=F Damp=F
 DIIS: error= 4.73D-04 at cycle   5 NSaved=   5.
 NSaved= 5 IEnMin= 5 EnMin= -635.192496501359     IErMin= 5 ErrMin= 4.73D-04
 ErrMax= 4.73D-04  0.00D+00 EMaxC= 1.00D-01 BMatC= 4.29D-05 BMatP= 8.54D-05
 IDIUse=3 WtCom= 9.95D-01 WtEn= 4.73D-03
 Coeff-Com: -0.331D-02 0.949D-01 0.993D-01 0.384D+00 0.425D+00
 Coeff-En:   0.000D+00 0.000D+00 0.000D+00 0.349D+00 0.651D+00
 Coeff:     -0.329D-02 0.944D-01 0.989D-01 0.384D+00 0.426D+00
 Gap=     0.167 Goal=   None    Shift=    0.000
 RMSDP=3.40D-05 MaxDP=1.48D-03 DE=-4.39D-05 OVMax= 2.75D-03

 Cycle   6  Pass 0  IDiag  1:
 E= -635.192527494120     Delta-E=       -0.000030992761 Rises=F Damp=F
 DIIS: error= 1.18D-04 at cycle   6 NSaved=   6.
 NSaved= 6 IEnMin= 6 EnMin= -635.192527494120     IErMin= 6 ErrMin= 1.18D-04
 ErrMax= 1.18D-04  0.00D+00 EMaxC= 1.00D-01 BMatC= 4.62D-06 BMatP= 4.29D-05
 IDIUse=3 WtCom= 9.99D-01 WtEn= 1.18D-03
 Coeff-Com: -0.304D-02 0.403D-01 0.455D-01 0.230D+00 0.306D+00 0.381D+00
 Coeff-En:   0.000D+00 0.000D+00 0.000D+00 0.000D+00 0.759D-01 0.924D+00
 Coeff:     -0.304D-02 0.403D-01 0.454D-01 0.230D+00 0.306D+00 0.382D+00
 Gap=     0.168 Goal=   None    Shift=    0.000
 RMSDP=1.24D-05 MaxDP=3.99D-04 DE=-3.10D-05 OVMax= 6.54D-04

 Cycle   7  Pass 0  IDiag  1:
 E= -635.192531464192     Delta-E=       -0.000003970071 Rises=F Damp=F
 DIIS: error= 1.44D-05 at cycle   7 NSaved=   7.
 NSaved= 7 IEnMin= 7 EnMin= -635.192531464192     IErMin= 7 ErrMin= 1.44D-05
 ErrMax= 1.44D-05  0.00D+00 EMaxC= 1.00D-01 BMatC= 1.33D-07 BMatP= 4.62D-06
 IDIUse=1 WtCom= 1.00D+00 WtEn= 0.00D+00
 Coeff-Com: -0.123D-02 0.969D-02 0.128D-01 0.759D-01 0.109D+00 0.192D+00
 Coeff-Com:  0.602D+00
 Coeff:     -0.123D-02 0.969D-02 0.128D-01 0.759D-01 0.109D+00 0.192D+00
 Coeff:      0.602D+00
 Gap=     0.168 Goal=   None    Shift=    0.000
 RMSDP=2.76D-06 MaxDP=8.68D-05 DE=-3.97D-06 OVMax= 1.74D-04

 Initial convergence to 1.0D-05 achieved.  Increase integral accuracy.
 Cycle   8  Pass 1  IDiag  1:
 E= -635.192533022083     Delta-E=       -0.000001557892 Rises=F Damp=F
 DIIS: error= 1.69D-05 at cycle   1 NSaved=   1.
 NSaved= 1 IEnMin= 1 EnMin= -635.192533022083     IErMin= 1 ErrMin= 1.69D-05
 ErrMax= 1.69D-05  0.00D+00 EMaxC= 1.00D-01 BMatC= 1.33D-07 BMatP= 1.33D-07
 IDIUse=1 WtCom= 1.00D+00 WtEn= 0.00D+00
 Coeff-Com:  0.100D+01
 Coeff:      0.100D+01
 Gap=     0.168 Goal=   None    Shift=    0.000
 RMSDP=2.76D-06 MaxDP=8.68D-05 DE=-1.56D-06 OVMax= 4.48D-04

 Cycle   9  Pass 1  IDiag  1:
 E= -635.192532551552     Delta-E=        0.000000470531 Rises=F Damp=F
 DIIS: error= 5.97D-05 at cycle   2 NSaved=   2.
 NSaved= 2 IEnMin= 1 EnMin= -635.192533022083     IErMin= 1 ErrMin= 1.69D-05
 ErrMax= 5.97D-05  0.00D+00 EMaxC= 1.00D-01 BMatC= 7.34D-07 BMatP= 1.33D-07
 IDIUse=1 WtCom= 1.00D+00 WtEn= 0.00D+00
 Coeff-Com:  0.724D+00 0.276D+00
 Coeff:      0.724D+00 0.276D+00
 Gap=     0.168 Goal=   None    Shift=    0.000
 RMSDP=4.29D-06 MaxDP=2.03D-04 DE= 4.71D-07 OVMax= 3.99D-04

 Cycle  10  Pass 1  IDiag  1:
 E= -635.192533117117     Delta-E=       -0.000000565564 Rises=F Damp=F
 DIIS: error= 1.06D-05 at cycle   3 NSaved=   3.
 NSaved= 3 IEnMin= 3 EnMin= -635.192533117117     IErMin= 3 ErrMin= 1.06D-05
 ErrMax= 1.06D-05  0.00D+00 EMaxC= 1.00D-01 BMatC= 2.47D-08 BMatP= 1.33D-07
 IDIUse=1 WtCom= 1.00D+00 WtEn= 0.00D+00
 Coeff-Com:  0.170D+00 0.159D+00 0.671D+00
 Coeff:      0.170D+00 0.159D+00 0.671D+00
 Gap=     0.168 Goal=   None    Shift=    0.000
 RMSDP=1.14D-06 MaxDP=3.90D-05 DE=-5.66D-07 OVMax= 7.00D-05

 Cycle  11  Pass 1  IDiag  1:
 E= -635.192533128909     Delta-E=       -0.000000011792 Rises=F Damp=F
 DIIS: error= 4.87D-06 at cycle   4 NSaved=   4.
 NSaved= 4 IEnMin= 4 EnMin= -635.192533128909     IErMin= 4 ErrMin= 4.87D-06
 ErrMax= 4.87D-06  0.00D+00 EMaxC= 1.00D-01 BMatC= 1.02D-08 BMatP= 2.47D-08
 IDIUse=1 WtCom= 1.00D+00 WtEn= 0.00D+00
 Coeff-Com: -0.977D-02 0.636D-01 0.481D+00 0.465D+00
 Coeff:     -0.977D-02 0.636D-01 0.481D+00 0.465D+00
 Gap=     0.168 Goal=   None    Shift=    0.000
 RMSDP=5.14D-07 MaxDP=1.76D-05 DE=-1.18D-08 OVMax= 2.69D-05

 Cycle  12  Pass 1  IDiag  1:
 E= -635.192533136455     Delta-E=       -0.000000007546 Rises=F Damp=F
 DIIS: error= 1.96D-06 at cycle   5 NSaved=   5.
 NSaved= 5 IEnMin= 5 EnMin= -635.192533136455     IErMin= 5 ErrMin= 1.96D-06
 ErrMax= 1.96D-06  0.00D+00 EMaxC= 1.00D-01 BMatC= 7.99D-10 BMatP= 1.02D-08
 IDIUse=1 WtCom= 1.00D+00 WtEn= 0.00D+00
 Coeff-Com: -0.124D-01 0.406D-01 0.325D+00 0.336D+00 0.310D+00
 Coeff:     -0.124D-01 0.406D-01 0.325D+00 0.336D+00 0.310D+00
 Gap=     0.168 Goal=   None    Shift=    0.000
 RMSDP=1.45D-07 MaxDP=5.85D-06 DE=-7.55D-09 OVMax= 1.10D-05

 Cycle  13  Pass 1  IDiag  1:
 E= -635.192533137076     Delta-E=       -0.000000000621 Rises=F Damp=F
 DIIS: error= 4.08D-07 at cycle   6 NSaved=   6.
 NSaved= 6 IEnMin= 6 EnMin= -635.192533137076     IErMin= 6 ErrMin= 4.08D-07
 ErrMax= 4.08D-07  0.00D+00 EMaxC= 1.00D-01 BMatC= 4.94D-11 BMatP= 7.99D-10
 IDIUse=1 WtCom= 1.00D+00 WtEn= 0.00D+00
 Coeff-Com: -0.749D-02 0.200D-01 0.164D+00 0.175D+00 0.213D+00 0.435D+00
 Coeff:     -0.749D-02 0.200D-01 0.164D+00 0.175D+00 0.213D+00 0.435D+00
 Gap=     0.168 Goal=   None    Shift=    0.000
 RMSDP=4.04D-08 MaxDP=1.56D-06 DE=-6.21D-10 OVMax= 2.26D-06

 Cycle  14  Pass 1  IDiag  1:
 E= -635.192533137103     Delta-E=       -0.000000000027 Rises=F Damp=F
 DIIS: error= 1.21D-07 at cycle   7 NSaved=   7.
 NSaved= 7 IEnMin= 7 EnMin= -635.192533137103     IErMin= 7 ErrMin= 1.21D-07
 ErrMax= 1.21D-07  0.00D+00 EMaxC= 1.00D-01 BMatC= 4.38D-12 BMatP= 4.94D-11
 IDIUse=1 WtCom= 1.00D+00 WtEn= 0.00D+00
 Coeff-Com: -0.144D-02 0.209D-02 0.196D-01 0.248D-01 0.490D-01 0.253D+00
 Coeff-Com:  0.653D+00
 Coeff:     -0.144D-02 0.209D-02 0.196D-01 0.248D-01 0.490D-01 0.253D+00
 Coeff:      0.653D+00
 Gap=     0.168 Goal=   None    Shift=    0.000
 RMSDP=1.39D-08 MaxDP=3.61D-07 DE=-2.71D-11 OVMax= 7.48D-07

 Cycle  15  Pass 1  IDiag  1:
 E= -635.192533137100     Delta-E=        0.000000000003 Rises=F Damp=F
 DIIS: error= 3.14D-08 at cycle   8 NSaved=   8.
 NSaved= 8 IEnMin= 7 EnMin= -635.192533137103     IErMin= 8 ErrMin= 3.14D-08
 ErrMax= 3.14D-08  0.00D+00 EMaxC= 1.00D-01 BMatC= 2.31D-13 BMatP= 4.38D-12
 IDIUse=1 WtCom= 1.00D+00 WtEn= 0.00D+00
 Coeff-Com:  0.137D-03-0.104D-02-0.756D-02-0.642D-02-0.948D-03 0.536D-01
 Coeff-Com:  0.255D+00 0.707D+00
 Coeff:      0.137D-03-0.104D-02-0.756D-02-0.642D-02-0.948D-03 0.536D-01
 Coeff:      0.255D+00 0.707D+00
 Gap=     0.168 Goal=   None    Shift=    0.000
 RMSDP=4.85D-09 MaxDP=1.11D-07 DE= 2.96D-12 OVMax= 3.56D-07

 SCF Done:  E(RB3LYP) =  -635.192533137     A.U. after   15 cycles
            NFock= 15  Conv=0.49D-08     -V/T= 2.0082
 KE= 6.300481400407D+02 PE=-2.732103037036D+03 EE= 8.439911788944D+02
 Leave Link  502 at Fri Aug 20 15:38:45 2021, MaxMem= 24159191040 cpu:        61.1
 (Enter /public/home/users/caep010/software/Gaussian09/g09/l701.exe)
 Compute integral first derivatives.
 ... and contract with generalized density number  0.
 Leave Link  701 at Fri Aug 20 15:38:46 2021, MaxMem= 24159191040 cpu:        19.1
 (Enter /public/home/users/caep010/software/Gaussian09/g09/l702.exe)
 L702 exits ... SP integral derivatives will be done elsewhere.
 Leave Link  702 at Fri Aug 20 15:38:46 2021, MaxMem= 24159191040 cpu:         0.3
 (Enter /public/home/users/caep010/software/Gaussian09/g09/l703.exe)
 Compute integral first derivatives, UseDBF=F ICtDFT=           0.
 Integral derivatives from FoFJK, PRISM(SPDF).
 Calling FoFJK, ICntrl=      2127 FMM=F ISym2X=0 I1Cent= 0 IOpClX= 0 NMat=1 NMatS=1 NMatT=0.
 FoFJK:  IHMeth= 1 ICntrl=    2127 DoSepK=F KAlg= 0 I1Cent=   0 FoldK=F
 IRaf=         0 NMat=   1 IRICut=       1 DoRegI=T DoRafI=F ISym2E= 0.
 FoFCou: FMM=F IPFlag=           0 FMFlag=      100000 FMFlg1=         800
         NFxFlg=           0 DoJE=F BraDBF=F KetDBF=F FulRan=T
         wScrn=  0.000000 ICntrl=    2127 IOpCl=  0 I1Cent=           0 NGrid=           0
         NMat0=    1 NMatS0=      1 NMatT0=    0 NMatD0=    1 NMtDS0=    0 NMtDT0=    0
 Symmetry not used in FoFCou.
 Leave Link  703 at Fri Aug 20 15:38:47 2021, MaxMem= 24159191040 cpu:        17.0
 (Enter /public/home/users/caep010/software/Gaussian09/g09/l716.exe)
 Dipole        = 1.39091919D+00 2.13015301D+00 6.96380280D-02
 ***** Axes restored to original set *****
 -------------------------------------------------------------------
 Center     Atomic                   Forces (Hartrees/Bohr)
 Number     Number              X              Y              Z
 -------------------------------------------------------------------
      1        8           0.002251197    0.000693234    0.008750617
      2        7           0.001326847   -0.001636537   -0.006198615
      3        8          -0.000947907    0.001208955   -0.001943844
      4        6           0.001569425   -0.003653013   -0.011071879
      5        7          -0.004317488   -0.001033172    0.002516611
      6        6           0.043144611    0.014801617    0.017729601
      7        1          -0.042856044   -0.021022813   -0.026616213
      8        7           0.040317970   -0.005032292   -0.013618788
      9        1          -0.039912439    0.010955441    0.024063327
     10        6           0.000543119    0.003259533    0.002589108
     11        7           0.002860619    0.002117583    0.000968062
     12        8           0.001527485   -0.000269936    0.000184871
     13        8          -0.005507395   -0.000388599    0.002647144
 -------------------------------------------------------------------
 Cartesian Forces:  Max     0.043144611 RMS     0.015914051
 Leave Link  716 at Fri Aug 20 15:38:47 2021, MaxMem= 24159191040 cpu:         0.5
 (Enter /public/home/users/caep010/software/Gaussian09/g09/l103.exe)

 GradGradGradGradGradGradGradGradGradGradGradGradGradGradGradGradGradGrad
 Berny optimization.
 Using GEDIIS/GDIIS optimizer.
 FormGI is forming the generalized inverse of G from B-inverse, IUseBI=4.
 Internal  Forces:  Max     0.054551137 RMS     0.010111417
 Search for a local minimum.
 Step number   2 out of a maximum of   66
 All quantities printed in internal units (Hartrees-Bohrs-Radians)
 RMS Force = .10111D-01 SwitMx=.10000D-02 MixMth= 1
 Mixed Optimization -- RFO/linear search
 Update second derivatives using D2CorX and points    1    2
 DE= -5.28D-02 DEPred=-5.85D-02 R= 9.03D-01
 TightC=F SS=  1.41D+00  RLast= 3.02D-01 DXNew= 5.0454D-01 9.0532D-01
 Trust test= 9.03D-01 RLast= 3.02D-01 DXMaxT set to 5.05D-01
 ITU=  1  0
 Use linear search instead of GDIIS.
     Eigenvalues ---    0.01044   0.01054   0.01350   0.01358   0.01947
     Eigenvalues ---    0.02088   0.02430   0.02523   0.02558   0.02646
     Eigenvalues ---    0.15858   0.16004   0.22663   0.24647   0.24762
     Eigenvalues ---    0.24957   0.24997   0.25000   0.25000   0.25270
     Eigenvalues ---    0.38384   0.41575   0.47731   0.48618   0.53907
     Eigenvalues ---    0.57622   0.59200   0.72631   0.81950   0.91481
     Eigenvalues ---    0.95599   0.96235   0.99079
 RFO step:  Lambda=-4.51858284D-03 EMin= 1.04444618D-02
 Quartic linear search produced a step of  0.55235.
 Iteration  1 RMS(Cart)=  0.06334223 RMS(Int)=  0.01049709
 Iteration  2 RMS(Cart)=  0.01170952 RMS(Int)=  0.00281126
 Iteration  3 RMS(Cart)=  0.00024194 RMS(Int)=  0.00279993
 Iteration  4 RMS(Cart)=  0.00000160 RMS(Int)=  0.00279993
 Iteration  5 RMS(Cart)=  0.00000002 RMS(Int)=  0.00279993
 ITry= 1 IFail=0 DXMaxC= 2.86D-01 DCOld= 1.00D+10 DXMaxT= 5.05D-01 DXLimC= 3.00D+00 Rises=F
 Variable       Old X    -DE/DX   Delta X   Delta X   Delta X     New X
                                 (Linear)    (Quad)   (Total)
    R1        2.30836   0.00865   0.01033   0.00227   0.01260   2.32096
    R2        2.31394   0.00131   0.00502  -0.00329   0.00173   2.31566
    R3        2.75084   0.00257   0.00702   0.00444   0.01146   2.76229
    R4        2.56048   0.00023   0.00379  -0.00389  -0.00011   2.56038
    R5        2.59697   0.00946   0.02018   0.00836   0.02860   2.62557
    R6        2.50506  -0.00278   0.00103  -0.00908  -0.00809   2.49697
    R7        1.92193   0.05455   0.12084  -0.00332   0.11752   2.03945
    R8        2.54728   0.01001   0.01900   0.00752   0.02648   2.57377
    R9        1.82771   0.04756   0.09770  -0.00918   0.08852   1.91623
   R10        2.58776   0.00133   0.00956  -0.00380   0.00578   2.59354
   R11        2.70355   0.00365   0.00506   0.00913   0.01419   2.71773
   R12        2.30951   0.00124   0.00411  -0.00245   0.00166   2.31117
   R13        2.33341   0.00587   0.00605   0.00342   0.00947   2.34288
    A1        2.20156   0.00332   0.01948   0.01124   0.01874   2.22030
    A2        2.04616  -0.00296  -0.01076  -0.00866  -0.03099   2.01517
    A3        2.03488  -0.00031  -0.00826   0.00598  -0.01386   2.02102
    A4        2.08159   0.00260   0.00484   0.01235   0.01636   2.09795
    A5        2.26865  -0.00268  -0.00049  -0.01664  -0.01783   2.25082
    A6        1.93221   0.00006  -0.00447   0.00183  -0.00343   1.92878
    A7        1.83231   0.00229   0.00903   0.00271   0.01162   1.84394
    A8        2.20838  -0.00310  -0.00950  -0.02669  -0.03616   2.17222
    A9        1.95479  -0.00024  -0.00343  -0.00142  -0.00499   1.94980
   A10        2.12001   0.00333   0.01293   0.02810   0.04105   2.16106
   A11        2.30441  -0.00428  -0.01499  -0.03771  -0.05311   2.25130
   A12        1.86661  -0.00035  -0.00046   0.00263   0.00181   1.86842
   A13        2.10675   0.00468   0.01572   0.03931   0.05488   2.16163
   A14        1.83874  -0.00175  -0.00063  -0.00534  -0.00612   1.83261
   A15        2.35639   0.00466   0.01120   0.02076   0.03185   2.38824
   A16        2.08153  -0.00286  -0.01039  -0.01249  -0.02303   2.05850
   A17        2.06579   0.00072   0.00019   0.00516   0.00396   2.06976
   A18        2.01676  -0.00240  -0.01600  -0.00395  -0.02133   1.99543
   A19        2.20011   0.00170   0.01590   0.00161   0.01613   2.21624
    D1       -2.61829   0.00036   0.00049   0.02050   0.02242  -2.59587
    D2        0.47796  -0.00044  -0.00351  -0.05540  -0.05757   0.42038
    D3        0.48904   0.00178   0.01177   0.27423   0.28467   0.77371
    D4       -2.69790   0.00098   0.00778   0.19833   0.20468  -2.49322
    D5        3.09232  -0.00007  -0.00086  -0.01665  -0.01842   3.07390
    D6       -0.01212   0.00067   0.00237   0.04605   0.04840   0.03628
    D7       -3.09380  -0.00007   0.00119   0.01925   0.02002  -3.07379
    D8        0.17699  -0.00017   0.00058  -0.00798  -0.00798   0.16901
    D9        0.00550  -0.00075  -0.00238  -0.05126  -0.05330  -0.04781
   D10       -3.00689  -0.00085  -0.00298  -0.07849  -0.08130  -3.08820
   D11       -3.12822  -0.00058  -0.00238  -0.03665  -0.03815   3.11682
   D12        0.01448  -0.00036  -0.00152  -0.02297  -0.02459  -0.01010
   D13       -3.03860  -0.00095  -0.00402  -0.05604  -0.05863  -3.09723
   D14       -0.01144  -0.00008   0.00018  -0.00822  -0.00818  -0.01962
   D15        0.10404  -0.00074  -0.00322  -0.04312  -0.04511   0.05892
   D16        3.13120   0.00013   0.00099   0.00470   0.00534   3.13654
   D17        0.00334   0.00048   0.00131   0.03535   0.03645   0.03979
   D18        3.04033   0.00122   0.00362   0.06026   0.06273   3.10307
   D19        3.04613   0.00057   0.00256   0.07091   0.07537   3.12151
   D20       -0.20006   0.00131   0.00487   0.09583   0.10166  -0.09840
   D21        0.20517  -0.00071  -0.00149  -0.07431  -0.07587   0.12930
   D22       -2.96888   0.00005   0.00162   0.01440   0.01585  -2.95303
   D23       -2.79351  -0.00098  -0.00300  -0.10526  -0.10809  -2.90160
   D24        0.31561  -0.00023   0.00011  -0.01655  -0.01636   0.29925
         Item               Value     Threshold  Converged?
 Maximum Force            0.054551     0.000450     NO 
 RMS     Force            0.010111     0.000300     NO 
 Maximum Displacement     0.286321     0.001800     NO 
 RMS     Displacement     0.069423     0.001200     NO 
 Predicted change in Energy=-2.107781D-03
 Lowest energy point so far.  Saving SCF results.
 GradGradGradGradGradGradGradGradGradGradGradGradGradGradGradGradGradGrad

 Leave Link  103 at Fri Aug 20 15:38:47 2021, MaxMem= 24159191040 cpu:         2.3
 (Enter /public/home/users/caep010/software/Gaussian09/g09/l202.exe)
                          Input orientation:                          
 ---------------------------------------------------------------------
 Center     Atomic      Atomic             Coordinates (Angstroms)
 Number     Number       Type             X           Y           Z
 ---------------------------------------------------------------------
      1          8           0       11.806097    1.959187    5.071209
      2          7           0       11.197110    1.836604    4.011693
      3          8           0       11.657587    1.915177    2.878829
      4          6           0        9.740489    1.905828    4.112478
      5          7           0        8.963624    1.203226    3.253079
      6          6           0        7.719812    1.404261    3.651137
      7          1           0        6.848507    0.997806    3.160873
      8          7           0        7.665987    2.206019    4.750806
      9          1           0        6.857410    2.497797    5.288692
     10          6           0        8.960158    2.514939    5.087399
     11          7           0        9.174038    3.400158    6.200482
     12          8           0       10.285519    3.885929    6.356734
     13          8           0        8.191663    3.530570    6.945488
 ---------------------------------------------------------------------
                    Distance matrix (angstroms):
                    1          2          3          4          5
     1  O    0.000000
     2  N    1.228197   0.000000
     3  O    2.197845   1.225395   0.000000
     4  C    2.277882   1.461743   2.279746   0.000000
     5  N    3.457850   2.442360   2.811472   1.354894   0.000000
     6  C    4.361453   3.522574   4.045191   2.132497   1.321338
     7  H    5.399198   4.509748   4.903914   3.177046   2.127068
     8  N    4.159819   3.626512   4.418344   2.191150   2.220955
     9  H    4.982660   4.571750   5.402646   3.169551   3.202463
    10  C    2.899740   2.573177   3.537460   1.389390   2.255068
    11  N    3.206148   3.365757   4.405289   2.629382   3.682115
    12  O    2.770752   3.244989   4.226377   3.042127   4.310101
    13  O    4.364206   4.528729   5.582100   3.614497   4.432418
                    6          7          8          9         10
     6  C    0.000000
     7  H    1.079230   0.000000
     8  N    1.361978   2.157763   0.000000
     9  H    2.149685   2.603396   1.014028   0.000000
    10  C    2.198843   3.236088   1.372445   2.112430   0.000000
    11  N    3.549301   4.518697   2.408682   2.648090   1.438163
[...]
     35  0.194332D-03 -0.139859D-03 -0.393324D-01 -0.966504D-02 -0.211342D-01
     36 -0.976722D-03 -0.113950D-02 -0.337727D-01 -0.229188D-01 -0.218127D-02
     37  0.311348D-02  0.381552D-02 -0.108227D-01  0.199190D-01  0.351492D-01
     38 -0.269141D-02 -0.958089D-03  0.232855D-01 -0.244637D-02 -0.355350D-01
     39 -0.130391D-02 -0.388154D-02  0.412372D-01 -0.349563D-01 -0.425945D-01
               31            32            33            34            35 
     31  0.938514D+00
     32  0.122796D+00  0.400393D+00
     33 -0.996579D-01  0.197881D+00  0.518017D+00
     34 -0.489390D+00 -0.159349D+00 -0.514331D-01  0.609980D+00
     35 -0.174371D+00 -0.163830D+00 -0.527409D-01  0.213548D+00  0.146040D+00
     36 -0.741625D-01 -0.571122D-01 -0.122785D+00  0.641262D-01  0.710851D-01
     37 -0.355094D+00  0.524779D-01  0.171748D+00 -0.918568D-01 -0.981306D-03
     38  0.659109D-01 -0.116108D+00 -0.800478D-01 -0.205621D-01  0.314053D-01
     39  0.190505D+00 -0.756408D-01 -0.244389D+00  0.169313D-01  0.100766D-01
               36            37            38            39 
     36  0.966507D-01
     37  0.452908D-01  0.447417D+00
     38  0.163247D-01 -0.677604D-01  0.899431D-01
     39  0.311063D-01 -0.245420D+00  0.107127D+00  0.262651D+00
 FormGI is forming the generalized inverse of G from B-inverse, IUseBI=4.
 Leave Link  716 at Fri Aug 20 15:40:26 2021, MaxMem= 24159191040 cpu:         2.2
 (Enter /public/home/users/caep010/software/Gaussian09/g09/l103.exe)

 GradGradGradGradGradGradGradGradGradGradGradGradGradGradGradGradGradGrad
 Berny optimization.
 Red2BG is reusing G-inverse.
 Internal  Forces:  Max     0.000061525 RMS     0.000020889
 Search for a local minimum.
 Step number   1 out of a maximum of    2
 All quantities printed in internal units (Hartrees-Bohrs-Radians)
 Second derivative matrix not updated -- analytic derivatives used.
 ITU=  0
     Eigenvalues ---    0.00251   0.00598   0.00827   0.01099   0.01751
     Eigenvalues ---    0.02482   0.04605   0.05759   0.09463   0.11116
     Eigenvalues ---    0.11626   0.11670   0.14984   0.20583   0.21014
     Eigenvalues ---    0.21365   0.24208   0.25404   0.27004   0.31175
     Eigenvalues ---    0.35063   0.37576   0.38018   0.40960   0.42966
     Eigenvalues ---    0.46147   0.46899   0.46980   0.57167   0.61848
     Eigenvalues ---    0.63841   0.77461   0.79535
 Angle between quadratic step and forces=  70.78 degrees.
 Linear search not attempted -- first point.
 Iteration  1 RMS(Cart)=  0.00050335 RMS(Int)=  0.00000025
 Iteration  2 RMS(Cart)=  0.00000024 RMS(Int)=  0.00000009
 ITry= 1 IFail=0 DXMaxC= 2.28D-03 DCOld= 1.00D+10 DXMaxT= 3.00D-01 DXLimC= 3.00D+00 Rises=F
 Variable       Old X    -DE/DX   Delta X   Delta X   Delta X     New X
                                 (Linear)    (Quad)   (Total)
    R1        2.31831   0.00000   0.00000   0.00002   0.00002   2.31832
    R2        2.31377  -0.00001   0.00000  -0.00002  -0.00002   2.31375
    R3        2.75775  -0.00002   0.00000  -0.00010  -0.00010   2.75765
    R4        2.55439  -0.00000   0.00000  -0.00000  -0.00000   2.55438
    R5        2.61602   0.00002   0.00000   0.00002   0.00002   2.61604
    R6        2.49998   0.00002   0.00000   0.00003   0.00003   2.50001
    R7        2.04155   0.00002   0.00000   0.00006   0.00006   2.04162
    R8        2.56323  -0.00004   0.00000  -0.00008  -0.00008   2.56315
    R9        1.91402  -0.00006   0.00000  -0.00013  -0.00013   1.91390
   R10        2.58986  -0.00002   0.00000  -0.00003  -0.00003   2.58983
   R11        2.70825  -0.00003   0.00000  -0.00012  -0.00012   2.70812
   R12        2.31161  -0.00000   0.00000   0.00002   0.00002   2.31163
   R13        2.34151  -0.00004   0.00000  -0.00005  -0.00005   2.34146
    A1        2.21451  -0.00002   0.00000  -0.00004  -0.00004   2.21446
    A2        2.03576  -0.00001   0.00000  -0.00004  -0.00004   2.03572
    A3        2.03271   0.00002   0.00000   0.00009   0.00009   2.03279
    A4        2.09679   0.00001   0.00000   0.00004   0.00004   2.09683
    A5        2.25026   0.00002   0.00000   0.00003   0.00003   2.25029
    A6        1.93542  -0.00002   0.00000  -0.00006  -0.00006   1.93536
    A7        1.83612   0.00000   0.00000   0.00002   0.00002   1.83614
    A8        2.18634   0.00003   0.00000   0.00022   0.00022   2.18656
    A9        1.95376   0.00001   0.00000   0.00001   0.00001   1.95377
   A10        2.14309  -0.00003   0.00000  -0.00023  -0.00023   2.14285
   A11        2.26939   0.00002   0.00000   0.00027   0.00027   2.26966
   A12        1.86786   0.00000   0.00000  -0.00001  -0.00001   1.86785
   A13        2.14592  -0.00003   0.00000  -0.00025  -0.00025   2.14567
   A14        1.83160   0.00001   0.00000   0.00004   0.00004   1.83164
   A15        2.36988   0.00000   0.00000  -0.00010  -0.00010   2.36978
   A16        2.07939  -0.00001   0.00000   0.00007   0.00007   2.07946
   A17        2.06481  -0.00001   0.00000  -0.00008  -0.00008   2.06473
   A18        2.01340  -0.00004   0.00000  -0.00007  -0.00007   2.01332
   A19        2.20484   0.00005   0.00000   0.00015   0.00015   2.20499
    D1       -2.41018   0.00001   0.00000   0.00133   0.00133  -2.40885
    D2        0.68686   0.00001   0.00000   0.00147   0.00147   0.68833
    D3        0.71113   0.00000   0.00000   0.00124   0.00124   0.71237
    D4       -2.47502  -0.00000   0.00000   0.00138   0.00138  -2.47364
    D5        3.10252   0.00002   0.00000   0.00044   0.00044   3.10296
    D6       -0.00199   0.00002   0.00000   0.00032   0.00032  -0.00166
    D7       -3.10221  -0.00000   0.00000  -0.00031  -0.00031  -3.10253
    D8        0.11686  -0.00000   0.00000  -0.00058  -0.00058   0.11629
    D9       -0.00186  -0.00001   0.00000  -0.00019  -0.00019  -0.00204
   D10       -3.06597  -0.00001   0.00000  -0.00045  -0.00045  -3.06641
   D11       -3.13393  -0.00001   0.00000  -0.00022  -0.00022  -3.13415
   D12        0.00526  -0.00003   0.00000  -0.00034  -0.00034   0.00492
   D13        3.12894   0.00003   0.00000   0.00159   0.00159   3.13053
   D14       -0.00655   0.00002   0.00000   0.00023   0.00023  -0.00632
   D15       -0.01498   0.00001   0.00000   0.00147   0.00147  -0.01351
   D16        3.13271   0.00000   0.00000   0.00012   0.00012   3.13283
   D17        0.00488  -0.00001   0.00000  -0.00002  -0.00002   0.00486
   D18        3.08463  -0.00001   0.00000   0.00018   0.00018   3.08480
   D19       -3.13115  -0.00001   0.00000  -0.00126  -0.00126  -3.13241
   D20       -0.05140  -0.00001   0.00000  -0.00106  -0.00106  -0.05246
   D21        0.09478   0.00001   0.00000   0.00013   0.00013   0.09492
   D22       -3.06332  -0.00002   0.00000  -0.00005  -0.00005  -3.06337
   D23       -2.96108   0.00001   0.00000  -0.00015  -0.00015  -2.96123
   D24        0.16400  -0.00002   0.00000  -0.00033  -0.00033   0.16367
         Item               Value     Threshold  Converged?
 Maximum Force            0.000062     0.000450     YES
 RMS     Force            0.000021     0.000300     YES
 Maximum Displacement     0.002277     0.001800     NO 
 RMS     Displacement     0.000503     0.001200     YES
 Predicted change in Energy=-1.046361D-07
 GradGradGradGradGradGradGradGradGradGradGradGradGradGradGradGradGradGrad

 Leave Link  103 at Fri Aug 20 15:40:26 2021, MaxMem= 24159191040 cpu:         1.0
 (Enter /public/home/users/caep010/software/Gaussian09/g09/l9999.exe)
 1\1\GINC-B1164\Freq\RB3LYP\6-31G(d,p)\C3H2N4O4\ROOT\20-Aug-2021\0\\#P 
 Geom=AllCheck Guess=TCheck SCRF=Check GenChk RB3LYP/6-31G(d,p) Freq\\G
 ULGAV\\0,1\O,11.828502919,1.7961810685,5.0530267804\N,11.1911279634,1.
 9081557822,4.0107988915\O,11.6455663272,1.9930994605,2.8770395539\C,9.
 7367356146,1.9145978452,4.1306867258\N,8.9798122554,1.2276183009,3.246
 219238\C,7.7324493899,1.3939511343,3.6543463366\H,6.8589768853,0.97218
 92103,3.1786297868\N,7.6617594268,2.1686784496,4.7654858804\H,6.854981
 3747,2.4754186722,5.2954874925\C,8.9460921691,2.5147003003,5.095648530
 3\N,9.1682965056,3.3989467746,6.2013738635\O,10.2931923581,3.850432454
 3,6.3660393857\O,8.1705068109,3.6435305469,6.8941175345\\Version=ES64L
 -G09RevE.01\State=1-A\HF=-635.1989129\RMSD=2.296e-09\RMSF=3.324e-05\Ze
 roPoint=0.0765268\Thermal=0.0851306\Dipole=-2.5024717,-0.3890426,-0.22
 84893\DipoleDeriv=-0.7030454,0.1022133,-0.1889149,0.0051025,-0.2109681
 ,0.1030319,-0.0821244,0.1034712,-0.7253804,1.4490857,-0.196728,-0.2258
 734,-0.0249836,0.2779354,-0.1430593,-0.0942769,-0.1857903,1.4607819,-0
 .6467376,0.0399702,0.3493859,0.0387104,-0.2361493,0.0469875,0.1457239,
 0.0542913,-0.8517628,0.0703203,0.0301252,0.0422264,0.0744743,0.3065938
 ,0.2205084,0.1156334,0.2987951,0.4329196,-0.4886209,-0.2019949,-0.2739
 481,-0.0626505,-0.3482425,-0.1326572,0.0410489,-0.1558305,-0.4441167,0
 .3712446,0.0780115,0.0740081,-0.0536916,0.0862147,0.0305173,-0.1263,0.
 0085534,0.1044457,0.0412176,-0.0069619,-0.0001206,-0.0065812,0.1204293
 ,-0.0261016,-0.003209,-0.0159258,0.1202611,-0.5964799,0.2053714,0.3240
 902,0.0538548,-0.1381544,0.0788374,0.1508759,0.0153462,-0.1684488,0.34
 79925,-0.0199409,-0.0352603,-0.0094214,0.3003913,-0.0348692,-0.0091568
 ,-0.0271297,0.2784833,0.3496157,-0.1066936,-0.1558745,0.0210723,-0.246
 8514,-0.4420385,-0.1219597,-0.4146256,-0.4563276,1.3084477,0.2635444,-
 0.1323455,0.1164514,0.9875682,0.7773315,-0.2433659,0.7856762,1.4542004
 ,-0.7324975,-0.2673107,-0.1018389,-0.2427489,-0.4506346,-0.220452,-0.0
 756204,-0.219037,-0.4822659,-0.7705427,0.0803942,0.3244656,0.0904113,-
 0.4481324,-0.2580362,0.3027309,-0.2477945,-0.7227897\Polar=86.6283551,
 3.7433233,47.6565194,-3.6897438,23.6244137,76.8197545\PG=C01 [X(C3H2N4
 O4)]\NImag=0\\0.27500109,-0.03082747,0.03381781,0.25734601,-0.04918483
 ,0.53261268,-0.27188246,0.02489797,-0.19489028,0.66900445,0.02465150,-
 0.07553898,0.03517321,-0.00912299,0.23608067,-0.21654356,0.03330650,-0
 .42156360,0.02418457,-0.04626979,0.98570696,0.04756353,0.00096544,-0.0
 2853832,-0.20845271,-0.01327473,0.18036597,0.19953763,0.00034283,0.023
 75551,0.01417198,-0.01099831,-0.07600834,0.02518572,0.01417868,0.03029
 758,0.00379843,0.01367568,-0.10224443,0.16360562,0.02997456,-0.4932244
 3,-0.20412058,-0.04362788,0.61882021,-0.04014563,0.00086477,-0.0318057
 2,-0.15551837,0.00782083,0.01190491,-0.03013967,-0.00275256,0.03785956
 ,0.71937973,0.00295363,0.02177653,0.00434630,0.00083770,-0.08829678,-0
 .01445526,0.00071146,0.02065558,-0.00134177,0.00017050,0.28937132,-0.0
 4582148,0.00638349,-0.00933219,0.01239449,-0.02121875,-0.07052310,0.05
 201893,0.00377070,-0.02891195,-0.05998778,0.21080127,0.50085212,-0.003
 01417,0.00370170,-0.00031867,-0.03584169,-0.02228788,-0.01867304,0.000
 37768,0.00062834,-0.00525888,-0.14235991,-0.06088045,-0.07142262,0.592
 55942,0.00371702,0.00108437,0.00011513,-0.00903698,-0.00326233,0.00795
 639,-0.00133601,0.00055338,-0.00030025,-0.05100081,-0.13586614,-0.0932
 0985,0.01872933,0.23060658,0.00167742,-0.00196969,0.00278976,-0.012264
 38,0.00917714,0.00118680,0.00193620,-0.00048970,0.00130879,-0.06032429
 ,-0.09004327,-0.18939488,-0.04185162,0.18201735,0.36670419,-0.00370897
 ,-0.00083553,-0.00067997,0.00740842,-0.00265626,-0.00724012,-0.0004432
 6,0.00086350,0.00323325,-0.09765303,-0.04334229,-0.05002202,-0.3612553
 9,0.02590980,0.07997842,0.85081678,-0.00082022,0.00058844,0.00031126,-
 0.00483787,0.00229171,-0.00592439,0.00168412,-0.00055829,-0.00066125,-
 0.01100669,0.00565239,0.00129006,0.03366291,-0.08851326,-0.02485788,0.
 12386950,0.33662195,0.00210395,0.00242491,0.00203961,-0.00785456,-0.00
 725635,-0.00119654,0.00197562,0.00021465,-0.00129016,-0.00353600,0.001
 92632,0.01249714,0.08902550,-0.02072675,-0.11965492,0.07765457,0.26093
 986,0.50160885,-0.00056561,0.00023412,-0.00018575,0.00056492,-0.000884
 76,-0.00084396,-0.00010347,0.00006396,0.00007243,-0.00379954,0.0005015
 5,0.00255588,-0.02067332,-0.00942687,-0.01102491,-0.25204458,-0.098490
 45,-0.10883786,0.26594497,-0.00009554,-0.00027693,0.00016511,-0.000300
 89,0.00134386,-0.00025200,0.00005977,-0.00019143,-0.00010868,0.0016416
 9,0.00518340,-0.00290106,0.00485264,0.00159690,0.00687791,-0.09610373,
 -0.08626771,-0.06712105,0.10339855,0.08351402,0.00058658,-0.00003203,-
 0.00001494,0.00013045,-0.00009306,0.00115540,-0.00003151,0.00004676,0.
 00000014,0.00299799,-0.00272370,0.00239907,0.00905864,0.00904697,0.007
 91231,-0.10539037,-0.06641808,-0.10882327,0.11264954,0.07229081,0.1090
 6665,-0.00451322,-0.00090223,-0.00343259,0.01373240,0.00097434,0.00472
 946,-0.00603783,0.00069376,0.00103760,-0.07562675,0.02593215,0.0488669
 1,-0.04742142,0.00967889,0.02517323,-0.11998570,-0.00392939,-0.0004213
 5,0.00987722,-0.01499159,-0.02302814,0.85464696,-0.00201568,-0.0011159
 1,-0.00119086,0.00539008,0.00180629,-0.00559782,0.00082961,0.00047976,
 0.00093776,-0.01082074,0.00201555,-0.01033388,0.04994770,0.00232863,-0
 .03213623,-0.01021965,-0.15100892,-0.12787161,0.00380665,-0.00600259,-
 0.00876054,-0.05201166,0.31166597,-0.00145954,-0.00034134,-0.00015881,
 0.00352905,-0.00510858,-0.00442100,0.00026546,0.00170756,0.00175550,0.
 00066206,-0.01560282,-0.01239308,0.07766065,-0.03045350,-0.02741680,-0
 .00608141,-0.12858343,-0.24260683,0.00402809,-0.00551423,-0.00996982,-
 0.16782146,0.31783437,0.56072895,0.00033238,-0.00002427,-0.00012680,-0
 .00018535,0.00028331,0.00084927,-0.00010470,-0.00018796,0.00001511,-0.
 00478698,-0.00137938,-0.00169425,0.00385463,-0.00181365,-0.00241147,0.
 00826158,0.00133592,-0.00008217,-0.00012564,0.00002381,-0.00011960,-0.
 31766162,0.08482021,0.15732712,0.32397359,-0.00037823,-0.00035731,-0.0
 0002280,0.00082874,0.00207448,-0.00060713,0.00010733,-0.00031492,0.000
 14242,-0.00388041,0.00058474,-0.00074007,-0.00077992,0.00311439,-0.006
 15621,0.01484890,-0.00476435,0.00266226,-0.00030139,-0.00101806,0.0007
 4003,0.08811139,-0.06482854,-0.08641519,-0.09550127,0.06427669,-0.0003
 8213,0.00000365,-0.00039494,0.00130529,-0.00062302,0.00146526,-0.00103
 456,0.00029938,0.00032818,-0.00390391,-0.00135518,0.00039420,-0.000927
 42,-0.00641491,-0.00143835,0.01942538,0.00364133,-0.00511281,-0.000605
 92,0.00065126,-0.00041576,0.16248587,-0.08528330,-0.15025646,-0.172400
 53,0.07944091,0.14791421,0.00218531,-0.00069202,0.00088637,-0.01902190
 ,0.01317810,0.02092641,-0.00175753,-0.00240578,-0.00079204,-0.18494298
 ,0.06842719,0.10922332,0.01063518,0.01035587,0.01225890,-0.02021469,-0
 .04351224,-0.05490153,0.00007186,0.00221334,0.00452806,-0.30344773,-0.
 03880366,-0.02720832,-0.01400316,-0.00449277,-0.00604189,0.65751163,0.
 00267620,0.00033820,0.00081549,-0.00201095,0.00150086,0.00357685,-0.00
 280166,0.00038843,0.00177033,0.07222140,-0.11100900,-0.08397484,-0.034
 77229,-0.01496213,-0.03953814,-0.00956343,-0.01980558,-0.05020932,0.00
 107950,0.00100524,-0.00273462,-0.04658899,-0.07739991,-0.02927006,0.01
 053362,0.00228414,0.00780028,0.02659742,0.33298836,0.00007560,-0.00066
 500,-0.00038852,0.00549666,0.00576666,-0.00008331,-0.00167577,-0.00181
 914,0.00385926,0.11277878,-0.08087985,-0.18584406,-0.04876286,-0.04301
 645,-0.04282056,-0.00839980,-0.04431023,-0.04714516,0.00209787,-0.0033
 0774,-0.00131261,-0.03742216,-0.03058391,-0.09301889,0.01598838,0.0090
 8742,0.00736508,-0.04420163,0.29909458,0.53099944,-0.00404806,-0.00327
 576,-0.00861230,0.00803917,0.00122412,0.01271116,-0.00175679,0.0008773
 8,-0.00343192,0.01506918,0.00796122,0.00490533,0.00007510,0.00413061,0
 .00956728,-0.01089159,-0.00164284,-0.00034026,0.00055647,-0.00060981,-
 0.00086971,-0.00755035,-0.02054341,-0.02695988,-0.00432378,-0.00300959
 ,-0.00409113,-0.08919909,0.00055291,0.00043668,0.93851435,-0.00499792,
 -0.00159253,-0.00327194,0.00981051,-0.00116495,0.00320471,-0.00346774,
 0.00082759,0.00027476,0.00020871,-0.01617365,-0.01218640,0.01096316,0.
 00842788,-0.00026944,-0.00388492,0.00685443,0.00766839,-0.00028315,0.0
 0191806,-0.00140019,-0.00972691,-0.01778099,-0.00938865,0.00027169,0.0
 0144582,0.00293755,-0.01481862,-0.10321720,-0.05269708,0.12279575,0.40
 039272,-0.00536881,-0.00147171,-0.00225753,0.01010389,0.00097171,0.000
 26420,-0.00362532,0.00042212,0.00046943,-0.00012928,-0.01148630,-0.027
 70440,0.01724077,-0.00259192,0.00652865,-0.00491968,0.00792424,0.01483
 219,-0.00000440,-0.00112567,0.00059294,-0.01392249,-0.01242854,-0.0219
 0564,0.00211047,0.00414899,0.00517241,-0.02214215,-0.04945546,-0.12683
 488,-0.09965793,0.19788123,0.51801662,0.00226085,0.00476448,0.00777923
 ,-0.00648247,0.00012423,-0.00798729,0.00142223,-0.00094534,0.00225826,
 -0.00294928,0.00263671,0.00500733,-0.00339572,-0.00061340,-0.00221821,
 0.00104278,-0.00054111,-0.00134234,0.00023010,-0.00002582,-0.00021107,
 0.00474766,-0.00252811,-0.00370496,0.00138552,0.00133374,0.00235543,-0
 .02699417,-0.03784277,-0.03156091,-0.48939034,-0.15934852,-0.05143306,
 0.60997964,0.00348223,-0.00288315,-0.00220493,-0.00260304,-0.00064031,
 0.00055377,0.00140699,0.00020869,-0.00076390,-0.00005070,0.00230723,0.
 00302432,-0.00201279,-0.00101933,-0.00069279,-0.00118234,-0.00081367,-
 0.00086723,0.00029483,-0.00064405,-0.00002731,0.00137608,-0.00065999,-
 0.00616861,0.00042583,0.00019433,-0.00013986,-0.03933235,-0.00966504,-
 0.02113424,-0.17437145,-0.16382959,-0.05274093,0.21354800,0.14603957,0
 .00253047,-0.00185147,-0.00095719,-0.00284557,-0.00027367,0.00043962,0
 .00106945,-0.00003453,0.00014440,-0.00009347,0.00157976,0.00281491,-0.
 00218093,-0.00021487,-0.00048611,-0.00146340,-0.00138552,-0.00194451,0
 .00015467,0.00035587,-0.00064968,0.00146116,-0.00457779,-0.00101304,-0
 .00011428,-0.00097672,-0.00113950,-0.03377273,-0.02291877,-0.00218127,
 -0.07416245,-0.05711216,-0.12278462,0.06412624,0.07108514,0.09665070,0
 .00053496,0.00112880,0.00257879,-0.00136440,-0.00002981,-0.00438378,-0
 .00010512,-0.00035850,0.00172316,0.00347322,-0.00453000,-0.00602406,0.
 00645960,0.00070619,-0.00049656,-0.00133235,0.00422834,0.00655643,0.00
 006661,-0.00006240,-0.00030086,-0.00075963,-0.00785135,-0.01023686,0.0
 0338353,0.00311348,0.00381552,-0.01082273,0.01991904,0.03514916,-0.355
 09427,0.05247795,0.17174798,-0.09185680,-0.00098131,0.04529084,0.44741
 737,0.00131163,0.00040396,0.00077688,-0.00285397,-0.00018617,-0.000677
 54,0.00093671,-0.00009355,0.00002825,-0.00341599,0.00379882,-0.0007050
 0,-0.00175245,-0.00408894,-0.00191904,0.00229645,-0.00027713,-0.001784
 08,0.00000745,-0.00016072,0.00006496,0.00138417,0.00050067,-0.00269552
 ,0.00121214,-0.00269141,-0.00095809,0.02328552,-0.00244637,-0.03553502
 ,0.06591089,-0.11610758,-0.08004777,-0.02056210,0.03140531,0.01632473,
 -0.06776044,0.08994311,0.00145704,-0.00027817,-0.00012991,-0.00289522,
 -0.00022005,0.00079374,0.00139443,0.00015239,-0.00101494,-0.00642284,-
 0.00076551,0.00514621,-0.00358953,-0.00220734,-0.00521890,0.00390514,-
 0.00196597,-0.00320359,-0.00005565,-0.00001053,0.00005956,0.00229397,-
 0.00000765,0.00067592,0.00065876,-0.00130391,-0.00388154,0.04123723,-0
 .03495633,-0.04259453,0.19050511,-0.07564077,-0.24438938,0.01693132,0.
 01007657,0.03110628,-0.24541976,0.10712725,0.26265107\\-0.00000508,0.0
 0001029,0.00000366,0.00004075,-0.00002310,0.00003481,-0.00000893,0.000
 00328,-0.00001676,-0.00005929,-0.00000357,0.00001617,-0.00001402,0.000
 05021,-0.00005605,-0.00003394,-0.00005867,0.00001337,0.00003806,-0.000
 01166,-0.00000725,0.00007288,0.00000415,0.00001563,-0.00006785,0.00003
 376,-0.00000660,0.00004622,-0.00003404,-0.00001917,0.00000405,0.000005
 76,-0.00006176,-0.00000612,0.00000477,0.00003118,-0.00000672,0.0000188
 1,0.00005278\\\@


 CHILDREN YOU ARE VERY LITTLE,
 AND YOUR BONES ARE VERY BRITTLE;
 IF YOU WOULD GROW GREAT AND STATELY
 YOU MUST TRY TO WALK SEDATELY.
 YOU MUST STILL BE BRIGHT AND QUIET,
 AND CONTENT WITH SIMPLE DIET;
 AND REMAIN, THROUGH ALL BEWILD'RING
 INNOCENT AND HONEST CHILDREN.
     -- A CHILD'S GARDEN OF VERSE,
        ROBERT LOUIS STEVENSON
 Job cpu time:       0 days  0 hours  8 minutes 25.4 seconds.
 File lengths (MBytes):  RWF=     55 Int=      0 D2E=      0 Chk=      3 Scr=      1
 Normal termination of Gaussian 09 at Fri Aug 20 15:40:26 2021.
