 Entering Gaussian System, Link 0=g09
 Input=B3LYP6-31G.SORBUW.gjf
 Output=B3LYP6-31G.SORBUW.log
 Initial command:
 /public/home/users/caep010/software/Gaussian09/g09/l1.exe "/public/home/users/caep010/.cache/gau_scr/Gau-57600.inp" -scrdir="/public/home/users/caep010/.cache/gau_scr/"
 Entering Link 1 = /public/home/users/caep010/software/Gaussian09/g09/l1.exe PID=     57601.
  
 Copyright (c) 1988,1990,1992,1993,1995,1998,2003,2009,2015,
            Gaussian, Inc.  All Rights Reserved.
  
 This is part of the Gaussian(R) 09 program.  It is based on
 the Gaussian(R) 03 system (copyright 2003, Gaussian, Inc.),
 the Gaussian(R) 98 system (copyright 1998, Gaussian, Inc.),
 the Gaussian(R) 94 system (copyright 1995, Gaussian, Inc.),
 the Gaussian 92(TM) system (copyright 1992, Gaussian, Inc.),
 the Gaussian 90(TM) system (copyright 1990, Gaussian, Inc.),
 the Gaussian 88(TM) system (copyright 1988, Gaussian, Inc.),
 the Gaussian 86(TM) system (copyright 1986, Carnegie Mellon
 University), and the Gaussian 82(TM) system (copyright 1983,
 Carnegie Mellon University). Gaussian is a federally registered
 trademark of Gaussian, Inc.
  
 This software contains proprietary and confidential information,
 including trade secrets, belonging to Gaussian, Inc.
  
 This software is provided under written license and may be
 used, copied, transmitted, or stored only in accord with that
 written license.
  
 The following legend is applicable only to US Government
 contracts under FAR:
  
                    RESTRICTED RIGHTS LEGEND
  
 Use, reproduction and disclosure by the US Government is
 subject to restrictions as set forth in subparagraphs (a)
 and (c) of the Commercial Computer Software - Restricted
 Rights clause in FAR 52.227-19.
  
 Gaussian, Inc.
 340 Quinnipiac St., Bldg. 40, Wallingford CT 06492
  
  
 ---------------------------------------------------------------
 Warning -- This program may not be used in any manner that
 competes with the business of Gaussian, Inc. or will provide
 assistance to any competitor of Gaussian, Inc.  The licensee
 of this program is prohibited from giving any competitor of
 Gaussian, Inc. access to this program.  By using this program,
 the user acknowledges that Gaussian, Inc. is engaged in the
 business of creating and licensing software in the field of
 computational chemistry and represents and warrants to the
 licensee that it is not a competitor of Gaussian, Inc. and that
 it will not use this program in any manner prohibited above.
 ---------------------------------------------------------------
  

 Cite this work as:
 Gaussian 09, Revision E.01,
 M. J. Frisch, G. W. Trucks, H. B. Schlegel, G. E. Scuseria, 
 M. A. Robb, J. R. Cheeseman, G. Scalmani, V. Barone, B. Mennucci, 
 G. A. Petersson, H. Nakatsuji, M. Caricato, X. Li, H. P. Hratchian, 
 A. F. Izmaylov, J. Bloino, G. Zheng, J. L. Sonnenberg, M. Hada, 
 M. Ehara, K. Toyota, R. Fukuda, J. Hasegawa, M. Ishida, T. Nakajima, 
 Y. Honda, O. Kitao, H. Nakai, T. Vreven, J. A. Montgomery, Jr., 
 J. E. Peralta, F. Ogliaro, M. Bearpark, J. J. Heyd, E. Brothers, 
 K. N. Kudin, V. N. Staroverov, T. Keith, R. Kobayashi, J. Normand, 
 K. Raghavachari, A. Rendell, J. C. Burant, S. S. Iyengar, J. Tomasi, 
 M. Cossi, N. Rega, J. M. Millam, M. Klene, J. E. Knox, J. B. Cross, 
 V. Bakken, C. Adamo, J. Jaramillo, R. Gomperts, R. E. Stratmann, 
 O. Yazyev, A. J. Austin, R. Cammi, C. Pomelli, J. W. Ochterski, 
 R. L. Martin, K. Morokuma, V. G. Zakrzewski, G. A. Voth, 
 P. Salvador, J. J. Dannenberg, S. Dapprich, A. D. Daniels, 
 O. Farkas, J. B. Foresman, J. V. Ortiz, J. Cioslowski, 
 and D. J. Fox, Gaussian, Inc., Wallingford CT, 2013.
 
 ******************************************
 Gaussian 09:  ES64L-G09RevE.01 30-Nov-2015
                20-Aug-2021 
 ******************************************
 %nproc=32
 Will use up to   32 processors via shared memory.
 %mem=180GB
 -------------------------
 #P OPT Freq B3LYP/6-31G**
 -------------------------
 1/14=-1,18=20,19=15,26=3,38=1/1,3;
 2/9=110,12=2,17=6,18=5,40=1/2;
 3/5=1,6=6,7=101,11=2,16=1,25=1,30=1,71=1,74=-5/1,2,3;
 4//1;
 5/5=2,38=5/2;
 6/7=2,8=2,9=2,10=2,28=1/1;
 7//1,2,3,16;
 1/14=-1,18=20,19=15,26=3/3(2);
 2/9=110/2;
 99//99;
 2/9=110/2;
 3/5=1,6=6,7=101,11=2,16=1,25=1,30=1,71=1,74=-5/1,2,3;
 4/5=5,16=3,69=1/1;
 5/5=2,38=5/2;
 7//1,2,3,16;
 1/14=-1,18=20,19=15,26=3/3(-5);
 2/9=110/2;
 6/7=2,8=2,9=2,10=2,19=2,28=1/1;
 99/9=1/99;
 Leave Link    1 at Fri Aug 20 15:48:46 2021, MaxMem= 24159191040 cpu:         2.1
 (Enter /public/home/users/caep010/software/Gaussian09/g09/l101.exe)
 ------
 SORBUW
 ------
 Symbolic Z-matrix:
 Charge =  0 Multiplicity = 1
 N                     0.        5.465     7.7253 
 C                     0.        5.465     6.2637 
 C                     0.        5.465     3.5233 
 N                     0.        5.465     2.0992 
 O                     0.2867    6.4946    8.2973 
 O                    -0.2867    4.4354    8.2973 
 C                     0.3003    6.628     5.5851 
 C                    -0.3003    4.302     5.5851 
 C                     0.2976    6.6247    4.2207 
 C                    -0.2976    4.3053    4.2207 
 C                     0.5447    6.4367    1.2823 
 C                    -0.5447    4.4933    1.2823 
 C                     0.3536    6.0771    0. 
 C                    -0.3536    4.8529    0. 
 H                     0.4641    7.3996    6.0949 
 H                    -0.4641    3.5304    6.0949 
 H                     0.5051    7.4652    3.7507 
 H                    -0.5051    3.4648    3.7507 
 H                     1.0511    7.1701    1.6409 
 H                    -1.0511    3.7599    1.6409 
 H                     0.6006    6.6017   -0.8322 
 H                    -0.6006    4.3283   -0.8322 
 
 NAtoms=     22 NQM=       22 NQMF=       0 NMMI=      0 NMMIF=      0
                NMic=       0 NMicF=      0.
                    Isotopes and Nuclear Properties:
 (Nuclear quadrupole moments (NQMom) in fm**2, nuclear magnetic moments (NMagM)
  in nuclear magnetons)

  Atom         1           2           3           4           5           6           7           8           9          10
 IAtWgt=          14          12          12          14          16          16          12          12          12          12
 AtmWgt=  14.0030740  12.0000000  12.0000000  14.0030740  15.9949146  15.9949146  12.0000000  12.0000000  12.0000000  12.0000000
 NucSpn=           2           0           0           2           0           0           0           0           0           0
 AtZEff=   0.0000000   0.0000000   0.0000000   0.0000000   0.0000000   0.0000000   0.0000000   0.0000000   0.0000000   0.0000000
 NQMom=    2.0440000   0.0000000   0.0000000   2.0440000   0.0000000   0.0000000   0.0000000   0.0000000   0.0000000   0.0000000
 NMagM=    0.4037610   0.0000000   0.0000000   0.4037610   0.0000000   0.0000000   0.0000000   0.0000000   0.0000000   0.0000000
 AtZNuc=   7.0000000   6.0000000   6.0000000   7.0000000   8.0000000   8.0000000   6.0000000   6.0000000   6.0000000   6.0000000

  Atom        11          12          13          14          15          16          17          18          19          20
 IAtWgt=          12          12          12          12           1           1           1           1           1           1
 AtmWgt=  12.0000000  12.0000000  12.0000000  12.0000000   1.0078250   1.0078250   1.0078250   1.0078250   1.0078250   1.0078250
 NucSpn=           0           0           0           0           1           1           1           1           1           1
 AtZEff=   0.0000000   0.0000000   0.0000000   0.0000000   0.0000000   0.0000000   0.0000000   0.0000000   0.0000000   0.0000000
 NQMom=    0.0000000   0.0000000   0.0000000   0.0000000   0.0000000   0.0000000   0.0000000   0.0000000   0.0000000   0.0000000
 NMagM=    0.0000000   0.0000000   0.0000000   0.0000000   2.7928460   2.7928460   2.7928460   2.7928460   2.7928460   2.7928460
 AtZNuc=   6.0000000   6.0000000   6.0000000   6.0000000   1.0000000   1.0000000   1.0000000   1.0000000   1.0000000   1.0000000

  Atom        21          22
 IAtWgt=           1           1
 AtmWgt=   1.0078250   1.0078250
 NucSpn=           1           1
 AtZEff=   0.0000000   0.0000000
 NQMom=    0.0000000   0.0000000
 NMagM=    2.7928460   2.7928460
 AtZNuc=   1.0000000   1.0000000
 Leave Link  101 at Fri Aug 20 15:48:46 2021, MaxMem= 24159191040 cpu:        10.4
 (Enter /public/home/users/caep010/software/Gaussian09/g09/l103.exe)

 GradGradGradGradGradGradGradGradGradGradGradGradGradGradGradGradGradGrad
 Berny optimization.
 Initialization pass.
                           ----------------------------
                           !    Initial Parameters    !
                           ! (Angstroms and Degrees)  !
 --------------------------                            --------------------------
 ! Name  Definition              Value          Derivative Info.                !
 --------------------------------------------------------------------------------
 ! R1    R(1,2)                  1.4616         estimate D2E/DX2                !
 ! R2    R(1,5)                  1.2122         estimate D2E/DX2                !
 ! R3    R(1,6)                  1.2122         estimate D2E/DX2                !
 ! R4    R(2,7)                  1.3796         estimate D2E/DX2                !
 ! R5    R(2,8)                  1.3796         estimate D2E/DX2                !
 ! R6    R(3,4)                  1.4241         estimate D2E/DX2                !
 ! R7    R(3,9)                  1.3856         estimate D2E/DX2                !
 ! R8    R(3,10)                 1.3856         estimate D2E/DX2                !
 ! R9    R(4,11)                 1.3814         estimate D2E/DX2                !
 ! R10   R(4,12)                 1.3814         estimate D2E/DX2                !
 ! R11   R(7,9)                  1.3644         estimate D2E/DX2                !
 ! R12   R(7,15)                 0.9392         estimate D2E/DX2                !
 ! R13   R(8,10)                 1.3644         estimate D2E/DX2                !
 ! R14   R(8,16)                 0.9392         estimate D2E/DX2                !
 ! R15   R(9,17)                 0.9851         estimate D2E/DX2                !
 ! R16   R(10,18)                0.9851         estimate D2E/DX2                !
 ! R17   R(11,13)                1.3454         estimate D2E/DX2                !
 ! R18   R(11,19)                0.9607         estimate D2E/DX2                !
 ! R19   R(12,14)                1.3454         estimate D2E/DX2                !
 ! R20   R(12,20)                0.9607         estimate D2E/DX2                !
 ! R21   R(13,14)                1.4138         estimate D2E/DX2                !
 ! R22   R(13,21)                1.0143         estimate D2E/DX2                !
 ! R23   R(14,22)                1.0143         estimate D2E/DX2                !
 ! A1    A(2,1,5)              118.1554         estimate D2E/DX2                !
 ! A2    A(2,1,6)              118.1554         estimate D2E/DX2                !
 ! A3    A(5,1,6)              123.6892         estimate D2E/DX2                !
 ! A4    A(1,2,7)              119.4648         estimate D2E/DX2                !
 ! A5    A(1,2,8)              119.4648         estimate D2E/DX2                !
 ! A6    A(7,2,8)              121.0705         estimate D2E/DX2                !
 ! A7    A(4,3,9)              120.2203         estimate D2E/DX2                !
 ! A8    A(4,3,10)             120.2203         estimate D2E/DX2                !
 ! A9    A(9,3,10)             119.5593         estimate D2E/DX2                !
 ! A10   A(3,4,11)             126.2538         estimate D2E/DX2                !
 ! A11   A(3,4,12)             126.2538         estimate D2E/DX2                !
 ! A12   A(11,4,12)            107.4924         estimate D2E/DX2                !
 ! A13   A(2,7,9)              119.3022         estimate D2E/DX2                !
 ! A14   A(2,7,15)             117.6158         estimate D2E/DX2                !
 ! A15   A(9,7,15)             123.0338         estimate D2E/DX2                !
 ! A16   A(2,8,10)             119.3022         estimate D2E/DX2                !
 ! A17   A(2,8,16)             117.6158         estimate D2E/DX2                !
 ! A18   A(10,8,16)            123.0338         estimate D2E/DX2                !
 ! A19   A(3,9,7)              120.3827         estimate D2E/DX2                !
 ! A20   A(3,9,17)             121.2804         estimate D2E/DX2                !
 ! A21   A(7,9,17)             118.3354         estimate D2E/DX2                !
 ! A22   A(3,10,8)             120.3827         estimate D2E/DX2                !
 ! A23   A(3,10,18)            121.2804         estimate D2E/DX2                !
 ! A24   A(8,10,18)            118.3354         estimate D2E/DX2                !
 ! A25   A(4,11,13)            108.6391         estimate D2E/DX2                !
 ! A26   A(4,11,19)            121.6088         estimate D2E/DX2                !
 ! A27   A(13,11,19)           129.3966         estimate D2E/DX2                !
 ! A28   A(4,12,14)            108.6391         estimate D2E/DX2                !
 ! A29   A(4,12,20)            121.6088         estimate D2E/DX2                !
 ! A30   A(14,12,20)           129.3966         estimate D2E/DX2                !
 ! A31   A(11,13,14)           107.6071         estimate D2E/DX2                !
 ! A32   A(11,13,21)           127.5291         estimate D2E/DX2                !
 ! A33   A(14,13,21)           124.7271         estimate D2E/DX2                !
 ! A34   A(12,14,13)           107.6071         estimate D2E/DX2                !
 ! A35   A(12,14,22)           127.5291         estimate D2E/DX2                !
 ! A36   A(13,14,22)           124.7271         estimate D2E/DX2                !
 ! D1    D(5,1,2,7)             -1.0821         estimate D2E/DX2                !
 ! D2    D(5,1,2,8)            178.9179         estimate D2E/DX2                !
 ! D3    D(6,1,2,7)            178.9179         estimate D2E/DX2                !
 ! D4    D(6,1,2,8)             -1.0821         estimate D2E/DX2                !
 ! D5    D(1,2,7,9)           -179.9138         estimate D2E/DX2                !
 ! D6    D(1,2,7,15)            -2.3629         estimate D2E/DX2                !
 ! D7    D(8,2,7,9)              0.0862         estimate D2E/DX2                !
 ! D8    D(8,2,7,15)           177.6371         estimate D2E/DX2                !
 ! D9    D(1,2,8,10)          -179.9138         estimate D2E/DX2                !
 ! D10   D(1,2,8,16)            -2.3629         estimate D2E/DX2                !
 ! D11   D(7,2,8,10)             0.0862         estimate D2E/DX2                !
 ! D12   D(7,2,8,16)           177.6371         estimate D2E/DX2                !
 ! D13   D(9,3,4,11)            14.8809         estimate D2E/DX2                !
 ! D14   D(9,3,4,12)          -165.1191         estimate D2E/DX2                !
 ! D15   D(10,3,4,11)         -165.1191         estimate D2E/DX2                !
 ! D16   D(10,3,4,12)           14.8809         estimate D2E/DX2                !
 ! D17   D(4,3,9,7)           -179.9126         estimate D2E/DX2                !
 ! D18   D(4,3,9,17)             0.5397         estimate D2E/DX2                !
 ! D19   D(10,3,9,7)             0.0874         estimate D2E/DX2                !
 ! D20   D(10,3,9,17)         -179.4603         estimate D2E/DX2                !
 ! D21   D(4,3,10,8)          -179.9126         estimate D2E/DX2                !
 ! D22   D(4,3,10,18)            0.5397         estimate D2E/DX2                !
 ! D23   D(9,3,10,8)             0.0874         estimate D2E/DX2                !
 ! D24   D(9,3,10,18)         -179.4603         estimate D2E/DX2                !
 ! D25   D(3,4,11,13)          179.5892         estimate D2E/DX2                !
 ! D26   D(3,4,11,19)            5.8306         estimate D2E/DX2                !
 ! D27   D(12,4,11,13)          -0.4108         estimate D2E/DX2                !
 ! D28   D(12,4,11,19)        -174.1694         estimate D2E/DX2                !
 ! D29   D(3,4,12,14)          179.5892         estimate D2E/DX2                !
 ! D30   D(3,4,12,20)            5.8306         estimate D2E/DX2                !
 ! D31   D(11,4,12,14)          -0.4108         estimate D2E/DX2                !
 ! D32   D(11,4,12,20)        -174.1694         estimate D2E/DX2                !
 ! D33   D(2,7,9,3)             -0.172          estimate D2E/DX2                !
 ! D34   D(2,7,9,17)           179.3888         estimate D2E/DX2                !
 ! D35   D(15,7,9,3)          -177.5834         estimate D2E/DX2                !
 ! D36   D(15,7,9,17)            1.9774         estimate D2E/DX2                !
 ! D37   D(2,8,10,3)            -0.172          estimate D2E/DX2                !
 ! D38   D(2,8,10,18)          179.3888         estimate D2E/DX2                !
 ! D39   D(16,8,10,3)         -177.5834         estimate D2E/DX2                !
 ! D40   D(16,8,10,18)           1.9774         estimate D2E/DX2                !
 ! D41   D(4,11,13,14)           1.0322         estimate D2E/DX2                !
 ! D42   D(4,11,13,21)         176.9057         estimate D2E/DX2                !
 ! D43   D(19,11,13,14)        174.1508         estimate D2E/DX2                !
 ! D44   D(19,11,13,21)         -9.9756         estimate D2E/DX2                !
 ! D45   D(4,12,14,13)           1.0322         estimate D2E/DX2                !
 ! D46   D(4,12,14,22)         176.9057         estimate D2E/DX2                !
 ! D47   D(20,12,14,13)        174.1508         estimate D2E/DX2                !
 ! D48   D(20,12,14,22)         -9.9756         estimate D2E/DX2                !
 ! D49   D(11,13,14,12)         -1.2872         estimate D2E/DX2                !
 ! D50   D(11,13,14,22)       -177.3057         estimate D2E/DX2                !
 ! D51   D(21,13,14,12)       -177.3057         estimate D2E/DX2                !
 ! D52   D(21,13,14,22)          6.6757         estimate D2E/DX2                !
 --------------------------------------------------------------------------------
 Trust Radius=3.00D-01 FncErr=1.00D-07 GrdErr=1.00D-06
 Number of steps in this run=    121 maximum allowed number of steps=    132.
 GradGradGradGradGradGradGradGradGradGradGradGradGradGradGradGradGradGrad

 Leave Link  103 at Fri Aug 20 15:48:46 2021, MaxMem= 24159191040 cpu:         0.6
 (Enter /public/home/users/caep010/software/Gaussian09/g09/l202.exe)
                          Input orientation:                          
 ---------------------------------------------------------------------
 Center     Atomic      Atomic             Coordinates (Angstroms)
 Number     Number       Type             X           Y           Z
 ---------------------------------------------------------------------
      1          7           0        0.000000    5.465000    7.725300
      2          6           0        0.000000    5.465000    6.263700
      3          6           0        0.000000    5.465000    3.523300
      4          7           0        0.000000    5.465000    2.099200
      5          8           0        0.286700    6.494600    8.297300
      6          8           0       -0.286700    4.435400    8.297300
      7          6           0        0.300300    6.628000    5.585100
      8          6           0       -0.300300    4.302000    5.585100
      9          6           0        0.297600    6.624700    4.220700
     10          6           0       -0.297600    4.305300    4.220700
     11          6           0        0.544700    6.436700    1.282300
     12          6           0       -0.544700    4.493300    1.282300
     13          6           0        0.353600    6.077100    0.000000
     14          6           0       -0.353600    4.852900    0.000000
     15          1           0        0.464100    7.399600    6.094900
     16          1           0       -0.464100    3.530400    6.094900
     17          1           0        0.505100    7.465200    3.750700
     18          1           0       -0.505100    3.464800    3.750700
     19          1           0        1.051100    7.170100    1.640900
     20          1           0       -1.051100    3.759900    1.640900
     21          1           0        0.600600    6.601700   -0.832200
     22          1           0       -0.600600    4.328300   -0.832200
 ---------------------------------------------------------------------
                    Distance matrix (angstroms):
                    1          2          3          4          5
     1  N    0.000000
     2  C    1.461600   0.000000
     3  C    4.202000   2.740400   0.000000
     4  N    5.626100   4.164500   1.424100   0.000000
     5  O    1.212212   2.297347   4.892172   6.289572   0.000000
     6  O    1.212212   2.297347   4.892172   6.289572   2.137543
     7  C    2.454222   1.379582   2.386162   3.687038   2.715513
     8  C    2.454222   1.379582   2.386162   3.687038   3.536678
     9  C    3.703470   2.367978   1.385582   2.436028   4.078690
    10  C    3.703470   2.367978   1.385582   2.436028   4.664023
    11  C    6.538589   5.104434   2.502595   1.381385   7.019982
    12  C    6.538589   5.104434   2.502595   1.381385   7.342115
    13  C    7.757574   6.303462   3.593514   2.215026   8.308067
    14  C    7.757574   6.303462   3.593514   2.215026   8.482355
    15  H    2.572211   1.996637   3.251337   4.463595   2.387690
    16  H    2.572211   1.996637   3.251337   4.463595   3.768388
    17  H    4.478099   3.251322   2.075485   2.642608   4.654174
    18  H    4.478099   3.251322   2.075485   2.642608   5.520707
    19  H    6.405630   5.038101   2.748746   2.054803   6.734112
    20  H    6.405630   5.038101   2.748746   2.054803   7.319560
    21  H    8.653532   7.211422   4.541276   3.200924   9.135523
    22  H    8.653532   7.211422   4.541276   3.200924   9.424857
                    6          7          8          9         10
     6  O    0.000000
     7  C    3.536678   0.000000
     8  C    2.715513   2.402290   0.000000
     9  C    4.664023   1.364407   2.759349   0.000000
    10  C    4.078690   2.759349   1.364407   2.394552   0.000000
    11  C    7.342115   4.313979   4.876993   2.954758   3.726463
    12  C    7.019982   4.876993   4.313979   3.726463   2.954758
    13  C    8.482355   5.612457   5.896771   4.256443   4.623597
    14  C    8.308067   5.896771   5.612457   4.623597   4.256443
    15  H    3.768388   0.939198   3.230995   2.034900   3.696959
    16  H    2.387690   3.230995   0.939198   3.696959   2.034900
    17  H    5.520707   2.026788   3.744266   0.985087   3.293963
    18  H    4.654174   3.744266   2.026788   3.293963   0.985087
    19  H    7.319560   4.051455   5.060533   2.742370   4.084292
    20  H    6.734112   5.060533   4.051455   4.084292   2.742370
    21  H    9.424857   6.424376   6.876189   5.062029   5.622456
    22  H    9.135523   6.876189   6.424376   5.622456   5.062029
                   11         12         13         14         15
    11  C    0.000000
    12  C    2.227913   0.000000
    13  C    1.345409   2.227029   0.000000
    14  C    2.227029   1.345409   1.413788   0.000000
    15  H    4.908645   5.711863   6.237710   6.655984   0.000000
    16  H    5.711863   4.908645   6.655984   6.237710   3.978978
    17  H    2.674393   4.003407   4.002190   4.650723   2.345476
    18  H    4.003407   2.674393   4.650723   4.002190   4.681589
    19  H    0.960682   3.136946   2.091341   3.167831   4.498373
    20  H    3.136946   0.960682   3.167831   2.091341   5.948224
    21  H    2.121664   3.198151   1.014283   2.159017   6.974238
    22  H    3.198151   2.121664   2.159017   1.014283   7.651875
                   16         17         18         19         20
    16  H    0.000000
    17  H    4.681589   0.000000
    18  H    2.345476   4.125979   0.000000
    19  H    5.948224   2.199194   4.538972   0.000000
    20  H    4.498373   4.538972   2.199194   4.006084   0.000000
    21  H    7.651875   4.664518   5.662657   2.577257   4.113413
    22  H    6.974238   5.662657   4.664518   4.113413   2.577257
                   21         22
    21  H    0.000000
    22  H    2.571231   0.000000
 Stoichiometry    C10H8N2O2
 Framework group  C2[C2(NCCN),X(C8H8O2)]
 Deg. of freedom    29
 Full point group                 C2      NOp   2
 Largest Abelian subgroup         C2      NOp   2
 Largest concise Abelian subgroup C2      NOp   2
                         Standard orientation:                         
 ---------------------------------------------------------------------
 Center     Atomic      Atomic             Coordinates (Angstroms)
 Number     Number       Type             X           Y           Z
 ---------------------------------------------------------------------
      1          7           0       -0.000000    0.000000    3.494523
      2          6           0       -0.000000    0.000000    2.032923
      3          6           0        0.000000   -0.000000   -0.707477
      4          7           0        0.000000   -0.000000   -2.131577
      5          8           0        0.021780    1.068550    4.066523
      6          8           0       -0.021780   -1.068550    4.066523
      7          6           0        0.001795    1.201144    1.354323
      8          6           0       -0.001795   -1.201144    1.354323
      9          6           0        0.000000    1.197276   -0.010077
     10          6           0       -0.000000   -1.197276   -0.010077
     11          6           0        0.286075    1.076597   -2.948477
     12          6           0       -0.286075   -1.076597   -2.948477
     13          6           0        0.190356    0.680782   -4.230777
     14          6           0       -0.190356   -0.680782   -4.230777
     15          1           0       -0.031338    1.989242    1.864123
     16          1           0        0.031338   -1.989242    1.864123
     17          1           0       -0.007931    2.062974   -0.480077
     18          1           0        0.007931   -2.062974   -0.480077
     19          1           0        0.594285    1.912852   -2.589877
     20          1           0       -0.594285   -1.912852   -2.589877
     21          1           0        0.299207    1.250313   -5.062977
     22          1           0       -0.299207   -1.250313   -5.062977
 ---------------------------------------------------------------------
 Rotational constants (GHZ):      2.8826107      0.3206972      0.2894347
 Leave Link  202 at Fri Aug 20 15:48:46 2021, MaxMem= 24159191040 cpu:         0.4
 (Enter /public/home/users/caep010/software/Gaussian09/g09/l301.exe)
 Standard basis: 6-31G(d,p) (6D, 7F)
 Ernie: Thresh=  0.10000D-02 Tol=  0.10000D-05 Strict=F.
 There are   131 symmetry adapted cartesian basis functions of A   symmetry.
 There are   119 symmetry adapted cartesian basis functions of B   symmetry.
 There are   131 symmetry adapted basis functions of A   symmetry.
 There are   119 symmetry adapted basis functions of B   symmetry.
   250 basis functions,   448 primitive gaussians,   250 cartesian basis functions
    49 alpha electrons       49 beta electrons
       nuclear repulsion energy       816.3014119581 Hartrees.
 IExCor=  402 DFT=T Ex+Corr=B3LYP ExCW=0 ScaHFX=  0.200000
 ScaDFX=  0.800000  0.720000  1.000000  0.810000 ScalE2=  1.000000  1.000000
 IRadAn=      0 IRanWt=     -1 IRanGd=            0 ICorTp=0 IEmpDi=  4
 NAtoms=   22 NActive=   22 NUniq=   13 SFac= 2.86D+00 NAtFMM=   60 NAOKFM=F Big=F
 Integral buffers will be    131072 words long.
 Raffenetti 2 integral format.
 Two-electron integral symmetry is turned on.
 Leave Link  301 at Fri Aug 20 15:48:46 2021, MaxMem= 24159191040 cpu:         2.0
 (Enter /public/home/users/caep010/software/Gaussian09/g09/l302.exe)
 NPDir=0 NMtPBC=     1 NCelOv=     1 NCel=       1 NClECP=     1 NCelD=      1
         NCelK=      1 NCelE2=     1 NClLst=     1 CellRange=     0.0.
 One-electron integrals computed using PRISM.
 One-electron integral symmetry used in STVInt
 NBasis=   250 RedAO= T EigKep=  2.76D-04  NBF=   131   119
 NBsUse=   250 1.00D-06 EigRej= -1.00D+00 NBFU=   131   119
 Precomputing XC quadrature grid using
 IXCGrd= 4 IRadAn=           0 IRanWt=          -1 IRanGd=           0 AccXCQ= 0.00D+00.
 Generated NRdTot=       0 NPtTot=           0 NUsed=           0 NTot=          32
 NSgBfM=   248   248   248   248   248 MxSgAt=    22 MxSgA2=    22.
 Leave Link  302 at Fri Aug 20 15:48:47 2021, MaxMem= 24159191040 cpu:        18.9
 (Enter /public/home/users/caep010/software/Gaussian09/g09/l303.exe)
 DipDrv:  MaxL=1.
 Leave Link  303 at Fri Aug 20 15:48:47 2021, MaxMem= 24159191040 cpu:         1.3
 (Enter /public/home/users/caep010/software/Gaussian09/g09/l401.exe)
 ExpMin= 1.61D-01 ExpMax= 5.48D+03 ExpMxC= 8.25D+02 IAcc=1 IRadAn=         1 AccDes= 0.00D+00
 Harris functional with IExCor=  402 and IRadAn=       1 diagonalized for initial guess.
 HarFok:  IExCor=  402 AccDes= 0.00D+00 IRadAn=         1 IDoV= 1 UseB2=F ITyADJ=14
 ICtDFT=  3500011 ScaDFX=  1.000000  1.000000  1.000000  1.000000
 FoFCou: FMM=F IPFlag=           0 FMFlag=      100000 FMFlg1=           0
         NFxFlg=           0 DoJE=T BraDBF=F KetDBF=T FulRan=T
         wScrn=  0.000000 ICntrl=     500 IOpCl=  0 I1Cent=   200000004 NGrid=           0
         NMat0=    1 NMatS0=      1 NMatT0=    0 NMatD0=    1 NMtDS0=    0 NMtDT0=    0
 Petite list used in FoFCou.
 Harris En= -645.740900752852    
 JPrj=0 DoOrth=F DoCkMO=F.
 Initial guess orbital symmetries:
       Occupied  (B) (A) (A) (A) (A) (B) (A) (B) (A) (B) (B) (A)
                 (A) (A) (A) (A) (B) (A) (A) (B) (A) (B) (A) (B)
                 (A) (A) (B) (A) (A) (B) (A) (B) (A) (B) (B) (B)
                 (A) (B) (A) (B) (B) (B) (B) (A) (A) (A) (B) (A)
                 (B)
       Virtual   (B) (A) (B) (A) (B) (B) (A) (A) (B) (A) (B) (A)
                 (A) (B) (A) (B) (A) (B) (A) (B) (B) (A) (A) (B)
                 (A) (B) (B) (B) (A) (A) (A) (B) (B) (A) (B) (A)
                 (B) (A) (A) (B) (A) (A) (A) (B) (B) (A) (B) (B)
                 (A) (A) (B) (A) (B) (B) (B) (B) (A) (A) (B) (A)
                 (B) (B) (B) (A) (B) (A) (A) (B) (A) (A) (B) (A)
                 (B) (A) (B) (B) (A) (B) (A) (B) (A) (A) (B) (B)
                 (B) (B) (A) (A) (B) (A) (B) (A) (A) (B) (A) (A)
                 (B) (A) (A) (B) (B) (A) (B) (B) (A) (B) (A) (B)
                 (A) (A) (A) (A) (B) (B) (B) (A) (A) (A) (B) (A)
                 (B) (A) (A) (B) (B) (A) (A) (B) (A) (B) (B) (A)
                 (B) (B) (B) (A) (B) (A) (A) (B) (A) (A) (B) (B)
                 (A) (A) (A) (B) (B) (A) (B) (A) (A) (B) (B) (B)
                 (A) (A) (B) (A) (A) (B) (A) (B) (A) (A) (B) (B)
                 (B) (A) (B) (A) (A) (A) (B) (A) (A) (A) (B) (B)
                 (B) (B) (A) (A) (B) (A) (B) (A) (B) (A) (B) (A)
                 (A) (A) (B) (A) (B) (A) (A) (B) (A)
 The electronic state of the initial guess is 1-A.
 Leave Link  401 at Fri Aug 20 15:48:47 2021, MaxMem= 24159191040 cpu:        11.5
 (Enter /public/home/users/caep010/software/Gaussian09/g09/l502.exe)
 Closed shell SCF:
 Using DIIS extrapolation, IDIIS=  1040.
 Integral symmetry usage will be decided dynamically.
 Keep R1 ints in memory in symmetry-blocked form, NReq=738615414.
 IVT=      216258 IEndB=      216258 NGot= 24159191040 MDV= 23912786877
 LenX= 23912786877 LenY= 23912723936
 Requested convergence on RMS density matrix=1.00D-08 within 128 cycles.
 Requested convergence on MAX density matrix=1.00D-06.
 Requested convergence on             energy=1.00D-06.
 No special actions if energy rises.
 FoFCou: FMM=F IPFlag=           0 FMFlag=           0 FMFlg1=           0
         NFxFlg=           0 DoJE=F BraDBF=F KetDBF=F FulRan=T
         wScrn=  0.000000 ICntrl=     600 IOpCl=  0 I1Cent=           0 NGrid=           0
         NMat0=    1 NMatS0=  31375 NMatT0=    0 NMatD0=    1 NMtDS0=    0 NMtDT0=    0
 Petite list used in FoFCou.
 Integral accuracy reduced to 1.0D-05 until final iterations.

 Cycle   1  Pass 0  IDiag  1:
 E= -645.206767113669    
 DIIS: error= 3.55D-02 at cycle   1 NSaved=   1.
 NSaved= 1 IEnMin= 1 EnMin= -645.206767113669     IErMin= 1 ErrMin= 3.55D-02
 ErrMax= 3.55D-02  0.00D+00 EMaxC= 1.00D-01 BMatC= 4.88D-01 BMatP= 4.88D-01
 IDIUse=3 WtCom= 6.45D-01 WtEn= 3.55D-01
 Coeff-Com:  0.100D+01
 Coeff-En:   0.100D+01
 Coeff:      0.100D+01
 Gap=     0.052 Goal=   None    Shift=    0.000
 GapD=    0.052 DampG=0.500 DampE=0.500 DampFc=0.2500 IDamp=-1.
 Damping current iteration by 2.50D-01
 RMSDP=6.12D-03 MaxDP=2.47D-01              OVMax= 3.39D-01

 Cycle   2  Pass 0  IDiag  1:
 E= -645.364746453786     Delta-E=       -0.157979340117 Rises=F Damp=T
 DIIS: error= 1.82D-02 at cycle   2 NSaved=   2.
 NSaved= 2 IEnMin= 2 EnMin= -645.364746453786     IErMin= 2 ErrMin= 1.82D-02
 ErrMax= 1.82D-02  0.00D+00 EMaxC= 1.00D-01 BMatC= 9.79D-02 BMatP= 4.88D-01
 IDIUse=3 WtCom= 8.18D-01 WtEn= 1.82D-01
 Coeff-Com: -0.571D+00 0.157D+01
 Coeff-En:   0.000D+00 0.100D+01
 Coeff:     -0.467D+00 0.147D+01
 Gap=     0.127 Goal=   None    Shift=    0.000
 RMSDP=2.07D-03 MaxDP=4.65D-02 DE=-1.58D-01 OVMax= 2.29D-01

 Cycle   3  Pass 0  IDiag  1:
 E= -645.626035617290     Delta-E=       -0.261289163504 Rises=F Damp=F
 DIIS: error= 6.55D-03 at cycle   3 NSaved=   3.
 NSaved= 3 IEnMin= 3 EnMin= -645.626035617290     IErMin= 3 ErrMin= 6.55D-03
 ErrMax= 6.55D-03  0.00D+00 EMaxC= 1.00D-01 BMatC= 1.82D-02 BMatP= 9.79D-02
 IDIUse=3 WtCom= 9.35D-01 WtEn= 6.55D-02
 Coeff-Com: -0.231D+00 0.622D+00 0.608D+00
 Coeff-En:   0.000D+00 0.000D+00 0.100D+01
 Coeff:     -0.216D+00 0.582D+00 0.634D+00
 Gap=     0.151 Goal=   None    Shift=    0.000
 RMSDP=8.15D-04 MaxDP=2.13D-02 DE=-2.61D-01 OVMax= 4.58D-02

 Cycle   4  Pass 0  IDiag  1:
 E= -645.641199820606     Delta-E=       -0.015164203316 Rises=F Damp=F
 DIIS: error= 3.78D-03 at cycle   4 NSaved=   4.
 NSaved= 4 IEnMin= 4 EnMin= -645.641199820606     IErMin= 4 ErrMin= 3.78D-03
 ErrMax= 3.78D-03  0.00D+00 EMaxC= 1.00D-01 BMatC= 3.39D-03 BMatP= 1.82D-02
 IDIUse=3 WtCom= 9.62D-01 WtEn= 3.78D-02
 Coeff-Com: -0.314D-01 0.112D+00 0.314D+00 0.605D+00
 Coeff-En:   0.000D+00 0.000D+00 0.104D+00 0.896D+00
 Coeff:     -0.302D-01 0.108D+00 0.306D+00 0.616D+00
 Gap=     0.143 Goal=   None    Shift=    0.000
 RMSDP=3.26D-04 MaxDP=9.40D-03 DE=-1.52D-02 OVMax= 2.04D-02

 Cycle   5  Pass 0  IDiag  1:
 E= -645.644188363319     Delta-E=       -0.002988542713 Rises=F Damp=F
 DIIS: error= 1.29D-03 at cycle   5 NSaved=   5.
 NSaved= 5 IEnMin= 5 EnMin= -645.644188363319     IErMin= 5 ErrMin= 1.29D-03
 ErrMax= 1.29D-03  0.00D+00 EMaxC= 1.00D-01 BMatC= 3.37D-04 BMatP= 3.39D-03
 IDIUse=3 WtCom= 9.87D-01 WtEn= 1.29D-02
 Coeff-Com:  0.105D-02 0.112D-01 0.111D+00 0.321D+00 0.556D+00
 Coeff-En:   0.000D+00 0.000D+00 0.000D+00 0.558D-02 0.994D+00
 Coeff:      0.103D-02 0.111D-01 0.110D+00 0.317D+00 0.561D+00
 Gap=     0.146 Goal=   None    Shift=    0.000
 RMSDP=9.49D-05 MaxDP=3.35D-03 DE=-2.99D-03 OVMax= 7.57D-03

 Cycle   6  Pass 0  IDiag  1:
 E= -645.644459799328     Delta-E=       -0.000271436009 Rises=F Damp=F
 DIIS: error= 5.30D-04 at cycle   6 NSaved=   6.
 NSaved= 6 IEnMin= 6 EnMin= -645.644459799328     IErMin= 6 ErrMin= 5.30D-04
 ErrMax= 5.30D-04  0.00D+00 EMaxC= 1.00D-01 BMatC= 5.43D-05 BMatP= 3.37D-04
 IDIUse=3 WtCom= 9.95D-01 WtEn= 5.30D-03
 Coeff-Com:  0.317D-02-0.265D-02 0.407D-01 0.143D+00 0.346D+00 0.470D+00
 Coeff-En:   0.000D+00 0.000D+00 0.000D+00 0.000D+00 0.101D+00 0.899D+00
 Coeff:      0.316D-02-0.263D-02 0.405D-01 0.142D+00 0.345D+00 0.472D+00
 Gap=     0.146 Goal=   None    Shift=    0.000
 RMSDP=3.32D-05 MaxDP=1.38D-03 DE=-2.71D-04 OVMax= 2.52D-03

 Cycle   7  Pass 0  IDiag  1:
 E= -645.644503727840     Delta-E=       -0.000043928512 Rises=F Damp=F
 DIIS: error= 1.50D-04 at cycle   7 NSaved=   7.
 NSaved= 7 IEnMin= 7 EnMin= -645.644503727840     IErMin= 7 ErrMin= 1.50D-04
 ErrMax= 1.50D-04  0.00D+00 EMaxC= 1.00D-01 BMatC= 4.98D-06 BMatP= 5.43D-05
 IDIUse=3 WtCom= 9.99D-01 WtEn= 1.50D-03
 Coeff-Com:  0.179D-02-0.281D-02 0.125D-01 0.522D-01 0.153D+00 0.288D+00
 Coeff-Com:  0.496D+00
 Coeff-En:   0.000D+00 0.000D+00 0.000D+00 0.000D+00 0.000D+00 0.447D-01
 Coeff-En:   0.955D+00
 Coeff:      0.179D-02-0.281D-02 0.125D-01 0.521D-01 0.153D+00 0.287D+00
 Coeff:      0.496D+00
 Gap=     0.146 Goal=   None    Shift=    0.000
 RMSDP=1.10D-05 MaxDP=3.60D-04 DE=-4.39D-05 OVMax= 7.42D-04

 Cycle   8  Pass 0  IDiag  1:
 E= -645.644508128956     Delta-E=       -0.000004401116 Rises=F Damp=F
 DIIS: error= 5.19D-05 at cycle   8 NSaved=   8.
 NSaved= 8 IEnMin= 8 EnMin= -645.644508128956     IErMin= 8 ErrMin= 5.19D-05
 ErrMax= 5.19D-05  0.00D+00 EMaxC= 1.00D-01 BMatC= 2.88D-07 BMatP= 4.98D-06
 IDIUse=1 WtCom= 1.00D+00 WtEn= 0.00D+00
 Coeff-Com:  0.753D-03-0.140D-02 0.328D-02 0.163D-01 0.527D-01 0.109D+00
 Coeff-Com:  0.264D+00 0.556D+00
 Coeff:      0.753D-03-0.140D-02 0.328D-02 0.163D-01 0.527D-01 0.109D+00
 Coeff:      0.264D+00 0.556D+00
 Gap=     0.146 Goal=   None    Shift=    0.000
 RMSDP=3.18D-06 MaxDP=1.17D-04 DE=-4.40D-06 OVMax= 3.08D-04

 Initial convergence to 1.0D-05 achieved.  Increase integral accuracy.
 Cycle   9  Pass 1  IDiag  1:
 E= -645.644486467642     Delta-E=        0.000021661314 Rises=F Damp=F
 DIIS: error= 3.39D-05 at cycle   1 NSaved=   1.
 NSaved= 1 IEnMin= 1 EnMin= -645.644486467642     IErMin= 1 ErrMin= 3.39D-05
 ErrMax= 3.39D-05  0.00D+00 EMaxC= 1.00D-01 BMatC= 2.00D-07 BMatP= 2.00D-07
 IDIUse=1 WtCom= 1.00D+00 WtEn= 0.00D+00
 Coeff-Com:  0.100D+01
 Coeff:      0.100D+01
 Gap=     0.146 Goal=   None    Shift=    0.000
 RMSDP=3.18D-06 MaxDP=1.17D-04 DE= 2.17D-05 OVMax= 2.20D-04

 Cycle  10  Pass 1  IDiag  1:
 E= -645.644486581194     Delta-E=       -0.000000113552 Rises=F Damp=F
 DIIS: error= 3.10D-05 at cycle   2 NSaved=   2.
 NSaved= 2 IEnMin= 2 EnMin= -645.644486581194     IErMin= 2 ErrMin= 3.10D-05
 ErrMax= 3.10D-05  0.00D+00 EMaxC= 1.00D-01 BMatC= 1.17D-07 BMatP= 2.00D-07
 IDIUse=1 WtCom= 1.00D+00 WtEn= 0.00D+00
 Coeff-Com:  0.407D+00 0.593D+00
 Coeff:      0.407D+00 0.593D+00
 Gap=     0.146 Goal=   None    Shift=    0.000
 RMSDP=2.54D-06 MaxDP=9.03D-05 DE=-1.14D-07 OVMax= 2.36D-04

 Cycle  11  Pass 1  IDiag  1:
 E= -645.644486648817     Delta-E=       -0.000000067623 Rises=F Damp=F
 DIIS: error= 2.40D-05 at cycle   3 NSaved=   3.
 NSaved= 3 IEnMin= 3 EnMin= -645.644486648817     IErMin= 3 ErrMin= 2.40D-05
 ErrMax= 2.40D-05  0.00D+00 EMaxC= 1.00D-01 BMatC= 5.30D-08 BMatP= 1.17D-07
 IDIUse=1 WtCom= 1.00D+00 WtEn= 0.00D+00
 Coeff-Com:  0.112D-01 0.399D+00 0.590D+00
 Coeff:      0.112D-01 0.399D+00 0.590D+00
 Gap=     0.146 Goal=   None    Shift=    0.000
 RMSDP=1.17D-06 MaxDP=4.56D-05 DE=-6.76D-08 OVMax= 1.11D-04

 Cycle  12  Pass 1  IDiag  1:
 E= -645.644486704265     Delta-E=       -0.000000055448 Rises=F Damp=F
 DIIS: error= 4.17D-06 at cycle   4 NSaved=   4.
 NSaved= 4 IEnMin= 4 EnMin= -645.644486704265     IErMin= 4 ErrMin= 4.17D-06
 ErrMax= 4.17D-06  0.00D+00 EMaxC= 1.00D-01 BMatC= 5.56D-09 BMatP= 5.30D-08
 IDIUse=1 WtCom= 1.00D+00 WtEn= 0.00D+00
 Coeff-Com: -0.146D-01 0.228D+00 0.381D+00 0.406D+00
 Coeff:     -0.146D-01 0.228D+00 0.381D+00 0.406D+00
 Gap=     0.146 Goal=   None    Shift=    0.000
 RMSDP=3.14D-07 MaxDP=1.10D-05 DE=-5.54D-08 OVMax= 2.16D-05

 Cycle  13  Pass 1  IDiag  1:
 E= -645.644486708941     Delta-E=       -0.000000004675 Rises=F Damp=F
 DIIS: error= 1.09D-06 at cycle   5 NSaved=   5.
 NSaved= 5 IEnMin= 5 EnMin= -645.644486708941     IErMin= 5 ErrMin= 1.09D-06
 ErrMax= 1.09D-06  0.00D+00 EMaxC= 1.00D-01 BMatC= 2.07D-10 BMatP= 5.56D-09
 IDIUse=1 WtCom= 1.00D+00 WtEn= 0.00D+00
 Coeff-Com: -0.831D-02 0.101D+00 0.177D+00 0.229D+00 0.502D+00
 Coeff:     -0.831D-02 0.101D+00 0.177D+00 0.229D+00 0.502D+00
 Gap=     0.146 Goal=   None    Shift=    0.000
 RMSDP=6.49D-08 MaxDP=2.82D-06 DE=-4.68D-09 OVMax= 4.69D-06

 Cycle  14  Pass 1  IDiag  1:
 E= -645.644486709099     Delta-E=       -0.000000000158 Rises=F Damp=F
 DIIS: error= 2.28D-07 at cycle   6 NSaved=   6.
 NSaved= 6 IEnMin= 6 EnMin= -645.644486709099     IErMin= 6 ErrMin= 2.28D-07
 ErrMax= 2.28D-07  0.00D+00 EMaxC= 1.00D-01 BMatC= 1.20D-11 BMatP= 2.07D-10
 IDIUse=1 WtCom= 1.00D+00 WtEn= 0.00D+00
 Coeff-Com: -0.264D-02 0.276D-01 0.519D-01 0.732D-01 0.247D+00 0.603D+00
 Coeff:     -0.264D-02 0.276D-01 0.519D-01 0.732D-01 0.247D+00 0.603D+00
 Gap=     0.146 Goal=   None    Shift=    0.000
 RMSDP=2.07D-08 MaxDP=6.19D-07 DE=-1.58D-10 OVMax= 1.60D-06

 Cycle  15  Pass 1  IDiag  1:
 E= -645.644486709094     Delta-E=        0.000000000004 Rises=F Damp=F
 DIIS: error= 7.54D-08 at cycle   7 NSaved=   7.
 NSaved= 7 IEnMin= 6 EnMin= -645.644486709099     IErMin= 7 ErrMin= 7.54D-08
 ErrMax= 7.54D-08  0.00D+00 EMaxC= 1.00D-01 BMatC= 1.41D-12 BMatP= 1.20D-11
 IDIUse=1 WtCom= 1.00D+00 WtEn= 0.00D+00
 Coeff-Com: -0.662D-03 0.558D-02 0.116D-01 0.176D-01 0.808D-01 0.312D+00
 Coeff-Com:  0.573D+00
 Coeff:     -0.662D-03 0.558D-02 0.116D-01 0.176D-01 0.808D-01 0.312D+00
 Coeff:      0.573D+00
 Gap=     0.146 Goal=   None    Shift=    0.000
 RMSDP=6.01D-09 MaxDP=2.35D-07 DE= 4.32D-12 OVMax= 4.50D-07

 SCF Done:  E(RB3LYP) =  -645.644486709     A.U. after   15 cycles
            NFock= 15  Conv=0.60D-08     -V/T= 2.0060
 KE= 6.418195789663D+02 PE=-3.136035388123D+03 EE= 1.032269910489D+03
 Leave Link  502 at Fri Aug 20 15:48:54 2021, MaxMem= 24159191040 cpu:       113.5
 (Enter /public/home/users/caep010/software/Gaussian09/g09/l601.exe)
 Copying SCF densities to generalized density rwf, IOpCl= 0 IROHF=0.

 **********************************************************************

            Population analysis using the SCF density.

 **********************************************************************

 Orbital symmetries:
       Occupied  (B) (A) (A) (A) (A) (A) (B) (A) (B) (A) (B) (A)
                 (A) (B) (A) (B) (A) (A) (A) (B) (A) (B) (A) (B)
                 (A) (A) (B) (A) (A) (B) (B) (A) (B) (B) (A) (B)
                 (B) (A) (B) (B) (A) (B) (A) (A) (B) (A) (B) (B)
                 (A)
       Virtual   (B) (A) (B) (B) (A) (A) (B) (A) (B) (A) (A) (B)
                 (B) (A) (B) (A) (A) (B) (B) (A) (A) (B) (B) (A)
                 (A) (B) (B) (A) (B) (A) (A) (B) (B) (A) (A) (A)
                 (B) (A) (B) (A) (B) (B) (A) (B) (A) (A) (B) (B)
                 (A) (A) (B) (B) (A) (B) (B) (A) (B) (B) (B) (A)
                 (A) (B) (A) (B) (B) (A) (A) (B) (A) (A) (B) (A)
                 (B) (A) (B) (B) (A) (A) (B) (B) (A) (B) (A) (B)
                 (B) (A) (A) (B) (B) (A) (B) (A) (B) (A) (A) (A)
                 (A) (B) (A) (B) (A) (B) (B) (B) (A) (A) (B) (B)
                 (A) (A) (B) (A) (A) (B) (A) (B) (A) (A) (A) (B)
                 (A) (B) (A) (B) (A) (B) (A) (B) (B) (A) (B) (A)
                 (B) (B) (A) (B) (B) (A) (A) (A) (B) (B) (A) (B)
                 (B) (A) (A) (A) (B) (B) (A) (A) (A) (B) (B) (A)
                 (B) (A) (A) (A) (B) (B) (A) (B) (A) (A) (B) (B)
                 (A) (B) (B) (A) (A) (A) (B) (A) (A) (B) (A) (B)
                 (B) (B) (A) (A) (B) (A) (A) (B) (B) (A) (A) (B)
                 (A) (A) (B) (A) (A) (B) (A) (B) (A)
 The electronic state is 1-A.
 Alpha  occ. eigenvalues --  -19.17637 -19.17635 -14.57140 -14.40652 -10.26745
 Alpha  occ. eigenvalues --  -10.24679 -10.20931 -10.20930 -10.20836 -10.20836
 Alpha  occ. eigenvalues --  -10.20459 -10.20457 -10.17385 -10.17337  -1.23940
 Alpha  occ. eigenvalues --   -1.05979  -1.00954  -0.90905  -0.84075  -0.80198
 Alpha  occ. eigenvalues --   -0.78487  -0.75170  -0.70558  -0.66677  -0.62808
 Alpha  occ. eigenvalues --   -0.60405  -0.59013  -0.58917  -0.55546  -0.54006
 Alpha  occ. eigenvalues --   -0.51611  -0.50610  -0.49017  -0.47748  -0.47525
 Alpha  occ. eigenvalues --   -0.45131  -0.44901  -0.42618  -0.41304  -0.39452
 Alpha  occ. eigenvalues --   -0.39094  -0.38774  -0.31015  -0.30836  -0.30784
 Alpha  occ. eigenvalues --   -0.29020  -0.28932  -0.23991  -0.23108
 Alpha virt. eigenvalues --   -0.08472  -0.03154  -0.01097   0.04597   0.07544
 Alpha virt. eigenvalues --    0.10160   0.12729   0.13168   0.15287   0.15595
 Alpha virt. eigenvalues --    0.18025   0.18162   0.18861   0.20045   0.20796
 Alpha virt. eigenvalues --    0.21881   0.22645   0.25093   0.27490   0.29514
 Alpha virt. eigenvalues --    0.30739   0.31275   0.34832   0.36190   0.37806
 Alpha virt. eigenvalues --    0.43025   0.45423   0.48392   0.48424   0.49357
 Alpha virt. eigenvalues --    0.51691   0.52172   0.53325   0.54043   0.55467
 Alpha virt. eigenvalues --    0.56354   0.56376   0.57965   0.58468   0.59454
 Alpha virt. eigenvalues --    0.59521   0.60270   0.60451   0.61879   0.62583
 Alpha virt. eigenvalues --    0.63773   0.64073   0.68202   0.70612   0.70733
 Alpha virt. eigenvalues --    0.73130   0.76713   0.77068   0.77135   0.80755
 Alpha virt. eigenvalues --    0.82427   0.83148   0.85640   0.86534   0.86883
 Alpha virt. eigenvalues --    0.87336   0.88659   0.92047   0.92856   0.93423
 Alpha virt. eigenvalues --    0.94062   0.94997   0.95791   0.96166   0.97594
 Alpha virt. eigenvalues --    0.99449   0.99469   1.00097   1.05940   1.06623
 Alpha virt. eigenvalues --    1.09403   1.11143   1.16443   1.17108   1.17839
 Alpha virt. eigenvalues --    1.19061   1.21527   1.22749   1.23795   1.26768
 Alpha virt. eigenvalues --    1.29993   1.32333   1.32521   1.35509   1.35795
 Alpha virt. eigenvalues --    1.36776   1.37581   1.38884   1.39820   1.42657
 Alpha virt. eigenvalues --    1.45839   1.46624   1.49398   1.53625   1.59320
 Alpha virt. eigenvalues --    1.62078   1.62363   1.69507   1.72880   1.72989
 Alpha virt. eigenvalues --    1.75334   1.76633   1.78290   1.81205   1.82814
 Alpha virt. eigenvalues --    1.84098   1.85027   1.87468   1.89875   1.92967
 Alpha virt. eigenvalues --    1.93404   1.94328   1.95152   1.97900   1.98890
 Alpha virt. eigenvalues --    1.99605   2.01031   2.02174   2.06662   2.07277
 Alpha virt. eigenvalues --    2.09202   2.09435   2.12967   2.13095   2.13199
 Alpha virt. eigenvalues --    2.16309   2.16404   2.17299   2.24625   2.27099
 Alpha virt. eigenvalues --    2.28694   2.30762   2.32013   2.39602   2.42503
 Alpha virt. eigenvalues --    2.43311   2.45311   2.46058   2.47227   2.48123
 Alpha virt. eigenvalues --    2.48591   2.50499   2.51272   2.53333   2.55397
 Alpha virt. eigenvalues --    2.55775   2.55973   2.57570   2.59439   2.61555
 Alpha virt. eigenvalues --    2.63132   2.64352   2.70659   2.73018   2.73930
 Alpha virt. eigenvalues --    2.74198   2.80337   2.80942   2.84189   2.86948
 Alpha virt. eigenvalues --    2.87557   2.88574   2.91330   2.94865   2.95834
 Alpha virt. eigenvalues --    3.04035   3.04514   3.10550   3.18287   3.19552
 Alpha virt. eigenvalues --    3.24849   3.34392   3.42805   3.43811   3.54949
 Alpha virt. eigenvalues --    3.57458   3.61280   3.66221   3.75680   3.87536
 Alpha virt. eigenvalues --    3.89714   3.91733   4.00131   4.04892   4.08422
 Alpha virt. eigenvalues --    4.11991   4.12120   4.13125   4.18920   4.24135
 Alpha virt. eigenvalues --    4.25828   4.41966   4.42687   4.63430   4.85223
 Alpha virt. eigenvalues --    4.92196
          Condensed to atoms (all electrons):
               1          2          3          4          5          6
     1  N    5.945643   0.165045   0.000119   0.000001   0.302800   0.302800
     2  C    0.165045   4.959969  -0.045486   0.000424  -0.098403  -0.098403
     3  C    0.000119  -0.045486   4.639259   0.243737  -0.000003  -0.000003
     4  N    0.000001   0.000424   0.243737   6.881394  -0.000000  -0.000000
     5  O    0.302800  -0.098403  -0.000003  -0.000000   8.289364  -0.117157
     6  O    0.302800  -0.098403  -0.000003  -0.000000  -0.117157   8.289364
     7  C   -0.041909   0.490905  -0.012884   0.005229  -0.004709   0.008109
     8  C   -0.041909   0.490905  -0.012884   0.005229   0.008109  -0.004709
     9  C    0.005143  -0.018133   0.504385  -0.057165   0.001090  -0.000048
    10  C    0.005143  -0.018133   0.504385  -0.057165  -0.000048   0.001090
    11  C   -0.000000  -0.000024  -0.038380   0.388273   0.000000   0.000000
    12  C   -0.000000  -0.000024  -0.038380   0.388273   0.000000   0.000000
    13  C    0.000000   0.000000   0.007201  -0.057616   0.000000   0.000000
    14  C    0.000000   0.000000   0.007201  -0.057616   0.000000   0.000000
    15  H   -0.018178  -0.037175   0.005547  -0.000132   0.025226   0.000341
    16  H   -0.018178  -0.037175   0.005547  -0.000132   0.000341   0.025226
    17  H   -0.000120   0.004871  -0.046648  -0.011359  -0.000006   0.000001
    18  H   -0.000120   0.004871  -0.046648  -0.011359   0.000001  -0.000006
    19  H   -0.000000  -0.000007  -0.007776  -0.051891   0.000000   0.000000
    20  H   -0.000000  -0.000007  -0.007776  -0.051891   0.000000   0.000000
    21  H   -0.000000  -0.000000  -0.000130   0.005282  -0.000000   0.000000
    22  H   -0.000000  -0.000000  -0.000130   0.005282   0.000000  -0.000000
               7          8          9         10         11         12
     1  N   -0.041909  -0.041909   0.005143   0.005143  -0.000000  -0.000000
     2  C    0.490905   0.490905  -0.018133  -0.018133  -0.000024  -0.000024
     3  C   -0.012884  -0.012884   0.504385   0.504385  -0.038380  -0.038380
     4  N    0.005229   0.005229  -0.057165  -0.057165   0.388273   0.388273
     5  O   -0.004709   0.008109   0.001090  -0.000048   0.000000   0.000000
     6  O    0.008109  -0.004709  -0.000048   0.001090   0.000000   0.000000
     7  C    4.913933  -0.087381   0.487263  -0.046095   0.000165  -0.000035
     8  C   -0.087381   4.913933  -0.046095   0.487263  -0.000035   0.000165
     9  C    0.487263  -0.046095   4.940190  -0.066079  -0.005381   0.005029
    10  C   -0.046095   0.487263  -0.066079   4.940190   0.005029  -0.005381
    11  C    0.000165  -0.000035  -0.005381   0.005029   4.754759  -0.125269
    12  C   -0.000035   0.000165   0.005029  -0.005381  -0.125269   4.754759
    13  C   -0.000019   0.000004   0.000498  -0.000407   0.590532  -0.045463
    14  C    0.000004  -0.000019  -0.000407   0.000498  -0.045463   0.590532
    15  H    0.364116   0.010020  -0.042488   0.000262   0.000006   0.000002
    16  H    0.010020   0.364116   0.000262  -0.042488   0.000002   0.000006
    17  H   -0.038469   0.000745   0.372056   0.007371   0.005865  -0.000192
    18  H    0.000745  -0.038469   0.007371   0.372056  -0.000192   0.005865
    19  H    0.000345   0.000002   0.004474  -0.000135   0.385920   0.008299
    20  H    0.000002   0.000345  -0.000135   0.004474   0.008299   0.385920
    21  H    0.000000  -0.000000   0.000002   0.000004  -0.048402   0.007585
    22  H   -0.000000   0.000000   0.000004   0.000002   0.007585  -0.048402
              13         14         15         16         17         18
     1  N    0.000000   0.000000  -0.018178  -0.018178  -0.000120  -0.000120
     2  C    0.000000   0.000000  -0.037175  -0.037175   0.004871   0.004871
     3  C    0.007201   0.007201   0.005547   0.005547  -0.046648  -0.046648
     4  N   -0.057616  -0.057616  -0.000132  -0.000132  -0.011359  -0.011359
     5  O    0.000000   0.000000   0.025226   0.000341  -0.000006   0.000001
     6  O    0.000000   0.000000   0.000341   0.025226   0.000001  -0.000006
     7  C   -0.000019   0.000004   0.364116   0.010020  -0.038469   0.000745
     8  C    0.000004  -0.000019   0.010020   0.364116   0.000745  -0.038469
     9  C    0.000498  -0.000407  -0.042488   0.000262   0.372056   0.007371
    10  C   -0.000407   0.000498   0.000262  -0.042488   0.007371   0.372056
    11  C    0.590532  -0.045463   0.000006   0.000002   0.005865  -0.000192
    12  C   -0.045463   0.590532   0.000002   0.000006  -0.000192   0.005865
    13  C    4.829270   0.509361   0.000000  -0.000000   0.000100  -0.000014
    14  C    0.509361   4.829270  -0.000000   0.000000  -0.000014   0.000100
    15  H    0.000000  -0.000000   0.604518  -0.000343  -0.008383   0.000032
    16  H   -0.000000   0.000000  -0.000343   0.604518   0.000032  -0.008383
    17  H    0.000100  -0.000014  -0.008383   0.000032   0.620793  -0.000225
    18  H   -0.000014   0.000100   0.000032  -0.008383  -0.000225   0.620793
    19  H   -0.047350   0.004898   0.000007   0.000000   0.000289   0.000001
    20  H    0.004898  -0.047350   0.000000   0.000007   0.000001   0.000289
    21  H    0.387832  -0.045023   0.000000   0.000000   0.000003   0.000000
    22  H   -0.045023   0.387832   0.000000   0.000000   0.000000   0.000003
              19         20         21         22
     1  N   -0.000000  -0.000000  -0.000000  -0.000000
     2  C   -0.000007  -0.000007  -0.000000  -0.000000
     3  C   -0.007776  -0.007776  -0.000130  -0.000130
     4  N   -0.051891  -0.051891   0.005282   0.005282
     5  O    0.000000   0.000000  -0.000000   0.000000
     6  O    0.000000   0.000000   0.000000  -0.000000
     7  C    0.000345   0.000002   0.000000  -0.000000
     8  C    0.000002   0.000345  -0.000000   0.000000
     9  C    0.004474  -0.000135   0.000002   0.000004
    10  C   -0.000135   0.004474   0.000004   0.000002
    11  C    0.385920   0.008299  -0.048402   0.007585
    12  C    0.008299   0.385920   0.007585  -0.048402
    13  C   -0.047350   0.004898   0.387832  -0.045023
    14  C    0.004898  -0.047350  -0.045023   0.387832
    15  H    0.000007   0.000000   0.000000   0.000000
    16  H    0.000000   0.000007   0.000000   0.000000
    17  H    0.000289   0.000001   0.000003   0.000000
    18  H    0.000001   0.000289   0.000000   0.000003
    19  H    0.612023  -0.000236  -0.002495  -0.000277
    20  H   -0.000236   0.612023  -0.000277  -0.002495
    21  H   -0.002495  -0.000277   0.620342  -0.004451
    22  H   -0.000277  -0.002495  -0.004451   0.620342
 Mulliken charges:
               1
     1  N    0.393721
     2  C    0.235979
     3  C    0.339747
     4  N   -0.566798
     5  O   -0.406604
     6  O   -0.406604
     7  C   -0.049336
     8  C   -0.049336
     9  C   -0.091837
    10  C   -0.091837
    11  C    0.116709
    12  C    0.116709
    13  C   -0.133805
    14  C   -0.133805
    15  H    0.096622
    16  H    0.096622
    17  H    0.093289
    18  H    0.093289
    19  H    0.093910
    20  H    0.093910
    21  H    0.079727
    22  H    0.079727
 Sum of Mulliken charges =  -0.00000
 Mulliken charges with hydrogens summed into heavy atoms:
               1
     1  N    0.393721
     2  C    0.235979
     3  C    0.339747
     4  N   -0.566798
     5  O   -0.406604
     6  O   -0.406604
     7  C    0.047286
     8  C    0.047286
     9  C    0.001452
    10  C    0.001452
    11  C    0.210620
    12  C    0.210620
    13  C   -0.054078
    14  C   -0.054078
 Electronic spatial extent (au):  <R**2>=           3486.5407
 Charge=             -0.0000 electrons
 Dipole moment (field-independent basis, Debye):
    X=             -0.0000    Y=             -0.0000    Z=             -4.3213  Tot=              4.3213
 Quadrupole moment (field-independent basis, Debye-Ang):
   XX=            -80.2038   YY=            -71.9813   ZZ=            -97.5878
   XY=              1.4420   XZ=              0.0000   YZ=              0.0000
 Traceless Quadrupole moment (field-independent basis, Debye-Ang):
   XX=              3.0539   YY=             11.2763   ZZ=            -14.3302
   XY=              1.4420   XZ=              0.0000   YZ=              0.0000
 Octapole moment (field-independent basis, Debye-Ang**2):
  XXX=              0.0000  YYY=             -0.0000  ZZZ=            -99.7614  XYY=              0.0000
  XXY=              0.0000  XXZ=             21.8346  XZZ=              0.0000  YZZ=             -0.0000
  YYZ=             -6.7258  XYZ=             -5.6577
 Hexadecapole moment (field-independent basis, Debye-Ang**3):
 XXXX=            -88.1437 YYYY=           -483.2532 ZZZZ=          -4150.2114 XXXY=            -20.8752
 XXXZ=              0.0000 YYYX=            -13.5177 YYYZ=             -0.0000 ZZZX=              0.0000
 ZZZY=              0.0000 XXYY=           -104.7457 XXZZ=           -670.6683 YYZZ=           -738.0415
 XXYZ=             -0.0000 YYXZ=              0.0000 ZZXY=              9.0917
 N-N= 8.163014119581D+02 E-N=-3.136035405251D+03  KE= 6.418195789663D+02
 Symmetry A    KE= 3.998609280766D+02
 Symmetry B    KE= 2.419586508896D+02
 No NMR shielding tensors so no spin-rotation constants.
 Leave Link  601 at Fri Aug 20 15:48:54 2021, MaxMem= 24159191040 cpu:        12.9
 (Enter /public/home/users/caep010/software/Gaussian09/g09/l701.exe)
 Compute integral first derivatives.
 ... and contract with generalized density number  0.
 Leave Link  701 at Fri Aug 20 15:48:55 2021, MaxMem= 24159191040 cpu:        10.9
 (Enter /public/home/users/caep010/software/Gaussian09/g09/l702.exe)
 L702 exits ... SP integral derivatives will be done elsewhere.
 Leave Link  702 at Fri Aug 20 15:48:55 2021, MaxMem= 24159191040 cpu:         0.5
 (Enter /public/home/users/caep010/software/Gaussian09/g09/l703.exe)
 Compute integral first derivatives, UseDBF=F ICtDFT=           0.
 Integral derivatives from FoFJK, PRISM(SPDF).
 Calling FoFJK, ICntrl=      2127 FMM=F ISym2X=1 I1Cent= 0 IOpClX= 0 NMat=1 NMatS=1 NMatT=0.
 FoFJK:  IHMeth= 1 ICntrl=    2127 DoSepK=F KAlg= 0 I1Cent=   0 FoldK=F
 IRaf=         0 NMat=   1 IRICut=       1 DoRegI=T DoRafI=F ISym2E= 1.
 FoFCou: FMM=F IPFlag=           0 FMFlag=      100000 FMFlg1=         800
         NFxFlg=           0 DoJE=F BraDBF=F KetDBF=F FulRan=T
         wScrn=  0.000000 ICntrl=    2127 IOpCl=  0 I1Cent=           0 NGrid=           0
         NMat0=    1 NMatS0=      1 NMatT0=    0 NMatD0=    1 NMtDS0=    0 NMtDT0=    0
 Petite list used in FoFCou.
 Leave Link  703 at Fri Aug 20 15:48:55 2021, MaxMem= 24159191040 cpu:        18.1
 (Enter /public/home/users/caep010/software/Gaussian09/g09/l716.exe)
 Dipole        =-1.44328993D-15-5.77315973D-15-1.70014978D+00
 ***** Axes restored to original set *****
 -------------------------------------------------------------------
 Center     Atomic                   Forces (Hartrees/Bohr)
 Number     Number              X              Y              Z
 -------------------------------------------------------------------
      1        7           0.000000000    0.000000000   -0.017205685
      2        6           0.000000000    0.000000000    0.004551515
      3        6          -0.000000000   -0.000000000   -0.029454135
      4        7          -0.000000000    0.000000000    0.017237313
      5        8           0.008200664    0.029981207    0.009850730
      6        8          -0.008200664   -0.029981207    0.009850730
      7        6          -0.027119494   -0.115383490   -0.056997939
      8        6           0.027119494    0.115383490   -0.056997939
      9        6          -0.013223225   -0.058751254    0.028210167
     10        6           0.013223225    0.058751254    0.028210167
     11        6          -0.048956199   -0.075104899   -0.023797626
     12        6           0.048956199    0.075104899   -0.023797626
     13        6          -0.016844119   -0.024612321    0.019813789
     14        6           0.016844119    0.024612321    0.019813789
     15        1           0.029937943    0.129575687    0.079523604
     16        1          -0.029937943   -0.129575687    0.079523604
     17        1           0.017838939    0.077025056   -0.045740217
     18        1          -0.017838939   -0.077025056   -0.045740217
     19        1           0.060606652    0.092618629    0.046513504
     20        1          -0.060606652   -0.092618629    0.046513504
     21        1           0.018536407    0.030677651   -0.044940517
     22        1          -0.018536407   -0.030677651   -0.044940517
 -------------------------------------------------------------------
 Cartesian Forces:  Max     0.129575687 RMS     0.050296797
 Leave Link  716 at Fri Aug 20 15:48:55 2021, MaxMem= 24159191040 cpu:         0.7
 (Enter /public/home/users/caep010/software/Gaussian09/g09/l103.exe)

 GradGradGradGradGradGradGradGradGradGradGradGradGradGradGradGradGradGrad
 Berny optimization.
 FormGI is forming the generalized inverse of G from B-inverse, IUseBI=4.
 Internal  Forces:  Max     0.154840214 RMS     0.031073086
 Search for a local minimum.
 Step number   1 out of a maximum of  121
 All quantities printed in internal units (Hartrees-Bohrs-Radians)
 RMS Force = .31073D-01 SwitMx=.10000D-02 MixMth= 1
 Mixed Optimization -- RFO/linear search
 Second derivative matrix not updated -- first step.
 ITU=  0
     Eigenvalues ---    0.00877   0.00877   0.01373   0.01761   0.01905
     Eigenvalues ---    0.02028   0.02079   0.02181   0.02306   0.02387
     Eigenvalues ---    0.02389   0.02390   0.02433   0.02438   0.02450
     Eigenvalues ---    0.02472   0.02482   0.02487   0.02582   0.15816
     Eigenvalues ---    0.15851   0.15933   0.15959   0.15983   0.15986
     Eigenvalues ---    0.16000   0.16000   0.22001   0.22004   0.22978
     Eigenvalues ---    0.23163   0.24000   0.25000   0.25000   0.25000
     Eigenvalues ---    0.25000   0.25000   0.36765   0.40185   0.41849
     Eigenvalues ---    0.44081   0.45174   0.45216   0.45263   0.45263
     Eigenvalues ---    0.46748   0.48630   0.48686   0.50312   0.50409
     Eigenvalues ---    0.50409   0.52067   0.52234   0.55327   0.55327
     Eigenvalues ---    0.55655   0.60199   0.60199   0.98919   0.98919
 RFO step:  Lambda=-1.51075290D-01 EMin= 8.76930398D-03
 Linear search not attempted -- first point.
 Maximum step size (   0.300) exceeded in Quadratic search.
    -- Step size scaled by   0.647
 Iteration  1 RMS(Cart)=  0.03375627 RMS(Int)=  0.00016613
 Iteration  2 RMS(Cart)=  0.00021529 RMS(Int)=  0.00000680
 Iteration  3 RMS(Cart)=  0.00000005 RMS(Int)=  0.00000680
 ITry= 1 IFail=0 DXMaxC= 1.35D-01 DCOld= 1.00D+10 DXMaxT= 3.00D-01 DXLimC= 3.00D+00 Rises=F
 ClnCor:  largest displacement from symmetrization is 4.32D-11 for atom    22.
 Variable       Old X    -DE/DX   Delta X   Delta X   Delta X     New X
                                 (Linear)    (Quad)   (Total)
    R1        2.76202   0.00250   0.00000   0.00311   0.00311   2.76514
    R2        2.29075   0.03205   0.00000   0.01818   0.01818   2.30893
    R3        2.29075   0.03205   0.00000   0.01818   0.01818   2.30893
    R4        2.60703   0.01636   0.00000   0.01641   0.01641   2.62344
    R5        2.60703   0.01636   0.00000   0.01641   0.01641   2.62344
    R6        2.69116  -0.01242   0.00000  -0.01410  -0.01410   2.67706
    R7        2.61837   0.01854   0.00000   0.01902   0.01902   2.63739
    R8        2.61837   0.01854   0.00000   0.01902   0.01902   2.63739
    R9        2.61044   0.00991   0.00000   0.00948   0.00948   2.61992
   R10        2.61044   0.00991   0.00000   0.00948   0.00948   2.61992
   R11        2.57835   0.02604   0.00000   0.02508   0.02508   2.60343
   R12        1.77483   0.15484   0.00000   0.13299   0.13299   1.90782
   R13        2.57835   0.02604   0.00000   0.02508   0.02508   2.60343
   R14        1.77483   0.15484   0.00000   0.13299   0.13299   1.90782
   R15        1.86154   0.09130   0.00000   0.09014   0.09014   1.95168
   R16        1.86154   0.09130   0.00000   0.09014   0.09014   1.95168
   R17        2.54245   0.02710   0.00000   0.02483   0.02483   2.56729
   R18        1.81543   0.12002   0.00000   0.11021   0.11021   1.92564
   R19        2.54245   0.02710   0.00000   0.02483   0.02483   2.56729
   R20        1.81543   0.12002   0.00000   0.11021   0.11021   1.92564
   R21        2.67167   0.01657   0.00000   0.01904   0.01904   2.69072
   R22        1.91672   0.05725   0.00000   0.06134   0.06134   1.97806
   R23        1.91672   0.05725   0.00000   0.06134   0.06134   1.97806
    A1        2.06220  -0.00457   0.00000  -0.00737  -0.00737   2.05484
    A2        2.06220  -0.00457   0.00000  -0.00737  -0.00737   2.05484
    A3        2.15878   0.00913   0.00000   0.01473   0.01473   2.17351
    A4        2.08505  -0.00202   0.00000  -0.00323  -0.00323   2.08182
    A5        2.08505  -0.00202   0.00000  -0.00323  -0.00323   2.08182
    A6        2.11308   0.00404   0.00000   0.00646   0.00646   2.11954
    A7        2.09824  -0.00099   0.00000  -0.00174  -0.00174   2.09650
    A8        2.09824  -0.00099   0.00000  -0.00174  -0.00174   2.09650
    A9        2.08670   0.00198   0.00000   0.00347   0.00347   2.09018
   A10        2.20354  -0.00333   0.00000  -0.00465  -0.00464   2.19890
   A11        2.20354  -0.00333   0.00000  -0.00465  -0.00464   2.19890
   A12        1.87610   0.00666   0.00000   0.00929   0.00928   1.88538
   A13        2.08222  -0.00180   0.00000  -0.00309  -0.00309   2.07913
   A14        2.05278   0.00573   0.00000   0.01161   0.01161   2.06439
   A15        2.14734  -0.00390   0.00000  -0.00841  -0.00841   2.13893
   A16        2.08222  -0.00180   0.00000  -0.00309  -0.00309   2.07913
   A17        2.05278   0.00573   0.00000   0.01161   0.01161   2.06439
   A18        2.14734  -0.00390   0.00000  -0.00841  -0.00841   2.13893
   A19        2.10107  -0.00120   0.00000  -0.00188  -0.00188   2.09920
   A20        2.11674  -0.00171   0.00000  -0.00387  -0.00387   2.11287
   A21        2.06534   0.00291   0.00000   0.00574   0.00574   2.07109
   A22        2.10107  -0.00120   0.00000  -0.00188  -0.00188   2.09920
   A23        2.11674  -0.00171   0.00000  -0.00387  -0.00387   2.11287
   A24        2.06534   0.00291   0.00000   0.00574   0.00574   2.07109
   A25        1.89611  -0.00194   0.00000  -0.00373  -0.00373   1.89238
   A26        2.12247  -0.00066   0.00000  -0.00148  -0.00148   2.12100
   A27        2.25840   0.00267   0.00000   0.00549   0.00549   2.26389
   A28        1.89611  -0.00194   0.00000  -0.00373  -0.00373   1.89238
   A29        2.12247  -0.00066   0.00000  -0.00148  -0.00148   2.12100
   A30        2.25840   0.00267   0.00000   0.00549   0.00549   2.26389
   A31        1.87810  -0.00138   0.00000  -0.00091  -0.00091   1.87719
   A32        2.22580  -0.00288   0.00000  -0.00692  -0.00693   2.21887
   A33        2.17690   0.00433   0.00000   0.00808   0.00808   2.18497
   A34        1.87810  -0.00138   0.00000  -0.00091  -0.00091   1.87719
   A35        2.22580  -0.00288   0.00000  -0.00692  -0.00693   2.21887
   A36        2.17690   0.00433   0.00000   0.00808   0.00808   2.18497
    D1       -0.01889   0.00015   0.00000   0.00059   0.00059  -0.01830
    D2        3.12271   0.00015   0.00000   0.00059   0.00059   3.12330
    D3        3.12271   0.00015   0.00000   0.00059   0.00059   3.12330
    D4       -0.01889   0.00015   0.00000   0.00059   0.00059  -0.01830
    D5       -3.14009   0.00000   0.00000   0.00003   0.00003  -3.14006
    D6       -0.04124   0.00065   0.00000   0.00258   0.00259  -0.03865
    D7        0.00150   0.00000   0.00000   0.00003   0.00003   0.00154
    D8        3.10035   0.00065   0.00000   0.00258   0.00259   3.10295
    D9       -3.14009   0.00000   0.00000   0.00003   0.00003  -3.14006
   D10       -0.04124   0.00065   0.00000   0.00258   0.00259  -0.03865
   D11        0.00150   0.00000   0.00000   0.00003   0.00003   0.00154
   D12        3.10035   0.00065   0.00000   0.00258   0.00259   3.10295
   D13        0.25972   0.00033   0.00000   0.00131   0.00131   0.26103
   D14       -2.88187   0.00033   0.00000   0.00131   0.00131  -2.88056
   D15       -2.88187   0.00033   0.00000   0.00131   0.00131  -2.88056
   D16        0.25972   0.00033   0.00000   0.00131   0.00131   0.26103
   D17       -3.14007   0.00000   0.00000   0.00003   0.00003  -3.14003
   D18        0.00942   0.00022   0.00000   0.00087   0.00087   0.01029
   D19        0.00153   0.00000   0.00000   0.00003   0.00003   0.00156
   D20       -3.13217   0.00022   0.00000   0.00087   0.00087  -3.13130
   D21       -3.14007   0.00000   0.00000   0.00003   0.00003  -3.14003
   D22        0.00942   0.00022   0.00000   0.00087   0.00087   0.01029
   D23        0.00153   0.00000   0.00000   0.00003   0.00003   0.00156
   D24       -3.13217   0.00022   0.00000   0.00087   0.00087  -3.13130
   D25        3.13442   0.00001   0.00000   0.00003   0.00003   3.13446
   D26        0.10176  -0.00080   0.00000  -0.00283  -0.00283   0.09893
   D27       -0.00717   0.00001   0.00000   0.00003   0.00003  -0.00714
   D28       -3.03983  -0.00080   0.00000  -0.00283  -0.00283  -3.04266
   D29        3.13442   0.00001   0.00000   0.00003   0.00003   3.13446
   D30        0.10176  -0.00080   0.00000  -0.00283  -0.00283   0.09893
   D31       -0.00717   0.00001   0.00000   0.00003   0.00003  -0.00714
   D32       -3.03983  -0.00080   0.00000  -0.00283  -0.00283  -3.04266
   D33       -0.00300  -0.00001   0.00000  -0.00006  -0.00006  -0.00306
   D34        3.13093  -0.00024   0.00000  -0.00091  -0.00092   3.13000
   D35       -3.09942  -0.00094   0.00000  -0.00328  -0.00326  -3.10267
   D36        0.03451  -0.00117   0.00000  -0.00413  -0.00412   0.03039
   D37       -0.00300  -0.00001   0.00000  -0.00006  -0.00006  -0.00306
   D38        3.13093  -0.00024   0.00000  -0.00091  -0.00092   3.13000
   D39       -3.09942  -0.00094   0.00000  -0.00328  -0.00326  -3.10267
   D40        0.03451  -0.00117   0.00000  -0.00413  -0.00412   0.03039
   D41        0.01801   0.00002   0.00000  -0.00006  -0.00007   0.01795
   D42        3.08759   0.00121   0.00000   0.00400   0.00397   3.09156
   D43        3.03951   0.00059   0.00000   0.00244   0.00245   3.04196
   D44       -0.17411   0.00179   0.00000   0.00650   0.00649  -0.16762
   D45        0.01801   0.00002   0.00000  -0.00006  -0.00007   0.01795
   D46        3.08759   0.00121   0.00000   0.00400   0.00397   3.09156
   D47        3.03951   0.00059   0.00000   0.00244   0.00245   3.04196
   D48       -0.17411   0.00179   0.00000   0.00650   0.00649  -0.16762
   D49       -0.02247   0.00002   0.00000   0.00008   0.00009  -0.02238
   D50       -3.09457  -0.00077   0.00000  -0.00308  -0.00309  -3.09766
   D51       -3.09457  -0.00077   0.00000  -0.00308  -0.00309  -3.09766
   D52        0.11651  -0.00156   0.00000  -0.00624  -0.00627   0.11025
         Item               Value     Threshold  Converged?
 Maximum Force            0.154840     0.000450     NO 
 RMS     Force            0.031073     0.000300     NO 
 Maximum Displacement     0.134955     0.001800     NO 
 RMS     Displacement     0.033760     0.001200     NO 
 Predicted change in Energy=-7.293666D-02
 Lowest energy point so far.  Saving SCF results.
 GradGradGradGradGradGradGradGradGradGradGradGradGradGradGradGradGradGrad

 Leave Link  103 at Fri Aug 20 15:48:56 2021, MaxMem= 24159191040 cpu:         3.3
 (Enter /public/home/users/caep010/software/Gaussian09/g09/l202.exe)
                          Input orientation:                          
 ---------------------------------------------------------------------
 Center     Atomic      Atomic             Coordinates (Angstroms)
 Number     Number       Type             X           Y           Z
 ---------------------------------------------------------------------
      1          7           0        0.000000    5.465000    7.734778
      2          6           0        0.000000    5.465000    6.271531
      3          6           0       -0.000000    5.465000    3.514528
      4          7           0       -0.000000    5.465000    2.097889
      5          8           0        0.288826    6.507191    8.303368
      6          8           0       -0.288826    4.422809    8.303368
      7          6           0        0.301989    6.637645    5.592568
      8          6           0       -0.301989    4.292355    5.592568
      9          6           0        0.299273    6.634509    4.214898
     10          6           0       -0.299273    4.295491    4.214898
     11          6           0        0.549156    6.443188    1.283221
     12          6           0       -0.549156    4.486812    1.283221
     13          6           0        0.356506    6.081240   -0.011978
     14          6           0       -0.356506    4.848760   -0.011978
     15          1           0        0.481134    7.471015    6.133532
     16          1           0       -0.481134    3.458985    6.133532
     17          1           0        0.514769    7.513354    3.717065
     18          1           0       -0.514769    3.416646    3.717065
     19          1           0        1.083652    7.220003    1.669542
     20          1           0       -1.083652    3.709997    1.669542
     21          1           0        0.617778    6.626985   -0.866128
     22          1           0       -0.617778    4.303015   -0.866128
 ---------------------------------------------------------------------
                    Distance matrix (angstroms):
                    1          2          3          4          5
     1  N    0.000000
     2  C    1.463247   0.000000
     3  C    4.220250   2.757003   0.000000
     4  N    5.636889   4.173642   1.416639   0.000000
     5  O    1.221833   2.301726   4.909437   6.299012   0.000000
     6  O    1.221833   2.301726   4.909437   6.299012   2.162944
     7  C    2.460764   1.388267   2.405108   3.698524   2.713969
     8  C    2.460764   1.388267   2.405108   3.698524   3.550070
     9  C    3.721138   2.384755   1.395648   2.437015   4.090465
    10  C    3.721138   2.384755   1.395648   2.437015   4.685409
    11  C    6.548360   5.112892   2.497430   1.386401   7.025264
    12  C    6.548360   5.112892   2.497430   1.386401   7.353000
    13  C    7.779401   6.323712   3.597651   2.226743   8.326523
    14  C    7.779401   6.323712   3.597651   2.226743   8.503635
    15  H    2.611432   2.067518   3.333882   4.532329   2.382042
    16  H    2.611432   2.067518   3.333882   4.532329   3.820024
    17  H    4.539026   3.314519   2.121735   2.661291   4.700807
    18  H    4.539026   3.314519   2.121735   2.661291   5.588506
    19  H    6.406358   5.043079   2.767365   2.106613   6.719189
    20  H    6.406358   5.043079   2.767365   2.106613   7.329095
    21  H    8.701002   7.257964   4.574058   3.243032   9.176176
    22  H    8.701002   7.257964   4.574058   3.243032   9.474174
                    6          7          8          9         10
     6  O    0.000000
     7  C    3.550070   0.000000
     8  C    2.713969   2.421813   0.000000
     9  C    4.685409   1.377676   2.783016   0.000000
    10  C    4.090465   2.783016   1.377676   2.414387   0.000000
    11  C    7.353000   4.320808   4.890911   2.948521   3.731912
    12  C    7.025264   4.890911   4.320808   3.731912   2.948521
    13  C    8.503635   5.632361   5.919853   4.263316   4.635237
    14  C    8.326523   5.919853   5.632361   4.635237   4.263316
    15  H    3.820024   1.009574   3.318103   2.100946   3.791325
    16  H    2.382042   3.318103   1.009574   3.791325   2.100946
    17  H    5.588506   2.080782   3.815684   1.032785   3.356359
    18  H    4.700807   3.815684   2.080782   3.356359   1.032785
    19  H    7.329095   4.042310   5.087363   2.727067   4.116320
    20  H    6.719189   5.087363   4.042310   4.116320   2.727067
    21  H    9.474174   6.466420   6.929013   5.091005   5.665128
    22  H    9.176176   6.929013   6.466420   5.665128   5.091005
                   11         12         13         14         15
    11  C    0.000000
    12  C    2.243591   0.000000
    13  C    1.358551   2.244986   0.000000
    14  C    2.244986   1.358551   1.423865   0.000000
    15  H    4.958485   5.787270   6.301928   6.733881   0.000000
    16  H    5.787270   4.958485   6.733881   6.301928   4.125815
    17  H    2.658953   4.026846   3.997719   4.665291   2.417072
    18  H    4.026846   2.658953   4.665291   3.997719   4.823800
    19  H    1.019004   3.207123   2.157088   3.244126   4.511457
    20  H    3.207123   1.019004   3.244126   2.157088   6.043262
    21  H    2.158284   3.249889   1.046744   2.200201   7.051688
    22  H    3.249889   2.158284   2.200201   1.046744   7.761384
                   16         17         18         19         20
    16  H    0.000000
    17  H    4.823800   0.000000
    18  H    2.417072   4.224093   0.000000
    19  H    6.043262   2.145235   4.605738   0.000000
    20  H    4.511457   4.605738   2.145235   4.125208   0.000000
    21  H    7.761384   4.669252   5.709168   2.645435   4.222949
    22  H    7.051688   5.709168   4.669252   4.222949   2.645435
                   21         22
    21  H    0.000000
    22  H    2.632002   0.000000
 Stoichiometry    C10H8N2O2
 Framework group  C2[C2(NCCN),X(C8H8O2)]
 Deg. of freedom    29
 Full point group                 C2      NOp   2
 RotChk:  IX=0 Diff= 9.58D-04
 Largest Abelian subgroup         C2      NOp   2
 Largest concise Abelian subgroup C2      NOp   2
                         Standard orientation:                         
 ---------------------------------------------------------------------
 Center     Atomic      Atomic             Coordinates (Angstroms)
 Number     Number       Type             X           Y           Z
 ---------------------------------------------------------------------
      1          7           0        0.000000   -0.000000    3.503641
      2          6           0        0.000000   -0.000000    2.040394
      3          6           0       -0.000000    0.000000   -0.716609
      4          7           0       -0.000000    0.000000   -2.133248
      5          8           0        0.021442    1.081259    4.072230
      6          8           0       -0.021442   -1.081259    4.072230
      7          6           0        0.001854    1.210905    1.361431
      8          6           0       -0.001854   -1.210905    1.361431
      9          6           0       -0.000000    1.207193   -0.016239
     10          6           0       -0.000000   -1.207193   -0.016239
     11          6           0        0.289512    1.083793   -2.947916
     12          6           0       -0.289512   -1.083793   -2.947916
     13          6           0        0.192606    0.685384   -4.243115
     14          6           0       -0.192606   -0.685384   -4.243115
     15          1           0       -0.031193    2.062672    1.902395
     16          1           0        0.031193   -2.062672    1.902395
     17          1           0       -0.009104    2.112027   -0.514072
     18          1           0        0.009104   -2.112027   -0.514072
     19          1           0        0.614744    1.968864   -2.561596
     20          1           0       -0.614744   -1.968864   -2.561596
     21          1           0        0.310428    1.278864   -5.097265
     22          1           0       -0.310428   -1.278864   -5.097265
 ---------------------------------------------------------------------
 Rotational constants (GHZ):      2.8141800      0.3193273      0.2876503
 Leave Link  202 at Fri Aug 20 15:48:56 2021, MaxMem= 24159191040 cpu:         0.4
 (Enter /public/home/users/caep010/software/Gaussian09/g09/l301.exe)
 Standard basis: 6-31G(d,p) (6D, 7F)
 Ernie: Thresh=  0.10000D-02 Tol=  0.10000D-05 Strict=F.
 There are   131 symmetry adapted cartesian basis functions of A   symmetry.
 There are   119 symmetry adapted cartesian basis functions of B   symmetry.
 There are   131 symmetry adapted basis functions of A   symmetry.
 There are   119 symmetry adapted basis functions of B   symmetry.
   250 basis functions,   448 primitive gaussians,   250 cartesian basis functions
    49 alpha electrons       49 beta electrons
       nuclear repulsion energy       810.5038803002 Hartrees.
 IExCor=  402 DFT=T Ex+Corr=B3LYP ExCW=0 ScaHFX=  0.200000
 ScaDFX=  0.800000  0.720000  1.000000  0.810000 ScalE2=  1.000000  1.000000
 IRadAn=      0 IRanWt=     -1 IRanGd=            0 ICorTp=0 IEmpDi=  4
 NAtoms=   22 NActive=   22 NUniq=   13 SFac= 2.86D+00 NAtFMM=   60 NAOKFM=F Big=F
 Integral buffers will be    131072 words long.
 Raffenetti 2 integral format.
[...]
 .00054745,-0.00243958,-0.00037897,0.00148287,0.00548473,-0.00133070,-0
 .00133764,0.00555456,-0.04843885,-0.04692342,0.00920512,0.32710302,0.4
 9409929,0.00018191,-0.00010483,-0.00376836,0.00003565,-0.00007849,0.00
 346701,-0.01779881,-0.02212280,-0.03582196,-0.04515294,-0.06191881,-0.
 14747445,0.00008023,0.00087894,0.00112083,-0.00018037,-0.00071843,0.00
 110439,0.00097160,-0.00056261,-0.00227299,-0.00058975,-0.00114794,-0.0
 0162102,0.00058418,0.00416015,0.00178948,-0.00170281,-0.00237701,0.003
 08493,-0.00702230,-0.00920512,-0.01398785,-0.10104689,-0.11434349,0.69
 987984,-0.00001057,0.00006183,0.00198649,0.00005366,0.00059347,-0.0019
 7044,-0.00231129,-0.00391258,0.00686522,0.00539422,-0.00738045,-0.0026
 3171,-0.00008330,-0.00047647,-0.00051441,0.00009381,0.00049609,-0.0005
 5944,-0.00004015,-0.00044645,0.00170779,0.00019808,-0.00041970,0.00053
 890,-0.00026222,-0.00123952,-0.00239478,0.00094263,0.00089228,0.000179
 23,-0.08921329,-0.03434435,-0.04521012,-0.00682291,-0.02316446,0.04586
 984,0.32247915,0.00012369,-0.00005244,0.00203624,-0.00004027,-0.000115
 03,-0.00201105,-0.00390870,-0.00369957,0.00767032,-0.00872873,-0.00057
 337,-0.00198200,-0.00012766,-0.00047537,-0.00055547,0.00007899,0.00056
 822,-0.00058252,-0.00038570,-0.00010007,0.00100620,0.00035713,0.000159
 09,0.00130754,-0.00049734,-0.00143215,-0.00228199,0.00090443,0.0012356
 1,-0.00091333,-0.03484290,-0.09911440,-0.06100614,-0.02307672,-0.01690
 073,0.05683345,0.25156849,0.42160394,-0.00000945,-0.00001198,0.0030296
 1,0.00000167,-0.00023749,-0.00265777,0.00189765,0.00303549,0.00996732,
 0.02594541,0.03174491,-0.08375164,-0.00012072,-0.00066007,-0.00095559,
 0.00010870,0.00060517,-0.00091954,-0.00037927,-0.00042681,0.00101741,0
 .00041770,0.00059381,0.00156745,-0.00084927,-0.00034405,-0.00182373,0.
 00044691,0.00082467,-0.00426827,-0.05853143,-0.07402744,-0.38210132,0.
 01311533,0.01398128,0.00243062,-0.07222053,-0.07983074,0.81650904,-0.0
 0001057,0.00006183,-0.00198649,0.00005366,0.00059347,0.00197044,-0.002
 31129,-0.00391258,-0.00686522,0.00539422,-0.00738045,0.00263171,0.0000
 9381,0.00049609,0.00055944,-0.00008330,-0.00047647,0.00051441,0.000198
 08,-0.00041970,-0.00053890,-0.00004015,-0.00044645,-0.00170779,0.00094
 263,0.00089228,-0.00017923,-0.00026222,-0.00123952,0.00239478,-0.00682
 291,-0.02316446,-0.04586984,-0.08921329,-0.03434435,0.04521012,-0.1463
 1245,-0.10911948,0.01085444,0.32247915,0.00012369,-0.00005244,-0.00203
 624,-0.00004027,-0.00011503,0.00201105,-0.00390870,-0.00369957,-0.0076
 7032,-0.00872873,-0.00057337,0.00198200,0.00007899,0.00056822,0.000582
 52,-0.00012766,-0.00047537,0.00055547,0.00035713,0.00015909,-0.0013075
 4,-0.00038570,-0.00010007,-0.00100620,0.00090443,0.00123561,0.00091333
 ,-0.00049734,-0.00143215,0.00228199,-0.02307672,-0.01690073,-0.0568334
 5,-0.03484290,-0.09911440,0.06100614,-0.10911948,-0.19237303,0.0132680
 1,0.25156849,0.42160394,0.00000945,0.00001198,0.00302961,-0.00000167,0
 .00023749,-0.00265777,-0.00189765,-0.00303549,0.00996732,-0.02594541,-
 0.03174491,-0.08375164,-0.00010870,-0.00060517,-0.00091954,0.00012072,
 0.00066007,-0.00095559,-0.00041770,-0.00059381,0.00156745,0.00037927,0
 .00042681,0.00101741,-0.00044691,-0.00082467,-0.00426827,0.00084927,0.
 00034405,-0.00182373,-0.01311533,-0.01398128,0.00243062,0.05853143,0.0
 7402744,-0.38210132,-0.01085444,-0.01326801,-0.11139178,0.07222053,0.0
 7983074,0.81650904,-0.00450123,0.00012047,-0.00081399,0.00435414,-0.00
 427941,-0.00187342,0.00779100,-0.00111987,-0.00018251,0.00005327,0.000
 08270,0.00025764,-0.00005892,0.00066424,-0.00010397,0.00052788,-0.0000
 0166,0.00011670,-0.04354653,-0.03327670,-0.01868629,0.00436257,-0.0009
 7106,0.00086300,0.00397058,0.00075204,0.00052580,-0.00066862,0.0001150
 7,0.00007976,-0.00002949,-0.00000128,-0.00003216,-0.00022772,0.0000856
 8,-0.00004134,0.00008467,0.00009469,0.00007658,-0.00007847,-0.00010675
 ,0.00008855,0.03231517,0.00003228,-0.00367481,-0.00346230,-0.00340778,
 -0.01830329,-0.01494509,-0.00100651,0.00128646,0.00144445,0.00007307,0
 .00027982,0.00017687,0.00055418,0.00338904,-0.00062442,0.00014696,0.00
 132556,0.00018080,-0.03378277,-0.27056182,-0.12611585,-0.00106973,-0.0
 0288239,0.00399325,0.00027274,0.00631766,0.00253615,0.00015053,0.00035
 051,0.00066493,0.00004206,0.00000579,-0.00005208,0.00001179,-0.0000455
 8,0.00006870,-0.00000571,-0.00000601,0.00001230,0.00001404,0.00001994,
 0.00001219,0.03739371,0.28271944,0.00009209,0.00088111,0.00149247,0.00
 180293,0.01218362,0.01319433,0.00010669,0.00144140,-0.00432722,-0.0005
 0629,-0.00140490,-0.00061217,-0.00000164,0.00001850,-0.00451306,-0.000
 24553,-0.00156278,0.00031527,-0.01861600,-0.12808829,-0.13303228,0.000
 56369,0.00332490,-0.00190122,-0.00344783,-0.02578071,-0.01010340,0.000
 12524,0.00070334,-0.00083203,-0.00018340,-0.00009433,0.00016985,0.0003
 4524,0.00021033,-0.00007805,0.00000330,-0.00002847,-0.00011046,-0.0000
 3706,-0.00002634,-0.00014478,0.01978185,0.13726032,0.13853331,-0.00450
 123,0.00012047,0.00081399,0.00435414,-0.00427941,0.00187342,0.00779100
 ,-0.00111987,0.00018251,0.00005327,0.00008270,-0.00025764,0.00052788,-
 0.00000166,-0.00011670,-0.00005892,0.00066424,0.00010397,0.00436257,-0
 .00097106,-0.00086300,-0.04354653,-0.03327670,0.01868629,-0.00066862,0
 .00011507,-0.00007976,0.00397058,0.00075204,-0.00052580,-0.00022772,0.
 00008568,0.00004134,-0.00002949,-0.00000128,0.00003216,-0.00007847,-0.
 00010675,-0.00008855,0.00008467,0.00009469,-0.00007658,0.00072901,-0.0
 0026312,0.00014328,0.03231517,0.00003228,-0.00367481,0.00346230,-0.003
 40777,-0.01830329,0.01494509,-0.00100651,0.00128646,-0.00144445,0.0000
 7307,0.00027982,-0.00017687,0.00014696,0.00132556,-0.00018080,0.000554
 18,0.00338904,0.00062442,-0.00106973,-0.00288239,-0.00399325,-0.033782
 77,-0.27056182,0.12611585,0.00015053,0.00035051,-0.00066493,0.00027274
 ,0.00631766,-0.00253615,0.00001179,-0.00004558,-0.00006870,0.00004206,
 0.00000579,0.00005208,0.00001404,0.00001994,-0.00001219,-0.00000571,-0
 .00000601,-0.00001230,-0.00026312,-0.00084045,0.00089294,0.03739371,0.
 28271944,-0.00009209,-0.00088111,0.00149247,-0.00180293,-0.01218362,0.
 01319433,-0.00010669,-0.00144140,-0.00432722,0.00050629,0.00140490,-0.
 00061217,0.00024553,0.00156278,0.00031527,0.00000164,-0.00001850,-0.00
 451306,-0.00056369,-0.00332490,-0.00190122,0.01861600,0.12808829,-0.13
 303228,-0.00012524,-0.00070334,-0.00083203,0.00344783,0.02578071,-0.01
 010340,-0.00034524,-0.00021033,-0.00007805,0.00018340,0.00009433,0.000
 16985,0.00003706,0.00002634,-0.00014478,-0.00000330,0.00002847,-0.0001
 1046,-0.00014328,-0.00089294,0.00078283,-0.01978185,-0.13726032,0.1385
 3331,0.00114867,-0.00007603,0.00006889,0.00731698,-0.00040418,-0.00011
 079,0.00320829,-0.00366056,0.00241089,-0.00329307,0.00055316,0.0013622
 2,-0.00002412,-0.00003156,-0.00000977,-0.00052586,0.00007064,-0.000053
 55,0.00234958,0.00040848,0.00037579,-0.00052673,-0.00007757,-0.0004781
 9,-0.03777813,-0.02681816,0.01168715,0.00489414,-0.00139703,-0.0005936
 8,0.00031685,0.00103738,0.00003370,-0.00033809,-0.00013905,-0.00037331
 ,-0.00027933,-0.00000489,-0.00006356,-0.00003031,0.00000956,0.00007766
 ,-0.00442491,0.00076030,0.00008194,-0.00069017,0.00010408,0.00003213,0
 .02846055,0.00003108,0.00025119,-0.00043799,-0.00063298,0.00167537,-0.
 00084211,-0.00277345,-0.01824602,0.01638786,0.00027422,0.00046127,0.00
 109103,-0.00000843,0.00000555,0.00012547,0.00002843,0.00000282,-0.0000
 2341,0.00002976,0.00474278,-0.00192586,0.00016321,0.00009330,-0.000905
 77,-0.02704482,-0.27357481,0.12142758,-0.00108628,-0.00275559,-0.00396
 569,-0.00065369,-0.00013437,0.00027408,0.00010449,0.00037728,0.0002354
 8,-0.00006088,0.00019792,-0.00049279,0.00028243,0.00030250,-0.00002786
 ,0.00061101,0.00063027,0.00012358,0.00009802,-0.00001326,0.00006554,0.
 02999507,0.28638395,0.00026775,0.00183572,0.00048696,-0.00042355,-0.00
 190820,-0.00468873,-0.00182856,-0.01437074,0.01131249,0.00002476,0.000
 16252,0.00101065,-0.00004176,-0.00027940,-0.00017182,0.00004881,0.0001
 8400,-0.00089059,0.00361358,0.02812572,-0.01186965,-0.00010929,-0.0006
 9808,-0.00070862,0.01317504,0.12307229,-0.12772386,-0.00039304,-0.0026
 5296,-0.00160943,0.00042159,-0.00010314,-0.00069590,0.00013259,0.00021
 405,0.00036977,-0.00035959,-0.00020769,-0.00037928,0.00024347,0.000244
 15,-0.00022093,0.00008322,-0.00017769,0.00120227,0.00001825,0.00008459
 ,0.00002683,-0.01576584,-0.13177259,0.13572349,0.00114867,-0.00007603,
 -0.00006889,0.00731698,-0.00040418,0.00011079,0.00320829,-0.00366056,-
 0.00241089,-0.00329307,0.00055316,-0.00136222,-0.00052586,0.00007064,0
 .00005355,-0.00002412,-0.00003156,0.00000977,-0.00052673,-0.00007757,0
 .00047819,0.00234958,0.00040848,-0.00037579,0.00489414,-0.00139703,0.0
 0059368,-0.03777813,-0.02681816,-0.01168715,-0.00033809,-0.00013905,0.
 00037331,0.00031685,0.00103738,-0.00003370,-0.00003031,0.00000956,-0.0
 0007766,-0.00027933,-0.00000489,0.00006356,-0.00069017,0.00010408,-0.0
 0003213,-0.00442491,0.00076030,-0.00008194,0.00023473,-0.00027698,-0.0
 0010217,0.02846055,0.00003108,0.00025119,0.00043799,-0.00063298,0.0016
 7537,0.00084211,-0.00277345,-0.01824602,-0.01638786,0.00027422,0.00046
 127,-0.00109103,0.00002843,0.00000282,0.00002341,-0.00000843,0.0000055
 5,-0.00012547,0.00016321,0.00009330,0.00090577,0.00002976,0.00474278,0
 .00192586,-0.00108628,-0.00275559,0.00396569,-0.02704482,-0.27357481,-
 0.12142758,0.00010449,0.00037728,-0.00023548,-0.00065369,-0.00013437,-
 0.00027408,0.00028243,0.00030250,0.00002786,-0.00006088,0.00019792,0.0
 0049279,0.00009802,-0.00001326,-0.00006554,0.00061101,0.00063027,-0.00
 012358,-0.00027698,-0.00089945,-0.00083885,0.02999507,0.28638395,-0.00
 026775,-0.00183572,0.00048696,0.00042355,0.00190820,-0.00468873,0.0018
 2856,0.01437074,0.01131249,-0.00002476,-0.00016252,0.00101065,-0.00004
 881,-0.00018400,-0.00089059,0.00004176,0.00027940,-0.00017182,0.000109
 29,0.00069808,-0.00070862,-0.00361358,-0.02812572,-0.01186965,0.000393
 04,0.00265296,-0.00160943,-0.01317504,-0.12307229,-0.12772386,-0.00013
 259,-0.00021405,0.00036977,-0.00042159,0.00010314,-0.00069590,-0.00024
 347,-0.00024415,-0.00022093,0.00035959,0.00020769,-0.00037928,-0.00001
 825,-0.00008459,0.00002683,-0.00008322,0.00017769,0.00120227,0.0001021
 7,0.00083885,0.00045108,0.01576584,0.13177259,0.13572349,0.00002528,0.
 00001110,-0.00001805,-0.00003248,-0.00002504,0.00005876,-0.00088149,0.
 00054770,-0.00141496,-0.00975069,-0.00634657,-0.00715369,-0.00000386,0
 .00005130,-0.00002196,-0.00000238,0.00002908,-0.00007149,0.00005513,0.
 00050262,-0.00015583,0.00002947,0.00004664,-0.00013506,0.00025173,-0.0
 0081169,0.00025807,0.00004572,-0.00004344,0.00022451,-0.14970782,-0.14
 543441,-0.07437491,0.00013243,-0.00136341,0.00172160,0.00170554,0.0008
 7266,0.00167912,0.00239680,-0.00235582,0.00053825,0.00002245,-0.000019
 70,0.00004778,-0.00001048,0.00000212,0.00001082,-0.00015804,0.00079491
 ,0.00094129,-0.00001555,0.00007324,-0.00001806,0.15552314,-0.00006110,
 0.00006715,0.00006282,-0.00000727,0.00034563,0.00001882,0.00077858,-0.
 00064713,-0.00207527,-0.00872601,-0.01379146,-0.00844956,0.00000975,-0
 .00001326,-0.00002220,0.00002199,-0.00001833,-0.00003533,0.00020936,-0
 .00006576,0.00035346,-0.00005245,-0.00019206,-0.00036901,0.00058060,0.
 00012665,-0.00061955,-0.00001514,-0.00036586,0.00069161,-0.14285701,-0
 .18086070,-0.07946209,-0.00103912,0.00039035,0.00401262,-0.00076301,0.
 00008014,-0.00006181,-0.00161718,0.00278543,-0.00109114,0.00002311,0.0
 0000597,-0.00000488,-0.00000184,-0.00000225,0.00001626,0.00008528,0.00
 043728,-0.00093553,-0.00000262,0.00003949,-0.00003940,0.15392972,0.191
 89308,0.00002176,-0.00001085,-0.00020817,-0.00006081,-0.00022283,0.000
 07700,0.00000337,-0.00013794,0.00172375,0.01492481,0.01670515,0.010708
 94,-0.00000131,0.00002454,0.00007727,-0.00001367,-0.00004553,0.0000970
 5,-0.00009871,0.00011910,-0.00033695,0.00001508,0.00004024,0.00017216,
 0.00037675,-0.00024451,-0.00081902,-0.00012992,0.00010178,-0.00017012,
 -0.08003377,-0.08817496,-0.11039830,0.00155865,0.00206275,-0.00441525,
 -0.01566229,-0.01772240,0.00281523,-0.00085774,-0.00128208,-0.00541844
 ,0.00003248,-0.00000553,-0.00001287,0.00001284,0.00000141,-0.00000038,
 0.00122265,-0.00022718,-0.00169324,0.00001018,-0.00006703,0.00003694,0
 .07860386,0.08897205,0.10592575,0.00002528,0.00001110,0.00001805,-0.00
 003248,-0.00002504,-0.00005876,-0.00088149,0.00054770,0.00141496,-0.00
 975069,-0.00634657,0.00715369,-0.00000238,0.00002908,0.00007149,-0.000
 00386,0.00005130,0.00002196,0.00002947,0.00004664,0.00013506,0.0000551
 3,0.00050262,0.00015583,0.00004572,-0.00004344,-0.00022451,0.00025173,
 -0.00081169,-0.00025807,0.00013243,-0.00136341,-0.00172160,-0.14970782
 ,-0.14543441,0.07437491,0.00239680,-0.00235582,-0.00053825,0.00170554,
 0.00087266,-0.00167912,-0.00001048,0.00000212,-0.00001082,0.00002245,-
 0.00001970,-0.00004778,-0.00001555,0.00007324,0.00001806,-0.00015804,0
 .00079491,-0.00094129,0.00138858,-0.00150580,0.00040011,0.15552314,-0.
 00006110,0.00006715,-0.00006282,-0.00000727,0.00034562,-0.00001882,0.0
 0077858,-0.00064713,0.00207527,-0.00872601,-0.01379146,0.00844956,0.00
 002199,-0.00001833,0.00003533,0.00000975,-0.00001326,0.00002220,-0.000
 05245,-0.00019206,0.00036901,0.00020936,-0.00006576,-0.00035346,-0.000
 01514,-0.00036586,-0.00069161,0.00058060,0.00012665,0.00061955,-0.0010
 3912,0.00039035,-0.00401262,-0.14285701,-0.18086070,0.07946209,-0.0016
 1718,0.00278543,0.00109114,-0.00076301,0.00008014,0.00006181,-0.000001
 84,-0.00000225,-0.00001626,0.00002311,0.00000597,0.00000488,-0.0000026
 2,0.00003949,0.00003940,0.00008528,0.00043728,0.00093553,-0.00150580,0
 .00055158,0.00066662,0.15392972,0.19189308,-0.00002176,0.00001085,-0.0
 0020817,0.00006081,0.00022283,0.00007700,-0.00000337,0.00013794,0.0017
 2375,-0.01492481,-0.01670515,0.01070894,0.00001367,0.00004553,0.000097
 05,0.00000131,-0.00002454,0.00007727,-0.00001508,-0.00004024,0.0001721
 6,0.00009871,-0.00011910,-0.00033695,0.00012992,-0.00010178,-0.0001701
 2,-0.00037675,0.00024451,-0.00081902,-0.00155865,-0.00206275,-0.004415
 25,0.08003377,0.08817496,-0.11039830,0.00085774,0.00128208,-0.00541844
 ,0.01566229,0.01772240,0.00281523,-0.00001284,-0.00000141,-0.00000038,
 -0.00003248,0.00000553,-0.00001287,-0.00001018,0.00006703,0.00003694,-
 0.00122265,0.00022718,-0.00169324,-0.00040011,-0.00066662,0.00090182,-
 0.07860386,-0.08897205,0.10592575,0.00002999,-0.00002521,0.00015727,-0
 .00002263,-0.00010318,-0.00018371,0.00182007,-0.00079391,0.00021075,0.
 00313451,-0.00291296,-0.00277461,-0.00001064,-0.00002574,-0.00003292,0
 .00000401,0.00004651,-0.00003236,-0.00007330,0.00004108,0.00001261,-0.
 00018505,0.00009987,0.00022959,-0.00011340,0.00007044,-0.00008762,-0.0
 0017003,0.00005050,-0.00006854,0.00384635,0.00569096,-0.00533943,-0.00
 056962,-0.00452566,-0.00045944,-0.08503476,-0.06855302,0.09340110,-0.0
 0286949,-0.00226167,0.01506593,0.00000057,0.00000057,-0.00000656,0.000
 02524,-0.00000310,0.00000674,0.00008210,-0.00004100,0.00003005,0.00007
 244,0.00009265,-0.00000535,-0.00188257,0.00164166,0.00051354,0.0008691
 0,-0.00063148,0.00083784,0.08184269,-0.00003293,0.00002808,-0.00015857
 ,0.00001703,0.00009675,0.00015886,-0.00083874,0.00163438,-0.00031486,-
 0.00271523,0.00199120,-0.00274011,0.00001285,0.00002803,0.00004777,-0.
 00000167,-0.00004665,0.00004279,0.00005714,-0.00003048,0.00001242,0.00
 015751,0.00003700,-0.00022634,0.00004853,-0.00002119,0.00013189,0.0001
 5664,-0.00024148,-0.00016544,0.00596777,0.00609329,-0.00729183,-0.0049
 0366,-0.00264730,-0.00114788,-0.06788395,-0.10799699,0.10979625,-0.003
 07442,-0.00411365,0.01887553,0.00000129,0.00000019,-0.00000035,-0.0000
 2034,-0.00000079,-0.00003281,-0.00004795,0.00000162,-0.00002800,-0.000
 08736,0.00002090,-0.00001042,0.00154354,-0.00135460,0.00060909,-0.0004
 9875,0.00058866,0.00116190,0.07071174,0.10623232,0.00001475,0.00001511
 ,0.00022005,0.00000086,0.00001525,-0.00013654,0.00067432,0.00103028,0.
 00054849,-0.00114685,-0.00167106,-0.00498831,-0.00001148,-0.00005138,-
 0.00008390,0.00000252,0.00002804,-0.00007947,-0.00002508,-0.00006226,0
 .00006812,-0.00004048,0.00014424,0.00004033,-0.00004421,0.00005100,-0.
 00013657,0.00002735,-0.00013949,-0.00046906,0.01275219,0.01513538,-0.0
 1078251,-0.00116449,-0.00151703,0.00000124,0.09224397,0.10776511,-0.25
 017495,-0.00233168,-0.00270668,0.00698180,0.00000244,0.00000383,-0.000
 01680,-0.00000004,-0.00000813,-0.00003245,0.00002800,-0.00001302,0.000
 01662,0.00002433,0.00000224,0.00001496,-0.00032157,-0.00032542,0.00043
 669,-0.00000164,-0.00003016,0.00050013,-0.10107905,-0.11819287,0.25809
 451,0.00002999,-0.00002521,-0.00015727,-0.00002263,-0.00010318,0.00018
 371,0.00182007,-0.00079391,-0.00021075,0.00313451,-0.00291296,0.002774
 61,0.00000401,0.00004651,0.00003236,-0.00001064,-0.00002574,0.00003292
 ,-0.00018505,0.00009987,-0.00022959,-0.00007330,0.00004108,-0.00001261
 ,-0.00017003,0.00005050,0.00006854,-0.00011340,0.00007044,0.00008762,-
 0.00056962,-0.00452566,0.00045944,0.00384635,0.00569096,0.00533943,-0.
 00286949,-0.00226167,-0.01506593,-0.08503476,-0.06855302,-0.09340110,0
 .00002524,-0.00000310,-0.00000674,0.00000057,0.00000057,0.00000656,0.0
 0007244,0.00009265,0.00000535,0.00008210,-0.00004100,-0.00003005,0.000
 86910,-0.00063148,-0.00083784,-0.00188257,0.00164166,-0.00051354,-0.00
 079560,0.00143095,0.00039584,0.08184269,-0.00003293,0.00002808,0.00015
 857,0.00001703,0.00009675,-0.00015886,-0.00083874,0.00163438,0.0003148
 6,-0.00271523,0.00199120,0.00274011,-0.00000167,-0.00004665,-0.0000427
 9,0.00001285,0.00002803,-0.00004777,0.00015751,0.00003700,0.00022634,0
 .00005714,-0.00003048,-0.00001242,0.00015664,-0.00024148,0.00016544,0.
 00004853,-0.00002119,-0.00013189,-0.00490366,-0.00264730,0.00114788,0.
 00596777,0.00609329,0.00729183,-0.00307442,-0.00411365,-0.01887553,-0.
 06788395,-0.10799699,-0.10979625,-0.00002034,-0.00000079,0.00003281,0.
 00000129,0.00000019,0.00000035,-0.00008736,0.00002090,0.00001042,-0.00
 004795,0.00000162,0.00002800,-0.00049875,0.00058866,-0.00116190,0.0015
 4354,-0.00135460,-0.00060909,0.00143095,-0.00029930,0.00052702,0.07071
 174,0.10623232,-0.00001475,-0.00001511,0.00022005,-0.00000086,-0.00001
 525,-0.00013654,-0.00067432,-0.00103028,0.00054849,0.00114685,0.001671
 06,-0.00498831,-0.00000252,-0.00002804,-0.00007947,0.00001148,0.000051
 38,-0.00008390,0.00004048,-0.00014424,0.00004033,0.00002508,0.00006226
 ,0.00006812,-0.00002735,0.00013949,-0.00046906,0.00004421,-0.00005100,
 -0.00013657,0.00116449,0.00151703,0.00000124,-0.01275219,-0.01513538,-
 0.01078251,0.00233168,0.00270668,0.00698180,-0.09224397,-0.10776511,-0
 .25017495,0.00000004,0.00000813,-0.00003245,-0.00000244,-0.00000383,-0
 .00001680,-0.00002433,-0.00000224,0.00001496,-0.00002800,0.00001302,0.
 00001662,0.00000164,0.00003016,0.00050013,0.00032157,0.00032542,0.0004
 3669,-0.00039584,-0.00052702,-0.00002238,0.10107905,0.11819287,0.25809
 451\\0.,0.,-0.00012913,0.,0.,0.00013852,0.,0.,-0.00002902,0.,0.,-0.000
 01177,-0.00000049,0.00000439,0.00004249,0.00000049,-0.00000439,0.00004
 249,-0.00001275,-0.00003999,-0.00007637,0.00001275,0.00003999,-0.00007
 637,0.00000055,0.00006696,-0.00001151,-0.00000055,-0.00006696,-0.00001
 151,0.00003123,0.00006818,0.00001229,-0.00003123,-0.00006818,0.0000122
 9,0.00001480,0.00003372,0.00002798,-0.00001480,-0.00003372,0.00002798,
 0.00001028,0.00005395,0.00003158,-0.00001028,-0.00005395,0.00003158,0.
 00000302,-0.00002246,-0.00000224,-0.00000302,0.00002246,-0.00000224,-0
 .00000732,-0.00001339,0.00000160,0.00000732,0.00001339,0.00000160,0.00
 001831,0.00000875,-0.00001011,-0.00001831,-0.00000875,-0.00001011\\\@


 SEE YOU NOW,
 YOUR BAIT OF FALSEHOOD TAKES THIS CARP OF TRUTH.
 AND THUS DO WE OF WISDOM AND OF REACH...
 BY INDIRECTIONS FIND DIRECTIONS OUT.    -- HAMLET, II, 1
 Job cpu time:       0 days  0 hours 13 minutes 11.2 seconds.
 File lengths (MBytes):  RWF=    115 Int=      0 D2E=      0 Chk=      6 Scr=      1
 Normal termination of Gaussian 09 at Fri Aug 20 15:50:20 2021.
