 Entering Gaussian System, Link 0=g09
 Input=B3LYP6-31G.NTPYRO11.gjf
 Output=B3LYP6-31G.NTPYRO11.log
 Initial command:
 /public/home/users/caep010/software/Gaussian09/g09/l1.exe "/public/home/users/caep010/.cache/gau_scr/Gau-203785.inp" -scrdir="/public/home/users/caep010/.cache/gau_scr/"
 Entering Link 1 = /public/home/users/caep010/software/Gaussian09/g09/l1.exe PID=    203786.
  
 Copyright (c) 1988,1990,1992,1993,1995,1998,2003,2009,2015,
            Gaussian, Inc.  All Rights Reserved.
  
 This is part of the Gaussian(R) 09 program.  It is based on
 the Gaussian(R) 03 system (copyright 2003, Gaussian, Inc.),
 the Gaussian(R) 98 system (copyright 1998, Gaussian, Inc.),
 the Gaussian(R) 94 system (copyright 1995, Gaussian, Inc.),
 the Gaussian 92(TM) system (copyright 1992, Gaussian, Inc.),
 the Gaussian 90(TM) system (copyright 1990, Gaussian, Inc.),
 the Gaussian 88(TM) system (copyright 1988, Gaussian, Inc.),
 the Gaussian 86(TM) system (copyright 1986, Carnegie Mellon
 University), and the Gaussian 82(TM) system (copyright 1983,
 Carnegie Mellon University). Gaussian is a federally registered
 trademark of Gaussian, Inc.
  
 This software contains proprietary and confidential information,
 including trade secrets, belonging to Gaussian, Inc.
  
 This software is provided under written license and may be
 used, copied, transmitted, or stored only in accord with that
 written license.
  
 The following legend is applicable only to US Government
 contracts under FAR:
  
                    RESTRICTED RIGHTS LEGEND
  
 Use, reproduction and disclosure by the US Government is
 subject to restrictions as set forth in subparagraphs (a)
 and (c) of the Commercial Computer Software - Restricted
 Rights clause in FAR 52.227-19.
  
 Gaussian, Inc.
 340 Quinnipiac St., Bldg. 40, Wallingford CT 06492
  
  
 ---------------------------------------------------------------
 Warning -- This program may not be used in any manner that
 competes with the business of Gaussian, Inc. or will provide
 assistance to any competitor of Gaussian, Inc.  The licensee
 of this program is prohibited from giving any competitor of
 Gaussian, Inc. access to this program.  By using this program,
 the user acknowledges that Gaussian, Inc. is engaged in the
 business of creating and licensing software in the field of
 computational chemistry and represents and warrants to the
 licensee that it is not a competitor of Gaussian, Inc. and that
 it will not use this program in any manner prohibited above.
 ---------------------------------------------------------------
  

 Cite this work as:
 Gaussian 09, Revision E.01,
 M. J. Frisch, G. W. Trucks, H. B. Schlegel, G. E. Scuseria, 
 M. A. Robb, J. R. Cheeseman, G. Scalmani, V. Barone, B. Mennucci, 
 G. A. Petersson, H. Nakatsuji, M. Caricato, X. Li, H. P. Hratchian, 
 A. F. Izmaylov, J. Bloino, G. Zheng, J. L. Sonnenberg, M. Hada, 
 M. Ehara, K. Toyota, R. Fukuda, J. Hasegawa, M. Ishida, T. Nakajima, 
 Y. Honda, O. Kitao, H. Nakai, T. Vreven, J. A. Montgomery, Jr., 
 J. E. Peralta, F. Ogliaro, M. Bearpark, J. J. Heyd, E. Brothers, 
 K. N. Kudin, V. N. Staroverov, T. Keith, R. Kobayashi, J. Normand, 
 K. Raghavachari, A. Rendell, J. C. Burant, S. S. Iyengar, J. Tomasi, 
 M. Cossi, N. Rega, J. M. Millam, M. Klene, J. E. Knox, J. B. Cross, 
 V. Bakken, C. Adamo, J. Jaramillo, R. Gomperts, R. E. Stratmann, 
 O. Yazyev, A. J. Austin, R. Cammi, C. Pomelli, J. W. Ochterski, 
 R. L. Martin, K. Morokuma, V. G. Zakrzewski, G. A. Voth, 
 P. Salvador, J. J. Dannenberg, S. Dapprich, A. D. Daniels, 
 O. Farkas, J. B. Foresman, J. V. Ortiz, J. Cioslowski, 
 and D. J. Fox, Gaussian, Inc., Wallingford CT, 2013.
 
 ******************************************
 Gaussian 09:  ES64L-G09RevE.01 30-Nov-2015
                20-Aug-2021 
 ******************************************
 %nproc=32
 Will use up to   32 processors via shared memory.
 %mem=180GB
 -------------------------
 #P OPT Freq B3LYP/6-31G**
 -------------------------
 1/14=-1,18=20,19=15,26=3,38=1/1,3;
 2/9=110,12=2,17=6,18=5,40=1/2;
 3/5=1,6=6,7=101,11=2,16=1,25=1,30=1,71=1,74=-5/1,2,3;
 4//1;
 5/5=2,38=5/2;
 6/7=2,8=2,9=2,10=2,28=1/1;
 7//1,2,3,16;
 1/14=-1,18=20,19=15,26=3/3(2);
 2/9=110/2;
 99//99;
 2/9=110/2;
 3/5=1,6=6,7=101,11=2,16=1,25=1,30=1,71=1,74=-5/1,2,3;
 4/5=5,16=3,69=1/1;
 5/5=2,38=5/2;
 7//1,2,3,16;
 1/14=-1,18=20,19=15,26=3/3(-5);
 2/9=110/2;
 6/7=2,8=2,9=2,10=2,19=2,28=1/1;
 99/9=1/99;
 Leave Link    1 at Fri Aug 20 15:41:48 2021, MaxMem= 24159191040 cpu:         2.1
 (Enter /public/home/users/caep010/software/Gaussian09/g09/l101.exe)
 --------
 NTPYRO11
 --------
 Symbolic Z-matrix:
 Charge =  0 Multiplicity = 1
 C                     2.1025    1.5025   -3.8065 
 C                     2.9746    1.5025   -4.8405 
 C                     4.3316    1.5025   -4.5751 
 C                     4.7902    1.5025   -3.2741 
 C                     3.8793    1.5025   -2.2615 
 H                     4.0998    1.5025   -1.3965 
 N                     5.2789    1.5025   -5.6778 
 O                     6.473     1.5025   -5.4061 
 O                     4.8516    1.5025   -6.8255 
 H                     1.1503    1.5025   -3.9061 
 H                     5.7187    1.5025   -3.0632 
 H                     2.719     1.5025   -5.7197 
 N                     2.5436    1.5025   -2.5158 
 O                     1.7041    1.5025   -1.5261 
 
 NAtoms=     14 NQM=       14 NQMF=       0 NMMI=      0 NMMIF=      0
                NMic=       0 NMicF=      0.
                    Isotopes and Nuclear Properties:
 (Nuclear quadrupole moments (NQMom) in fm**2, nuclear magnetic moments (NMagM)
  in nuclear magnetons)

  Atom         1           2           3           4           5           6           7           8           9          10
 IAtWgt=          12          12          12          12          12           1          14          16          16           1
 AtmWgt=  12.0000000  12.0000000  12.0000000  12.0000000  12.0000000   1.0078250  14.0030740  15.9949146  15.9949146   1.0078250
 NucSpn=           0           0           0           0           0           1           2           0           0           1
 AtZEff=   0.0000000   0.0000000   0.0000000   0.0000000   0.0000000   0.0000000   0.0000000   0.0000000   0.0000000   0.0000000
 NQMom=    0.0000000   0.0000000   0.0000000   0.0000000   0.0000000   0.0000000   2.0440000   0.0000000   0.0000000   0.0000000
 NMagM=    0.0000000   0.0000000   0.0000000   0.0000000   0.0000000   2.7928460   0.4037610   0.0000000   0.0000000   2.7928460
 AtZNuc=   6.0000000   6.0000000   6.0000000   6.0000000   6.0000000   1.0000000   7.0000000   8.0000000   8.0000000   1.0000000

  Atom        11          12          13          14
 IAtWgt=           1           1          14          16
 AtmWgt=   1.0078250   1.0078250  14.0030740  15.9949146
 NucSpn=           1           1           2           0
 AtZEff=   0.0000000   0.0000000   0.0000000   0.0000000
 NQMom=    0.0000000   0.0000000   2.0440000   0.0000000
 NMagM=    2.7928460   2.7928460   0.4037610   0.0000000
 AtZNuc=   1.0000000   1.0000000   7.0000000   8.0000000
 Leave Link  101 at Fri Aug 20 15:41:48 2021, MaxMem= 24159191040 cpu:        10.1
 (Enter /public/home/users/caep010/software/Gaussian09/g09/l103.exe)

 GradGradGradGradGradGradGradGradGradGradGradGradGradGradGradGradGradGrad
 Berny optimization.
 Initialization pass.
                           ----------------------------
                           !    Initial Parameters    !
                           ! (Angstroms and Degrees)  !
 --------------------------                            --------------------------
 ! Name  Definition              Value          Derivative Info.                !
 --------------------------------------------------------------------------------
 ! R1    R(1,2)                  1.3527         estimate D2E/DX2                !
 ! R2    R(1,10)                 0.9574         estimate D2E/DX2                !
 ! R3    R(1,13)                 1.364          estimate D2E/DX2                !
 ! R4    R(2,3)                  1.3827         estimate D2E/DX2                !
 ! R5    R(2,12)                 0.9156         estimate D2E/DX2                !
 ! R6    R(3,4)                  1.3795         estimate D2E/DX2                !
 ! R7    R(3,7)                  1.4537         estimate D2E/DX2                !
 ! R8    R(4,5)                  1.362          estimate D2E/DX2                !
 ! R9    R(4,11)                 0.9522         estimate D2E/DX2                !
 ! R10   R(5,6)                  0.8927         estimate D2E/DX2                !
 ! R11   R(5,13)                 1.3597         estimate D2E/DX2                !
 ! R12   R(7,8)                  1.2246         estimate D2E/DX2                !
 ! R13   R(7,9)                  1.2247         estimate D2E/DX2                !
 ! R14   R(13,14)                1.2978         estimate D2E/DX2                !
 ! A1    A(2,1,10)             124.1737         estimate D2E/DX2                !
 ! A2    A(2,1,13)             120.9869         estimate D2E/DX2                !
 ! A3    A(10,1,13)            114.8394         estimate D2E/DX2                !
 ! A4    A(1,2,3)              119.0789         estimate D2E/DX2                !
 ! A5    A(1,2,12)             123.6448         estimate D2E/DX2                !
 ! A6    A(3,2,12)             117.2763         estimate D2E/DX2                !
 ! A7    A(2,3,4)              120.4836         estimate D2E/DX2                !
 ! A8    A(2,3,7)              119.5989         estimate D2E/DX2                !
 ! A9    A(4,3,7)              119.9176         estimate D2E/DX2                !
 ! A10   A(3,4,5)              118.6091         estimate D2E/DX2                !
 ! A11   A(3,4,11)             122.2145         estimate D2E/DX2                !
 ! A12   A(5,4,11)             119.1764         estimate D2E/DX2                !
 ! A13   A(4,5,6)              123.7257         estimate D2E/DX2                !
 ! A14   A(4,5,13)             121.1941         estimate D2E/DX2                !
 ! A15   A(6,5,13)             115.0803         estimate D2E/DX2                !
 ! A16   A(3,7,8)              117.8464         estimate D2E/DX2                !
 ! A17   A(3,7,9)              118.9142         estimate D2E/DX2                !
 ! A18   A(8,7,9)              123.2394         estimate D2E/DX2                !
 ! A19   A(1,13,5)             119.6474         estimate D2E/DX2                !
 ! A20   A(1,13,14)            120.8262         estimate D2E/DX2                !
 ! A21   A(5,13,14)            119.5265         estimate D2E/DX2                !
 ! D1    D(10,1,2,3)           180.0            estimate D2E/DX2                !
 ! D2    D(10,1,2,12)            0.0            estimate D2E/DX2                !
 ! D3    D(13,1,2,3)             0.0            estimate D2E/DX2                !
 ! D4    D(13,1,2,12)          180.0            estimate D2E/DX2                !
 ! D5    D(2,1,13,5)             0.0            estimate D2E/DX2                !
 ! D6    D(2,1,13,14)          180.0            estimate D2E/DX2                !
 ! D7    D(10,1,13,5)          180.0            estimate D2E/DX2                !
 ! D8    D(10,1,13,14)           0.0            estimate D2E/DX2                !
 ! D9    D(1,2,3,4)              0.0            estimate D2E/DX2                !
 ! D10   D(1,2,3,7)            180.0            estimate D2E/DX2                !
 ! D11   D(12,2,3,4)           180.0            estimate D2E/DX2                !
 ! D12   D(12,2,3,7)             0.0            estimate D2E/DX2                !
 ! D13   D(2,3,4,5)              0.0            estimate D2E/DX2                !
 ! D14   D(2,3,4,11)           180.0            estimate D2E/DX2                !
 ! D15   D(7,3,4,5)            180.0            estimate D2E/DX2                !
 ! D16   D(7,3,4,11)             0.0            estimate D2E/DX2                !
 ! D17   D(2,3,7,8)            180.0            estimate D2E/DX2                !
 ! D18   D(2,3,7,9)              0.0            estimate D2E/DX2                !
 ! D19   D(4,3,7,8)              0.0            estimate D2E/DX2                !
 ! D20   D(4,3,7,9)            180.0            estimate D2E/DX2                !
 ! D21   D(3,4,5,6)            180.0            estimate D2E/DX2                !
 ! D22   D(3,4,5,13)             0.0            estimate D2E/DX2                !
 ! D23   D(11,4,5,6)             0.0            estimate D2E/DX2                !
 ! D24   D(11,4,5,13)          180.0            estimate D2E/DX2                !
 ! D25   D(4,5,13,1)             0.0            estimate D2E/DX2                !
 ! D26   D(4,5,13,14)          180.0            estimate D2E/DX2                !
 ! D27   D(6,5,13,1)           180.0            estimate D2E/DX2                !
 ! D28   D(6,5,13,14)            0.0            estimate D2E/DX2                !
 --------------------------------------------------------------------------------
 Trust Radius=3.00D-01 FncErr=1.00D-07 GrdErr=1.00D-06
 Number of steps in this run=     73 maximum allowed number of steps=    100.
 GradGradGradGradGradGradGradGradGradGradGradGradGradGradGradGradGradGrad

 Leave Link  103 at Fri Aug 20 15:41:48 2021, MaxMem= 24159191040 cpu:         0.4
 (Enter /public/home/users/caep010/software/Gaussian09/g09/l202.exe)
                          Input orientation:                          
 ---------------------------------------------------------------------
 Center     Atomic      Atomic             Coordinates (Angstroms)
 Number     Number       Type             X           Y           Z
 ---------------------------------------------------------------------
      1          6           0        2.102500    1.502500   -3.806500
      2          6           0        2.974600    1.502500   -4.840500
      3          6           0        4.331600    1.502500   -4.575100
      4          6           0        4.790200    1.502500   -3.274100
      5          6           0        3.879300    1.502500   -2.261500
      6          1           0        4.099800    1.502500   -1.396500
      7          7           0        5.278900    1.502500   -5.677800
      8          8           0        6.473000    1.502500   -5.406100
      9          8           0        4.851600    1.502500   -6.825500
     10          1           0        1.150300    1.502500   -3.906100
     11          1           0        5.718700    1.502500   -3.063200
     12          1           0        2.719000    1.502500   -5.719700
     13          7           0        2.543600    1.502500   -2.515800
     14          8           0        1.704100    1.502500   -1.526100
 ---------------------------------------------------------------------
                    Distance matrix (angstroms):
                    1          2          3          4          5
     1  C    0.000000
     2  C    1.352669   0.000000
     3  C    2.357887   1.382710   0.000000
     4  C    2.739924   2.397918   1.379462   0.000000
     5  C    2.354579   2.733079   2.357397   1.362020   0.000000
     6  H    3.130065   3.623149   3.187041   2.000508   0.892662
     7  N    3.686635   2.451708   1.453728   2.452876   3.691881
     8  O    4.654029   3.543826   2.296988   2.716107   4.076247
     9  O    4.083125   2.731914   2.309697   3.551931   4.666419
    10  H    0.957395   2.049677   3.250882   3.694360   3.186244
    11  H    3.691801   3.269385   2.051801   0.952151   2.006518
    12  H    2.010076   0.915600   1.977521   3.204813   3.647663
    13  N    1.363993   2.364316   2.727207   2.371124   1.359692
    14  O    2.314940   3.549566   4.024942   3.546762   2.296151
                    6          7          8          9         10
     6  H    0.000000
     7  N    4.440699   0.000000
     8  O    4.659289   1.224621   0.000000
     9  O    5.480807   1.224663   2.154909   0.000000
    10  H    3.872679   4.492689   5.530021   4.714077   0.000000
    11  H    2.323516   2.651331   2.461331   3.860928   4.645510
    12  H    4.538355   2.560243   3.767076   2.402244   2.397908
    13  N    1.916922   4.180922   4.877911   4.888801   1.968304
    14  O    2.399203   5.478668   6.147911   6.163635   2.443582
                   11         12         13         14
    11  H    0.000000
    12  H    4.006893   0.000000
    13  N    3.221941   3.208698   0.000000
    14  O    4.298801   4.314661   1.297793   0.000000
 Stoichiometry    C5H4N2O3
 Framework group  CS[SG(C5H4N2O3)]
 Deg. of freedom    25
 Full point group                 CS      NOp   2
 Largest Abelian subgroup         CS      NOp   2
 Largest concise Abelian subgroup C1      NOp   1
                         Standard orientation:                         
 ---------------------------------------------------------------------
 Center     Atomic      Atomic             Coordinates (Angstroms)
 Number     Number       Type             X           Y           Z
 ---------------------------------------------------------------------
      1          6           0        1.178265   -1.391730   -0.000000
      2          6           0        1.198323   -0.039209   -0.000000
      3          6           0       -0.000000    0.650652   -0.000000
      4          6           0       -1.199580   -0.030467    0.000000
      5          6           0       -1.176314   -1.392288    0.000000
      6          1           0       -1.910171   -1.900519    0.000000
      7          7           0        0.008365    2.104356   -0.000000
      8          8           0       -1.071138    2.682602    0.000000
      9          8           0        1.083757    2.690302   -0.000000
     10          1           0        1.962294   -1.941187   -0.000000
     11          1           0       -2.038732    0.419438    0.000000
     12          1           0        1.967988    0.456714   -0.000000
     13          7           0       -0.001349   -2.076555    0.000000
     14          8           0       -0.016952   -3.374254    0.000000
 ---------------------------------------------------------------------
 Rotational constants (GHZ):      4.1921896      0.8497201      0.7065156
 Leave Link  202 at Fri Aug 20 15:41:49 2021, MaxMem= 24159191040 cpu:         1.6
 (Enter /public/home/users/caep010/software/Gaussian09/g09/l301.exe)
 Standard basis: 6-31G(d,p) (6D, 7F)
 Ernie: Thresh=  0.10000D-02 Tol=  0.10000D-05 Strict=F.
 There are   126 symmetry adapted cartesian basis functions of A'  symmetry.
 There are    44 symmetry adapted cartesian basis functions of A"  symmetry.
 There are   126 symmetry adapted basis functions of A'  symmetry.
 There are    44 symmetry adapted basis functions of A"  symmetry.
   170 basis functions,   308 primitive gaussians,   170 cartesian basis functions
    36 alpha electrons       36 beta electrons
       nuclear repulsion energy       508.1590627202 Hartrees.
 IExCor=  402 DFT=T Ex+Corr=B3LYP ExCW=0 ScaHFX=  0.200000
 ScaDFX=  0.800000  0.720000  1.000000  0.810000 ScalE2=  1.000000  1.000000
 IRadAn=      0 IRanWt=     -1 IRanGd=            0 ICorTp=0 IEmpDi=  4
 NAtoms=   14 NActive=   14 NUniq=   14 SFac= 1.00D+00 NAtFMM=   60 NAOKFM=F Big=F
 Integral buffers will be    131072 words long.
 Raffenetti 2 integral format.
 Two-electron integral symmetry is turned on.
 Leave Link  301 at Fri Aug 20 15:41:49 2021, MaxMem= 24159191040 cpu:         2.3
 (Enter /public/home/users/caep010/software/Gaussian09/g09/l302.exe)
 NPDir=0 NMtPBC=     1 NCelOv=     1 NCel=       1 NClECP=     1 NCelD=      1
         NCelK=      1 NCelE2=     1 NClLst=     1 CellRange=     0.0.
 One-electron integrals computed using PRISM.
 NBasis=   170 RedAO= T EigKep=  8.08D-04  NBF=   126    44
 NBsUse=   170 1.00D-06 EigRej= -1.00D+00 NBFU=   126    44
 Precomputing XC quadrature grid using
 IXCGrd= 4 IRadAn=           0 IRanWt=          -1 IRanGd=           0 AccXCQ= 0.00D+00.
 Generated NRdTot=       0 NPtTot=           0 NUsed=           0 NTot=          32
 NSgBfM=   169   169   169   169   169 MxSgAt=    14 MxSgA2=    14.
 Leave Link  302 at Fri Aug 20 15:41:49 2021, MaxMem= 24159191040 cpu:        11.8
 (Enter /public/home/users/caep010/software/Gaussian09/g09/l303.exe)
 DipDrv:  MaxL=1.
 Leave Link  303 at Fri Aug 20 15:41:49 2021, MaxMem= 24159191040 cpu:         1.1
 (Enter /public/home/users/caep010/software/Gaussian09/g09/l401.exe)
 ExpMin= 1.61D-01 ExpMax= 5.48D+03 ExpMxC= 8.25D+02 IAcc=1 IRadAn=         1 AccDes= 0.00D+00
 Harris functional with IExCor=  402 and IRadAn=       1 diagonalized for initial guess.
 HarFok:  IExCor=  402 AccDes= 0.00D+00 IRadAn=         1 IDoV= 1 UseB2=F ITyADJ=14
 ICtDFT=  3500011 ScaDFX=  1.000000  1.000000  1.000000  1.000000
 FoFCou: FMM=F IPFlag=           0 FMFlag=      100000 FMFlg1=           0
         NFxFlg=           0 DoJE=T BraDBF=F KetDBF=T FulRan=T
         wScrn=  0.000000 ICntrl=     500 IOpCl=  0 I1Cent=   200000004 NGrid=           0
         NMat0=    1 NMatS0=      1 NMatT0=    0 NMatD0=    1 NMtDS0=    0 NMtDT0=    0
 Petite list used in FoFCou.
 Harris En= -527.934468729635    
 JPrj=0 DoOrth=F DoCkMO=F.
 Initial guess orbital symmetries:
       Occupied  (A') (A') (A') (A') (A') (A') (A') (A') (A') (A')
                 (A') (A') (A') (A') (A') (A') (A') (A') (A') (A')
                 (A') (A') (A') (A') (A') (A") (A') (A') (A") (A")
                 (A") (A") (A') (A') (A') (A")
       Virtual   (A") (A") (A") (A") (A') (A') (A') (A') (A') (A')
                 (A') (A') (A') (A') (A') (A') (A') (A') (A") (A')
                 (A') (A') (A') (A") (A') (A") (A') (A") (A') (A")
                 (A') (A') (A') (A") (A') (A') (A') (A") (A') (A')
                 (A') (A") (A") (A') (A') (A') (A") (A') (A') (A')
                 (A') (A') (A') (A") (A') (A") (A') (A") (A") (A")
                 (A') (A") (A') (A") (A') (A') (A') (A') (A') (A")
                 (A') (A") (A') (A") (A') (A') (A") (A') (A') (A")
                 (A") (A') (A') (A') (A') (A') (A') (A") (A') (A')
                 (A') (A") (A") (A') (A") (A') (A') (A') (A") (A")
                 (A') (A') (A') (A") (A") (A') (A") (A') (A") (A')
                 (A') (A") (A') (A') (A') (A') (A') (A') (A') (A')
                 (A') (A') (A') (A') (A') (A') (A') (A') (A') (A')
                 (A') (A') (A') (A')
 The electronic state of the initial guess is 1-A'.
 Leave Link  401 at Fri Aug 20 15:41:50 2021, MaxMem= 24159191040 cpu:        12.3
 (Enter /public/home/users/caep010/software/Gaussian09/g09/l502.exe)
 Closed shell SCF:
 Using DIIS extrapolation, IDIIS=  1040.
 Integral symmetry usage will be decided dynamically.
 Keep R1 ints in memory in symmetry-blocked form, NReq=161578122.
 IVT=      112016 IEndB=      112016 NGot= 24159191040 MDV= 24103253469
 LenX= 24103253469 LenY= 24103224128
 Requested convergence on RMS density matrix=1.00D-08 within 128 cycles.
 Requested convergence on MAX density matrix=1.00D-06.
 Requested convergence on             energy=1.00D-06.
 No special actions if energy rises.
 FoFCou: FMM=F IPFlag=           0 FMFlag=           0 FMFlg1=           0
         NFxFlg=           0 DoJE=F BraDBF=F KetDBF=F FulRan=T
         wScrn=  0.000000 ICntrl=     600 IOpCl=  0 I1Cent=           0 NGrid=           0
         NMat0=    1 NMatS0=  14535 NMatT0=    0 NMatD0=    1 NMtDS0=    0 NMtDT0=    0
 Petite list used in FoFCou.
 Integral accuracy reduced to 1.0D-05 until final iterations.

 Cycle   1  Pass 0  IDiag  1:
 E= -527.531364911297    
 DIIS: error= 5.41D-02 at cycle   1 NSaved=   1.
 NSaved= 1 IEnMin= 1 EnMin= -527.531364911297     IErMin= 1 ErrMin= 5.41D-02
 ErrMax= 5.41D-02  0.00D+00 EMaxC= 1.00D-01 BMatC= 4.22D-01 BMatP= 4.22D-01
 IDIUse=3 WtCom= 4.59D-01 WtEn= 5.41D-01
 Coeff-Com:  0.100D+01
 Coeff-En:   0.100D+01
 Coeff:      0.100D+01
 Gap=     0.063 Goal=   None    Shift=    0.000
 GapD=    0.063 DampG=0.500 DampE=0.500 DampFc=0.2500 IDamp=-1.
 Damping current iteration by 2.50D-01
 RMSDP=8.18D-03 MaxDP=2.57D-01              OVMax= 3.49D-01

 Cycle   2  Pass 0  IDiag  1:
 E= -527.646368775275     Delta-E=       -0.115003863979 Rises=F Damp=T
 DIIS: error= 2.24D-02 at cycle   2 NSaved=   2.
 NSaved= 2 IEnMin= 2 EnMin= -527.646368775275     IErMin= 2 ErrMin= 2.24D-02
 ErrMax= 2.24D-02  0.00D+00 EMaxC= 1.00D-01 BMatC= 6.61D-02 BMatP= 4.22D-01
 IDIUse=3 WtCom= 7.76D-01 WtEn= 2.24D-01
 Coeff-Com: -0.407D+00 0.141D+01
 Coeff-En:   0.000D+00 0.100D+01
 Coeff:     -0.316D+00 0.132D+01
 Gap=     0.134 Goal=   None    Shift=    0.000
 RMSDP=2.73D-03 MaxDP=5.87D-02 DE=-1.15D-01 OVMax= 3.70D-01

 Cycle   3  Pass 0  IDiag  1:
 E= -527.797358697341     Delta-E=       -0.150989922065 Rises=F Damp=F
 DIIS: error= 2.74D-02 at cycle   3 NSaved=   3.
 NSaved= 3 IEnMin= 3 EnMin= -527.797358697341     IErMin= 2 ErrMin= 2.24D-02
 ErrMax= 2.74D-02  0.00D+00 EMaxC= 1.00D-01 BMatC= 6.14D-02 BMatP= 6.61D-02
 IDIUse=3 WtCom= 7.26D-01 WtEn= 2.74D-01
 Coeff-Com: -0.248D+00 0.840D+00 0.408D+00
 Coeff-En:   0.000D+00 0.000D+00 0.100D+01
 Coeff:     -0.180D+00 0.610D+00 0.570D+00
 Gap=     0.114 Goal=   None    Shift=    0.000
 RMSDP=3.38D-03 MaxDP=1.47D-01 DE=-1.51D-01 OVMax= 3.58D-01

 Cycle   4  Pass 0  IDiag  1:
 E= -527.769845635421     Delta-E=        0.027513061920 Rises=F Damp=F
 DIIS: error= 3.37D-02 at cycle   4 NSaved=   4.
 NSaved= 4 IEnMin= 3 EnMin= -527.797358697341     IErMin= 2 ErrMin= 2.24D-02
 ErrMax= 3.37D-02  0.00D+00 EMaxC= 1.00D-01 BMatC= 9.02D-02 BMatP= 6.14D-02
 IDIUse=2 WtCom= 0.00D+00 WtEn= 1.00D+00
 Coeff-En:   0.000D+00 0.000D+00 0.563D+00 0.437D+00
 Coeff:      0.000D+00 0.000D+00 0.563D+00 0.437D+00
 Gap=     0.139 Goal=   None    Shift=    0.000
 RMSDP=2.02D-03 MaxDP=9.59D-02 DE= 2.75D-02 OVMax= 2.20D-01

 Cycle   5  Pass 0  IDiag  1:
 E= -527.858750323005     Delta-E=       -0.088904687584 Rises=F Damp=F
 DIIS: error= 3.88D-03 at cycle   5 NSaved=   5.
 NSaved= 5 IEnMin= 5 EnMin= -527.858750323005     IErMin= 5 ErrMin= 3.88D-03
 ErrMax= 3.88D-03  0.00D+00 EMaxC= 1.00D-01 BMatC= 2.25D-03 BMatP= 6.14D-02
 IDIUse=3 WtCom= 9.61D-01 WtEn= 3.88D-02
 Coeff-Com: -0.289D-01 0.595D-01 0.228D+00 0.178D+00 0.563D+00
 Coeff-En:   0.000D+00 0.000D+00 0.000D+00 0.000D+00 0.100D+01
 Coeff:     -0.278D-01 0.572D-01 0.220D+00 0.171D+00 0.580D+00
 Gap=     0.136 Goal=   None    Shift=    0.000
 RMSDP=3.60D-04 MaxDP=7.32D-03 DE=-8.89D-02 OVMax= 2.00D-02

 Cycle   6  Pass 0  IDiag  1:
 E= -527.860677444365     Delta-E=       -0.001927121359 Rises=F Damp=F
 DIIS: error= 9.48D-04 at cycle   6 NSaved=   6.
 NSaved= 6 IEnMin= 6 EnMin= -527.860677444365     IErMin= 6 ErrMin= 9.48D-04
 ErrMax= 9.48D-04  0.00D+00 EMaxC= 1.00D-01 BMatC= 2.16D-04 BMatP= 2.25D-03
 IDIUse=3 WtCom= 9.91D-01 WtEn= 9.48D-03
 Coeff-Com: -0.173D-01 0.145D-01 0.361D-01 0.309D-01 0.292D+00 0.644D+00
 Coeff-En:   0.000D+00 0.000D+00 0.000D+00 0.000D+00 0.000D+00 0.100D+01
 Coeff:     -0.171D-01 0.143D-01 0.357D-01 0.306D-01 0.289D+00 0.647D+00
 Gap=     0.139 Goal=   None    Shift=    0.000
 RMSDP=1.04D-04 MaxDP=3.28D-03 DE=-1.93D-03 OVMax= 6.22D-03

 Cycle   7  Pass 0  IDiag  1:
 E= -527.860843669560     Delta-E=       -0.000166225196 Rises=F Damp=F
 DIIS: error= 4.21D-04 at cycle   7 NSaved=   7.
 NSaved= 7 IEnMin= 7 EnMin= -527.860843669560     IErMin= 7 ErrMin= 4.21D-04
 ErrMax= 4.21D-04  0.00D+00 EMaxC= 1.00D-01 BMatC= 2.67D-05 BMatP= 2.16D-04
 IDIUse=3 WtCom= 9.96D-01 WtEn= 4.21D-03
 Coeff-Com: -0.988D-02 0.989D-02 0.361D-02 0.266D-02 0.111D+00 0.351D+00
 Coeff-Com:  0.531D+00
 Coeff-En:   0.000D+00 0.000D+00 0.000D+00 0.000D+00 0.000D+00 0.000D+00
 Coeff-En:   0.100D+01
 Coeff:     -0.984D-02 0.985D-02 0.359D-02 0.265D-02 0.111D+00 0.350D+00
 Coeff:      0.533D+00
 Gap=     0.139 Goal=   None    Shift=    0.000
 RMSDP=3.63D-05 MaxDP=1.56D-03 DE=-1.66D-04 OVMax= 2.24D-03

 Cycle   8  Pass 0  IDiag  1:
 E= -527.860857264303     Delta-E=       -0.000013594743 Rises=F Damp=F
 DIIS: error= 4.52D-04 at cycle   8 NSaved=   8.
 NSaved= 8 IEnMin= 8 EnMin= -527.860857264303     IErMin= 7 ErrMin= 4.21D-04
 ErrMax= 4.52D-04  0.00D+00 EMaxC= 1.00D-01 BMatC= 9.55D-06 BMatP= 2.67D-05
 IDIUse=3 WtCom= 9.96D-01 WtEn= 4.21D-03
 Coeff-Com: -0.609D-02 0.662D-02-0.740D-03-0.103D-02 0.558D-01 0.202D+00
 Coeff-Com:  0.398D+00 0.345D+00
 Coeff-En:   0.000D+00 0.000D+00 0.000D+00 0.000D+00 0.000D+00 0.000D+00
 Coeff-En:   0.264D+00 0.736D+00
 Coeff:     -0.607D-02 0.659D-02-0.737D-03-0.103D-02 0.556D-01 0.201D+00
 Coeff:      0.397D+00 0.347D+00
 Gap=     0.139 Goal=   None    Shift=    0.000
 RMSDP=1.79D-05 MaxDP=8.42D-04 DE=-1.36D-05 OVMax= 1.45D-03

 Cycle   9  Pass 0  IDiag  1:
 E= -527.860864531611     Delta-E=       -0.000007267308 Rises=F Damp=F
 DIIS: error= 1.13D-04 at cycle   9 NSaved=   9.
 NSaved= 9 IEnMin= 9 EnMin= -527.860864531611     IErMin= 9 ErrMin= 1.13D-04
 ErrMax= 1.13D-04  0.00D+00 EMaxC= 1.00D-01 BMatC= 6.55D-07 BMatP= 9.55D-06
 IDIUse=3 WtCom= 9.99D-01 WtEn= 1.13D-03
 Coeff-Com: -0.215D-02 0.256D-02-0.105D-02-0.107D-02 0.146D-01 0.610D-01
 Coeff-Com:  0.142D+00 0.226D+00 0.557D+00
 Coeff-En:   0.000D+00 0.000D+00 0.000D+00 0.000D+00 0.000D+00 0.000D+00
 Coeff-En:   0.000D+00 0.678D-01 0.932D+00
 Coeff:     -0.214D-02 0.255D-02-0.105D-02-0.107D-02 0.146D-01 0.609D-01
 Coeff:      0.142D+00 0.226D+00 0.558D+00
 Gap=     0.139 Goal=   None    Shift=    0.000
 RMSDP=5.03D-06 MaxDP=2.08D-04 DE=-7.27D-06 OVMax= 3.41D-04

 Initial convergence to 1.0D-05 achieved.  Increase integral accuracy.
 Cycle  10  Pass 1  IDiag  1:
 E= -527.860859390940     Delta-E=        0.000005140671 Rises=F Damp=F
 DIIS: error= 3.70D-05 at cycle   1 NSaved=   1.
 NSaved= 1 IEnMin= 1 EnMin= -527.860859390940     IErMin= 1 ErrMin= 3.70D-05
 ErrMax= 3.70D-05  0.00D+00 EMaxC= 1.00D-01 BMatC= 2.51D-07 BMatP= 2.51D-07
 IDIUse=1 WtCom= 1.00D+00 WtEn= 0.00D+00
 Coeff-Com:  0.100D+01
 Coeff:      0.100D+01
 Gap=     0.139 Goal=   None    Shift=    0.000
 RMSDP=5.03D-06 MaxDP=2.08D-04 DE= 5.14D-06 OVMax= 2.52D-04

 Cycle  11  Pass 1  IDiag  1:
 E= -527.860859130523     Delta-E=        0.000000260417 Rises=F Damp=F
 DIIS: error= 5.89D-05 at cycle   2 NSaved=   2.
 NSaved= 2 IEnMin= 1 EnMin= -527.860859390940     IErMin= 1 ErrMin= 3.70D-05
 ErrMax= 5.89D-05  0.00D+00 EMaxC= 1.00D-01 BMatC= 6.00D-07 BMatP= 2.51D-07
 IDIUse=1 WtCom= 1.00D+00 WtEn= 0.00D+00
 Coeff-Com:  0.625D+00 0.375D+00
 Coeff:      0.625D+00 0.375D+00
 Gap=     0.139 Goal=   None    Shift=    0.000
 RMSDP=4.67D-06 MaxDP=1.47D-04 DE= 2.60D-07 OVMax= 2.57D-04

 Cycle  12  Pass 1  IDiag  1:
 E= -527.860859588606     Delta-E=       -0.000000458083 Rises=F Damp=F
 DIIS: error= 3.19D-05 at cycle   3 NSaved=   3.
 NSaved= 3 IEnMin= 3 EnMin= -527.860859588606     IErMin= 3 ErrMin= 3.19D-05
 ErrMax= 3.19D-05  0.00D+00 EMaxC= 1.00D-01 BMatC= 5.50D-08 BMatP= 2.51D-07
 IDIUse=1 WtCom= 1.00D+00 WtEn= 0.00D+00
 Coeff-Com:  0.142D+00 0.230D+00 0.628D+00
 Coeff:      0.142D+00 0.230D+00 0.628D+00
 Gap=     0.139 Goal=   None    Shift=    0.000
 RMSDP=1.90D-06 MaxDP=9.38D-05 DE=-4.58D-07 OVMax= 1.53D-04

 Cycle  13  Pass 1  IDiag  1:
 E= -527.860859599531     Delta-E=       -0.000000010925 Rises=F Damp=F
 DIIS: error= 2.85D-05 at cycle   4 NSaved=   4.
 NSaved= 4 IEnMin= 4 EnMin= -527.860859599531     IErMin= 4 ErrMin= 2.85D-05
 ErrMax= 2.85D-05  0.00D+00 EMaxC= 1.00D-01 BMatC= 4.24D-08 BMatP= 5.50D-08
 IDIUse=1 WtCom= 1.00D+00 WtEn= 0.00D+00
 Coeff-Com: -0.553D-02 0.119D+00 0.524D+00 0.362D+00
 Coeff:     -0.553D-02 0.119D+00 0.524D+00 0.362D+00
 Gap=     0.139 Goal=   None    Shift=    0.000
 RMSDP=1.05D-06 MaxDP=4.29D-05 DE=-1.09D-08 OVMax= 7.89D-05

 Cycle  14  Pass 1  IDiag  1:
 E= -527.860859632770     Delta-E=       -0.000000033239 Rises=F Damp=F
 DIIS: error= 2.24D-06 at cycle   5 NSaved=   5.
 NSaved= 5 IEnMin= 5 EnMin= -527.860859632770     IErMin= 5 ErrMin= 2.24D-06
 ErrMax= 2.24D-06  0.00D+00 EMaxC= 1.00D-01 BMatC= 1.00D-09 BMatP= 4.24D-08
 IDIUse=1 WtCom= 1.00D+00 WtEn= 0.00D+00
 Coeff-Com: -0.110D-01 0.602D-01 0.288D+00 0.224D+00 0.439D+00
 Coeff:     -0.110D-01 0.602D-01 0.288D+00 0.224D+00 0.439D+00
 Gap=     0.139 Goal=   None    Shift=    0.000
 RMSDP=1.97D-07 MaxDP=6.79D-06 DE=-3.32D-08 OVMax= 8.87D-06

 Cycle  15  Pass 1  IDiag  1:
 E= -527.860859633625     Delta-E=       -0.000000000855 Rises=F Damp=F
 DIIS: error= 2.48D-07 at cycle   6 NSaved=   6.
 NSaved= 6 IEnMin= 6 EnMin= -527.860859633625     IErMin= 6 ErrMin= 2.48D-07
 ErrMax= 2.48D-07  0.00D+00 EMaxC= 1.00D-01 BMatC= 1.52D-11 BMatP= 1.00D-09
 IDIUse=1 WtCom= 1.00D+00 WtEn= 0.00D+00
 Coeff-Com: -0.389D-02 0.190D-01 0.932D-01 0.751D-01 0.187D+00 0.630D+00
 Coeff:     -0.389D-02 0.190D-01 0.932D-01 0.751D-01 0.187D+00 0.630D+00
 Gap=     0.139 Goal=   None    Shift=    0.000
 RMSDP=3.37D-08 MaxDP=9.19D-07 DE=-8.55D-10 OVMax= 9.58D-07

 Cycle  16  Pass 1  IDiag  1:
 E= -527.860859633642     Delta-E=       -0.000000000018 Rises=F Damp=F
 DIIS: error= 1.50D-07 at cycle   7 NSaved=   7.
 NSaved= 7 IEnMin= 7 EnMin= -527.860859633642     IErMin= 7 ErrMin= 1.50D-07
 ErrMax= 1.50D-07  0.00D+00 EMaxC= 1.00D-01 BMatC= 3.02D-12 BMatP= 1.52D-11
 IDIUse=1 WtCom= 1.00D+00 WtEn= 0.00D+00
 Coeff-Com: -0.123D-02 0.515D-02 0.262D-01 0.217D-01 0.651D-01 0.353D+00
 Coeff-Com:  0.530D+00
 Coeff:     -0.123D-02 0.515D-02 0.262D-01 0.217D-01 0.651D-01 0.353D+00
 Coeff:      0.530D+00
 Gap=     0.139 Goal=   None    Shift=    0.000
 RMSDP=9.86D-09 MaxDP=4.04D-07 DE=-1.77D-11 OVMax= 5.21D-07

 SCF Done:  E(RB3LYP) =  -527.860859634     A.U. after   16 cycles
            NFock= 16  Conv=0.99D-08     -V/T= 2.0062
 KE= 5.246332601782D+02 PE=-2.249864843603D+03 EE= 6.892116610710D+02
 Leave Link  502 at Fri Aug 20 15:41:53 2021, MaxMem= 24159191040 cpu:        57.2
 (Enter /public/home/users/caep010/software/Gaussian09/g09/l601.exe)
 Copying SCF densities to generalized density rwf, IOpCl= 0 IROHF=0.

 **********************************************************************

            Population analysis using the SCF density.

 **********************************************************************

 Orbital symmetries:
       Occupied  (A') (A') (A') (A') (A') (A') (A') (A') (A') (A')
                 (A') (A') (A') (A') (A') (A') (A') (A') (A') (A')
                 (A') (A') (A") (A') (A') (A') (A") (A') (A') (A")
                 (A") (A') (A") (A') (A') (A")
       Virtual   (A") (A") (A") (A') (A") (A') (A') (A') (A') (A')
                 (A') (A') (A') (A') (A') (A') (A') (A') (A") (A')
                 (A') (A') (A") (A') (A") (A') (A') (A") (A') (A")
                 (A') (A") (A') (A') (A") (A') (A') (A') (A') (A')
                 (A') (A") (A') (A') (A") (A') (A") (A') (A') (A')
                 (A') (A') (A') (A") (A') (A") (A') (A") (A") (A')
                 (A") (A") (A') (A") (A') (A') (A') (A') (A') (A")
                 (A') (A') (A") (A") (A') (A') (A") (A') (A') (A")
                 (A") (A') (A') (A') (A') (A') (A') (A") (A') (A')
                 (A') (A") (A") (A') (A") (A') (A') (A') (A") (A")
                 (A') (A') (A") (A') (A") (A') (A") (A') (A") (A')
                 (A') (A") (A') (A') (A') (A') (A') (A') (A') (A')
                 (A') (A') (A') (A') (A') (A') (A') (A') (A') (A')
                 (A') (A') (A') (A')
 The electronic state is 1-A'.
 Alpha  occ. eigenvalues --  -19.19190 -19.19098 -19.15428 -14.58625 -14.51538
 Alpha  occ. eigenvalues --  -10.27501 -10.25858 -10.25210 -10.23927 -10.23572
 Alpha  occ. eigenvalues --   -1.24410  -1.13150  -1.06586  -0.94651  -0.86389
 Alpha  occ. eigenvalues --   -0.84621  -0.75284  -0.72650  -0.66195  -0.58614
 Alpha  occ. eigenvalues --   -0.56939  -0.55728  -0.55060  -0.52272  -0.51627
 Alpha  occ. eigenvalues --   -0.51498  -0.50221  -0.45391  -0.44087  -0.38105
 Alpha  occ. eigenvalues --   -0.32714  -0.32420  -0.31762  -0.30281  -0.27699
 Alpha  occ. eigenvalues --   -0.25101
 Alpha virt. eigenvalues --   -0.11222  -0.05810  -0.03475   0.09996   0.10432
 Alpha virt. eigenvalues --    0.14634   0.14890   0.16578   0.18056   0.19787
 Alpha virt. eigenvalues --    0.22530   0.23081   0.26892   0.27887   0.32467
 Alpha virt. eigenvalues --    0.37315   0.40238   0.44606   0.46436   0.47522
 Alpha virt. eigenvalues --    0.51014   0.52308   0.53848   0.54393   0.54465
 Alpha virt. eigenvalues --    0.57249   0.57595   0.61123   0.65223   0.65913
 Alpha virt. eigenvalues --    0.69002   0.73627   0.75536   0.77482   0.81427
 Alpha virt. eigenvalues --    0.81496   0.82032   0.86671   0.86728   0.91905
 Alpha virt. eigenvalues --    0.92396   0.93705   0.95181   0.96436   0.96445
 Alpha virt. eigenvalues --    0.96811   0.99295   1.01653   1.06605   1.07933
 Alpha virt. eigenvalues --    1.08191   1.15118   1.15765   1.17334   1.23327
 Alpha virt. eigenvalues --    1.23618   1.24198   1.29369   1.32808   1.33681
 Alpha virt. eigenvalues --    1.34174   1.36806   1.39723   1.40367   1.44591
 Alpha virt. eigenvalues --    1.50701   1.55551   1.65176   1.67490   1.67966
 Alpha virt. eigenvalues --    1.75024   1.75699   1.79508   1.80397   1.82604
 Alpha virt. eigenvalues --    1.84636   1.86267   1.89066   1.91030   1.93094
 Alpha virt. eigenvalues --    1.93731   1.96449   1.99118   2.01284   2.04544
 Alpha virt. eigenvalues --    2.06500   2.09332   2.10245   2.13434   2.15323
 Alpha virt. eigenvalues --    2.19954   2.25359   2.25775   2.37031   2.39638
 Alpha virt. eigenvalues --    2.40617   2.42404   2.43281   2.45089   2.49796
 Alpha virt. eigenvalues --    2.53154   2.55756   2.58860   2.60069   2.61535
 Alpha virt. eigenvalues --    2.67781   2.70832   2.75345   2.76285   2.84658
 Alpha virt. eigenvalues --    2.88574   2.89950   2.92668   2.93907   3.00540
 Alpha virt. eigenvalues --    3.11188   3.14585   3.24176   3.35781   3.54930
 Alpha virt. eigenvalues --    3.65597   3.67791   3.72934   3.76614   3.89430
 Alpha virt. eigenvalues --    3.97010   4.03186   4.04505   4.11323   4.15117
 Alpha virt. eigenvalues --    4.22494   4.35962   4.43137   4.81581
          Condensed to atoms (all electrons):
               1          2          3          4          5          6
     1  C    4.833253   0.436290  -0.029181  -0.034113  -0.055117   0.007314
     2  C    0.436290   4.937879   0.477360  -0.079845  -0.029013   0.000376
     3  C   -0.029181   0.477360   4.992871   0.465830  -0.033663   0.004515
     4  C   -0.034113  -0.079845   0.465830   4.981453   0.443200  -0.035543
     5  C   -0.055117  -0.029013  -0.033663   0.443200   4.773175   0.384041
     6  H    0.007314   0.000376   0.004515  -0.035543   0.384041   0.592231
     7  N    0.004709  -0.039000   0.164486  -0.045480   0.004103  -0.000147
     8  O   -0.000041   0.007399  -0.098302   0.001402   0.001010   0.000000
     9  O    0.000787  -0.005130  -0.094282   0.007775  -0.000032   0.000001
    10  H    0.384709  -0.033638   0.003782   0.000268   0.006243  -0.000445
    11  H   -0.000377   0.008835  -0.031294   0.371793  -0.033717  -0.006970
    12  H   -0.038613   0.369817  -0.034483   0.011354  -0.000583   0.000042
    13  N    0.350857   0.005297  -0.051148   0.003990   0.363980  -0.053696
    14  O   -0.041054   0.005206   0.000927   0.005329  -0.042789   0.007327
               7          8          9         10         11         12
     1  C    0.004709  -0.000041   0.000787   0.384709  -0.000377  -0.038613
     2  C   -0.039000   0.007399  -0.005130  -0.033638   0.008835   0.369817
     3  C    0.164486  -0.098302  -0.094282   0.003782  -0.031294  -0.034483
     4  C   -0.045480   0.001402   0.007775   0.000268   0.371793   0.011354
     5  C    0.004103   0.001010  -0.000032   0.006243  -0.033717  -0.000583
     6  H   -0.000147   0.000000   0.000001  -0.000445  -0.006970   0.000042
     7  N    5.969473   0.298627   0.295292  -0.000106  -0.014809  -0.019271
     8  O    0.298627   8.277885  -0.110829   0.000001   0.019994   0.000386
     9  O    0.295292  -0.110829   8.280610  -0.000001   0.000220   0.026609
    10  H   -0.000106   0.000001  -0.000001   0.555595   0.000036  -0.005671
    11  H   -0.014809   0.019994   0.000220   0.000036   0.561778  -0.000278
    12  H   -0.019271   0.000386   0.026609  -0.005671  -0.000278   0.586789
    13  N    0.000035  -0.000004  -0.000003  -0.048525   0.004542   0.004812
    14  O    0.000001   0.000000   0.000000   0.006006  -0.000113  -0.000096
              13         14
     1  C    0.350857  -0.041054
     2  C    0.005297   0.005206
     3  C   -0.051148   0.000927
     4  C    0.003990   0.005329
     5  C    0.363980  -0.042789
     6  H   -0.053696   0.007327
     7  N    0.000035   0.000001
     8  O   -0.000004   0.000000
     9  O   -0.000003   0.000000
    10  H   -0.048525   0.006006
    11  H    0.004542  -0.000113
    12  H    0.004812  -0.000096
    13  N    6.309951   0.170613
    14  O    0.170613   8.366803
 Mulliken charges:
               1
     1  C    0.180577
     2  C   -0.061834
     3  C    0.262584
     4  C   -0.097414
     5  C    0.219163
     6  H    0.100951
     7  N    0.382086
     8  O   -0.397527
     9  O   -0.401017
    10  H    0.131747
    11  H    0.120360
    12  H    0.099186
    13  N   -0.060702
    14  O   -0.478159
 Sum of Mulliken charges =  -0.00000
 Mulliken charges with hydrogens summed into heavy atoms:
               1
     1  C    0.312323
     2  C    0.037352
     3  C    0.262584
     4  C    0.022946
     5  C    0.320114
     7  N    0.382086
     8  O   -0.397527
     9  O   -0.401017
    13  N   -0.060702
    14  O   -0.478159
 Electronic spatial extent (au):  <R**2>=           1454.6736
 Charge=              0.0000 electrons
 Dipole moment (field-independent basis, Debye):
    X=              0.0034    Y=             -1.0237    Z=             -0.0000  Tot=              1.0237
 Quadrupole moment (field-independent basis, Debye-Ang):
   XX=            -49.1765   YY=            -79.3785   ZZ=            -54.2056
   XY=             -0.1977   XZ=              0.0000   YZ=              0.0000
 Traceless Quadrupole moment (field-independent basis, Debye-Ang):
   XX=             11.7437   YY=            -18.4583   ZZ=              6.7146
   XY=             -0.1977   XZ=              0.0000   YZ=              0.0000
 Octapole moment (field-independent basis, Debye-Ang**2):
  XXX=             -0.6035  YYY=             24.7980  ZZZ=              0.0000  XYY=              0.5841
  XXY=            -13.1713  XXZ=             -0.0000  XZZ=             -0.0561  YZZ=              4.7742
  YYZ=             -0.0000  XYZ=              0.0000
 Hexadecapole moment (field-independent basis, Debye-Ang**3):
 XXXX=           -310.8137 YYYY=          -1636.5207 ZZZZ=            -47.0815 XXXY=             -2.4001
 XXXZ=              0.0000 YYYX=             -3.1258 YYYZ=             -0.0000 ZZZX=              0.0000
 ZZZY=             -0.0000 XXYY=           -283.4303 XXZZ=            -67.6089 YYZZ=           -220.4037
 XXYZ=             -0.0000 YYXZ=              0.0000 ZZXY=             -0.1993
 N-N= 5.081590627202D+02 E-N=-2.249864859683D+03  KE= 5.246332601782D+02
 Symmetry A'   KE= 5.043204639916D+02
 Symmetry A"   KE= 2.031279618661D+01
 No NMR shielding tensors so no spin-rotation constants.
 Leave Link  601 at Fri Aug 20 15:41:53 2021, MaxMem= 24159191040 cpu:        11.0
 (Enter /public/home/users/caep010/software/Gaussian09/g09/l701.exe)
 Compute integral first derivatives.
 ... and contract with generalized density number  0.
 Leave Link  701 at Fri Aug 20 15:41:53 2021, MaxMem= 24159191040 cpu:        10.7
 (Enter /public/home/users/caep010/software/Gaussian09/g09/l702.exe)
 L702 exits ... SP integral derivatives will be done elsewhere.
 Leave Link  702 at Fri Aug 20 15:41:53 2021, MaxMem= 24159191040 cpu:         0.5
 (Enter /public/home/users/caep010/software/Gaussian09/g09/l703.exe)
 Compute integral first derivatives, UseDBF=F ICtDFT=           0.
 Integral derivatives from FoFJK, PRISM(SPDF).
 Calling FoFJK, ICntrl=      2127 FMM=F ISym2X=1 I1Cent= 0 IOpClX= 0 NMat=1 NMatS=1 NMatT=0.
 FoFJK:  IHMeth= 1 ICntrl=    2127 DoSepK=F KAlg= 0 I1Cent=   0 FoldK=F
 IRaf=         0 NMat=   1 IRICut=       1 DoRegI=T DoRafI=F ISym2E= 1.
 FoFCou: FMM=F IPFlag=           0 FMFlag=      100000 FMFlg1=         800
         NFxFlg=           0 DoJE=F BraDBF=F KetDBF=F FulRan=T
         wScrn=  0.000000 ICntrl=    2127 IOpCl=  0 I1Cent=           0 NGrid=           0
         NMat0=    1 NMatS0=      1 NMatT0=    0 NMatD0=    1 NMtDS0=    0 NMtDT0=    0
 Petite list used in FoFCou.
 Leave Link  703 at Fri Aug 20 15:41:54 2021, MaxMem= 24159191040 cpu:        14.3
 (Enter /public/home/users/caep010/software/Gaussian09/g09/l716.exe)
 Dipole        = 1.32769302D-03-4.02748375D-01-3.64179978D-17
 ***** Axes restored to original set *****
 -------------------------------------------------------------------
 Center     Atomic                   Forces (Hartrees/Bohr)
 Number     Number              X              Y              Z
 -------------------------------------------------------------------
      1        6           0.101475727    0.000000000    0.020891738
      2        6           0.066841394   -0.000000000    0.158989228
      3        6           0.008116444   -0.000000000   -0.007224954
      4        6          -0.114257782    0.000000000   -0.028481907
      5        6          -0.056768750   -0.000000000   -0.211982205
      6        1           0.056974407    0.000000000    0.229576655
      7        7           0.003800605    0.000000000   -0.001129094
      8        8           0.011497483   -0.000000000    0.010180060
      9        8          -0.013556981   -0.000000000   -0.008452478
     10        1          -0.126204105   -0.000000000   -0.011852381
     11        1           0.132211590   -0.000000000    0.027068760
     12        1          -0.061863013   -0.000000000   -0.184332152
     13        7          -0.023857888   -0.000000000    0.029030120
     14        8           0.015590870    0.000000000   -0.022281388
 -------------------------------------------------------------------
 Cartesian Forces:  Max     0.229576655 RMS     0.074533175
 Leave Link  716 at Fri Aug 20 15:41:54 2021, MaxMem= 24159191040 cpu:         0.7
 (Enter /public/home/users/caep010/software/Gaussian09/g09/l103.exe)

 GradGradGradGradGradGradGradGradGradGradGradGradGradGradGradGradGradGrad
 Berny optimization.
 FormGI is forming the generalized inverse of G from B-inverse, IUseBI=4.
 Internal  Forces:  Max     0.236535831 RMS     0.045654666
 Search for a local minimum.
 Step number   1 out of a maximum of   73
 All quantities printed in internal units (Hartrees-Bohrs-Radians)
 RMS Force = .45655D-01 SwitMx=.10000D-02 MixMth= 1
 Mixed Optimization -- RFO/linear search
 Second derivative matrix not updated -- first step.
 ITU=  0
     Eigenvalues ---    0.00981   0.00981   0.01928   0.02196   0.02267
     Eigenvalues ---    0.02387   0.02396   0.02469   0.02478   0.02503
     Eigenvalues ---    0.02569   0.16000   0.16000   0.16000   0.16000
     Eigenvalues ---    0.22000   0.22977   0.24000   0.25000   0.25000
     Eigenvalues ---    0.25000   0.25000   0.37761   0.45275   0.46315
     Eigenvalues ---    0.50181   0.51191   0.52641   0.53863   0.56038
     Eigenvalues ---    0.57197   0.66234   0.67810   0.72898   0.93347
     Eigenvalues ---    0.93365
 RFO step:  Lambda=-1.60847280D-01 EMin= 9.81064223D-03
 Linear search not attempted -- first point.
 Maximum step size (   0.300) exceeded in Quadratic search.
    -- Step size scaled by   0.672
 Iteration  1 RMS(Cart)=  0.04207604 RMS(Int)=  0.00022826
 Iteration  2 RMS(Cart)=  0.00027583 RMS(Int)=  0.00000111
 Iteration  3 RMS(Cart)=  0.00000014 RMS(Int)=  0.00000110
 ITry= 1 IFail=0 DXMaxC= 1.90D-01 DCOld= 1.00D+10 DXMaxT= 3.00D-01 DXLimC= 3.00D+00 Rises=F
 ClnCor:  largest displacement from symmetrization is 2.28D-10 for atom     6.
 Variable       Old X    -DE/DX   Delta X   Delta X   Delta X     New X
                                 (Linear)    (Quad)   (Total)
    R1        2.55617   0.02622   0.00000   0.02512   0.02512   2.58129
    R2        1.80921   0.12675   0.00000   0.11808   0.11808   1.92729
    R3        2.57757   0.01062   0.00000   0.01050   0.01050   2.58808
    R4        2.61294   0.01509   0.00000   0.01578   0.01578   2.62872
    R5        1.73023   0.19427   0.00000   0.15856   0.15856   1.88880
    R6        2.60681   0.01427   0.00000   0.01464   0.01464   2.62144
    R7        2.74715   0.00068   0.00000   0.00085   0.00085   2.74800
    R8        2.57384   0.02045   0.00000   0.01988   0.01988   2.59372
    R9        1.79930   0.13492   0.00000   0.12370   0.12370   1.92301
   R10        1.68689   0.23654   0.00000   0.17860   0.17860   1.86548
   R11        2.56945   0.01424   0.00000   0.01375   0.01375   2.58319
   R12        2.31420   0.01347   0.00000   0.00827   0.00827   2.32247
   R13        2.31428   0.01265   0.00000   0.00777   0.00777   2.32205
   R14        2.45247  -0.02708   0.00000  -0.02168  -0.02168   2.43079
    A1        2.16724   0.00164   0.00000   0.00309   0.00309   2.17032
    A2        2.11162  -0.00086   0.00000  -0.00110  -0.00110   2.11053
    A3        2.00433  -0.00078   0.00000  -0.00199  -0.00199   2.00234
    A4        2.07832  -0.00162   0.00000  -0.00235  -0.00234   2.07598
    A5        2.15801  -0.00606   0.00000  -0.01322  -0.01322   2.14479
    A6        2.04686   0.00768   0.00000   0.01557   0.01556   2.06242
    A7        2.10284   0.00091   0.00000   0.00163   0.00163   2.10447
    A8        2.08739  -0.00085   0.00000  -0.00146  -0.00146   2.08593
    A9        2.09296  -0.00006   0.00000  -0.00017  -0.00017   2.09279
   A10        2.07012   0.00003   0.00000  -0.00024  -0.00024   2.06988
   A11        2.13305  -0.00261   0.00000  -0.00532  -0.00532   2.12773
   A12        2.08002   0.00258   0.00000   0.00556   0.00556   2.08558
   A13        2.15942   0.00154   0.00000   0.00332   0.00332   2.16274
   A14        2.11524  -0.00055   0.00000  -0.00134  -0.00134   2.11389
   A15        2.00853  -0.00099   0.00000  -0.00198  -0.00198   2.00655
   A16        2.05681  -0.00386   0.00000  -0.00631  -0.00631   2.05050
   A17        2.07544  -0.00936   0.00000  -0.01531  -0.01531   2.06014
   A18        2.15093   0.01322   0.00000   0.02161   0.02161   2.17254
   A19        2.08824   0.00209   0.00000   0.00340   0.00339   2.09163
   A20        2.10881  -0.00414   0.00000  -0.00676  -0.00676   2.10205
   A21        2.08613   0.00205   0.00000   0.00337   0.00337   2.08950
    D1        3.14159  -0.00000   0.00000  -0.00000   0.00000   3.14159
    D2        0.00000   0.00000   0.00000   0.00000  -0.00000   0.00000
    D3        0.00000  -0.00000   0.00000  -0.00000   0.00000   0.00000
    D4        3.14159  -0.00000   0.00000  -0.00000   0.00000   3.14159
    D5       -0.00000   0.00000   0.00000   0.00000   0.00000   0.00000
    D6        3.14159   0.00000   0.00000   0.00000   0.00000   3.14159
    D7        3.14159   0.00000   0.00000   0.00000   0.00000   3.14159
    D8        0.00000  -0.00000   0.00000  -0.00000   0.00000   0.00000
    D9        0.00000   0.00000   0.00000   0.00000   0.00000   0.00000
   D10        3.14159   0.00000   0.00000   0.00000   0.00000   3.14159
   D11        3.14159  -0.00000   0.00000  -0.00000   0.00000   3.14159
   D12       -0.00000   0.00000   0.00000   0.00000   0.00000   0.00000
   D13       -0.00000   0.00000   0.00000   0.00000   0.00000   0.00000
   D14        3.14159   0.00000   0.00000   0.00000   0.00000   3.14159
   D15        3.14159   0.00000   0.00000   0.00000   0.00000   3.14159
   D16        0.00000  -0.00000   0.00000  -0.00000   0.00000   0.00000
   D17        3.14159  -0.00000   0.00000  -0.00000   0.00000   3.14159
   D18        0.00000  -0.00000   0.00000  -0.00000   0.00000   0.00000
   D19       -0.00000   0.00000   0.00000   0.00000   0.00000   0.00000
   D20        3.14159  -0.00000   0.00000  -0.00000   0.00000   3.14159
   D21        3.14159  -0.00000   0.00000  -0.00000   0.00000   3.14159
   D22        0.00000  -0.00000   0.00000  -0.00000   0.00000   0.00000
   D23       -0.00000   0.00000   0.00000   0.00000   0.00000   0.00000
   D24        3.14159  -0.00000   0.00000  -0.00000   0.00000   3.14159
   D25       -0.00000  -0.00000   0.00000  -0.00000   0.00000   0.00000
   D26        3.14159   0.00000   0.00000   0.00000   0.00000   3.14159
   D27        3.14159  -0.00000   0.00000  -0.00000   0.00000   3.14159
   D28        0.00000   0.00000   0.00000   0.00000   0.00000   0.00000
         Item               Value     Threshold  Converged?
 Maximum Force            0.236536     0.000450     NO 
 RMS     Force            0.045655     0.000300     NO 
 Maximum Displacement     0.190454     0.001800     NO 
 RMS     Displacement     0.042083     0.001200     NO 
 Predicted change in Energy=-7.900257D-02
 Lowest energy point so far.  Saving SCF results.
 GradGradGradGradGradGradGradGradGradGradGradGradGradGradGradGradGradGrad

 Leave Link  103 at Fri Aug 20 15:41:54 2021, MaxMem= 24159191040 cpu:         2.2
 (Enter /public/home/users/caep010/software/Gaussian09/g09/l202.exe)
                          Input orientation:                          
 ---------------------------------------------------------------------
 Center     Atomic      Atomic             Coordinates (Angstroms)
 Number     Number       Type             X           Y           Z
 ---------------------------------------------------------------------
      1          6           0        2.094052    1.502500   -3.806941
      2          6           0        2.974407    1.502500   -4.851366
      3          6           0        4.339055    1.502500   -4.581575
      4          6           0        4.799691    1.502500   -3.273079
      5          6           0        3.881091    1.502500   -2.253259
      6          1           0        4.121130    1.502500   -1.295716
      7          7           0        5.287287    1.502500   -5.684066
      8          8           0        6.483748    1.502500   -5.403150
      9          8           0        4.841643    1.502500   -6.829180
     10          1           0        1.079353    1.502500   -3.909606
     11          1           0        5.793120    1.502500   -3.052551
     12          1           0        2.682433    1.502500   -5.807278
     13          7           0        2.538758    1.502500   -2.511601
     14          8           0        1.701431    1.502500   -1.535130
 ---------------------------------------------------------------------
                    Distance matrix (angstroms):
                    1          2          3          4          5
     1  C    0.000000
     2  C    1.365961   0.000000
     3  C    2.374889   1.391061   0.000000
     4  C    2.757806   2.413017   1.387208   0.000000
     5  C    2.368002   2.751769   2.372927   1.372538   0.000000
     6  H    3.227274   3.735990   3.293078   2.090553   0.987172
     7  N    3.704099   2.458211   1.454177   2.459798   3.707806
     8  O    4.670901   3.552455   2.296670   2.715373   4.086030
     9  O    4.084505   2.719984   2.303111   3.556348   4.675651
    10  H    1.019880   2.116162   3.328243   3.774398   3.254722
    11  H    3.775209   3.343781   2.110028   1.017611   2.072371
    12  H    2.085076   0.999508   2.060763   3.302264   3.750710
    13  N    1.369551   2.379977   2.743330   2.385721   1.366966
    14  O    2.305489   3.552167   4.029626   3.552419   2.294913
                    6          7          8          9         10
     6  H    0.000000
     7  N    4.540654   0.000000
     8  O    4.738458   1.228996   0.000000
     9  O    5.580176   1.228774   2.174872   0.000000
    10  H    4.010589   4.566774   5.606974   4.762220   0.000000
    11  H    2.425288   2.679690   2.449956   3.894641   4.791048
    12  H    4.735403   2.607767   3.822737   2.388822   2.484155
    13  N    1.995564   4.197493   4.891217   4.893338   2.020960
    14  O    2.431514   5.483798   6.150784   6.155314   2.454611
                   11         12         13         14
    11  H    0.000000
    12  H    4.155104   0.000000
    13  N    3.299014   3.298807   0.000000
    14  O    4.363999   4.383334   1.286318   0.000000
 Stoichiometry    C5H4N2O3
 Framework group  CS[SG(C5H4N2O3)]
 Deg. of freedom    25
 Full point group                 CS      NOp   2
 RotChk:  IX=0 Diff= 4.06D-03
 Largest Abelian subgroup         CS      NOp   2
 Largest concise Abelian subgroup C1      NOp   1
                         Standard orientation:                         
 ---------------------------------------------------------------------
 Center     Atomic      Atomic             Coordinates (Angstroms)
 Number     Number       Type             X           Y           Z
 ---------------------------------------------------------------------
      1          6           0        1.180406   -1.402156    0.000000
      2          6           0        1.204988   -0.036416    0.000000
      3          6           0        0.000000    0.658606   -0.000000
      4          6           0       -1.207994   -0.023375    0.000000
      5          6           0       -1.187587   -1.395761    0.000000
      6          1           0       -1.998518   -1.958700    0.000000
      7          7           0        0.011694    2.112736   -0.000000
      8          8           0       -1.073989    2.688690   -0.000000
      9          8           0        1.100871    2.681575   -0.000000
     10          1           0        2.011928   -1.992686    0.000000
     11          1           0       -2.101073    0.464419   -0.000000
     12          1           0        2.053945    0.491114   -0.000000
     13          7           0       -0.006936   -2.084715    0.000000
     14          8           0       -0.019189   -3.370975    0.000000
 ---------------------------------------------------------------------
 Rotational constants (GHZ):      4.1015867      0.8476076      0.7024449
 Leave Link  202 at Fri Aug 20 15:41:54 2021, MaxMem= 24159191040 cpu:         0.3
 (Enter /public/home/users/caep010/software/Gaussian09/g09/l301.exe)
 Standard basis: 6-31G(d,p) (6D, 7F)
 Ernie: Thresh=  0.10000D-02 Tol=  0.10000D-05 Strict=F.
 There are   126 symmetry adapted cartesian basis functions of A'  symmetry.
 There are    44 symmetry adapted cartesian basis functions of A"  symmetry.
 There are   126 symmetry adapted basis functions of A'  symmetry.
 There are    44 symmetry adapted basis functions of A"  symmetry.
   170 basis functions,   308 primitive gaussians,   170 cartesian basis functions
    36 alpha electrons       36 beta electrons
       nuclear repulsion energy       504.8675842886 Hartrees.
 IExCor=  402 DFT=T Ex+Corr=B3LYP ExCW=0 ScaHFX=  0.200000
 ScaDFX=  0.800000  0.720000  1.000000  0.810000 ScalE2=  1.000000  1.000000
 IRadAn=      0 IRanWt=     -1 IRanGd=            0 ICorTp=0 IEmpDi=  4
 NAtoms=   14 NActive=   14 NUniq=   14 SFac= 1.00D+00 NAtFMM=   60 NAOKFM=F Big=F
 Integral buffers will be    131072 words long.
 Raffenetti 2 integral format.
 Two-electron integral symmetry is turned on.
 Leave Link  301 at Fri Aug 20 15:41:54 2021, MaxMem= 24159191040 cpu:         1.7
 (Enter /public/home/users/caep010/software/Gaussian09/g09/l302.exe)
 NPDir=0 NMtPBC=     1 NCelOv=     1 NCel=       1 NClECP=     1 NCelD=      1
         NCelK=      1 NCelE2=     1 NClLst=     1 CellRange=     0.0.
 One-electron integrals computed using PRISM.
 NBasis=   170 RedAO= T EigKep=  8.72D-04  NBF=   126    44
 NBsUse=   170 1.00D-06 EigRej= -1.00D+00 NBFU=   126    44
 Precomputing XC quadrature grid using
 IXCGrd= 4 IRadAn=           0 IRanWt=          -1 IRanGd=           0 AccXCQ= 0.00D+00.
 Generated NRdTot=       0 NPtTot=           0 NUsed=           0 NTot=          32
 NSgBfM=   169   169   169   169   169 MxSgAt=    14 MxSgA2=    14.
 Leave Link  302 at Fri Aug 20 15:41:55 2021, MaxMem= 24159191040 cpu:        12.8
 (Enter /public/home/users/caep010/software/Gaussian09/g09/l303.exe)
 DipDrv:  MaxL=1.
 Leave Link  303 at Fri Aug 20 15:41:55 2021, MaxMem= 24159191040 cpu:         0.7
 (Enter /public/home/users/caep010/software/Gaussian09/g09/l401.exe)
 Initial guess from the checkpoint file:  "/public/home/users/caep010/.cache/gau_scr/Gau-203786.chk"
 B after Tr=     0.000000    0.000000   -0.000000
         Rot=    0.999999    0.000000   -0.000000    0.001188 Ang=   0.14 deg.
 Guess basis will be translated and rotated to current coordinates.
 JPrj=2 DoOrth=T DoCkMO=T.
 Initial guess orbital symmetries:
       Occupied  (A') (A') (A') (A') (A') (A') (A') (A') (A') (A')
                 (A') (A') (A') (A') (A') (A') (A') (A') (A') (A')
                 (A') (A') (A") (A') (A') (A') (A") (A') (A') (A")
                 (A") (A') (A") (A') (A') (A")
       Virtual   (A') (A') (A') (A') (A') (A') (A') (A') (A') (A')
                 (A') (A') (A') (A') (A') (A') (A') (A') (A') (A')
                 (A') (A') (A') (A') (A') (A') (A') (A') (A') (A')
                 (A') (A') (A') (A') (A') (A') (A') (A') (A') (A')
                 (A') (A') (A') (A') (A') (A') (A') (A') (A') (A')
                 (A') (A') (A') (A') (A') (A') (A') (A') (A') (A')
                 (A') (A') (A') (A') (A') (A') (A') (A') (A') (A')
                 (A') (A') (A') (A') (A') (A') (A') (A') (A') (A')
                 (A') (A') (A') (A') (A') (A') (A') (A') (A') (A')
                 (A') (A') (A') (A') (A') (A') (A") (A") (A") (A")
                 (A") (A") (A") (A") (A") (A") (A") (A") (A") (A")
                 (A") (A") (A") (A") (A") (A") (A") (A") (A") (A")
                 (A") (A") (A") (A") (A") (A") (A") (A") (A") (A")
                 (A") (A") (A") (A")
 The electronic state of the initial guess is 1-A'.
 Generating alternative initial guess.
 ExpMin= 1.61D-01 ExpMax= 5.48D+03 ExpMxC= 8.25D+02 IAcc=1 IRadAn=         1 AccDes= 0.00D+00
 Harris functional with IExCor=  402 and IRadAn=       1 diagonalized for initial guess.
 HarFok:  IExCor=  402 AccDes= 0.00D+00 IRadAn=         1 IDoV= 1 UseB2=F ITyADJ=14
 ICtDFT=  3500011 ScaDFX=  1.000000  1.000000  1.000000  1.000000
 FoFCou: FMM=F IPFlag=           0 FMFlag=      100000 FMFlg1=           0
         NFxFlg=           0 DoJE=T BraDBF=F KetDBF=T FulRan=T
         wScrn=  0.000000 ICntrl=     500 IOpCl=  0 I1Cent=   200000004 NGrid=           0
         NMat0=    1 NMatS0=      1 NMatT0=    0 NMatD0=    1 NMtDS0=    0 NMtDT0=    0
 Petite list used in FoFCou.
 Harris En= -527.977264091415    
 Leave Link  401 at Fri Aug 20 15:41:55 2021, MaxMem= 24159191040 cpu:        17.7
 (Enter /public/home/users/caep010/software/Gaussian09/g09/l502.exe)
 Closed shell SCF:
 Using DIIS extrapolation, IDIIS=  1040.
 Integral symmetry usage will be decided dynamically.
 Keep R1 ints in memory in symmetry-blocked form, NReq=161578122.
 IVT=      112016 IEndB=      112016 NGot= 24159191040 MDV= 24103253469
 LenX= 24103253469 LenY= 24103224128
 Requested convergence on RMS density matrix=1.00D-08 within 128 cycles.
 Requested convergence on MAX density matrix=1.00D-06.
 Requested convergence on             energy=1.00D-06.
 No special actions if energy rises.
 FoFCou: FMM=F IPFlag=           0 FMFlag=           0 FMFlg1=           0
         NFxFlg=           0 DoJE=F BraDBF=F KetDBF=F FulRan=T
         wScrn=  0.000000 ICntrl=     600 IOpCl=  0 I1Cent=           0 NGrid=           0
         NMat0=    1 NMatS0=  14535 NMatT0=    0 NMatD0=    1 NMtDS0=    0 NMtDT0=    0
 Petite list used in FoFCou.
 Integral accuracy reduced to 1.0D-05 until final iterations.

 Cycle   1  Pass 0  IDiag  1:
 E= -527.928699073302    
 DIIS: error= 4.45D-03 at cycle   1 NSaved=   1.
 NSaved= 1 IEnMin= 1 EnMin= -527.928699073302     IErMin= 1 ErrMin= 4.45D-03
 ErrMax= 4.45D-03  0.00D+00 EMaxC= 1.00D-01 BMatC= 3.94D-03 BMatP= 3.94D-03
 IDIUse=3 WtCom= 9.55D-01 WtEn= 4.45D-02
 Coeff-Com:  0.100D+01
 Coeff-En:   0.100D+01
 Coeff:      0.100D+01
 Gap=     0.755 Goal=   None    Shift=    0.000
 GapD=    0.755 DampG=2.000 DampE=1.000 DampFc=2.0000 IDamp=-1.
 RMSDP=8.16D-04 MaxDP=1.51D-02              OVMax= 1.92D-02

 Cycle   2  Pass 0  IDiag  1:
 E= -527.932530851171     Delta-E=       -0.003831777869 Rises=F Damp=F
 DIIS: error= 3.08D-03 at cycle   2 NSaved=   2.
 NSaved= 2 IEnMin= 2 EnMin= -527.932530851171     IErMin= 2 ErrMin= 3.08D-03
 ErrMax= 3.08D-03  0.00D+00 EMaxC= 1.00D-01 BMatC= 9.12D-04 BMatP= 3.94D-03
 IDIUse=3 WtCom= 9.69D-01 WtEn= 3.08D-02
 Coeff-Com:  0.268D+00 0.732D+00
 Coeff-En:   0.000D+00 0.100D+01
 Coeff:      0.260D+00 0.740D+00
 Gap=     0.136 Goal=   None    Shift=    0.000
 RMSDP=3.96D-04 MaxDP=1.45D-02 DE=-3.83D-03 OVMax= 3.25D-02

 Cycle   3  Pass 0  IDiag  1:
 E= -527.932074885538     Delta-E=        0.000455965633 Rises=F Damp=F
 DIIS: error= 4.43D-03 at cycle   3 NSaved=   3.
 NSaved= 3 IEnMin= 2 EnMin= -527.932530851171     IErMin= 2 ErrMin= 3.08D-03
 ErrMax= 4.43D-03  0.00D+00 EMaxC= 1.00D-01 BMatC= 1.49D-03 BMatP= 9.12D-04
 IDIUse=3 WtCom= 1.31D-01 WtEn= 8.69D-01
 Coeff-Com:  0.857D-01 0.546D+00 0.369D+00
 Coeff-En:   0.000D+00 0.581D+00 0.419D+00
 Coeff:      0.112D-01 0.576D+00 0.413D+00
 Gap=     0.140 Goal=   None    Shift=    0.000
 RMSDP=2.95D-04 MaxDP=1.39D-02 DE= 4.56D-04 OVMax= 2.96D-02

 Cycle   4  Pass 0  IDiag  1:
 E= -527.933253070223     Delta-E=       -0.001178184685 Rises=F Damp=F
 DIIS: error= 1.55D-03 at cycle   4 NSaved=   4.
 NSaved= 4 IEnMin= 4 EnMin= -527.933253070223     IErMin= 4 ErrMin= 1.55D-03
 ErrMax= 1.55D-03  0.00D+00 EMaxC= 1.00D-01 BMatC= 2.28D-04 BMatP= 9.12D-04
 IDIUse=3 WtCom= 9.84D-01 WtEn= 1.55D-02
 Coeff-Com:  0.235D-01 0.318D+00 0.278D+00 0.380D+00
 Coeff-En:   0.000D+00 0.000D+00 0.132D+00 0.868D+00
 Coeff:      0.231D-01 0.313D+00 0.276D+00 0.388D+00
 Gap=     0.138 Goal=   None    Shift=    0.000
 RMSDP=1.11D-04 MaxDP=4.62D-03 DE=-1.18D-03 OVMax= 1.15D-02

 Cycle   5  Pass 0  IDiag  1:
 E= -527.933461699482     Delta-E=       -0.000208629259 Rises=F Damp=F
 DIIS: error= 2.89D-04 at cycle   5 NSaved=   5.
 NSaved= 5 IEnMin= 5 EnMin= -527.933461699482     IErMin= 5 ErrMin= 2.89D-04
 ErrMax= 2.89D-04  0.00D+00 EMaxC= 1.00D-01 BMatC= 1.06D-05 BMatP= 2.28D-04
 IDIUse=3 WtCom= 9.97D-01 WtEn= 2.89D-03
 Coeff-Com: -0.117D-02 0.780D-01 0.745D-01 0.212D+00 0.637D+00
 Coeff-En:   0.000D+00 0.000D+00 0.000D+00 0.261D-01 0.974D+00
 Coeff:     -0.117D-02 0.778D-01 0.743D-01 0.211D+00 0.638D+00
 Gap=     0.138 Goal=   None    Shift=    0.000
 RMSDP=2.29D-05 MaxDP=8.26D-04 DE=-2.09D-04 OVMax= 2.09D-03

 Cycle   6  Pass 0  IDiag  1:
 E= -527.933471639301     Delta-E=       -0.000009939819 Rises=F Damp=F
 DIIS: error= 1.07D-04 at cycle   6 NSaved=   6.
 NSaved= 6 IEnMin= 6 EnMin= -527.933471639301     IErMin= 6 ErrMin= 1.07D-04
 ErrMax= 1.07D-04  0.00D+00 EMaxC= 1.00D-01 BMatC= 8.01D-07 BMatP= 1.06D-05
 IDIUse=3 WtCom= 9.99D-01 WtEn= 1.07D-03
 Coeff-Com: -0.170D-02 0.318D-01 0.322D-01 0.105D+00 0.367D+00 0.466D+00
 Coeff-En:   0.000D+00 0.000D+00 0.000D+00 0.000D+00 0.000D+00 0.100D+01
 Coeff:     -0.170D-02 0.318D-01 0.321D-01 0.105D+00 0.366D+00 0.466D+00
 Gap=     0.138 Goal=   None    Shift=    0.000
 RMSDP=6.44D-06 MaxDP=1.56D-04 DE=-9.94D-06 OVMax= 3.27D-04

 Initial convergence to 1.0D-05 achieved.  Increase integral accuracy.
 Cycle   7  Pass 1  IDiag  1:
 E= -527.933450125169     Delta-E=        0.000021514132 Rises=F Damp=F
 DIIS: error= 4.13D-05 at cycle   1 NSaved=   1.
 NSaved= 1 IEnMin= 1 EnMin= -527.933450125169     IErMin= 1 ErrMin= 4.13D-05
 ErrMax= 4.13D-05  0.00D+00 EMaxC= 1.00D-01 BMatC= 2.27D-07 BMatP= 2.27D-07
 IDIUse=1 WtCom= 1.00D+00 WtEn= 0.00D+00
 Coeff-Com:  0.100D+01
 Coeff:      0.100D+01
 Gap=     0.138 Goal=   None    Shift=    0.000
 RMSDP=6.44D-06 MaxDP=1.56D-04 DE= 2.15D-05 OVMax= 2.37D-04

 Cycle   8  Pass 1  IDiag  1:
 E= -527.933449897695     Delta-E=        0.000000227473 Rises=F Damp=F
 DIIS: error= 6.68D-05 at cycle   2 NSaved=   2.
 NSaved= 2 IEnMin= 1 EnMin= -527.933450125169     IErMin= 1 ErrMin= 4.13D-05
 ErrMax= 6.68D-05  0.00D+00 EMaxC= 1.00D-01 BMatC= 5.28D-07 BMatP= 2.27D-07
 IDIUse=1 WtCom= 1.00D+00 WtEn= 0.00D+00
 Coeff-Com:  0.621D+00 0.379D+00
 Coeff:      0.621D+00 0.379D+00
 Gap=     0.138 Goal=   None    Shift=    0.000
 RMSDP=4.30D-06 MaxDP=1.21D-04 DE= 2.27D-07 OVMax= 2.15D-04

 Cycle   9  Pass 1  IDiag  1:
 E= -527.933450322008     Delta-E=       -0.000000424313 Rises=F Damp=F
 DIIS: error= 1.52D-05 at cycle   3 NSaved=   3.
 NSaved= 3 IEnMin= 3 EnMin= -527.933450322008     IErMin= 3 ErrMin= 1.52D-05
 ErrMax= 1.52D-05  0.00D+00 EMaxC= 1.00D-01 BMatC= 2.96D-08 BMatP= 2.27D-07
 IDIUse=1 WtCom= 1.00D+00 WtEn= 0.00D+00
 Coeff-Com:  0.550D-01 0.190D+00 0.755D+00
 Coeff:      0.550D-01 0.190D+00 0.755D+00
 Gap=     0.138 Goal=   None    Shift=    0.000
 RMSDP=1.72D-06 MaxDP=4.83D-05 DE=-4.24D-07 OVMax= 1.50D-04

 Cycle  10  Pass 1  IDiag  1:
 E= -527.933450325774     Delta-E=       -0.000000003765 Rises=F Damp=F
 DIIS: error= 1.83D-05 at cycle   4 NSaved=   4.
 NSaved= 4 IEnMin= 4 EnMin= -527.933450325774     IErMin= 3 ErrMin= 1.52D-05
 ErrMax= 1.83D-05  0.00D+00 EMaxC= 1.00D-01 BMatC= 2.82D-08 BMatP= 2.96D-08
 IDIUse=1 WtCom= 1.00D+00 WtEn= 0.00D+00
 Coeff-Com: -0.661D-02 0.119D+00 0.599D+00 0.289D+00
 Coeff:     -0.661D-02 0.119D+00 0.599D+00 0.289D+00
 Gap=     0.138 Goal=   None    Shift=    0.000
 RMSDP=9.36D-07 MaxDP=3.72D-05 DE=-3.77D-09 OVMax= 7.98D-05

 Cycle  11  Pass 1  IDiag  1:
 E= -527.933450350212     Delta-E=       -0.000000024439 Rises=F Damp=F
 DIIS: error= 9.52D-07 at cycle   5 NSaved=   5.
 NSaved= 5 IEnMin= 5 EnMin= -527.933450350212     IErMin= 5 ErrMin= 9.52D-07
 ErrMax= 9.52D-07  0.00D+00 EMaxC= 1.00D-01 BMatC= 2.59D-10 BMatP= 2.82D-08
 IDIUse=1 WtCom= 1.00D+00 WtEn= 0.00D+00
 Coeff-Com: -0.770D-02 0.433D-01 0.245D+00 0.137D+00 0.583D+00
 Coeff:     -0.770D-02 0.433D-01 0.245D+00 0.137D+00 0.583D+00
 Gap=     0.138 Goal=   None    Shift=    0.000
 RMSDP=1.22D-07 MaxDP=3.34D-06 DE=-2.44D-08 OVMax= 6.28D-06

 Cycle  12  Pass 1  IDiag  1:
 E= -527.933450350390     Delta-E=       -0.000000000178 Rises=F Damp=F
 DIIS: error= 5.32D-07 at cycle   6 NSaved=   6.
 NSaved= 6 IEnMin= 6 EnMin= -527.933450350390     IErMin= 6 ErrMin= 5.32D-07
 ErrMax= 5.32D-07  0.00D+00 EMaxC= 1.00D-01 BMatC= 4.02D-11 BMatP= 2.59D-10
 IDIUse=1 WtCom= 1.00D+00 WtEn= 0.00D+00
 Coeff-Com: -0.439D-02 0.198D-01 0.117D+00 0.670D-01 0.352D+00 0.448D+00
 Coeff:     -0.439D-02 0.198D-01 0.117D+00 0.670D-01 0.352D+00 0.448D+00
 Gap=     0.138 Goal=   None    Shift=    0.000
 RMSDP=4.83D-08 MaxDP=1.61D-06 DE=-1.78D-10 OVMax= 3.97D-06

 Cycle  13  Pass 1  IDiag  1:
 E= -527.933450350414     Delta-E=       -0.000000000024 Rises=F Damp=F
 DIIS: error= 3.33D-07 at cycle   7 NSaved=   7.
 NSaved= 7 IEnMin= 7 EnMin= -527.933450350414     IErMin= 7 ErrMin= 3.33D-07
 ErrMax= 3.33D-07  0.00D+00 EMaxC= 1.00D-01 BMatC= 9.42D-12 BMatP= 4.02D-11
 IDIUse=1 WtCom= 1.00D+00 WtEn= 0.00D+00
 Coeff-Com: -0.232D-02 0.967D-02 0.587D-01 0.345D-01 0.200D+00 0.332D+00
 Coeff-Com:  0.367D+00
 Coeff:     -0.232D-02 0.967D-02 0.587D-01 0.345D-01 0.200D+00 0.332D+00
 Coeff:      0.367D+00
 Gap=     0.138 Goal=   None    Shift=    0.000
 RMSDP=2.15D-08 MaxDP=8.29D-07 DE=-2.41D-11 OVMax= 1.83D-06

 Cycle  14  Pass 1  IDiag  1:
 E= -527.933450350427     Delta-E=       -0.000000000013 Rises=F Damp=F
 DIIS: error= 1.05D-07 at cycle   8 NSaved=   8.
 NSaved= 8 IEnMin= 8 EnMin= -527.933450350427     IErMin= 8 ErrMin= 1.05D-07
 ErrMax= 1.05D-07  0.00D+00 EMaxC= 1.00D-01 BMatC= 8.23D-13 BMatP= 9.42D-12
 IDIUse=1 WtCom= 1.00D+00 WtEn= 0.00D+00
 Coeff-Com: -0.232D-03 0.513D-03 0.411D-02 0.332D-02 0.211D-01 0.737D-01
 Coeff-Com:  0.245D+00 0.653D+00
 Coeff:     -0.232D-03 0.513D-03 0.411D-02 0.332D-02 0.211D-01 0.737D-01
 Coeff:      0.245D+00 0.653D+00
 Gap=     0.138 Goal=   None    Shift=    0.000
 RMSDP=6.29D-09 MaxDP=1.71D-07 DE=-1.27D-11 OVMax= 3.89D-07

 SCF Done:  E(RB3LYP) =  -527.933450350     A.U. after   14 cycles
            NFock= 14  Conv=0.63D-08     -V/T= 2.0077
 KE= 5.238959596121D+02 PE=-2.242978057760D+03 EE= 6.862810635086D+02
 Leave Link  502 at Fri Aug 20 15:41:58 2021, MaxMem= 24159191040 cpu:        51.1
 (Enter /public/home/users/caep010/software/Gaussian09/g09/l701.exe)
 Compute integral first derivatives.
 ... and contract with generalized density number  0.
 Leave Link  701 at Fri Aug 20 15:41:59 2021, MaxMem= 24159191040 cpu:        11.2
 (Enter /public/home/users/caep010/software/Gaussian09/g09/l702.exe)
 L702 exits ... SP integral derivatives will be done elsewhere.
 Leave Link  702 at Fri Aug 20 15:41:59 2021, MaxMem= 24159191040 cpu:         0.5
 (Enter /public/home/users/caep010/software/Gaussian09/g09/l703.exe)
 Compute integral first derivatives, UseDBF=F ICtDFT=           0.
 Integral derivatives from FoFJK, PRISM(SPDF).
 Calling FoFJK, ICntrl=      2127 FMM=F ISym2X=1 I1Cent= 0 IOpClX= 0 NMat=1 NMatS=1 NMatT=0.
 FoFJK:  IHMeth= 1 ICntrl=    2127 DoSepK=F KAlg= 0 I1Cent=   0 FoldK=F
 IRaf=         0 NMat=   1 IRICut=       1 DoRegI=T DoRafI=F ISym2E= 1.
 FoFCou: FMM=F IPFlag=           0 FMFlag=      100000 FMFlg1=         800
         NFxFlg=           0 DoJE=F BraDBF=F KetDBF=F FulRan=T
         wScrn=  0.000000 ICntrl=    2127 IOpCl=  0 I1Cent=           0 NGrid=           0
         NMat0=    1 NMatS0=      1 NMatT0=    0 NMatD0=    1 NMtDS0=    0 NMtDT0=    0
 Petite list used in FoFCou.
 Leave Link  703 at Fri Aug 20 15:41:59 2021, MaxMem= 24159191040 cpu:        13.9
 (Enter /public/home/users/caep010/software/Gaussian09/g09/l716.exe)
 Dipole        =-6.27864002D-03-4.22601513D-01-3.36296484D-17
 ***** Axes restored to original set *****
 -------------------------------------------------------------------
 Center     Atomic                   Forces (Hartrees/Bohr)
 Number     Number              X              Y              Z
 -------------------------------------------------------------------
      1        6           0.041082748   -0.000000000    0.005214458
      2        6           0.029764260   -0.000000000    0.060018054
      3        6           0.003421349    0.000000000   -0.003937603
      4        6          -0.048394672    0.000000000   -0.008988554
      5        6          -0.016598985   -0.000000000   -0.079636365
      6        1           0.019512720    0.000000000    0.085346986
      7        7           0.001848160   -0.000000000    0.000326690
      8        8           0.005020633    0.000000000    0.003218883
      9        8          -0.004937885    0.000000000   -0.004185116
     10        1          -0.051615858    0.000000000   -0.003770663
     11        1           0.054047226   -0.000000000    0.009578655
     12        1          -0.026378258    0.000000000   -0.069850332
     13        7          -0.016882748    0.000000000    0.020809780
     14        8           0.010111311   -0.000000000   -0.014144872
 -------------------------------------------------------------------
 Cartesian Forces:  Max     0.085346986 RMS     0.028992186
 Leave Link  716 at Fri Aug 20 15:41:59 2021, MaxMem= 24159191040 cpu:         0.5
 (Enter /public/home/users/caep010/software/Gaussian09/g09/l103.exe)

 GradGradGradGradGradGradGradGradGradGradGradGradGradGradGradGradGradGrad
 Berny optimization.
 Using GEDIIS/GDIIS optimizer.
 FormGI is forming the generalized inverse of G from B-inverse, IUseBI=4.
 Internal  Forces:  Max     0.087530085 RMS     0.017704883
 Search for a local minimum.
 Step number   2 out of a maximum of   73
 All quantities printed in internal units (Hartrees-Bohrs-Radians)
 RMS Force = .17705D-01 SwitMx=.10000D-02 MixMth= 1
 Mixed Optimization -- RFO/linear search
 Update second derivatives using D2CorX and points    1    2
 DE= -7.26D-02 DEPred=-7.90D-02 R= 9.19D-01
 TightC=F SS=  1.41D+00  RLast= 3.00D-01 DXNew= 5.0454D-01 9.0000D-01
 Trust test= 9.19D-01 RLast= 3.00D-01 DXMaxT set to 5.05D-01
 ITU=  1  0
 Use linear search instead of GDIIS.
     Eigenvalues ---    0.00981   0.00981   0.01929   0.02196   0.02266
     Eigenvalues ---    0.02387   0.02396   0.02469   0.02478   0.02503
     Eigenvalues ---    0.02567   0.15985   0.16000   0.16000   0.16005
     Eigenvalues ---    0.22000   0.22981   0.24003   0.24997   0.25000
     Eigenvalues ---    0.25000   0.25074   0.37756   0.45334   0.46366
     Eigenvalues ---    0.50191   0.51135   0.52643   0.53868   0.56379
     Eigenvalues ---    0.58124   0.67105   0.68185   0.79509   0.93324
     Eigenvalues ---    0.93362
 RFO step:  Lambda=-2.11124324D-03 EMin= 9.81064223D-03
 Quartic linear search produced a step of  1.05702.
 Iteration  1 RMS(Cart)=  0.04820683 RMS(Int)=  0.00099906
 Iteration  2 RMS(Cart)=  0.00128539 RMS(Int)=  0.00000366
 Iteration  3 RMS(Cart)=  0.00000282 RMS(Int)=  0.00000247
 Iteration  4 RMS(Cart)=  0.00000000 RMS(Int)=  0.00000247
 ITry= 1 IFail=0 DXMaxC= 1.98D-01 DCOld= 1.00D+10 DXMaxT= 5.05D-01 DXLimC= 3.00D+00 Rises=F
 ClnCor:  largest displacement from symmetrization is 4.56D-09 for atom     7.
 Variable       Old X    -DE/DX   Delta X   Delta X   Delta X     New X
                                 (Linear)    (Quad)   (Total)
    R1        2.58129   0.01162   0.02655   0.00754   0.03409   2.61539
    R2        1.92729   0.05173   0.12481   0.01691   0.14172   2.06901
    R3        2.58808   0.00619   0.01110   0.00955   0.02066   2.60873
    R4        2.62872   0.00608   0.01668   0.00278   0.01946   2.64818
    R5        1.88880   0.07451   0.16760  -0.00331   0.16429   2.05309
    R6        2.62144   0.00664   0.01547   0.00600   0.02147   2.64292
    R7        2.74800   0.00174   0.00090   0.00825   0.00915   2.75715
    R8        2.59372   0.00822   0.02101   0.00279   0.02379   2.61751
    R9        1.92301   0.05484   0.13076   0.01574   0.14649   2.06950
   R10        1.86548   0.08753   0.18878  -0.01875   0.17003   2.03551
   R11        2.58319   0.00792   0.01453   0.01070   0.02523   2.60842
   R12        2.32247   0.00562   0.00874  -0.00006   0.00868   2.33115
   R13        2.32205   0.00569   0.00821   0.00085   0.00906   2.33110
   R14        2.43079  -0.01732  -0.02292  -0.02033  -0.04325   2.38754
    A1        2.17032   0.00121   0.00326   0.01141   0.01466   2.18499
    A2        2.11053   0.00036  -0.00116   0.00645   0.00530   2.11582
    A3        2.00234  -0.00157  -0.00210  -0.01785  -0.01996   1.98237
    A4        2.07598   0.00007  -0.00248   0.00419   0.00172   2.07770
    A5        2.14479  -0.00459  -0.01397  -0.04273  -0.05671   2.08808
    A6        2.06242   0.00452   0.01645   0.03854   0.05498   2.11740
    A7        2.10447  -0.00080   0.00172  -0.01011  -0.00838   2.09608
    A8        2.08593   0.00057  -0.00155   0.00727   0.00572   2.09165
    A9        2.09279   0.00023  -0.00018   0.00284   0.00266   2.09545
   A10        2.06988   0.00117  -0.00026   0.00874   0.00848   2.07835
   A11        2.12773  -0.00286  -0.00562  -0.02669  -0.03231   2.09542
   A12        2.08558   0.00169   0.00588   0.01795   0.02383   2.10942
   A13        2.16274   0.00158   0.00351   0.01696   0.02047   2.18322
   A14        2.11389   0.00025  -0.00142   0.00298   0.00156   2.11545
   A15        2.00655  -0.00183  -0.00209  -0.01994  -0.02203   1.98452
   A16        2.05050  -0.00069  -0.00667   0.00274  -0.00392   2.04658
   A17        2.06014  -0.00324  -0.01618  -0.00610  -0.02228   2.03786
   A18        2.17254   0.00392   0.02284   0.00336   0.02620   2.19875
   A19        2.09163  -0.00105   0.00359  -0.01225  -0.00867   2.08297
   A20        2.10205  -0.00134  -0.00715  -0.00235  -0.00950   2.09256
   A21        2.08950   0.00239   0.00356   0.01461   0.01816   2.10766
    D1        3.14159  -0.00000   0.00000  -0.00000   0.00000   3.14159
    D2       -0.00000  -0.00000   0.00000  -0.00000   0.00000   0.00000
    D3       -0.00000   0.00000   0.00000   0.00000   0.00000   0.00000
    D4        3.14159   0.00000   0.00000   0.00000   0.00000   3.14159
    D5        0.00000  -0.00000   0.00000  -0.00000   0.00000   0.00000
[...]
    R9        2.04545   0.00003   0.00000   0.00007   0.00007   2.04552
   R10        2.04178   0.00030   0.00000   0.00080   0.00080   2.04258
   R11        2.60758   0.00001   0.00000   0.00012   0.00012   2.60770
   R12        2.32860   0.00003   0.00000   0.00009   0.00009   2.32869
   R13        2.32860   0.00006   0.00000   0.00009   0.00009   2.32869
   R14        2.39073  -0.00003   0.00000  -0.00005  -0.00005   2.39068
    A1        2.18078  -0.00001   0.00000  -0.00008  -0.00008   2.18070
    A2        2.11775  -0.00000   0.00000  -0.00000  -0.00000   2.11775
    A3        1.98465   0.00001   0.00000   0.00008   0.00008   1.98473
    A4        2.08123  -0.00003   0.00000  -0.00011  -0.00011   2.08112
    A5        2.10357  -0.00002   0.00000  -0.00032  -0.00032   2.10326
    A6        2.09838   0.00006   0.00000   0.00043   0.00043   2.09881
    A7        2.09292   0.00003   0.00000   0.00014   0.00014   2.09306
    A8        2.09505   0.00000   0.00000   0.00001   0.00001   2.09506
    A9        2.09521  -0.00004   0.00000  -0.00014  -0.00014   2.09506
   A10        2.08118  -0.00001   0.00000  -0.00006  -0.00006   2.08112
   A11        2.09886   0.00000   0.00000  -0.00005  -0.00005   2.09881
   A12        2.10315   0.00000   0.00000   0.00011   0.00011   2.10326
   A13        2.18039   0.00003   0.00000   0.00031   0.00031   2.18070
   A14        2.11778  -0.00001   0.00000  -0.00003  -0.00003   2.11775
   A15        1.98501  -0.00002   0.00000  -0.00028  -0.00028   1.98473
   A16        2.05055  -0.00003   0.00000  -0.00007  -0.00007   2.05048
   A17        2.05028   0.00006   0.00000   0.00020   0.00020   2.05048
   A18        2.18235  -0.00003   0.00000  -0.00013  -0.00013   2.18222
   A19        2.07550   0.00002   0.00000   0.00007   0.00007   2.07557
   A20        2.10355   0.00006   0.00000   0.00025   0.00025   2.10381
   A21        2.10413  -0.00008   0.00000  -0.00032  -0.00032   2.10381
    D1        3.14159  -0.00000   0.00000  -0.00000   0.00000   3.14159
    D2        0.00000  -0.00000   0.00000  -0.00000   0.00000   0.00000
    D3       -0.00000   0.00000   0.00000  -0.00000   0.00000   0.00000
    D4        3.14159  -0.00000   0.00000  -0.00000   0.00000   3.14159
    D5        0.00000  -0.00000   0.00000   0.00000   0.00000   0.00000
    D6        3.14159  -0.00000   0.00000   0.00000   0.00000   3.14159
    D7        3.14159   0.00000   0.00000   0.00000   0.00000   3.14159
    D8       -0.00000   0.00000   0.00000   0.00000   0.00000   0.00000
    D9        0.00000   0.00000   0.00000   0.00000   0.00000   0.00000
   D10        3.14159  -0.00000   0.00000  -0.00000   0.00000   3.14159
   D11        3.14159   0.00000   0.00000   0.00000   0.00000   3.14159
   D12       -0.00000   0.00000   0.00000  -0.00000   0.00000   0.00000
   D13       -0.00000   0.00000   0.00000   0.00000   0.00000   0.00000
   D14        3.14159   0.00000   0.00000   0.00000   0.00000   3.14159
   D15        3.14159   0.00000   0.00000   0.00000   0.00000   3.14159
   D16       -0.00000   0.00000   0.00000   0.00000   0.00000   0.00000
   D17        3.14159   0.00000   0.00000  -0.00000   0.00000   3.14159
   D18       -0.00000   0.00000   0.00000  -0.00000   0.00000   0.00000
   D19        0.00000  -0.00000   0.00000  -0.00000   0.00000   0.00000
   D20        3.14159  -0.00000   0.00000  -0.00000   0.00000   3.14159
   D21        3.14159   0.00000   0.00000  -0.00000   0.00000   3.14159
   D22        0.00000  -0.00000   0.00000  -0.00000   0.00000   0.00000
   D23       -0.00000   0.00000   0.00000  -0.00000   0.00000   0.00000
   D24        3.14159  -0.00000   0.00000  -0.00000   0.00000   3.14159
   D25       -0.00000   0.00000   0.00000   0.00000   0.00000   0.00000
   D26        3.14159   0.00000   0.00000  -0.00000   0.00000   3.14159
   D27        3.14159  -0.00000   0.00000  -0.00000   0.00000   3.14159
   D28        0.00000  -0.00000   0.00000  -0.00000   0.00000   0.00000
         Item               Value     Threshold  Converged?
 Maximum Force            0.000302     0.000450     YES
 RMS     Force            0.000051     0.000300     YES
 Maximum Displacement     0.000917     0.001800     YES
 RMS     Displacement     0.000218     0.001200     YES
 Predicted change in Energy=-2.398391D-07
 Optimization completed.
    -- Stationary point found.
                           ----------------------------
                           !   Optimized Parameters   !
                           ! (Angstroms and Degrees)  !
 --------------------------                            --------------------------
 ! Name  Definition              Value          Derivative Info.                !
 --------------------------------------------------------------------------------
 ! R1    R(1,2)                  1.3764         -DE/DX =    0.0001              !
 ! R2    R(1,10)                 1.0808         -DE/DX =    0.0001              !
 ! R3    R(1,13)                 1.3799         -DE/DX =    0.0001              !
 ! R4    R(2,3)                  1.3951         -DE/DX =    0.0                 !
 ! R5    R(2,12)                 1.0824         -DE/DX =    0.0                 !
 ! R6    R(3,4)                  1.3949         -DE/DX =    0.0001              !
 ! R7    R(3,7)                  1.4566         -DE/DX =   -0.0001              !
 ! R8    R(4,5)                  1.3765         -DE/DX =    0.0001              !
 ! R9    R(4,11)                 1.0824         -DE/DX =    0.0                 !
 ! R10   R(5,6)                  1.0805         -DE/DX =    0.0003              !
 ! R11   R(5,13)                 1.3799         -DE/DX =    0.0                 !
 ! R12   R(7,8)                  1.2322         -DE/DX =    0.0                 !
 ! R13   R(7,9)                  1.2322         -DE/DX =    0.0001              !
 ! R14   R(13,14)                1.2651         -DE/DX =    0.0                 !
 ! A1    A(2,1,10)             124.9495         -DE/DX =    0.0                 !
 ! A2    A(2,1,13)             121.3382         -DE/DX =    0.0                 !
 ! A3    A(10,1,13)            113.7123         -DE/DX =    0.0                 !
 ! A4    A(1,2,3)              119.2459         -DE/DX =    0.0                 !
 ! A5    A(1,2,12)             120.5258         -DE/DX =    0.0                 !
 ! A6    A(3,2,12)             120.2283         -DE/DX =    0.0001              !
 ! A7    A(2,3,4)              119.9156         -DE/DX =    0.0                 !
 ! A8    A(2,3,7)              120.0378         -DE/DX =    0.0                 !
 ! A9    A(4,3,7)              120.0466         -DE/DX =    0.0                 !
 ! A10   A(3,4,5)              119.243          -DE/DX =    0.0                 !
 ! A11   A(3,4,11)             120.2555         -DE/DX =    0.0                 !
 ! A12   A(5,4,11)             120.5015         -DE/DX =    0.0                 !
 ! A13   A(4,5,6)              124.9274         -DE/DX =    0.0                 !
 ! A14   A(4,5,13)             121.3399         -DE/DX =    0.0                 !
 ! A15   A(6,5,13)             113.7327         -DE/DX =    0.0                 !
 ! A16   A(3,7,8)              117.488          -DE/DX =    0.0                 !
 ! A17   A(3,7,9)              117.4725         -DE/DX =    0.0001              !
 ! A18   A(8,7,9)              125.0395         -DE/DX =    0.0                 !
 ! A19   A(1,13,5)             118.9174         -DE/DX =    0.0                 !
 ! A20   A(1,13,14)            120.5248         -DE/DX =    0.0001              !
 ! A21   A(5,13,14)            120.5578         -DE/DX =   -0.0001              !
 ! D1    D(10,1,2,3)           180.0            -DE/DX =    0.0                 !
 ! D2    D(10,1,2,12)            0.0            -DE/DX =    0.0                 !
 ! D3    D(13,1,2,3)             0.0            -DE/DX =    0.0                 !
 ! D4    D(13,1,2,12)          180.0            -DE/DX =    0.0                 !
 ! D5    D(2,1,13,5)             0.0            -DE/DX =    0.0                 !
 ! D6    D(2,1,13,14)          180.0            -DE/DX =    0.0                 !
 ! D7    D(10,1,13,5)          180.0            -DE/DX =    0.0                 !
 ! D8    D(10,1,13,14)           0.0            -DE/DX =    0.0                 !
 ! D9    D(1,2,3,4)              0.0            -DE/DX =    0.0                 !
 ! D10   D(1,2,3,7)            180.0            -DE/DX =    0.0                 !
 ! D11   D(12,2,3,4)           180.0            -DE/DX =    0.0                 !
 ! D12   D(12,2,3,7)             0.0            -DE/DX =    0.0                 !
 ! D13   D(2,3,4,5)              0.0            -DE/DX =    0.0                 !
 ! D14   D(2,3,4,11)           180.0            -DE/DX =    0.0                 !
 ! D15   D(7,3,4,5)            180.0            -DE/DX =    0.0                 !
 ! D16   D(7,3,4,11)             0.0            -DE/DX =    0.0                 !
 ! D17   D(2,3,7,8)            180.0            -DE/DX =    0.0                 !
 ! D18   D(2,3,7,9)              0.0            -DE/DX =    0.0                 !
 ! D19   D(4,3,7,8)              0.0            -DE/DX =    0.0                 !
 ! D20   D(4,3,7,9)            180.0            -DE/DX =    0.0                 !
 ! D21   D(3,4,5,6)            180.0            -DE/DX =    0.0                 !
 ! D22   D(3,4,5,13)             0.0            -DE/DX =    0.0                 !
 ! D23   D(11,4,5,6)             0.0            -DE/DX =    0.0                 !
 ! D24   D(11,4,5,13)          180.0            -DE/DX =    0.0                 !
 ! D25   D(4,5,13,1)             0.0            -DE/DX =    0.0                 !
 ! D26   D(4,5,13,14)          180.0            -DE/DX =    0.0                 !
 ! D27   D(6,5,13,1)           180.0            -DE/DX =    0.0                 !
 ! D28   D(6,5,13,14)            0.0            -DE/DX =    0.0                 !
 --------------------------------------------------------------------------------
 GradGradGradGradGradGradGradGradGradGradGradGradGradGradGradGradGradGrad

 Leave Link  103 at Fri Aug 20 15:42:32 2021, MaxMem= 24159191040 cpu:         1.4
 (Enter /public/home/users/caep010/software/Gaussian09/g09/l9999.exe)
 1\1\GINC-B1913\Freq\RB3LYP\6-31G(d,p)\C5H4N2O3\ROOT\20-Aug-2021\0\\#P 
 Geom=AllCheck Guess=TCheck SCRF=Check GenChk RB3LYP/6-31G(d,p) Freq\\N
 TPYRO11\\0,1\C,2.0903209845,1.5025,-3.807194418\C,2.9792183834,1.5025,
 -4.8580984848\C,4.3487864806,1.5025,-4.5923771516\C,4.8014543643,1.502
 5,-3.2729189772\C,3.8835585021,1.5025,-2.2470799861\H,4.1312233349,1.5
 025,-1.1953822695\N,5.3047757293,1.5025,-5.691427361\O,6.5028188941,1.
 5025,-5.403143645\O,4.8529634341,1.5025,-6.8378501817\H,1.014119434,1.
 5025,-3.9065835906\H,5.8628031222,1.5025,-3.060456576\H,2.6223851353,1
 .5025,-5.8800107111\N,2.5267100205,1.5025,-2.4981031709\O,1.6960621807
 ,1.5025,-1.5438734764\\Version=ES64L-G09RevE.01\State=1-A'\HF=-527.953
 0049\RMSD=9.037e-09\RMSF=7.265e-05\ZeroPoint=0.0956872\Thermal=0.10319
 07\Dipole=-0.320924,0.,0.3695565\DipoleDeriv=0.2020409,0.,-0.0632251,0
 .,-0.1091267,0.,0.3684879,0.,-0.4747857,0.2705239,0.,-0.2825794,0.,-0.
 0100256,0.,-0.1103244,0.,0.1545625,-0.446447,0.,0.4152694,0.,0.0311628
 ,0.,0.4154872,0.,-0.5628275,0.1030791,0.,-0.0869666,0.,-0.0100218,0.,-
 0.2593026,0.,0.3225722,-0.4204498,0.,0.4556796,0.,-0.1092183,0.,0.0235
 393,0.,0.1468605,0.0618905,0.,0.039655,0.,0.1482505,0.,-0.0040553,0.,0
 .0526778,1.7586369,0.,-0.4932658,0.,0.2922147,0.,-0.4933224,0.,1.89639
 66,-1.1844468,0.,0.1576084,0.,-0.2600129,0.,0.0642419,0.,-0.5395694,-0
 .5216256,0.,-0.0285835,0.,-0.2600162,0.,0.0648107,0.,-1.2023745,0.0577
 615,0.,-0.0035462,0.,0.1482173,0.,0.04029,0.,0.0568772,0.0820302,0.,-0
 .0268121,0.,0.126817,0.,-0.0024451,0.,0.132679,0.1277777,0.,-0.0088002
 ,0.,0.1268001,0.,-0.0332334,0.,0.0870818,0.7825679,0.,-0.6981436,0.,0.
 2210826,0.,-0.6977954,0.,0.9770127,-0.8733394,0.,0.6237101,0.,-0.33612
 35,0.,0.6236216,0.,-1.0471633\Polar=103.9692708,0.,27.8660278,-24.6439
 64,0.,110.8398857\PG=CS [SG(C5H4N2O3)]\NImag=0\\0.81597644,0.,0.116244
 86,-0.07216897,0.,0.64074623,-0.24781768,0.,0.09804063,0.69230152,0.,-
 0.05222189,0.,0.,0.13167899,0.15436967,0.,-0.27305669,0.00806455,0.,0.
 77564206,-0.04478982,0.,0.06401598,-0.31108843,0.,-0.08464713,0.675934
 10,0.,0.00657147,0.,0.,-0.05786123,0.,0.,0.12257169,0.01714742,0.,0.03
 997832,-0.02757053,0.,-0.13203214,0.08273945,0.,0.65319358,-0.00360736
 ,0.,0.00753692,-0.00711927,0.,-0.03539269,-0.15088695,0.,-0.10716618,0
 .77612082,0.,0.00021073,0.,0.,0.00635510,0.,0.,-0.05783727,0.,0.,0.131
 68080,0.01190145,0.,-0.05616908,-0.07622644,0.,0.00847352,-0.05009501,
 0.,-0.29260616,-0.00322857,0.,0.69190194,-0.00469768,0.,-0.07383518,-0
 .05250247,0.,0.01436984,0.04948216,0.,0.05086064,-0.23783291,0.,0.0964
 6856,0.62422231,0.,0.00452801,0.,0.,0.00021108,0.,0.,0.00657522,0.,0.,
 -0.05224999,0.,0.,0.11616462,-0.03700566,0.,0.01079213,0.01873757,0.,-
 0.00728083,0.00397535,0.,-0.05430691,0.15284959,0.,-0.28271222,-0.0449
 2156,0.,0.83285889,-0.00571433,0.,0.00229905,-0.00068911,0.,0.00032934
 ,-0.00321522,0.,0.00257114,0.01048392,0.,0.02013124,-0.06945276,0.,-0.
 05991845,0.07649645,0.,0.00447983,0.,0.,-0.00065984,0.,0.,0.00722455,0
 .,0.,0.00226560,0.,0.,-0.03199117,0.,0.,0.02298661,-0.00052917,0.,0.00
 115189,0.00000760,0.,0.00046682,0.00318046,0.,0.00045682,-0.00572373,0
 .,-0.01235109,-0.07205373,0.,-0.34413578,0.07396212,0.,0.35849743,-0.0
 0565425,0.,-0.00788991,-0.03101216,0.,0.03136643,-0.12089526,0.,0.0143
 2007,0.01417754,0.,0.01855473,0.00624135,0.,-0.00870082,0.00134776,0.,
 -0.00074138,0.83890601,0.,0.00724800,0.,0.,-0.00409650,0.,0.,-0.071425
 77,0.,0.,-0.00409550,0.,0.,0.00725369,0.,0.,0.00124295,0.,0.,0.2221199
 6,-0.00703640,0.,0.00855217,0.02488058,0.,0.00719461,0.01432919,0.,-0.
 12488059,0.02504765,0.,-0.03800977,-0.00955647,0.,-0.00333099,0.000600
 59,0.,-0.00036196,0.15703477,0.,0.79485633,-0.00156616,0.,0.00228919,0
 .00351690,0.,0.00600738,-0.06979556,0.,0.01452525,-0.00146547,0.,-0.00
 955789,-0.00298655,0.,0.00168238,-0.00025218,0.,0.00006391,-0.52520980
 ,0.,-0.08079100,0.63890538,0.,-0.00104289,0.,0.,0.00372997,0.,0.,0.017
 40546,0.,0.,0.00138657,0.,0.,-0.00050073,0.,0.,-0.00004864,0.,0.,-0.07
 435351,0.,0.,0.02791615,0.00215842,0.,-0.00028006,-0.00023441,0.,-0.00
 442937,0.02586014,0.,0.01612651,0.00301224,0.,-0.00801303,0.00030674,0
 .,0.00261208,-0.00001507,0.,-0.00001864,-0.06673161,0.,-0.14520133,0.1
 2137802,0.,0.15964073,0.00278011,0.,-0.00049824,-0.00880582,0.,0.00404
 746,0.02002135,0.,0.01328557,-0.00348240,0.,0.00074906,0.00030342,0.,0
 .00189641,-0.00032867,0.,0.00018272,-0.17280198,0.,-0.11613298,-0.0417
 4749,0.,-0.09240836,0.20227578,0.,-0.00049999,0.,0.,0.00138998,0.,0.,0
 .01741368,0.,0.,0.00373149,0.,0.,-0.00104452,0.,0.,-0.00057734,0.,0.,-
 0.07434999,0.,0.,0.02542813,0.,0.,0.02790172,0.00087441,0.,-0.00314988
 ,-0.00852662,0.,-0.00069895,0.00194588,0.,-0.07373091,0.00699081,0.,0.
 00257835,0.00203105,0.,-0.00215445,0.00072061,0.,-0.00026145,-0.130179
 00,0.,-0.49760800,-0.05972500,0.,-0.02042091,0.18254766,0.,0.59634255,
 -0.35630052,0.,-0.03172518,-0.00992990,0.,-0.00286391,0.00117649,0.,0.
 00256465,0.00049067,0.,-0.00015731,0.00126272,0.,-0.00150859,-0.000264
 99,0.,-0.00000825,-0.00034838,0.,-0.00050432,-0.00013846,0.,0.00015624
 ,-0.00001637,0.,0.00003111,0.37272440,0.,-0.03209033,0.,0.,0.00226332,
 0.,0.,0.00722743,0.,0.,-0.00066018,0.,0.,0.00447436,0.,0.,0.00023142,0
 .,0.,0.00124185,0.,0.,-0.00057703,0.,0.,-0.00004833,0.,0.,0.02308526,-
 0.01957112,0.,-0.05666011,0.02296653,0.,0.00807025,0.00195491,0.,-0.00
 393124,0.00016456,0.,-0.00071108,0.00132609,0.,-0.00582472,-0.00164390
 ,0.,-0.00003295,0.00083738,0.,0.00133418,0.00069335,0.,-0.00045136,-0.
 00004811,0.,-0.00025440,0.03232278,0.,0.06166749,0.00063738,0.,0.00038
 105,0.00087035,0.,-0.00130552,-0.00486161,0.,-0.00236706,-0.34080092,0
 .,-0.06095911,-0.01318343,0.,-0.00546293,0.00075986,0.,0.00000760,-0.0
 0228171,0.,-0.00014799,-0.00047480,0.,0.00375408,0.00006090,0.,-0.0002
 9934,-0.00006956,0.,0.00001196,0.35909015,0.,-0.00060878,0.,0.,0.00431
 079,0.,0.,0.00484752,0.,0.,-0.03860295,0.,0.,0.00210915,0.,0.,-0.00427
 278,0.,0.,-0.00419723,0.,0.,-0.00027584,0.,0.,0.00054458,0.,0.,-0.0006
 0330,0.,0.,0.02711484,0.00048542,0.,-0.00101809,-0.00081639,0.,-0.0061
 6208,-0.02910105,0.,0.00094133,-0.05978617,0.,-0.06978660,0.02286188,0
 .,0.01030650,-0.00036735,0.,0.00054623,-0.00434736,0.,0.00067094,0.003
 49438,0.,-0.00026635,0.00138201,0.,0.00138827,0.00001287,0.,0.00010752
 ,0.06368885,0.,0.06698152,0.01224118,0.,0.01930833,-0.09143565,0.,-0.0
 9450299,-0.00348598,0.,-0.02930187,-0.00632107,0.,0.00018539,-0.000867
 95,0.,0.00069672,0.00010756,0.,-0.00001183,-0.00000572,0.,-0.00467066,
 0.00151348,0.,0.00118027,0.00071881,0.,0.00333308,0.00050027,0.,-0.000
 33265,-0.00006978,0.,-0.00169533,0.08995772,0.,0.00210487,0.,0.,-0.038
 60952,0.,0.,0.00484790,0.,0.,0.00430706,0.,0.,-0.00060863,0.,0.,-0.000
 60331,0.,0.,-0.00419423,0.,0.,0.00054445,0.,0.,-0.00027658,0.,0.,-0.00
 427339,0.,0.,0.00054213,0.,0.,0.02712201,-0.00900548,0.,-0.01510275,-0
 .09569655,0.,-0.31910914,-0.00256671,0.,-0.00045029,-0.00030274,0.,0.0
 0102532,0.00059100,0.,0.00048703,-0.00001285,0.,-0.00006955,-0.0004683
 0,0.,-0.00160831,-0.00050214,0.,-0.00006273,0.00359667,0.,-0.00147186,
 0.00004393,0.,0.00080398,0.00007661,0.,0.00015644,0.10118275,0.,0.3360
 8665,-0.18326453,0.,-0.02305041,0.07215217,0.,0.00374205,-0.03834903,0
 .,-0.04408191,-0.05110049,0.,0.06673271,-0.22910698,0.,-0.07629633,-0.
 01342751,0.,0.00009878,-0.00810687,0.,0.00279510,0.00163526,0.,0.00045
 356,0.00173929,0.,-0.00285548,-0.01084585,0.,-0.03909498,0.00106117,0.
 ,0.00299191,-0.00313331,0.,0.00321217,0.71465644,0.,-0.07072381,0.,0.,
 -0.00254605,0.,0.,-0.00749460,0.,0.,-0.00255223,0.,0.,-0.07070235,0.,0
 .,0.00359112,0.,0.,-0.00165498,0.,0.,0.00036316,0.,0.,0.00036203,0.,0.
 ,0.00359485,0.,0.,0.01003525,0.,0.,0.01004172,0.,0.,0.19177929,-0.0827
 0974,0.,-0.21516950,0.04951404,0.,-0.06093750,-0.04406967,0.,-0.026039
 76,0.02095063,0.,0.06231661,-0.01664405,0.,-0.16946261,-0.03874163,0.,
 -0.00536629,0.00278772,0.,-0.00888146,-0.00283597,0.,0.00207421,0.0004
 4138,0.,0.00196796,-0.00027136,0.,-0.00798212,0.00262971,0.,-0.0040017
 9,0.00357420,0.,0.00019964,-0.06442614,0.,0.73252119,0.02177722,0.,0.0
 1529674,-0.00844045,0.,-0.00358447,0.00075376,0.,0.01247336,0.00134389
 ,0.,-0.01449881,-0.07088124,0.,0.05397633,0.00414922,0.,0.00156491,0.0
 0564345,0.,-0.00584804,-0.00193455,0.,0.00112975,-0.00071693,0.,0.0031
 1081,0.00175947,0.,0.00041320,-0.00073801,0.,0.00119631,0.00028042,0.,
 -0.00014836,-0.25390976,0.,0.16980090,0.30091349,0.,0.01579992,0.,0.,0
 .00605580,0.,0.,-0.00006604,0.,0.,0.00606076,0.,0.,0.01578125,0.,0.,-0
 .00386900,0.,0.,-0.00073874,0.,0.,0.00002475,0.,0.,0.00002514,0.,0.,-0
 .00386591,0.,0.,-0.00094338,0.,0.,-0.00094448,0.,0.,-0.06409341,0.,0.,
 0.03077334,0.04108975,0.,-0.08061458,-0.01314056,0.,0.00385944,0.01247
 821,0.,-0.00271857,-0.00495232,0.,-0.00593670,0.02819520,0.,0.01215187
 ,0.00008517,0.,0.00147853,-0.00584272,0.,0.00727419,0.00327813,0.,-0.0
 0130973,0.00095876,0.,-0.00252633,0.00190736,0.,0.00386456,-0.00000791
 ,0.,0.00013618,0.00105458,0.,-0.00088443,0.16977897,0.,-0.30123858,-0.
 23488262,0.,0.36646418\\0.00000619,0.,-0.00005035,-0.00012246,0.,0.000
 13498,0.00000235,0.,0.00006350,-0.00006222,0.,-0.00000182,0.00007606,0
 .,0.00019471,-0.00004295,0.,-0.00030033,0.00010388,0.,-0.00009149,-0.0
 0003260,0.,-0.00001092,-0.00001448,0.,0.00006789,0.00007615,0.,0.00001
 378,-0.00003170,0.,-0.00000476,0.00004294,0.,0.00000644,0.00006184,0.,
 -0.00000165,-0.00006300,0.,-0.00001998\\\@


 I LOVE MANKIND - IT'S PEOPLE I CAN'T STAND.
     -- LINUS OF PEANUTS
 Job cpu time:       0 days  0 hours  6 minutes 32.8 seconds.
 File lengths (MBytes):  RWF=     53 Int=      0 D2E=      0 Chk=      3 Scr=      1
 Normal termination of Gaussian 09 at Fri Aug 20 15:42:32 2021.
