 Entering Gaussian System, Link 0=g09
 Input=B3LYP6-31G.ESIRIJ.gjf
 Output=B3LYP6-31G.ESIRIJ.log
 Initial command:
 /public/home/users/caep010/software/Gaussian09/g09/l1.exe "/public/home/users/caep010/.cache/gau_scr/Gau-153288.inp" -scrdir="/public/home/users/caep010/.cache/gau_scr/"
 Entering Link 1 = /public/home/users/caep010/software/Gaussian09/g09/l1.exe PID=    153289.
  
 Copyright (c) 1988,1990,1992,1993,1995,1998,2003,2009,2015,
            Gaussian, Inc.  All Rights Reserved.
  
 This is part of the Gaussian(R) 09 program.  It is based on
 the Gaussian(R) 03 system (copyright 2003, Gaussian, Inc.),
 the Gaussian(R) 98 system (copyright 1998, Gaussian, Inc.),
 the Gaussian(R) 94 system (copyright 1995, Gaussian, Inc.),
 the Gaussian 92(TM) system (copyright 1992, Gaussian, Inc.),
 the Gaussian 90(TM) system (copyright 1990, Gaussian, Inc.),
 the Gaussian 88(TM) system (copyright 1988, Gaussian, Inc.),
 the Gaussian 86(TM) system (copyright 1986, Carnegie Mellon
 University), and the Gaussian 82(TM) system (copyright 1983,
 Carnegie Mellon University). Gaussian is a federally registered
 trademark of Gaussian, Inc.
  
 This software contains proprietary and confidential information,
 including trade secrets, belonging to Gaussian, Inc.
  
 This software is provided under written license and may be
 used, copied, transmitted, or stored only in accord with that
 written license.
  
 The following legend is applicable only to US Government
 contracts under FAR:
  
                    RESTRICTED RIGHTS LEGEND
  
 Use, reproduction and disclosure by the US Government is
 subject to restrictions as set forth in subparagraphs (a)
 and (c) of the Commercial Computer Software - Restricted
 Rights clause in FAR 52.227-19.
  
 Gaussian, Inc.
 340 Quinnipiac St., Bldg. 40, Wallingford CT 06492
  
  
 ---------------------------------------------------------------
 Warning -- This program may not be used in any manner that
 competes with the business of Gaussian, Inc. or will provide
 assistance to any competitor of Gaussian, Inc.  The licensee
 of this program is prohibited from giving any competitor of
 Gaussian, Inc. access to this program.  By using this program,
 the user acknowledges that Gaussian, Inc. is engaged in the
 business of creating and licensing software in the field of
 computational chemistry and represents and warrants to the
 licensee that it is not a competitor of Gaussian, Inc. and that
 it will not use this program in any manner prohibited above.
 ---------------------------------------------------------------
  

 Cite this work as:
 Gaussian 09, Revision E.01,
 M. J. Frisch, G. W. Trucks, H. B. Schlegel, G. E. Scuseria, 
 M. A. Robb, J. R. Cheeseman, G. Scalmani, V. Barone, B. Mennucci, 
 G. A. Petersson, H. Nakatsuji, M. Caricato, X. Li, H. P. Hratchian, 
 A. F. Izmaylov, J. Bloino, G. Zheng, J. L. Sonnenberg, M. Hada, 
 M. Ehara, K. Toyota, R. Fukuda, J. Hasegawa, M. Ishida, T. Nakajima, 
 Y. Honda, O. Kitao, H. Nakai, T. Vreven, J. A. Montgomery, Jr., 
 J. E. Peralta, F. Ogliaro, M. Bearpark, J. J. Heyd, E. Brothers, 
 K. N. Kudin, V. N. Staroverov, T. Keith, R. Kobayashi, J. Normand, 
 K. Raghavachari, A. Rendell, J. C. Burant, S. S. Iyengar, J. Tomasi, 
 M. Cossi, N. Rega, J. M. Millam, M. Klene, J. E. Knox, J. B. Cross, 
 V. Bakken, C. Adamo, J. Jaramillo, R. Gomperts, R. E. Stratmann, 
 O. Yazyev, A. J. Austin, R. Cammi, C. Pomelli, J. W. Ochterski, 
 R. L. Martin, K. Morokuma, V. G. Zakrzewski, G. A. Voth, 
 P. Salvador, J. J. Dannenberg, S. Dapprich, A. D. Daniels, 
 O. Farkas, J. B. Foresman, J. V. Ortiz, J. Cioslowski, 
 and D. J. Fox, Gaussian, Inc., Wallingford CT, 2013.
 
 ******************************************
 Gaussian 09:  ES64L-G09RevE.01 30-Nov-2015
                20-Aug-2021 
 ******************************************
 %nproc=32
 Will use up to   32 processors via shared memory.
 %mem=180GB
 -------------------------
 #P OPT Freq B3LYP/6-31G**
 -------------------------
 1/14=-1,18=20,19=15,26=3,38=1/1,3;
 2/9=110,12=2,17=6,18=5,40=1/2;
 3/5=1,6=6,7=101,11=2,16=1,25=1,30=1,71=1,74=-5/1,2,3;
 4//1;
 5/5=2,38=5/2;
 6/7=2,8=2,9=2,10=2,28=1/1;
 7//1,2,3,16;
 1/14=-1,18=20,19=15,26=3/3(2);
 2/9=110/2;
 99//99;
 2/9=110/2;
 3/5=1,6=6,7=101,11=2,16=1,25=1,30=1,71=1,74=-5/1,2,3;
 4/5=5,16=3,69=1/1;
 5/5=2,38=5/2;
 7//1,2,3,16;
 1/14=-1,18=20,19=15,26=3/3(-5);
 2/9=110/2;
 6/7=2,8=2,9=2,10=2,19=2,28=1/1;
 99/9=1/99;
 Leave Link    1 at Fri Aug 20 15:50:36 2021, MaxMem= 24159191040 cpu:         2.5
 (Enter /public/home/users/caep010/software/Gaussian09/g09/l101.exe)
 ------
 ESIRIJ
 ------
 Symbolic Z-matrix:
 Charge =  0 Multiplicity = 1
 O                     1.0171    0.4631    10.1287 
 N                     1.0814    0.6796    11.3286 
 C                     2.2808    0.2668    12.0493 
 O                     0.1996    1.2354    11.9669 
 C                     3.3394   -0.3179    11.3551 
 H                     3.2798   -0.4564    10.4377 
 C                     4.4675   -0.6856    12.0381 
 H                     5.169    -1.0683    11.5631 
 C                     4.611    -0.5122    13.4082 
 H                     5.3781   -0.775     13.8637 
 C                     3.5408    0.0752    14.0511 
 N                     3.0398    0.3942    15.3469 
 H                     3.4641    1.0292    15.7951 
 C                     1.81      0.9809    14.6888 
 H                     1.7457    1.9467    14.7512 
 H                     0.9774    0.5538    14.9464 
 C                     2.3906    0.4782    13.3872 
 
 NAtoms=     17 NQM=       17 NQMF=       0 NMMI=      0 NMMIF=      0
                NMic=       0 NMicF=      0.
                    Isotopes and Nuclear Properties:
 (Nuclear quadrupole moments (NQMom) in fm**2, nuclear magnetic moments (NMagM)
  in nuclear magnetons)

  Atom         1           2           3           4           5           6           7           8           9          10
 IAtWgt=          16          14          12          16          12           1          12           1          12           1
 AtmWgt=  15.9949146  14.0030740  12.0000000  15.9949146  12.0000000   1.0078250  12.0000000   1.0078250  12.0000000   1.0078250
 NucSpn=           0           2           0           0           0           1           0           1           0           1
 AtZEff=   0.0000000   0.0000000   0.0000000   0.0000000   0.0000000   0.0000000   0.0000000   0.0000000   0.0000000   0.0000000
 NQMom=    0.0000000   2.0440000   0.0000000   0.0000000   0.0000000   0.0000000   0.0000000   0.0000000   0.0000000   0.0000000
 NMagM=    0.0000000   0.4037610   0.0000000   0.0000000   0.0000000   2.7928460   0.0000000   2.7928460   0.0000000   2.7928460
 AtZNuc=   8.0000000   7.0000000   6.0000000   8.0000000   6.0000000   1.0000000   6.0000000   1.0000000   6.0000000   1.0000000

  Atom        11          12          13          14          15          16          17
 IAtWgt=          12          14           1          12           1           1          12
 AtmWgt=  12.0000000  14.0030740   1.0078250  12.0000000   1.0078250   1.0078250  12.0000000
 NucSpn=           0           2           1           0           1           1           0
 AtZEff=   0.0000000   0.0000000   0.0000000   0.0000000   0.0000000   0.0000000   0.0000000
 NQMom=    0.0000000   2.0440000   0.0000000   0.0000000   0.0000000   0.0000000   0.0000000
 NMagM=    0.0000000   0.4037610   2.7928460   0.0000000   2.7928460   2.7928460   0.0000000
 AtZNuc=   6.0000000   7.0000000   1.0000000   6.0000000   1.0000000   1.0000000   6.0000000
 Leave Link  101 at Fri Aug 20 15:50:36 2021, MaxMem= 24159191040 cpu:        10.6
 (Enter /public/home/users/caep010/software/Gaussian09/g09/l103.exe)

 GradGradGradGradGradGradGradGradGradGradGradGradGradGradGradGradGradGrad
 Berny optimization.
 Initialization pass.
                           ----------------------------
                           !    Initial Parameters    !
                           ! (Angstroms and Degrees)  !
 --------------------------                            --------------------------
 ! Name  Definition              Value          Derivative Info.                !
 --------------------------------------------------------------------------------
 ! R1    R(1,2)                  1.221          estimate D2E/DX2                !
 ! R2    R(2,3)                  1.4589         estimate D2E/DX2                !
 ! R3    R(2,4)                  1.2223         estimate D2E/DX2                !
 ! R4    R(3,5)                  1.3944         estimate D2E/DX2                !
 ! R5    R(3,17)                 1.3589         estimate D2E/DX2                !
 ! R6    R(5,6)                  0.9297         estimate D2E/DX2                !
 ! R7    R(5,7)                  1.3691         estimate D2E/DX2                !
 ! R8    R(7,8)                  0.9296         estimate D2E/DX2                !
 ! R9    R(7,9)                  1.3885         estimate D2E/DX2                !
 ! R10   R(9,10)                 0.93           estimate D2E/DX2                !
 ! R11   R(9,11)                 1.3797         estimate D2E/DX2                !
 ! R12   R(11,12)                1.4254         estimate D2E/DX2                !
 ! R13   R(11,17)                1.3879         estimate D2E/DX2                !
 ! R14   R(12,13)                0.8855         estimate D2E/DX2                !
 ! R15   R(12,14)                1.5132         estimate D2E/DX2                !
 ! R16   R(14,15)                0.9699         estimate D2E/DX2                !
 ! R17   R(14,16)                0.9706         estimate D2E/DX2                !
 ! R18   R(14,17)                1.5113         estimate D2E/DX2                !
 ! A1    A(1,2,3)              118.5942         estimate D2E/DX2                !
 ! A2    A(1,2,4)              123.7698         estimate D2E/DX2                !
 ! A3    A(3,2,4)              117.6333         estimate D2E/DX2                !
 ! A4    A(2,3,5)              119.7914         estimate D2E/DX2                !
 ! A5    A(2,3,17)             120.5816         estimate D2E/DX2                !
 ! A6    A(5,3,17)             119.6052         estimate D2E/DX2                !
 ! A7    A(3,5,6)              120.3345         estimate D2E/DX2                !
 ! A8    A(3,5,7)              119.3279         estimate D2E/DX2                !
 ! A9    A(6,5,7)              120.3376         estimate D2E/DX2                !
 ! A10   A(5,7,8)              118.5194         estimate D2E/DX2                !
 ! A11   A(5,7,9)              122.95           estimate D2E/DX2                !
 ! A12   A(8,7,9)              118.5306         estimate D2E/DX2                !
 ! A13   A(7,9,10)             122.2245         estimate D2E/DX2                !
 ! A14   A(7,9,11)             115.6452         estimate D2E/DX2                !
 ! A15   A(10,9,11)            122.1303         estimate D2E/DX2                !
 ! A16   A(9,11,12)            142.3237         estimate D2E/DX2                !
 ! A17   A(9,11,17)            122.9261         estimate D2E/DX2                !
 ! A18   A(12,11,17)            94.5075         estimate D2E/DX2                !
 ! A19   A(11,12,13)           116.884          estimate D2E/DX2                !
 ! A20   A(11,12,14)            88.6856         estimate D2E/DX2                !
 ! A21   A(13,12,14)           109.3606         estimate D2E/DX2                !
 ! A22   A(12,14,15)           114.3284         estimate D2E/DX2                !
 ! A23   A(12,14,16)           114.2768         estimate D2E/DX2                !
 ! A24   A(12,14,17)            86.1795         estimate D2E/DX2                !
 ! A25   A(15,14,16)           111.3601         estimate D2E/DX2                !
 ! A26   A(15,14,17)           114.3359         estimate D2E/DX2                !
 ! A27   A(16,14,17)           114.3167         estimate D2E/DX2                !
 ! A28   A(3,17,11)            119.5214         estimate D2E/DX2                !
 ! A29   A(3,17,14)            150.2993         estimate D2E/DX2                !
 ! A30   A(11,17,14)            90.1711         estimate D2E/DX2                !
 ! D1    D(1,2,3,5)              2.2355         estimate D2E/DX2                !
 ! D2    D(1,2,3,17)          -179.4688         estimate D2E/DX2                !
 ! D3    D(4,2,3,5)           -177.1867         estimate D2E/DX2                !
 ! D4    D(4,2,3,17)             1.109          estimate D2E/DX2                !
 ! D5    D(2,3,5,6)             -0.8377         estimate D2E/DX2                !
 ! D6    D(2,3,5,7)            179.1449         estimate D2E/DX2                !
 ! D7    D(17,3,5,6)          -179.1501         estimate D2E/DX2                !
 ! D8    D(17,3,5,7)             0.8325         estimate D2E/DX2                !
 ! D9    D(2,3,17,11)          179.9238         estimate D2E/DX2                !
 ! D10   D(2,3,17,14)            1.4008         estimate D2E/DX2                !
 ! D11   D(5,3,17,11)           -1.7773         estimate D2E/DX2                !
 ! D12   D(5,3,17,14)          179.6997         estimate D2E/DX2                !
 ! D13   D(3,5,7,8)           -179.5271         estimate D2E/DX2                !
 ! D14   D(3,5,7,9)              0.4523         estimate D2E/DX2                !
 ! D15   D(6,5,7,8)              0.4555         estimate D2E/DX2                !
 ! D16   D(6,5,7,9)           -179.5651         estimate D2E/DX2                !
 ! D17   D(5,7,9,10)           179.2576         estimate D2E/DX2                !
 ! D18   D(5,7,9,11)            -0.7145         estimate D2E/DX2                !
 ! D19   D(8,7,9,10)            -0.763          estimate D2E/DX2                !
 ! D20   D(8,7,9,11)           179.2649         estimate D2E/DX2                !
 ! D21   D(7,9,11,12)          172.3664         estimate D2E/DX2                !
 ! D22   D(7,9,11,17)           -0.2791         estimate D2E/DX2                !
 ! D23   D(10,9,11,12)          -7.6057         estimate D2E/DX2                !
 ! D24   D(10,9,11,17)         179.7488         estimate D2E/DX2                !
 ! D25   D(9,11,12,13)          69.7795         estimate D2E/DX2                !
 ! D26   D(9,11,12,14)        -179.1112         estimate D2E/DX2                !
 ! D27   D(17,11,12,13)       -116.4079         estimate D2E/DX2                !
 ! D28   D(17,11,12,14)         -5.2986         estimate D2E/DX2                !
 ! D29   D(9,11,17,3)            1.5344         estimate D2E/DX2                !
 ! D30   D(9,11,17,14)        -179.1974         estimate D2E/DX2                !
 ! D31   D(12,11,17,3)        -173.9643         estimate D2E/DX2                !
 ! D32   D(12,11,17,14)          5.3039         estimate D2E/DX2                !
 ! D33   D(11,12,14,15)       -110.1675         estimate D2E/DX2                !
 ! D34   D(11,12,14,16)        119.8602         estimate D2E/DX2                !
 ! D35   D(11,12,14,17)          4.8605         estimate D2E/DX2                !
 ! D36   D(13,12,14,15)          7.9546         estimate D2E/DX2                !
 ! D37   D(13,12,14,16)       -122.0177         estimate D2E/DX2                !
 ! D38   D(13,12,14,17)        122.9826         estimate D2E/DX2                !
 ! D39   D(12,14,17,3)         173.7236         estimate D2E/DX2                !
 ! D40   D(12,14,17,11)         -4.9911         estimate D2E/DX2                !
 ! D41   D(15,14,17,3)         -71.2557         estimate D2E/DX2                !
 ! D42   D(15,14,17,11)        110.0296         estimate D2E/DX2                !
 ! D43   D(16,14,17,3)          58.7626         estimate D2E/DX2                !
 ! D44   D(16,14,17,11)       -119.9522         estimate D2E/DX2                !
 --------------------------------------------------------------------------------
 Trust Radius=3.00D-01 FncErr=1.00D-07 GrdErr=1.00D-06
 Number of steps in this run=    102 maximum allowed number of steps=    102.
 GradGradGradGradGradGradGradGradGradGradGradGradGradGradGradGradGradGrad

 Leave Link  103 at Fri Aug 20 15:50:36 2021, MaxMem= 24159191040 cpu:         0.5
 (Enter /public/home/users/caep010/software/Gaussian09/g09/l202.exe)
                          Input orientation:                          
 ---------------------------------------------------------------------
 Center     Atomic      Atomic             Coordinates (Angstroms)
 Number     Number       Type             X           Y           Z
 ---------------------------------------------------------------------
      1          8           0        1.017100    0.463100   10.128700
      2          7           0        1.081400    0.679600   11.328600
      3          6           0        2.280800    0.266800   12.049300
      4          8           0        0.199600    1.235400   11.966900
      5          6           0        3.339400   -0.317900   11.355100
      6          1           0        3.279800   -0.456400   10.437700
      7          6           0        4.467500   -0.685600   12.038100
      8          1           0        5.169000   -1.068300   11.563100
      9          6           0        4.611000   -0.512200   13.408200
     10          1           0        5.378100   -0.775000   13.863700
     11          6           0        3.540800    0.075200   14.051100
     12          7           0        3.039800    0.394200   15.346900
     13          1           0        3.464100    1.029200   15.795100
     14          6           0        1.810000    0.980900   14.688800
     15          1           0        1.745700    1.946700   14.751200
     16          1           0        0.977400    0.553800   14.946400
     17          6           0        2.390600    0.478200   13.387200
 ---------------------------------------------------------------------
                    Distance matrix (angstroms):
                    1          2          3          4          5
     1  O    0.000000
     2  N    1.220970   0.000000
     3  C    2.307418   1.458894   0.000000
     4  O    2.154932   1.222257   2.297035   0.000000
     5  C    2.739908   2.468658   1.394425   3.556035   0.000000
     6  H    2.461864   2.630050   2.029353   3.832528   0.929708
     7  C    4.107381   3.719252   2.385131   4.680842   1.369051
     8  H    4.651985   4.451811   3.218786   5.492270   1.988417
     9  C    4.962101   4.266521   2.807718   4.959022   2.422796
    10  H    5.873792   5.196559   3.737735   5.869959   3.264707
    11  C    4.680251   3.718327   2.373081   4.105310   2.731942
    12  N    5.596934   4.479232   3.386219   4.494302   4.065872
    13  H    6.198094   5.074357   4.001558   5.035335   4.641533
    14  C    4.657394   3.451461   2.774626   3.172838   3.890951
    15  H    4.909117   3.709586   3.226245   3.263234   4.381984
    16  H    4.818717   3.621480   3.189735   3.153882   4.385925
    17  C    3.536178   2.447938   1.358942   2.718655   2.379796
                    6          7          8          9         10
     6  H    0.000000
     7  C    2.006102   0.000000
     8  H    2.282548   0.929616   0.000000
     9  C    3.255622   1.388465   2.006242   0.000000
    10  H    4.030117   2.042058   2.328628   0.930047   0.000000
    11  C    3.661609   2.343023   3.185714   1.379742   2.033133
    12  N    4.988122   3.761975   4.581434   2.654955   3.005754
    13  H    5.562617   4.249988   5.021555   3.064080   3.263256
    14  C    4.722075   4.106792   5.025147   3.422701   4.061442
    15  H    5.170555   4.658123   5.565356   4.007466   4.624893
    16  H    5.162357   4.709047   5.625606   4.087232   4.722723
    17  C    3.219271   2.736424   3.665857   2.431360   3.274556
                   11         12         13         14         15
    11  C    0.000000
    12  N    1.425433   0.000000
    13  H    1.989355   0.885516   0.000000
    14  C    2.054902   1.513182   1.990548   0.000000
    15  H    2.686082   2.107086   2.210075   0.969947   0.000000
    16  H    2.757107   2.106980   2.670201   0.970564   1.602672
    17  C    1.387852   2.066142   2.693322   1.511280   2.105442
                   16         17
    16  H    0.000000
    17  C    2.105696   0.000000
 Stoichiometry    C7H6N2O2
 Framework group  C1[X(C7H6N2O2)]
 Deg. of freedom    45
 Full point group                 C1      NOp   1
 Largest Abelian subgroup         C1      NOp   1
 Largest concise Abelian subgroup C1      NOp   1
                         Standard orientation:                         
 ---------------------------------------------------------------------
 Center     Atomic      Atomic             Coordinates (Angstroms)
 Number     Number       Type             X           Y           Z
 ---------------------------------------------------------------------
      1          8           0       -2.917964    0.510340   -0.027958
      2          7           0       -1.975154   -0.265104   -0.004245
      3          6           0       -0.622103    0.280421   -0.009625
      4          8           0       -2.096123   -1.480730    0.034889
      5          6           0       -0.431954    1.661734    0.005832
      6          1           0       -1.162840    2.236328    0.007809
      7          6           0        0.841899    2.163174    0.018430
      8          1           0        0.955629    3.085651    0.035418
      9          6           0        1.971450    1.355816    0.007392
     10          1           0        2.832432    1.707518    0.005937
     11          6           0        1.733944   -0.003298   -0.001894
     12          7           0        2.389840   -1.262361   -0.130040
     13          1           0        2.913805   -1.510847    0.539180
     14          6           0        1.043390   -1.938662    0.009274
     15          1           0        0.922684   -2.420820    0.842191
     16          1           0        0.788815   -2.481834   -0.753714
     17          6           0        0.456601   -0.545956    0.005211
 ---------------------------------------------------------------------
 Rotational constants (GHZ):      1.9642604      1.0601268      0.6920046
 Leave Link  202 at Fri Aug 20 15:50:37 2021, MaxMem= 24159191040 cpu:         2.1
 (Enter /public/home/users/caep010/software/Gaussian09/g09/l301.exe)
 Standard basis: 6-31G(d,p) (6D, 7F)
 Ernie: Thresh=  0.10000D-02 Tol=  0.10000D-05 Strict=F.
 There are   195 symmetry adapted cartesian basis functions of A   symmetry.
 There are   195 symmetry adapted basis functions of A   symmetry.
   195 basis functions,   350 primitive gaussians,   195 cartesian basis functions
    39 alpha electrons       39 beta electrons
       nuclear repulsion energy       589.8673712316 Hartrees.
 IExCor=  402 DFT=T Ex+Corr=B3LYP ExCW=0 ScaHFX=  0.200000
 ScaDFX=  0.800000  0.720000  1.000000  0.810000 ScalE2=  1.000000  1.000000
 IRadAn=      0 IRanWt=     -1 IRanGd=            0 ICorTp=0 IEmpDi=  4
 NAtoms=   17 NActive=   17 NUniq=   17 SFac= 1.00D+00 NAtFMM=   60 NAOKFM=F Big=F
 Integral buffers will be    131072 words long.
 Raffenetti 2 integral format.
 Two-electron integral symmetry is turned on.
 Leave Link  301 at Fri Aug 20 15:50:37 2021, MaxMem= 24159191040 cpu:         3.3
 (Enter /public/home/users/caep010/software/Gaussian09/g09/l302.exe)
 NPDir=0 NMtPBC=     1 NCelOv=     1 NCel=       1 NClECP=     1 NCelD=      1
         NCelK=      1 NCelE2=     1 NClLst=     1 CellRange=     0.0.
 One-electron integrals computed using PRISM.
 NBasis=   195 RedAO= T EigKep=  3.01D-04  NBF=   195
 NBsUse=   195 1.00D-06 EigRej= -1.00D+00 NBFU=   195
 Precomputing XC quadrature grid using
 IXCGrd= 4 IRadAn=           0 IRanWt=          -1 IRanGd=           0 AccXCQ= 0.00D+00.
 Generated NRdTot=       0 NPtTot=           0 NUsed=           0 NTot=          32
 NSgBfM=   194   194   194   194   194 MxSgAt=    17 MxSgA2=    17.
 Leave Link  302 at Fri Aug 20 15:50:37 2021, MaxMem= 24159191040 cpu:        12.1
 (Enter /public/home/users/caep010/software/Gaussian09/g09/l303.exe)
 DipDrv:  MaxL=1.
 Leave Link  303 at Fri Aug 20 15:50:37 2021, MaxMem= 24159191040 cpu:         0.8
 (Enter /public/home/users/caep010/software/Gaussian09/g09/l401.exe)
 ExpMin= 1.61D-01 ExpMax= 5.48D+03 ExpMxC= 8.25D+02 IAcc=1 IRadAn=         1 AccDes= 0.00D+00
 Harris functional with IExCor=  402 and IRadAn=       1 diagonalized for initial guess.
 HarFok:  IExCor=  402 AccDes= 0.00D+00 IRadAn=         1 IDoV= 1 UseB2=F ITyADJ=14
 ICtDFT=  3500011 ScaDFX=  1.000000  1.000000  1.000000  1.000000
 FoFCou: FMM=F IPFlag=           0 FMFlag=      100000 FMFlg1=           0
         NFxFlg=           0 DoJE=T BraDBF=F KetDBF=T FulRan=T
         wScrn=  0.000000 ICntrl=     500 IOpCl=  0 I1Cent=   200000004 NGrid=           0
         NMat0=    1 NMatS0=      1 NMatT0=    0 NMatD0=    1 NMtDS0=    0 NMtDT0=    0
 Petite list used in FoFCou.
 Harris En= -530.134629900239    
 JPrj=0 DoOrth=F DoCkMO=F.
 Leave Link  401 at Fri Aug 20 15:50:38 2021, MaxMem= 24159191040 cpu:        11.8
 (Enter /public/home/users/caep010/software/Gaussian09/g09/l502.exe)
 Closed shell SCF:
 Using DIIS extrapolation, IDIIS=  1040.
 Integral symmetry usage will be decided dynamically.
 Keep R1 ints in memory in canonical form, NReq=186510601.
 IVT=      140326 IEndB=      140326 NGot= 24159191040 MDV= 23976445110
 LenX= 23976445110 LenY= 23976406644
 Requested convergence on RMS density matrix=1.00D-08 within 128 cycles.
 Requested convergence on MAX density matrix=1.00D-06.
 Requested convergence on             energy=1.00D-06.
 No special actions if energy rises.
 FoFCou: FMM=F IPFlag=           0 FMFlag=           0 FMFlg1=           0
         NFxFlg=           0 DoJE=F BraDBF=F KetDBF=F FulRan=T
         wScrn=  0.000000 ICntrl=     600 IOpCl=  0 I1Cent=           0 NGrid=           0
         NMat0=    1 NMatS0=  19110 NMatT0=    0 NMatD0=    1 NMtDS0=    0 NMtDT0=    0
 Symmetry not used in FoFCou.
 Integral accuracy reduced to 1.0D-05 until final iterations.

 Cycle   1  Pass 0  IDiag  1:
 E= -529.719330765616    
 DIIS: error= 5.47D-02 at cycle   1 NSaved=   1.
 NSaved= 1 IEnMin= 1 EnMin= -529.719330765616     IErMin= 1 ErrMin= 5.47D-02
 ErrMax= 5.47D-02  0.00D+00 EMaxC= 1.00D-01 BMatC= 3.92D-01 BMatP= 3.92D-01
 IDIUse=3 WtCom= 4.53D-01 WtEn= 5.47D-01
 Coeff-Com:  0.100D+01
 Coeff-En:   0.100D+01
 Coeff:      0.100D+01
 Gap=     0.094 Goal=   None    Shift=    0.000
 GapD=    0.094 DampG=0.500 DampE=0.500 DampFc=0.2500 IDamp=-1.
 Damping current iteration by 2.50D-01
 RMSDP=7.08D-03 MaxDP=2.54D-01              OVMax= 3.47D-01

 Cycle   2  Pass 0  IDiag  1:
 E= -529.840585118402     Delta-E=       -0.121254352786 Rises=F Damp=T
 DIIS: error= 1.64D-02 at cycle   2 NSaved=   2.
 NSaved= 2 IEnMin= 2 EnMin= -529.840585118402     IErMin= 2 ErrMin= 1.64D-02
 ErrMax= 1.64D-02  0.00D+00 EMaxC= 1.00D-01 BMatC= 7.49D-02 BMatP= 3.92D-01
 IDIUse=3 WtCom= 8.36D-01 WtEn= 1.64D-01
 Coeff-Com: -0.533D+00 0.153D+01
 Coeff-En:   0.000D+00 0.100D+01
 Coeff:     -0.446D+00 0.145D+01
 Gap=     0.143 Goal=   None    Shift=    0.000
 RMSDP=2.68D-03 MaxDP=5.48D-02 DE=-1.21D-01 OVMax= 2.29D-01

 Cycle   3  Pass 0  IDiag  1:
 E= -530.038931631571     Delta-E=       -0.198346513169 Rises=F Damp=F
 DIIS: error= 7.56D-03 at cycle   3 NSaved=   3.
 NSaved= 3 IEnMin= 3 EnMin= -530.038931631571     IErMin= 3 ErrMin= 7.56D-03
 ErrMax= 7.56D-03  0.00D+00 EMaxC= 1.00D-01 BMatC= 1.86D-02 BMatP= 7.49D-02
 IDIUse=3 WtCom= 9.24D-01 WtEn= 7.56D-02
 Coeff-Com: -0.254D+00 0.675D+00 0.579D+00
 Coeff-En:   0.000D+00 0.000D+00 0.100D+01
 Coeff:     -0.235D+00 0.624D+00 0.611D+00
 Gap=     0.155 Goal=   None    Shift=    0.000
 RMSDP=1.17D-03 MaxDP=2.82D-02 DE=-1.98D-01 OVMax= 5.32D-02

 Cycle   4  Pass 0  IDiag  1:
 E= -530.052245022498     Delta-E=       -0.013313390927 Rises=F Damp=F
 DIIS: error= 4.96D-03 at cycle   4 NSaved=   4.
 NSaved= 4 IEnMin= 4 EnMin= -530.052245022498     IErMin= 4 ErrMin= 4.96D-03
 ErrMax= 4.96D-03  0.00D+00 EMaxC= 1.00D-01 BMatC= 5.31D-03 BMatP= 1.86D-02
 IDIUse=3 WtCom= 9.50D-01 WtEn= 4.96D-02
 Coeff-Com: -0.714D-01 0.205D+00 0.358D+00 0.509D+00
 Coeff-En:   0.000D+00 0.000D+00 0.217D+00 0.783D+00
 Coeff:     -0.678D-01 0.195D+00 0.351D+00 0.522D+00
 Gap=     0.154 Goal=   None    Shift=    0.000
 RMSDP=5.33D-04 MaxDP=1.86D-02 DE=-1.33D-02 OVMax= 3.54D-02

 Cycle   5  Pass 0  IDiag  1:
 E= -530.056017002451     Delta-E=       -0.003771979953 Rises=F Damp=F
 DIIS: error= 5.00D-03 at cycle   5 NSaved=   5.
 NSaved= 5 IEnMin= 5 EnMin= -530.056017002451     IErMin= 4 ErrMin= 4.96D-03
 ErrMax= 5.00D-03  0.00D+00 EMaxC= 1.00D-01 BMatC= 1.61D-03 BMatP= 5.31D-03
 IDIUse=3 WtCom= 9.50D-01 WtEn= 5.00D-02
 Coeff-Com: -0.135D-01 0.498D-01 0.176D+00 0.385D+00 0.402D+00
 Coeff-En:   0.000D+00 0.000D+00 0.000D+00 0.220D+00 0.780D+00
 Coeff:     -0.128D-01 0.473D-01 0.168D+00 0.377D+00 0.421D+00
 Gap=     0.153 Goal=   None    Shift=    0.000
 RMSDP=2.29D-04 MaxDP=1.18D-02 DE=-3.77D-03 OVMax= 2.48D-02

 Cycle   6  Pass 0  IDiag  1:
 E= -530.057095801648     Delta-E=       -0.001078799197 Rises=F Damp=F
 DIIS: error= 2.24D-03 at cycle   6 NSaved=   6.
 NSaved= 6 IEnMin= 6 EnMin= -530.057095801648     IErMin= 6 ErrMin= 2.24D-03
 ErrMax= 2.24D-03  0.00D+00 EMaxC= 1.00D-01 BMatC= 3.09D-04 BMatP= 1.61D-03
 IDIUse=3 WtCom= 9.78D-01 WtEn= 2.24D-02
 Coeff-Com:  0.464D-03 0.589D-02 0.712D-01 0.200D+00 0.320D+00 0.403D+00
 Coeff-En:   0.000D+00 0.000D+00 0.000D+00 0.000D+00 0.187D+00 0.813D+00
 Coeff:      0.453D-03 0.576D-02 0.696D-01 0.195D+00 0.317D+00 0.412D+00
 Gap=     0.154 Goal=   None    Shift=    0.000
 RMSDP=8.98D-05 MaxDP=4.45D-03 DE=-1.08D-03 OVMax= 8.65D-03

 Cycle   7  Pass 0  IDiag  1:
 E= -530.057334908765     Delta-E=       -0.000239107117 Rises=F Damp=F
 DIIS: error= 3.02D-04 at cycle   7 NSaved=   7.
 NSaved= 7 IEnMin= 7 EnMin= -530.057334908765     IErMin= 7 ErrMin= 3.02D-04
 ErrMax= 3.02D-04  0.00D+00 EMaxC= 1.00D-01 BMatC= 1.51D-05 BMatP= 3.09D-04
 IDIUse=3 WtCom= 9.97D-01 WtEn= 3.02D-03
 Coeff-Com:  0.159D-02-0.185D-02 0.204D-01 0.688D-01 0.137D+00 0.248D+00
 Coeff-Com:  0.527D+00
 Coeff-En:   0.000D+00 0.000D+00 0.000D+00 0.000D+00 0.000D+00 0.268D-01
 Coeff-En:   0.973D+00
 Coeff:      0.158D-02-0.184D-02 0.203D-01 0.686D-01 0.136D+00 0.247D+00
 Coeff:      0.528D+00
 Gap=     0.155 Goal=   None    Shift=    0.000
 RMSDP=2.67D-05 MaxDP=6.90D-04 DE=-2.39D-04 OVMax= 1.67D-03

 Cycle   8  Pass 0  IDiag  1:
 E= -530.057349091485     Delta-E=       -0.000014182720 Rises=F Damp=F
 DIIS: error= 6.04D-05 at cycle   8 NSaved=   8.
 NSaved= 8 IEnMin= 8 EnMin= -530.057349091485     IErMin= 8 ErrMin= 6.04D-05
 ErrMax= 6.04D-05  0.00D+00 EMaxC= 1.00D-01 BMatC= 9.05D-07 BMatP= 1.51D-05
 IDIUse=1 WtCom= 1.00D+00 WtEn= 0.00D+00
 Coeff-Com:  0.101D-02-0.197D-02 0.512D-02 0.222D-01 0.499D-01 0.102D+00
 Coeff-Com:  0.286D+00 0.535D+00
 Coeff:      0.101D-02-0.197D-02 0.512D-02 0.222D-01 0.499D-01 0.102D+00
 Coeff:      0.286D+00 0.535D+00
 Gap=     0.154 Goal=   None    Shift=    0.000
 RMSDP=6.56D-06 MaxDP=1.66D-04 DE=-1.42D-05 OVMax= 5.29D-04

 Initial convergence to 1.0D-05 achieved.  Increase integral accuracy.
 Cycle   9  Pass 1  IDiag  1:
 E= -530.057401091994     Delta-E=       -0.000052000509 Rises=F Damp=F
 DIIS: error= 2.09D-05 at cycle   1 NSaved=   1.
 NSaved= 1 IEnMin= 1 EnMin= -530.057401091994     IErMin= 1 ErrMin= 2.09D-05
 ErrMax= 2.09D-05  0.00D+00 EMaxC= 1.00D-01 BMatC= 8.76D-08 BMatP= 8.76D-08
 IDIUse=1 WtCom= 1.00D+00 WtEn= 0.00D+00
 Coeff-Com:  0.100D+01
 Coeff:      0.100D+01
 Gap=     0.155 Goal=   None    Shift=    0.000
 RMSDP=6.56D-06 MaxDP=1.66D-04 DE=-5.20D-05 OVMax= 1.64D-04

 Cycle  10  Pass 1  IDiag  1:
 E= -530.057401129032     Delta-E=       -0.000000037038 Rises=F Damp=F
 DIIS: error= 1.54D-05 at cycle   2 NSaved=   2.
 NSaved= 2 IEnMin= 2 EnMin= -530.057401129032     IErMin= 2 ErrMin= 1.54D-05
 ErrMax= 1.54D-05  0.00D+00 EMaxC= 1.00D-01 BMatC= 6.13D-08 BMatP= 8.76D-08
 IDIUse=1 WtCom= 1.00D+00 WtEn= 0.00D+00
 Coeff-Com:  0.442D+00 0.558D+00
 Coeff:      0.442D+00 0.558D+00
 Gap=     0.154 Goal=   None    Shift=    0.000
 RMSDP=2.25D-06 MaxDP=6.58D-05 DE=-3.70D-08 OVMax= 1.83D-04

 Cycle  11  Pass 1  IDiag  1:
 E= -530.057401174259     Delta-E=       -0.000000045227 Rises=F Damp=F
 DIIS: error= 8.51D-06 at cycle   3 NSaved=   3.
 NSaved= 3 IEnMin= 3 EnMin= -530.057401174259     IErMin= 3 ErrMin= 8.51D-06
 ErrMax= 8.51D-06  0.00D+00 EMaxC= 1.00D-01 BMatC= 1.60D-08 BMatP= 6.13D-08
 IDIUse=1 WtCom= 1.00D+00 WtEn= 0.00D+00
 Coeff-Com:  0.176D-01 0.334D+00 0.648D+00
 Coeff:      0.176D-01 0.334D+00 0.648D+00
 Gap=     0.154 Goal=   None    Shift=    0.000
 RMSDP=9.52D-07 MaxDP=2.42D-05 DE=-4.52D-08 OVMax= 6.65D-05

 Cycle  12  Pass 1  IDiag  1:
 E= -530.057401189517     Delta-E=       -0.000000015258 Rises=F Damp=F
 DIIS: error= 2.40D-06 at cycle   4 NSaved=   4.
 NSaved= 4 IEnMin= 4 EnMin= -530.057401189517     IErMin= 4 ErrMin= 2.40D-06
 ErrMax= 2.40D-06  0.00D+00 EMaxC= 1.00D-01 BMatC= 1.99D-09 BMatP= 1.60D-08
 IDIUse=1 WtCom= 1.00D+00 WtEn= 0.00D+00
 Coeff-Com: -0.152D-01 0.175D+00 0.403D+00 0.437D+00
 Coeff:     -0.152D-01 0.175D+00 0.403D+00 0.437D+00
 Gap=     0.154 Goal=   None    Shift=    0.000
 RMSDP=2.77D-07 MaxDP=8.25D-06 DE=-1.53D-08 OVMax= 2.13D-05

 Cycle  13  Pass 1  IDiag  1:
 E= -530.057401191545     Delta-E=       -0.000000002028 Rises=F Damp=F
 DIIS: error= 3.71D-07 at cycle   5 NSaved=   5.
 NSaved= 5 IEnMin= 5 EnMin= -530.057401191545     IErMin= 5 ErrMin= 3.71D-07
 ErrMax= 3.71D-07  0.00D+00 EMaxC= 1.00D-01 BMatC= 3.63D-11 BMatP= 1.99D-09
 IDIUse=1 WtCom= 1.00D+00 WtEn= 0.00D+00
 Coeff-Com: -0.795D-02 0.716D-01 0.167D+00 0.205D+00 0.564D+00
 Coeff:     -0.795D-02 0.716D-01 0.167D+00 0.205D+00 0.564D+00
 Gap=     0.154 Goal=   None    Shift=    0.000
 RMSDP=4.31D-08 MaxDP=1.41D-06 DE=-2.03D-09 OVMax= 2.34D-06

 Cycle  14  Pass 1  IDiag  1:
 E= -530.057401191573     Delta-E=       -0.000000000028 Rises=F Damp=F
 DIIS: error= 3.41D-07 at cycle   6 NSaved=   6.
 NSaved= 6 IEnMin= 6 EnMin= -530.057401191573     IErMin= 6 ErrMin= 3.41D-07
 ErrMax= 3.41D-07  0.00D+00 EMaxC= 1.00D-01 BMatC= 1.19D-11 BMatP= 3.63D-11
 IDIUse=1 WtCom= 1.00D+00 WtEn= 0.00D+00
 Coeff-Com: -0.345D-02 0.275D-01 0.635D-01 0.826D-01 0.381D+00 0.449D+00
 Coeff:     -0.345D-02 0.275D-01 0.635D-01 0.826D-01 0.381D+00 0.449D+00
 Gap=     0.154 Goal=   None    Shift=    0.000
 RMSDP=1.93D-08 MaxDP=1.03D-06 DE=-2.80D-11 OVMax= 1.85D-06

 Cycle  15  Pass 1  IDiag  1:
 E= -530.057401191585     Delta-E=       -0.000000000011 Rises=F Damp=F
 DIIS: error= 2.08D-07 at cycle   7 NSaved=   7.
 NSaved= 7 IEnMin= 7 EnMin= -530.057401191585     IErMin= 7 ErrMin= 2.08D-07
 ErrMax= 2.08D-07  0.00D+00 EMaxC= 1.00D-01 BMatC= 2.58D-12 BMatP= 1.19D-11
 IDIUse=1 WtCom= 1.00D+00 WtEn= 0.00D+00
 Coeff-Com: -0.900D-03 0.565D-02 0.120D-01 0.172D-01 0.176D+00 0.334D+00
 Coeff-Com:  0.456D+00
 Coeff:     -0.900D-03 0.565D-02 0.120D-01 0.172D-01 0.176D+00 0.334D+00
 Coeff:      0.456D+00
 Gap=     0.154 Goal=   None    Shift=    0.000
 RMSDP=9.19D-09 MaxDP=4.72D-07 DE=-1.14D-11 OVMax= 9.72D-07

 SCF Done:  E(RB3LYP) =  -530.057401192     A.U. after   15 cycles
            NFock= 15  Conv=0.92D-08     -V/T= 2.0054
 KE= 5.272081700062D+02 PE=-2.416362049126D+03 EE= 7.692291066968D+02
 Leave Link  502 at Fri Aug 20 15:50:45 2021, MaxMem= 24159191040 cpu:        81.8
 (Enter /public/home/users/caep010/software/Gaussian09/g09/l601.exe)
 Copying SCF densities to generalized density rwf, IOpCl= 0 IROHF=0.

 **********************************************************************

            Population analysis using the SCF density.

 **********************************************************************

 Orbital symmetries:
       Occupied  (A) (A) (A) (A) (A) (A) (A) (A) (A) (A) (A) (A)
                 (A) (A) (A) (A) (A) (A) (A) (A) (A) (A) (A) (A)
                 (A) (A) (A) (A) (A) (A) (A) (A) (A) (A) (A) (A)
                 (A) (A) (A)
       Virtual   (A) (A) (A) (A) (A) (A) (A) (A) (A) (A) (A) (A)
                 (A) (A) (A) (A) (A) (A) (A) (A) (A) (A) (A) (A)
                 (A) (A) (A) (A) (A) (A) (A) (A) (A) (A) (A) (A)
                 (A) (A) (A) (A) (A) (A) (A) (A) (A) (A) (A) (A)
                 (A) (A) (A) (A) (A) (A) (A) (A) (A) (A) (A) (A)
                 (A) (A) (A) (A) (A) (A) (A) (A) (A) (A) (A) (A)
                 (A) (A) (A) (A) (A) (A) (A) (A) (A) (A) (A) (A)
                 (A) (A) (A) (A) (A) (A) (A) (A) (A) (A) (A) (A)
                 (A) (A) (A) (A) (A) (A) (A) (A) (A) (A) (A) (A)
                 (A) (A) (A) (A) (A) (A) (A) (A) (A) (A) (A) (A)
                 (A) (A) (A) (A) (A) (A) (A) (A) (A) (A) (A) (A)
                 (A) (A) (A) (A) (A) (A) (A) (A) (A) (A) (A) (A)
                 (A) (A) (A) (A) (A) (A) (A) (A) (A) (A) (A) (A)
 The electronic state is 1-A.
 Alpha  occ. eigenvalues --  -19.17562 -19.17537 -14.56740 -14.34566 -10.24895
 Alpha  occ. eigenvalues --  -10.23605 -10.22153 -10.21149 -10.19634 -10.19315
 Alpha  occ. eigenvalues --  -10.19216  -1.22878  -1.05135  -0.98934  -0.88295
 Alpha  occ. eigenvalues --   -0.81476  -0.76612  -0.73788  -0.69976  -0.62882
 Alpha  occ. eigenvalues --   -0.62266  -0.56477  -0.53411  -0.52836  -0.52348
 Alpha  occ. eigenvalues --   -0.50926  -0.49301  -0.46669  -0.44429  -0.42042
 Alpha  occ. eigenvalues --   -0.40185  -0.38505  -0.36415  -0.31706  -0.30616
 Alpha  occ. eigenvalues --   -0.30156  -0.28639  -0.27850  -0.23719
 Alpha virt. eigenvalues --   -0.08273  -0.01056   0.01116   0.08131   0.11404
 Alpha virt. eigenvalues --    0.12905   0.15105   0.15536   0.17734   0.18788
 Alpha virt. eigenvalues --    0.19679   0.20820   0.21509   0.26096   0.28410
 Alpha virt. eigenvalues --    0.29003   0.29882   0.31460   0.36504   0.42431
 Alpha virt. eigenvalues --    0.45189   0.49809   0.50041   0.50593   0.52100
 Alpha virt. eigenvalues --    0.54975   0.56018   0.57344   0.58719   0.59454
 Alpha virt. eigenvalues --    0.60766   0.63174   0.64177   0.65564   0.66288
 Alpha virt. eigenvalues --    0.68941   0.70146   0.70673   0.74149   0.75772
 Alpha virt. eigenvalues --    0.77297   0.79048   0.82209   0.86306   0.87009
 Alpha virt. eigenvalues --    0.87933   0.89984   0.91014   0.93138   0.95053
 Alpha virt. eigenvalues --    0.95523   0.95862   0.96159   0.97257   1.00088
 Alpha virt. eigenvalues --    1.00741   1.03545   1.04625   1.06853   1.09322
 Alpha virt. eigenvalues --    1.12254   1.17081   1.19941   1.22944   1.23873
 Alpha virt. eigenvalues --    1.27167   1.29363   1.31077   1.34352   1.36092
 Alpha virt. eigenvalues --    1.38192   1.40013   1.41274   1.48598   1.52419
 Alpha virt. eigenvalues --    1.58410   1.62449   1.64618   1.67283   1.69700
 Alpha virt. eigenvalues --    1.70796   1.75310   1.78841   1.79776   1.81216
 Alpha virt. eigenvalues --    1.81442   1.82285   1.86280   1.89775   1.92359
 Alpha virt. eigenvalues --    1.95337   1.96536   1.97595   1.99580   2.03961
 Alpha virt. eigenvalues --    2.07195   2.10033   2.11390   2.13712   2.14710
 Alpha virt. eigenvalues --    2.16655   2.17979   2.18699   2.20111   2.24685
 Alpha virt. eigenvalues --    2.26990   2.28885   2.31986   2.40394   2.43468
 Alpha virt. eigenvalues --    2.47433   2.47938   2.51175   2.51225   2.52300
 Alpha virt. eigenvalues --    2.54075   2.56573   2.60138   2.63654   2.65901
 Alpha virt. eigenvalues --    2.69183   2.69501   2.71525   2.76023   2.79400
 Alpha virt. eigenvalues --    2.80396   2.84652   2.87474   2.89698   2.91506
 Alpha virt. eigenvalues --    2.96384   2.97941   3.02492   3.09923   3.12383
 Alpha virt. eigenvalues --    3.23155   3.28568   3.39725   3.58071   3.62218
 Alpha virt. eigenvalues --    3.67859   3.73198   3.75369   3.79031   3.85395
 Alpha virt. eigenvalues --    3.96436   4.03317   4.11363   4.15666   4.16941
 Alpha virt. eigenvalues --    4.17434   4.35517   4.38653   4.47552   4.64989
 Alpha virt. eigenvalues --    4.94843
          Condensed to atoms (all electrons):
               1          2          3          4          5          6
     1  O    8.277375   0.295208  -0.092502  -0.108770  -0.003020   0.021109
     2  N    0.295208   5.988589   0.165978   0.301537  -0.043509  -0.017362
     3  C   -0.092502   0.165978   5.230176  -0.086637   0.453327  -0.044530
     4  O   -0.108770   0.301537  -0.086637   8.300974   0.007418   0.000219
     5  C   -0.003020  -0.043509   0.453327   0.007418   4.892797   0.378404
     6  H    0.021109  -0.017362  -0.044530   0.000219   0.378404   0.627996
     7  C    0.000931   0.005036   0.012079  -0.000011   0.503953  -0.050586
     8  H   -0.000003  -0.000145   0.006623   0.000001  -0.043713  -0.010872
     9  C   -0.000007   0.000084  -0.073787  -0.000032  -0.026294   0.008088
    10  H   -0.000000   0.000011   0.001022  -0.000000   0.006534  -0.000270
    11  C   -0.000058   0.004743  -0.006542   0.000821  -0.053500  -0.000319
    12  N    0.000001  -0.000137   0.022935   0.000099   0.000502   0.000012
    13  H   -0.000000   0.000007  -0.000913  -0.000001   0.000020  -0.000001
    14  C    0.000019  -0.007560  -0.084827   0.005198   0.006836  -0.000086
    15  H   -0.000000   0.000259   0.001708   0.000776  -0.000111   0.000000
    16  H    0.000001   0.000261   0.003531   0.001403  -0.000085   0.000001
    17  C    0.007548  -0.081520   0.353798  -0.000053  -0.061669   0.011032
               7          8          9         10         11         12
     1  O    0.000931  -0.000003  -0.000007  -0.000000  -0.000058   0.000001
     2  N    0.005036  -0.000145   0.000084   0.000011   0.004743  -0.000137
     3  C    0.012079   0.006623  -0.073787   0.001022  -0.006542   0.022935
     4  O   -0.000011   0.000001  -0.000032  -0.000000   0.000821   0.000099
     5  C    0.503953  -0.043713  -0.026294   0.006534  -0.053500   0.000502
     6  H   -0.050586  -0.010872   0.008088  -0.000270  -0.000319   0.000012
     7  C    4.799499   0.385173   0.497542  -0.054225   0.019910   0.003945
     8  H    0.385173   0.650628  -0.053053  -0.009397   0.004712  -0.000159
     9  C    0.497542  -0.053053   4.920491   0.374786   0.516185  -0.074984
    10  H   -0.054225  -0.009397   0.374786   0.656747  -0.047503  -0.002308
    11  C    0.019910   0.004712   0.516185  -0.047503   4.777144   0.226538
    12  N    0.003945  -0.000159  -0.074984  -0.002308   0.226538   6.929697
    13  H   -0.000088   0.000002  -0.002149   0.000681  -0.030999   0.360481
    14  C   -0.000708   0.000028   0.025845  -0.000951  -0.122893   0.245372
    15  H    0.000071  -0.000000  -0.000703   0.000023  -0.006629  -0.029281
    16  H    0.000032  -0.000000  -0.000811   0.000011  -0.008145  -0.022981
    17  C   -0.049286   0.001537  -0.072261   0.008300   0.471881  -0.086180
              13         14         15         16         17
     1  O   -0.000000   0.000019  -0.000000   0.000001   0.007548
     2  N    0.000007  -0.007560   0.000259   0.000261  -0.081520
     3  C   -0.000913  -0.084827   0.001708   0.003531   0.353798
     4  O   -0.000001   0.005198   0.000776   0.001403  -0.000053
     5  C    0.000020   0.006836  -0.000111  -0.000085  -0.061669
     6  H   -0.000001  -0.000086   0.000000   0.000001   0.011032
     7  C   -0.000088  -0.000708   0.000071   0.000032  -0.049286
     8  H    0.000002   0.000028  -0.000000  -0.000000   0.001537
     9  C   -0.002149   0.025845  -0.000703  -0.000811  -0.072261
    10  H    0.000681  -0.000951   0.000023   0.000011   0.008300
    11  C   -0.030999  -0.122893  -0.006629  -0.008145   0.471881
    12  N    0.360481   0.245372  -0.029281  -0.022981  -0.086180
    13  H    0.456488  -0.030971  -0.004139   0.003514   0.003847
    14  C   -0.030971   4.923350   0.370349   0.367296   0.331260
    15  H   -0.004139   0.370349   0.574809  -0.045594  -0.002908
    16  H    0.003514   0.367296  -0.045594   0.558996  -0.003742
    17  C    0.003847   0.331260  -0.002908  -0.003742   5.142416
 Mulliken charges:
               1
     1  O   -0.397833
     2  N    0.388522
     3  C    0.138561
     4  O   -0.422942
     5  C   -0.017891
     6  H    0.077164
     7  C   -0.073266
     8  H    0.068638
     9  C   -0.038939
    10  H    0.066539
    11  C    0.254654
    12  N   -0.573552
    13  H    0.244220
    14  C   -0.027558
    15  H    0.141372
    16  H    0.146312
    17  C    0.026001
 Sum of Mulliken charges =  -0.00000
 Mulliken charges with hydrogens summed into heavy atoms:
               1
     1  O   -0.397833
     2  N    0.388522
     3  C    0.138561
     4  O   -0.422942
     5  C    0.059273
     7  C   -0.004629
     9  C    0.027599
    11  C    0.254654
    12  N   -0.329332
    14  C    0.260126
    17  C    0.026001
 Electronic spatial extent (au):  <R**2>=           1540.1412
 Charge=             -0.0000 electrons
 Dipole moment (field-independent basis, Debye):
    X=              4.2591    Y=              0.7091    Z=              1.2173  Tot=              4.4860
 Quadrupole moment (field-independent basis, Debye-Ang):
   XX=            -68.4657   YY=            -55.2062   ZZ=            -60.9528
   XY=             -1.8507   XZ=              3.9511   YZ=             -1.8495
 Traceless Quadrupole moment (field-independent basis, Debye-Ang):
   XX=             -6.9241   YY=              6.3354   ZZ=              0.5888
   XY=             -1.8507   XZ=              3.9511   YZ=             -1.8495
 Octapole moment (field-independent basis, Debye-Ang**2):
  XXX=             28.5875  YYY=              0.7641  ZZZ=              1.2498  XYY=              9.1658
  XXY=              3.9786  XXZ=             12.0099  XZZ=             -9.0619  YZZ=             -6.5460
  YYZ=              3.2299  XYZ=             -6.5026
 Hexadecapole moment (field-independent basis, Debye-Ang**3):
 XXXX=          -1204.3574 YYYY=           -649.5469 ZZZZ=            -62.6671 XXXY=              9.5953
 XXXZ=             35.8780 YYYX=            -13.8386 YYYZ=             -4.9717 ZZZX=              4.1087
 ZZZY=             -2.4624 XXYY=           -306.0953 XXZZ=           -198.1223 YYZZ=           -129.8171
 XXYZ=            -17.7472 YYXZ=             10.3473 ZZXY=             -2.1555
 N-N= 5.898673712316D+02 E-N=-2.416362057659D+03  KE= 5.272081700062D+02
 No NMR shielding tensors so no spin-rotation constants.
 Leave Link  601 at Fri Aug 20 15:50:45 2021, MaxMem= 24159191040 cpu:        10.9
 (Enter /public/home/users/caep010/software/Gaussian09/g09/l701.exe)
 Compute integral first derivatives.
 ... and contract with generalized density number  0.
 Leave Link  701 at Fri Aug 20 15:50:46 2021, MaxMem= 24159191040 cpu:        13.7
 (Enter /public/home/users/caep010/software/Gaussian09/g09/l702.exe)
 L702 exits ... SP integral derivatives will be done elsewhere.
 Leave Link  702 at Fri Aug 20 15:50:46 2021, MaxMem= 24159191040 cpu:         0.5
 (Enter /public/home/users/caep010/software/Gaussian09/g09/l703.exe)
 Compute integral first derivatives, UseDBF=F ICtDFT=           0.
 Integral derivatives from FoFJK, PRISM(SPDF).
 Calling FoFJK, ICntrl=      2127 FMM=F ISym2X=0 I1Cent= 0 IOpClX= 0 NMat=1 NMatS=1 NMatT=0.
 FoFJK:  IHMeth= 1 ICntrl=    2127 DoSepK=F KAlg= 0 I1Cent=   0 FoldK=F
 IRaf=         0 NMat=   1 IRICut=       1 DoRegI=T DoRafI=F ISym2E= 0.
 FoFCou: FMM=F IPFlag=           0 FMFlag=      100000 FMFlg1=         800
         NFxFlg=           0 DoJE=F BraDBF=F KetDBF=F FulRan=T
         wScrn=  0.000000 ICntrl=    2127 IOpCl=  0 I1Cent=           0 NGrid=           0
         NMat0=    1 NMatS0=      1 NMatT0=    0 NMatD0=    1 NMtDS0=    0 NMtDT0=    0
 Symmetry not used in FoFCou.
 Leave Link  703 at Fri Aug 20 15:50:46 2021, MaxMem= 24159191040 cpu:        21.4
 (Enter /public/home/users/caep010/software/Gaussian09/g09/l716.exe)
 Dipole        = 1.67565822D+00 2.78984253D-01 4.78907382D-01
 ***** Axes restored to original set *****
 -------------------------------------------------------------------
 Center     Atomic                   Forces (Hartrees/Bohr)
 Number     Number              X              Y              Z
 -------------------------------------------------------------------
      1        8           0.003394909   -0.005332375   -0.015498604
      2        7           0.003023564   -0.000126717   -0.000609059
      3        6          -0.011744339    0.003489863   -0.012916122
      4        8          -0.009761208    0.006819588    0.013927085
      5        6          -0.001159330    0.026413653    0.149359407
      6        1          -0.013269797   -0.024057328   -0.166961276
      7        6          -0.106798925    0.060514016    0.081200228
      8        1           0.129133663   -0.070852555   -0.087571846
      9        6          -0.129929542    0.048347363   -0.059089939
     10        1           0.141627672   -0.049073970    0.080805076
     11        6          -0.007001271   -0.000840852    0.002073730
     12        7          -0.082167251   -0.110247430   -0.079109871
     13        1           0.092262283    0.116904678    0.093831547
     14        6           0.094501159   -0.070176335   -0.046256321
     15        1          -0.006187398    0.115687050    0.008297640
     16        1          -0.097127707   -0.050919335    0.034170720
     17        6           0.001203518    0.003450685    0.004347604
 -------------------------------------------------------------------
 Cartesian Forces:  Max     0.166961276 RMS     0.070603415
 Leave Link  716 at Fri Aug 20 15:50:47 2021, MaxMem= 24159191040 cpu:         0.8
 (Enter /public/home/users/caep010/software/Gaussian09/g09/l103.exe)

 GradGradGradGradGradGradGradGradGradGradGradGradGradGradGradGradGradGrad
 Berny optimization.
 FormGI is forming the generalized inverse of G from B-inverse, IUseBI=4.
 Internal  Forces:  Max     0.175532976 RMS     0.040050334
 Search for a local minimum.
 Step number   1 out of a maximum of  102
 All quantities printed in internal units (Hartrees-Bohrs-Radians)
 RMS Force = .40050D-01 SwitMx=.10000D-02 MixMth= 1
 Mixed Optimization -- RFO/linear search
 Second derivative matrix not updated -- first step.
 ITU=  0
     Eigenvalues ---    0.00913   0.00913   0.01023   0.01452   0.01917
     Eigenvalues ---    0.01990   0.02281   0.02300   0.02342   0.02396
     Eigenvalues ---    0.02440   0.03968   0.05631   0.05832   0.06697
     Eigenvalues ---    0.08055   0.08168   0.16000   0.16000   0.16000
     Eigenvalues ---    0.22091   0.23380   0.23784   0.24764   0.24989
     Eigenvalues ---    0.25000   0.25000   0.29594   0.29802   0.37103
     Eigenvalues ---    0.39287   0.41027   0.43851   0.46579   0.48300
     Eigenvalues ---    0.50055   0.52208   0.53262   0.53388   0.62449
     Eigenvalues ---    0.62534   0.62558   0.75156   0.94390   0.94955
 RFO step:  Lambda=-1.82903522D-01 EMin= 9.12721116D-03
 Linear search not attempted -- first point.
 Maximum step size (   0.300) exceeded in Quadratic search.
    -- Step size scaled by   0.628
 Iteration  1 RMS(Cart)=  0.03481497 RMS(Int)=  0.00021813
 Iteration  2 RMS(Cart)=  0.00018110 RMS(Int)=  0.00000669
 Iteration  3 RMS(Cart)=  0.00000008 RMS(Int)=  0.00000669
 ITry= 1 IFail=0 DXMaxC= 1.50D-01 DCOld= 1.00D+10 DXMaxT= 3.00D-01 DXLimC= 3.00D+00 Rises=F
 Variable       Old X    -DE/DX   Delta X   Delta X   Delta X     New X
                                 (Linear)    (Quad)   (Total)
    R1        2.30730   0.01600   0.00000   0.00887   0.00887   2.31617
    R2        2.75691   0.00421   0.00000   0.00477   0.00477   2.76168
    R3        2.30973   0.01742   0.00000   0.00970   0.00970   2.31943
    R4        2.63508   0.01058   0.00000   0.01050   0.01051   2.64559
    R5        2.56803   0.01804   0.00000   0.01558   0.01557   2.58360
    R6        1.75689   0.16919   0.00000   0.13140   0.13140   1.88830
    R7        2.58713   0.02902   0.00000   0.02675   0.02676   2.61389
    R8        1.75672   0.17136   0.00000   0.13305   0.13305   1.88977
    R9        2.62382   0.02150   0.00000   0.02080   0.02080   2.64461
   R10        1.75753   0.17026   0.00000   0.13237   0.13237   1.88991
   R11        2.60733   0.00928   0.00000   0.00837   0.00837   2.61570
   R12        2.69368   0.00522   0.00000   0.00558   0.00558   2.69926
   R13        2.62266   0.00926   0.00000   0.00867   0.00866   2.63132
   R14        1.67338   0.17553   0.00000   0.11792   0.11792   1.79130
   R15        2.85950   0.00871   0.00000   0.01048   0.01048   2.86998
   R16        1.83293   0.11614   0.00000   0.10171   0.10171   1.93465
   R17        1.83410   0.11480   0.00000   0.10071   0.10071   1.93481
   R18        2.85590   0.00400   0.00000   0.00504   0.00504   2.86095
    A1        2.06986  -0.00318   0.00000  -0.00460  -0.00460   2.06526
    A2        2.16019   0.00812   0.00000   0.01178   0.01178   2.17197
    A3        2.05309  -0.00493   0.00000  -0.00714  -0.00714   2.04594
    A4        2.09075   0.00269   0.00000   0.00393   0.00393   2.09469
    A5        2.10455   0.00105   0.00000   0.00157   0.00157   2.10612
    A6        2.08750  -0.00372   0.00000  -0.00546  -0.00546   2.08204
    A7        2.10023  -0.00198   0.00000  -0.00439  -0.00439   2.09584
    A8        2.08267  -0.00075   0.00000   0.00015   0.00016   2.08282
    A9        2.10029   0.00273   0.00000   0.00424   0.00423   2.10452
   A10        2.06855   0.00067   0.00000   0.00034   0.00033   2.06889
   A11        2.14588  -0.00148   0.00000  -0.00093  -0.00093   2.14495
   A12        2.06875   0.00081   0.00000   0.00060   0.00060   2.06934
   A13        2.13322  -0.00168   0.00000  -0.00339  -0.00338   2.12984
   A14        2.01839  -0.00191   0.00000  -0.00290  -0.00291   2.01548
   A15        2.13158   0.00360   0.00000   0.00629   0.00629   2.13787
   A16        2.48402  -0.00595   0.00000  -0.00826  -0.00825   2.47576
   A17        2.14547   0.00188   0.00000   0.00168   0.00167   2.14714
   A18        1.64947   0.00406   0.00000   0.00659   0.00659   1.65606
   A19        2.04001   0.00045   0.00000   0.00085   0.00086   2.04087
   A20        1.54785  -0.00421   0.00000  -0.00612  -0.00612   1.54173
   A21        1.90870   0.00843   0.00000   0.01994   0.01994   1.92864
   A22        1.99541  -0.00251   0.00000  -0.00472  -0.00472   1.99068
   A23        1.99451  -0.00230   0.00000  -0.00430  -0.00432   1.99018
   A24        1.50412   0.00443   0.00000   0.00561   0.00561   1.50973
   A25        1.94360   0.00110   0.00000   0.00132   0.00130   1.94490
   A26        1.99554  -0.00159   0.00000  -0.00207  -0.00207   1.99347
   A27        1.99520   0.00121   0.00000   0.00460   0.00462   1.99982
   A28        2.08604   0.00601   0.00000   0.00752   0.00751   2.09355
   A29        2.62322  -0.00200   0.00000  -0.00216  -0.00215   2.62106
   A30        1.57378  -0.00403   0.00000  -0.00539  -0.00540   1.56838
    D1        0.03902   0.00017   0.00000   0.00073   0.00073   0.03974
    D2       -3.13232   0.00076   0.00000   0.00232   0.00232  -3.13000
    D3       -3.09249  -0.00099   0.00000  -0.00308  -0.00308  -3.09557
    D4        0.01936  -0.00041   0.00000  -0.00149  -0.00149   0.01787
    D5       -0.01462   0.00035   0.00000   0.00100   0.00100  -0.01362
    D6        3.12667   0.00067   0.00000   0.00171   0.00170   3.12837
    D7       -3.12676  -0.00030   0.00000  -0.00070  -0.00069  -3.12745
    D8        0.01453   0.00001   0.00000   0.00001   0.00001   0.01454
    D9        3.14026  -0.00004   0.00000  -0.00023  -0.00024   3.14003
   D10        0.02445   0.00122   0.00000   0.00307   0.00307   0.02752
   D11       -0.03102   0.00065   0.00000   0.00151   0.00150  -0.02952
   D12        3.13635   0.00191   0.00000   0.00482   0.00481   3.14116
   D13       -3.13334  -0.00032   0.00000  -0.00076  -0.00077  -3.13410
   D14        0.00789  -0.00038   0.00000  -0.00074  -0.00073   0.00716
   D15        0.00795  -0.00001   0.00000  -0.00006  -0.00006   0.00789
   D16       -3.13400  -0.00007   0.00000  -0.00003  -0.00003  -3.13403
   D17        3.12863   0.00049   0.00000   0.00109   0.00108   3.12972
   D18       -0.01247  -0.00014   0.00000  -0.00033  -0.00033  -0.01280
   D19       -0.01332   0.00042   0.00000   0.00112   0.00111  -0.01220
   D20        3.12876  -0.00021   0.00000  -0.00030  -0.00030   3.12847
   D21        3.00836   0.00116   0.00000   0.00289   0.00288   3.01124
   D22       -0.00487   0.00098   0.00000   0.00209   0.00208  -0.00279
   D23       -0.13274   0.00054   0.00000   0.00147   0.00146  -0.13128
   D24        3.13721   0.00035   0.00000   0.00068   0.00067   3.13788
   D25        1.21788  -0.00618   0.00000  -0.01615  -0.01615   1.20173
   D26       -3.12608   0.00120   0.00000   0.00333   0.00334  -3.12274
   D27       -2.03170  -0.00593   0.00000  -0.01543  -0.01543  -2.04713
   D28       -0.09248   0.00145   0.00000   0.00406   0.00406  -0.08841
   D29        0.02678  -0.00116   0.00000  -0.00262  -0.00261   0.02417
   D30       -3.12758  -0.00183   0.00000  -0.00430  -0.00431  -3.13189
   D31       -3.03625  -0.00064   0.00000  -0.00222  -0.00222  -3.03847
   D32        0.09257  -0.00131   0.00000  -0.00390  -0.00391   0.08866
   D33       -1.92279  -0.00117   0.00000  -0.00335  -0.00334  -1.92613
   D34        2.09195   0.00188   0.00000   0.00345   0.00343   2.09538
   D35        0.08483  -0.00120   0.00000  -0.00367  -0.00367   0.08116
   D36        0.13883  -0.00095   0.00000  -0.00158  -0.00157   0.13726
   D37       -2.12961   0.00210   0.00000   0.00522   0.00520  -2.12441
   D38        2.14645  -0.00098   0.00000  -0.00190  -0.00190   2.14455
   D39        3.03205   0.00037   0.00000   0.00111   0.00112   3.03317
   D40       -0.08711   0.00138   0.00000   0.00389   0.00389  -0.08322
   D41       -1.24365  -0.00056   0.00000  -0.00177  -0.00177  -1.24541
   D42        1.92038   0.00046   0.00000   0.00101   0.00100   1.92138
   D43        1.02560   0.00068   0.00000   0.00261   0.00261   1.02822
   D44       -2.09356   0.00170   0.00000   0.00539   0.00538  -2.08818
         Item               Value     Threshold  Converged?
 Maximum Force            0.175533     0.000450     NO 
 RMS     Force            0.040050     0.000300     NO 
 Maximum Displacement     0.149690     0.001800     NO 
 RMS     Displacement     0.034822     0.001200     NO 
 Predicted change in Energy=-8.708017D-02
 Lowest energy point so far.  Saving SCF results.
 GradGradGradGradGradGradGradGradGradGradGradGradGradGradGradGradGradGrad

 Leave Link  103 at Fri Aug 20 15:50:47 2021, MaxMem= 24159191040 cpu:        19.0
 (Enter /public/home/users/caep010/software/Gaussian09/g09/l202.exe)
                          Input orientation:                          
 ---------------------------------------------------------------------
 Center     Atomic      Atomic             Coordinates (Angstroms)
 Number     Number       Type             X           Y           Z
 ---------------------------------------------------------------------
      1          8           0        1.005898    0.468697   10.115629
      2          7           0        1.067529    0.686888   11.320138
      3          6           0        2.269719    0.271178   12.039634
      4          8           0        0.186804    1.240814   11.971275
      5          6           0        3.333925   -0.315884   11.344809
      6          1           0        3.268260   -0.461992   10.358487
      7          6           0        4.471436   -0.689654   12.037368
      8          1           0        5.226931   -1.101963   11.528173
      9          6           0        4.611668   -0.515887   13.418909
     10          1           0        5.436262   -0.800088   13.908262
     11          6           0        3.534846    0.075005   14.057053
     12          7           0        3.036129    0.393456   15.357113
     13          1           0        3.499285    1.063113   15.842491
     14          6           0        1.801401    0.976414   14.692172
     15          1           0        1.732719    1.995623   14.760029
     16          1           0        0.925854    0.523191   14.968389
     17          6           0        2.383433    0.478789   13.386169
 ---------------------------------------------------------------------
                    Distance matrix (angstroms):
                    1          2          3          4          5
     1  O    0.000000
     2  N    1.225662   0.000000
     3  C    2.310422   1.461420   0.000000
     4  O    2.170369   1.227392   2.298565   0.000000
     5  C    2.747027   2.478449   1.399985   3.566530   0.000000
     6  H    2.458342   2.662314   2.088272   3.872468   0.999244
     7  C    4.128536   3.741105   2.402241   4.699909   1.383211
     8  H    4.720104   4.532537   3.300336   5.575646   2.057916
     9  C    4.988251   4.290971   2.829594   4.976049   2.444284
    10  H    5.968418   5.291060   3.829671   5.956006   3.350458
    11  C    4.699510   3.735339   2.389354   4.113267   2.747623
    12  N    5.621446   4.500962   3.407053   4.505616   4.085393
    13  H    6.274334   5.148462   4.074398   5.098080   4.707242
    14  C    4.672831   3.463093   2.784356   3.174919   3.901731
    15  H    4.942694   3.740069   3.265368   3.276696   4.423874
    16  H    4.853726   3.654669   3.232196   3.169206   4.430935
    17  C    3.548822   2.458332   1.367183   2.721725   2.387906
                    6          7          8          9         10
     6  H    0.000000
     7  C    2.078004   0.000000
     8  H    2.369413   1.000026   0.000000
     9  C    3.342728   1.399470   2.072900   0.000000
    10  H    4.173181   2.107921   2.408272   1.000096   0.000000
    11  C    3.746842   2.353940   3.262459   1.384170   2.098406
    12  N    5.076607   3.775440   4.657969   2.658170   3.047024
    13  H    5.696808   4.300725   5.126954   3.099095   3.311290
    14  C    4.795989   4.117385   5.105370   3.427210   4.121006
    15  H    5.269851   4.703634   5.678860   4.049029   4.717811
    16  H    5.263900   4.757418   5.742428   4.131077   4.818581
    17  C    3.291633   2.746685   3.746520   2.440386   3.350802
                   11         12         13         14         15
    11  C    0.000000
    12  N    1.428386   0.000000
    13  H    2.040934   0.947916   0.000000
    14  C    2.054446   1.518730   2.052696   0.000000
    15  H    2.725915   2.149960   2.272015   1.023771   0.000000
    16  H    2.799686   2.149697   2.770941   1.023860   1.691893
    17  C    1.392437   2.077959   2.760449   1.513947   2.147488
                   16         17
    16  H    0.000000
    17  C    2.151726   0.000000
 Stoichiometry    C7H6N2O2
 Framework group  C1[X(C7H6N2O2)]
 Deg. of freedom    45
 Full point group                 C1      NOp   1
 RotChk:  IX=0 Diff= 1.37D-03
 Largest Abelian subgroup         C1      NOp   1
 Largest concise Abelian subgroup C1      NOp   1
                         Standard orientation:                         
 ---------------------------------------------------------------------
 Center     Atomic      Atomic             Coordinates (Angstroms)
 Number     Number       Type             X           Y           Z
 ---------------------------------------------------------------------
      1          8           0       -2.931491    0.512376   -0.026807
      2          7           0       -1.987031   -0.268418   -0.002233
      3          6           0       -0.632774    0.280856   -0.008098
      4          8           0       -2.097210   -1.490315    0.034090
      5          6           0       -0.439280    1.667323    0.007031
      6          1           0       -1.226395    2.282895    0.010073
      7          6           0        0.848624    2.171778    0.017177
      8          1           0        0.973008    3.163886    0.034529
      9          6           0        1.984970    1.355032    0.004619
     10          1           0        2.910513    1.733922    0.002120
     11          6           0        1.739158   -0.007116   -0.002906
     12          7           0        2.399875   -1.267098   -0.130128
     13          1           0        2.971382   -1.525902    0.580467
     14          6           0        1.045433   -1.940880    0.004207
     15          1           0        0.918363   -2.451014    0.882686
     16          1           0        0.783039   -2.514017   -0.802609
     17          6           0        0.455500   -0.546601    0.004804
 ---------------------------------------------------------------------
 Rotational constants (GHZ):      1.9432433      1.0489328      0.6849764
 Leave Link  202 at Fri Aug 20 15:50:47 2021, MaxMem= 24159191040 cpu:         0.3
 (Enter /public/home/users/caep010/software/Gaussian09/g09/l301.exe)
 Standard basis: 6-31G(d,p) (6D, 7F)
 Ernie: Thresh=  0.10000D-02 Tol=  0.10000D-05 Strict=F.
 There are   195 symmetry adapted cartesian basis functions of A   symmetry.
 There are   195 symmetry adapted basis functions of A   symmetry.
   195 basis functions,   350 primitive gaussians,   195 cartesian basis functions
    39 alpha electrons       39 beta electrons
       nuclear repulsion energy       585.2794462071 Hartrees.
 IExCor=  402 DFT=T Ex+Corr=B3LYP ExCW=0 ScaHFX=  0.200000
 ScaDFX=  0.800000  0.720000  1.000000  0.810000 ScalE2=  1.000000  1.000000
 IRadAn=      0 IRanWt=     -1 IRanGd=            0 ICorTp=0 IEmpDi=  4
 NAtoms=   17 NActive=   17 NUniq=   17 SFac= 1.00D+00 NAtFMM=   60 NAOKFM=F Big=F
 Integral buffers will be    131072 words long.
 Raffenetti 2 integral format.
 Two-electron integral symmetry is turned on.
 Leave Link  301 at Fri Aug 20 15:50:47 2021, MaxMem= 24159191040 cpu:         1.8
 (Enter /public/home/users/caep010/software/Gaussian09/g09/l302.exe)
 NPDir=0 NMtPBC=     1 NCelOv=     1 NCel=       1 NClECP=     1 NCelD=      1
         NCelK=      1 NCelE2=     1 NClLst=     1 CellRange=     0.0.
 One-electron integrals computed using PRISM.
 NBasis=   195 RedAO= T EigKep=  3.21D-04  NBF=   195
 NBsUse=   195 1.00D-06 EigRej= -1.00D+00 NBFU=   195
 Precomputing XC quadrature grid using
 IXCGrd= 4 IRadAn=           0 IRanWt=          -1 IRanGd=           0 AccXCQ= 0.00D+00.
 Generated NRdTot=       0 NPtTot=           0 NUsed=           0 NTot=          32
 NSgBfM=   194   194   194   194   194 MxSgAt=    17 MxSgA2=    17.
 Leave Link  302 at Fri Aug 20 15:50:48 2021, MaxMem= 24159191040 cpu:        11.9
 (Enter /public/home/users/caep010/software/Gaussian09/g09/l303.exe)
 DipDrv:  MaxL=1.
 Leave Link  303 at Fri Aug 20 15:50:48 2021, MaxMem= 24159191040 cpu:         0.7
 (Enter /public/home/users/caep010/software/Gaussian09/g09/l401.exe)
 Initial guess from the checkpoint file:  "/public/home/users/caep010/.cache/gau_scr/Gau-153289.chk"
 B after Tr=    -0.000000   -0.000000   -0.000000
         Rot=    1.000000   -0.000026   -0.000114   -0.000103 Ang=  -0.02 deg.
 Guess basis will be translated and rotated to current coordinates.
 JPrj=2 DoOrth=T DoCkMO=T.
 Generating alternative initial guess.
 ExpMin= 1.61D-01 ExpMax= 5.48D+03 ExpMxC= 8.25D+02 IAcc=1 IRadAn=         1 AccDes= 0.00D+00
 Harris functional with IExCor=  402 and IRadAn=       1 diagonalized for initial guess.
 HarFok:  IExCor=  402 AccDes= 0.00D+00 IRadAn=         1 IDoV= 1 UseB2=F ITyADJ=14
 ICtDFT=  3500011 ScaDFX=  1.000000  1.000000  1.000000  1.000000
 FoFCou: FMM=F IPFlag=           0 FMFlag=      100000 FMFlg1=           0
         NFxFlg=           0 DoJE=T BraDBF=F KetDBF=T FulRan=T
         wScrn=  0.000000 ICntrl=     500 IOpCl=  0 I1Cent=   200000004 NGrid=           0
         NMat0=    1 NMatS0=      1 NMatT0=    0 NMatD0=    1 NMtDS0=    0 NMtDT0=    0
 Petite list used in FoFCou.
 Harris En= -530.179241275362    
 Leave Link  401 at Fri Aug 20 15:50:48 2021, MaxMem= 24159191040 cpu:        13.1
 (Enter /public/home/users/caep010/software/Gaussian09/g09/l502.exe)
 Closed shell SCF:
 Using DIIS extrapolation, IDIIS=  1040.
 Integral symmetry usage will be decided dynamically.
 Keep R1 ints in memory in canonical form, NReq=186510601.
 IVT=      140326 IEndB=      140326 NGot= 24159191040 MDV= 23976445110
 LenX= 23976445110 LenY= 23976406644
 Requested convergence on RMS density matrix=1.00D-08 within 128 cycles.
 Requested convergence on MAX density matrix=1.00D-06.
 Requested convergence on             energy=1.00D-06.
 No special actions if energy rises.
 FoFCou: FMM=F IPFlag=           0 FMFlag=           0 FMFlg1=           0
         NFxFlg=           0 DoJE=F BraDBF=F KetDBF=F FulRan=T
         wScrn=  0.000000 ICntrl=     600 IOpCl=  0 I1Cent=           0 NGrid=           0
         NMat0=    1 NMatS0=  19110 NMatT0=    0 NMatD0=    1 NMtDS0=    0 NMtDT0=    0
 Symmetry not used in FoFCou.
 Integral accuracy reduced to 1.0D-05 until final iterations.

 Cycle   1  Pass 0  IDiag  1:
 E= -530.133943507938    
 DIIS: error= 2.78D-03 at cycle   1 NSaved=   1.
 NSaved= 1 IEnMin= 1 EnMin= -530.133943507938     IErMin= 1 ErrMin= 2.78D-03
 ErrMax= 2.78D-03  0.00D+00 EMaxC= 1.00D-01 BMatC= 3.91D-03 BMatP= 3.91D-03
 IDIUse=3 WtCom= 9.72D-01 WtEn= 2.78D-02
 Coeff-Com:  0.100D+01
 Coeff-En:   0.100D+01
 Coeff:      0.100D+01
 Gap=     1.785 Goal=   None    Shift=    0.000
 GapD=    1.785 DampG=2.000 DampE=1.000 DampFc=2.0000 IDamp=-1.
 RMSDP=7.34D-04 MaxDP=1.42D-02              OVMax= 1.44D-02

 Cycle   2  Pass 0  IDiag  1:
 E= -530.137819254231     Delta-E=       -0.003875746293 Rises=F Damp=F
 DIIS: error= 1.27D-03 at cycle   2 NSaved=   2.
 NSaved= 2 IEnMin= 2 EnMin= -530.137819254231     IErMin= 2 ErrMin= 1.27D-03
 ErrMax= 1.27D-03  0.00D+00 EMaxC= 1.00D-01 BMatC= 7.96D-04 BMatP= 3.91D-03
 IDIUse=3 WtCom= 9.87D-01 WtEn= 1.27D-02
 Coeff-Com:  0.252D+00 0.748D+00
 Coeff-En:   0.000D+00 0.100D+01
 Coeff:      0.249D+00 0.751D+00
 Gap=     0.154 Goal=   None    Shift=    0.000
 RMSDP=2.69D-04 MaxDP=6.50D-03 DE=-3.88D-03 OVMax= 1.47D-02

 Cycle   3  Pass 0  IDiag  1:
 E= -530.138123950357     Delta-E=       -0.000304696126 Rises=F Damp=F
 DIIS: error= 1.09D-03 at cycle   3 NSaved=   3.
 NSaved= 3 IEnMin= 3 EnMin= -530.138123950357     IErMin= 3 ErrMin= 1.09D-03
 ErrMax= 1.09D-03  0.00D+00 EMaxC= 1.00D-01 BMatC= 4.86D-04 BMatP= 7.96D-04
 IDIUse=3 WtCom= 9.89D-01 WtEn= 1.09D-02
 Coeff-Com:  0.497D-01 0.437D+00 0.513D+00
 Coeff-En:   0.000D+00 0.389D+00 0.611D+00
 Coeff:      0.492D-01 0.436D+00 0.515D+00
 Gap=     0.152 Goal=   None    Shift=    0.000
 RMSDP=1.47D-04 MaxDP=3.26D-03 DE=-3.05D-04 OVMax= 1.06D-02

 Cycle   4  Pass 0  IDiag  1:
 E= -530.138579489886     Delta-E=       -0.000455539529 Rises=F Damp=F
 DIIS: error= 3.86D-04 at cycle   4 NSaved=   4.
 NSaved= 4 IEnMin= 4 EnMin= -530.138579489886     IErMin= 4 ErrMin= 3.86D-04
 ErrMax= 3.86D-04  0.00D+00 EMaxC= 1.00D-01 BMatC= 4.11D-05 BMatP= 4.86D-04
 IDIUse=3 WtCom= 9.96D-01 WtEn= 3.86D-03
 Coeff-Com:  0.990D-02 0.186D+00 0.291D+00 0.513D+00
 Coeff-En:   0.000D+00 0.000D+00 0.837D-02 0.992D+00
 Coeff:      0.986D-02 0.185D+00 0.290D+00 0.515D+00
 Gap=     0.151 Goal=   None    Shift=    0.000
 RMSDP=4.88D-05 MaxDP=1.42D-03 DE=-4.56D-04 OVMax= 3.36D-03

 Cycle   5  Pass 0  IDiag  1:
 E= -530.138618451219     Delta-E=       -0.000038961333 Rises=F Damp=F
 DIIS: error= 1.35D-04 at cycle   5 NSaved=   5.
 NSaved= 5 IEnMin= 5 EnMin= -530.138618451219     IErMin= 5 ErrMin= 1.35D-04
 ErrMax= 1.35D-04  0.00D+00 EMaxC= 1.00D-01 BMatC= 6.08D-06 BMatP= 4.11D-05
 IDIUse=3 WtCom= 9.99D-01 WtEn= 1.35D-03
 Coeff-Com: -0.128D-02 0.507D-01 0.104D+00 0.311D+00 0.536D+00
 Coeff-En:   0.000D+00 0.000D+00 0.000D+00 0.948D-01 0.905D+00
 Coeff:     -0.128D-02 0.507D-01 0.104D+00 0.310D+00 0.536D+00
 Gap=     0.152 Goal=   None    Shift=    0.000
 RMSDP=1.48D-05 MaxDP=6.57D-04 DE=-3.90D-05 OVMax= 9.74D-04

 Cycle   6  Pass 0  IDiag  1:
 E= -530.138623095095     Delta-E=       -0.000004643876 Rises=F Damp=F
 DIIS: error= 1.07D-04 at cycle   6 NSaved=   6.
 NSaved= 6 IEnMin= 6 EnMin= -530.138623095095     IErMin= 6 ErrMin= 1.07D-04
 ErrMax= 1.07D-04  0.00D+00 EMaxC= 1.00D-01 BMatC= 1.11D-06 BMatP= 6.08D-06
 IDIUse=3 WtCom= 9.99D-01 WtEn= 1.07D-03
 Coeff-Com: -0.164D-02 0.216D-01 0.506D-01 0.174D+00 0.368D+00 0.388D+00
 Coeff-En:   0.000D+00 0.000D+00 0.000D+00 0.000D+00 0.884D-01 0.912D+00
 Coeff:     -0.164D-02 0.216D-01 0.506D-01 0.173D+00 0.367D+00 0.389D+00
 Gap=     0.152 Goal=   None    Shift=    0.000
 RMSDP=5.99D-06 MaxDP=3.06D-04 DE=-4.64D-06 OVMax= 6.30D-04

 Initial convergence to 1.0D-05 achieved.  Increase integral accuracy.
 Cycle   7  Pass 1  IDiag  1:
 E= -530.138645818766     Delta-E=       -0.000022723671 Rises=F Damp=F
 DIIS: error= 4.53D-05 at cycle   1 NSaved=   1.
 NSaved= 1 IEnMin= 1 EnMin= -530.138645818766     IErMin= 1 ErrMin= 4.53D-05
 ErrMax= 4.53D-05  0.00D+00 EMaxC= 1.00D-01 BMatC= 2.53D-07 BMatP= 2.53D-07
 IDIUse=1 WtCom= 1.00D+00 WtEn= 0.00D+00
 Coeff-Com:  0.100D+01
 Coeff:      0.100D+01
 Gap=     0.152 Goal=   None    Shift=    0.000
 RMSDP=5.99D-06 MaxDP=3.06D-04 DE=-2.27D-05 OVMax= 7.92D-04

 Cycle   8  Pass 1  IDiag  1:
 E= -530.138644627139     Delta-E=        0.000001191627 Rises=F Damp=F
 DIIS: error= 1.45D-04 at cycle   2 NSaved=   2.
 NSaved= 2 IEnMin= 1 EnMin= -530.138645818766     IErMin= 1 ErrMin= 4.53D-05
 ErrMax= 1.45D-04  0.00D+00 EMaxC= 1.00D-01 BMatC= 1.73D-06 BMatP= 2.53D-07
 IDIUse=3 WtCom= 4.53D-01 WtEn= 5.47D-01
 Coeff-Com:  0.736D+00 0.264D+00
 Coeff-En:   0.813D+00 0.187D+00
 Coeff:      0.778D+00 0.222D+00
 Gap=     0.152 Goal=   None    Shift=    0.000
 RMSDP=4.97D-06 MaxDP=2.58D-04 DE= 1.19D-06 OVMax= 5.62D-04

 Cycle   9  Pass 1  IDiag  1:
 E= -530.138646032690     Delta-E=       -0.000001405552 Rises=F Damp=F
 DIIS: error= 1.15D-05 at cycle   3 NSaved=   3.
 NSaved= 3 IEnMin= 3 EnMin= -530.138646032690     IErMin= 3 ErrMin= 1.15D-05
 ErrMax= 1.15D-05  0.00D+00 EMaxC= 1.00D-01 BMatC= 2.38D-08 BMatP= 2.53D-07
 IDIUse=1 WtCom= 1.00D+00 WtEn= 0.00D+00
 Coeff-Com:  0.182D+00-0.181D-01 0.836D+00
 Coeff:      0.182D+00-0.181D-01 0.836D+00
 Gap=     0.152 Goal=   None    Shift=    0.000
 RMSDP=1.28D-06 MaxDP=4.88D-05 DE=-1.41D-06 OVMax= 9.74D-05

 Cycle  10  Pass 1  IDiag  1:
 E= -530.138646043493     Delta-E=       -0.000000010802 Rises=F Damp=F
 DIIS: error= 5.28D-06 at cycle   4 NSaved=   4.
 NSaved= 4 IEnMin= 4 EnMin= -530.138646043493     IErMin= 4 ErrMin= 5.28D-06
 ErrMax= 5.28D-06  0.00D+00 EMaxC= 1.00D-01 BMatC= 1.17D-08 BMatP= 2.38D-08
 IDIUse=1 WtCom= 1.00D+00 WtEn= 0.00D+00
 Coeff-Com: -0.939D-02-0.610D-01 0.596D+00 0.475D+00
 Coeff:     -0.939D-02-0.610D-01 0.596D+00 0.475D+00
 Gap=     0.152 Goal=   None    Shift=    0.000
 RMSDP=6.50D-07 MaxDP=2.21D-05 DE=-1.08D-08 OVMax= 5.01D-05

 Cycle  11  Pass 1  IDiag  1:
 E= -530.138646055004     Delta-E=       -0.000000011511 Rises=F Damp=F
 DIIS: error= 9.46D-07 at cycle   5 NSaved=   5.
 NSaved= 5 IEnMin= 5 EnMin= -530.138646055004     IErMin= 5 ErrMin= 9.46D-07
 ErrMax= 9.46D-07  0.00D+00 EMaxC= 1.00D-01 BMatC= 3.33D-10 BMatP= 1.17D-08
 IDIUse=1 WtCom= 1.00D+00 WtEn= 0.00D+00
 Coeff-Com: -0.119D-01-0.344D-01 0.315D+00 0.275D+00 0.456D+00
 Coeff:     -0.119D-01-0.344D-01 0.315D+00 0.275D+00 0.456D+00
 Gap=     0.152 Goal=   None    Shift=    0.000
 RMSDP=1.23D-07 MaxDP=4.52D-06 DE=-1.15D-08 OVMax= 7.36D-06

 Cycle  12  Pass 1  IDiag  1:
 E= -530.138646055341     Delta-E=       -0.000000000337 Rises=F Damp=F
 DIIS: error= 2.80D-07 at cycle   6 NSaved=   6.
 NSaved= 6 IEnMin= 6 EnMin= -530.138646055341     IErMin= 6 ErrMin= 2.80D-07
 ErrMax= 2.80D-07  0.00D+00 EMaxC= 1.00D-01 BMatC= 1.43D-11 BMatP= 3.33D-10
 IDIUse=1 WtCom= 1.00D+00 WtEn= 0.00D+00
 Coeff-Com: -0.535D-02-0.121D-01 0.110D+00 0.979D-01 0.228D+00 0.582D+00
 Coeff:     -0.535D-02-0.121D-01 0.110D+00 0.979D-01 0.228D+00 0.582D+00
 Gap=     0.152 Goal=   None    Shift=    0.000
 RMSDP=2.18D-08 MaxDP=7.87D-07 DE=-3.37D-10 OVMax= 1.14D-06

 Cycle  13  Pass 1  IDiag  1:
 E= -530.138646055343     Delta-E=       -0.000000000002 Rises=F Damp=F
 DIIS: error= 8.38D-08 at cycle   7 NSaved=   7.
 NSaved= 7 IEnMin= 7 EnMin= -530.138646055343     IErMin= 7 ErrMin= 8.38D-08
 ErrMax= 8.38D-08  0.00D+00 EMaxC= 1.00D-01 BMatC= 2.07D-12 BMatP= 1.43D-11
 IDIUse=1 WtCom= 1.00D+00 WtEn= 0.00D+00
 Coeff-Com: -0.152D-02-0.264D-02 0.244D-01 0.223D-01 0.794D-01 0.325D+00
 Coeff-Com:  0.553D+00
 Coeff:     -0.152D-02-0.264D-02 0.244D-01 0.223D-01 0.794D-01 0.325D+00
 Coeff:      0.553D+00
 Gap=     0.152 Goal=   None    Shift=    0.000
 RMSDP=1.00D-08 MaxDP=2.94D-07 DE=-2.27D-12 OVMax= 5.45D-07

 Cycle  14  Pass 1  IDiag  1:
 E= -530.138646055346     Delta-E=       -0.000000000003 Rises=F Damp=F
 DIIS: error= 5.10D-08 at cycle   8 NSaved=   8.
 NSaved= 8 IEnMin= 8 EnMin= -530.138646055346     IErMin= 8 ErrMin= 5.10D-08
 ErrMax= 5.10D-08  0.00D+00 EMaxC= 1.00D-01 BMatC= 3.62D-13 BMatP= 2.07D-12
 IDIUse=1 WtCom= 1.00D+00 WtEn= 0.00D+00
 Coeff-Com: -0.153D-03 0.126D-03-0.664D-03-0.560D-03 0.153D-01 0.105D+00
 Coeff-Com:  0.337D+00 0.544D+00
 Coeff:     -0.153D-03 0.126D-03-0.664D-03-0.560D-03 0.153D-01 0.105D+00
 Coeff:      0.337D+00 0.544D+00
 Gap=     0.152 Goal=   None    Shift=    0.000
 RMSDP=3.53D-09 MaxDP=1.17D-07 DE=-3.41D-12 OVMax= 2.92D-07

 SCF Done:  E(RB3LYP) =  -530.138646055     A.U. after   14 cycles
            NFock= 14  Conv=0.35D-08     -V/T= 2.0073
 KE= 5.262903591308D+02 PE=-2.406707957303D+03 EE= 7.649995059098D+02
 Leave Link  502 at Fri Aug 20 15:50:55 2021, MaxMem= 24159191040 cpu:        82.0
 (Enter /public/home/users/caep010/software/Gaussian09/g09/l701.exe)
 Compute integral first derivatives.
 ... and contract with generalized density number  0.
 Leave Link  701 at Fri Aug 20 15:50:55 2021, MaxMem= 24159191040 cpu:        11.0
 (Enter /public/home/users/caep010/software/Gaussian09/g09/l702.exe)
 L702 exits ... SP integral derivatives will be done elsewhere.
 Leave Link  702 at Fri Aug 20 15:50:55 2021, MaxMem= 24159191040 cpu:         0.6
 (Enter /public/home/users/caep010/software/Gaussian09/g09/l703.exe)
 Compute integral first derivatives, UseDBF=F ICtDFT=           0.
 Integral derivatives from FoFJK, PRISM(SPDF).
 Calling FoFJK, ICntrl=      2127 FMM=F ISym2X=0 I1Cent= 0 IOpClX= 0 NMat=1 NMatS=1 NMatT=0.
 FoFJK:  IHMeth= 1 ICntrl=    2127 DoSepK=F KAlg= 0 I1Cent=   0 FoldK=F
 IRaf=         0 NMat=   1 IRICut=       1 DoRegI=T DoRafI=F ISym2E= 0.
 FoFCou: FMM=F IPFlag=           0 FMFlag=      100000 FMFlg1=         800
         NFxFlg=           0 DoJE=F BraDBF=F KetDBF=F FulRan=T
         wScrn=  0.000000 ICntrl=    2127 IOpCl=  0 I1Cent=           0 NGrid=           0
         NMat0=    1 NMatS0=      1 NMatT0=    0 NMatD0=    1 NMtDS0=    0 NMtDT0=    0
 Symmetry not used in FoFCou.
 Leave Link  703 at Fri Aug 20 15:50:56 2021, MaxMem= 24159191040 cpu:        20.9
 (Enter /public/home/users/caep010/software/Gaussian09/g09/l716.exe)
 Dipole        = 1.67350569D+00 2.84754178D-01 4.83601583D-01
 ***** Axes restored to original set *****
 -------------------------------------------------------------------
 Center     Atomic                   Forces (Hartrees/Bohr)
 Number     Number              X              Y              Z
 -------------------------------------------------------------------
      1        8           0.001167011   -0.002374229   -0.007490698
      2        7           0.002188030   -0.000242227   -0.000342706
      3        6          -0.007097732    0.002093231   -0.008683243
      4        8          -0.005073699    0.003313620    0.006924202
      5        6           0.000079459    0.010987827    0.066468883
      6        1          -0.006636444   -0.009968380   -0.073313164
      7        6          -0.045391463    0.026241070    0.035882373
      8        1           0.056936077   -0.031464392   -0.038638916
      9        6          -0.057232625    0.022245383   -0.024079786
     10        1           0.062757920   -0.021938226    0.034914569
     11        6          -0.004541544   -0.000987672    0.000563180
     12        7          -0.037540108   -0.041988854   -0.033986730
[...]
         Item               Value     Threshold  Converged?
 Maximum Force            0.000204     0.000450     YES
 RMS     Force            0.000038     0.000300     YES
 Maximum Displacement     0.003053     0.001800     NO 
 RMS     Displacement     0.000619     0.001200     YES
 Predicted change in Energy=-5.099879D-07
 GradGradGradGradGradGradGradGradGradGradGradGradGradGradGradGradGradGrad

 Leave Link  103 at Fri Aug 20 15:52:28 2021, MaxMem= 24159191040 cpu:         1.1
 (Enter /public/home/users/caep010/software/Gaussian09/g09/l9999.exe)
 1\1\GINC-B0937\Freq\RB3LYP\6-31G(d,p)\C7H6N2O2\ROOT\20-Aug-2021\0\\#P 
 Geom=AllCheck Guess=TCheck SCRF=Check GenChk RB3LYP/6-31G(d,p) Freq\\E
 SIRIJ\\0,1\O,0.9898783512,0.4865940374,10.0942586826\N,1.0484938627,0.
 6885845603,11.3062903231\C,2.2531305466,0.2716332495,12.0214170895\O,0
 .1614721705,1.2210429604,11.9777910928\C,3.3299091805,-0.3201659976,11
 .3390707058\H,3.250678892,-0.4742315991,10.2705599963\C,4.4793097466,-
 0.6891980192,12.0419749429\H,5.3005526417,-1.1370970167,11.4910694012\
 C,4.6135083115,-0.5077173984,13.4328847755\H,5.5164289282,-0.806740833
 9,13.9545066455\C,3.5205197887,0.0712135636,14.0622628051\N,3.01955218
 95,0.4022414236,15.3511566329\H,3.5701735968,1.01888745,15.9432481068\
 C,1.7918505307,0.9851470539,14.6786827102\H,1.7141036862,2.0740065811,
 14.7473682031\H,0.8597825034,0.5262979095,15.0156813038\C,2.3727550732
 ,0.4772020755,13.3778765828\\Version=ES64L-G09RevE.01\State=1-A\HF=-53
 0.1683924\RMSD=3.293e-09\RMSF=7.013e-05\ZeroPoint=0.1258959\Thermal=0.
 1342489\Dipole=1.4379764,0.0797312,1.1306653\DipoleDeriv=-0.5454808,0.
 0808977,-0.2538808,0.1050986,-0.3122354,-0.0335588,-0.1636047,-0.07930
 95,-1.0412336,1.4396136,-0.4541039,0.3593744,-0.4830446,0.5165015,0.07
 97366,0.2837117,0.1115181,1.5154994,-0.195921,0.0787492,-0.2232252,0.0
 613107,0.0712633,0.0911243,-0.3148947,0.1473799,0.1212006,-0.8570334,0
 .2811189,0.0559209,0.2855568,-0.4030275,-0.0941904,0.0499382,-0.091044
 6,-0.6071514,-0.1010912,0.0530001,0.2350412,-0.0135079,-0.1238642,-0.1
 111868,-0.0669881,0.0208103,-0.1709974,0.1108669,0.0068322,-0.0048347,
 0.0038213,0.124327,-0.0107714,-0.0007016,-0.016796,0.0327695,0.081483,
 -0.1161922,-0.1725541,-0.0786519,-0.0638584,0.0799996,-0.0045943,-0.00
 10084,-0.0270723,-0.0222023,0.0663074,0.0476321,0.0640534,0.0787235,-0
 .038482,0.0604528,-0.042342,0.0237798,0.079175,-0.061345,0.1897711,-0.
 0733982,-0.0699989,-0.0519458,0.0336438,0.006548,-0.0908762,-0.0142678
 ,0.0512375,-0.0560585,0.042091,0.1059926,0.0161602,-0.0666344,0.013409
 7,0.0380229,-0.1913918,0.0713111,-0.1197299,0.0234957,0.0468263,0.0714
 697,-0.3107908,0.2345314,1.0187204,-0.3485295,0.1396201,0.2904366,0.06
 08289,-0.2533049,0.281469,0.1752109,-0.06224,-1.1821693,0.0965543,-0.0
 100235,-0.046974,-0.0049946,0.1167724,-0.2821556,-0.0186898,-0.0345428
 ,0.3061955,0.4297153,-0.0468357,0.0012669,-0.0013627,0.2751051,-0.1023
 453,0.0289513,-0.0543805,0.213286,0.027842,0.0074724,0.0044588,0.04141
 84,-0.0962643,-0.0361454,0.0056505,-0.0216993,0.0177343,-0.0644814,-0.
 0222605,0.0436998,-0.0411308,0.0342403,0.0153539,0.0479723,0.0013154,0
 .0075116,0.0751493,-0.1257859,-0.3503446,0.008416,-0.0471984,0.1254681
 ,0.2613672,-0.1321495,-0.1752198\Polar=101.5656503,-26.5213986,52.8880
 255,4.6474769,13.4233206,115.316618\PG=C01 [X(C7H6N2O2)]\NImag=0\\0.11
 260833,-0.03270579,0.06230475,0.03162668,0.10503005,0.66017342,-0.1267
 2829,0.01616920,-0.04190450,0.63341387,0.01468600,-0.09350619,-0.06843
 365,-0.19952843,0.34342869,-0.04941977,-0.06486048,-0.53795625,-0.0657
 1744,0.15543289,0.89082714,0.00398825,0.00152320,-0.02663003,-0.122488
 45,0.01811272,-0.01287227,0.51138481,-0.00109108,0.01853071,-0.0017831
 7,0.01752038,-0.08620704,0.00027345,-0.17044616,0.22731974,-0.03944481
 ,0.00432459,-0.05388269,-0.01612198,0.00199184,-0.10868716,-0.01191773
 ,0.11059042,0.71477347,0.02086984,0.00938820,0.03976140,-0.35268628,0.
 15612124,0.15101981,-0.05409493,0.03651352,0.01889466,0.39111726,0.014
 59006,0.01166948,-0.03645865,0.15409514,-0.16318374,-0.09797093,0.0340
 0061,0.00147261,-0.00905736,-0.20463542,0.14797707,0.06658914,-0.04861
 142,-0.07101137,0.14236983,-0.09415687,-0.22875687,0.00354121,-0.00192
 780,0.01681525,-0.20378466,0.14122729,0.28298770,-0.00391822,0.0038369
 5,0.00686326,-0.03494709,0.01251158,-0.00353653,-0.20510446,0.07163789
 ,0.04876855,0.00089077,0.00085477,-0.00208726,0.56711847,0.00203845,-0
 .00014565,-0.00381466,0.01243751,-0.00763868,0.00567751,0.08132178,-0.
 10103705,-0.04080303,-0.00019407,0.00357445,0.00015047,-0.18214819,0.2
 2032284,-0.00208348,0.00009160,-0.00309360,-0.00860818,0.00809860,0.01
 989383,0.09870323,-0.06327519,-0.17349727,-0.00866641,0.00322545,-0.00
 082142,0.05147900,0.08577925,0.73342331,-0.00175284,0.00021178,-0.0024
 2974,0.00048435,-0.00135165,0.00326241,0.00599247,0.00296643,0.0239329
 7,0.00084389,-0.00051227,-0.00149012,-0.05390027,0.00579809,-0.0197463
 5,0.05228685,0.00014905,-0.00009800,0.00130133,-0.00221035,-0.00343240
 ,-0.00140674,-0.00141848,0.00184674,-0.01260524,-0.00013125,0.00058622
 ,0.00066202,0.00614750,-0.04329980,-0.04594437,-0.00805698,0.03703966,
 -0.00278110,0.00153364,0.00135436,-0.00061022,0.00033553,-0.00355917,-
 0.00127162,-0.00210165,-0.01138960,0.00022141,-0.00007314,0.00052675,-
 0.01852409,-0.04674845,-0.34249437,0.02195175,0.05000209,0.36182125,0.
 00134197,-0.00129440,-0.00165899,0.00302699,0.00396358,0.00795755,-0.0
 4846303,0.02786477,0.02271470,-0.00304665,0.00077131,-0.00050450,-0.25
 600873,0.06291003,-0.11912777,0.00231649,-0.00008915,0.00101156,0.6227
 6296,-0.00096835,-0.00009923,0.00073532,0.00391243,0.00577936,-0.00462
 403,0.01890386,-0.00541238,-0.00222035,0.00065410,-0.00132673,0.000702
 64,0.07321536,-0.08555951,0.03080887,-0.00467778,0.00376644,-0.0022611
 3,-0.20984033,0.23660441,-0.00046674,0.00008848,-0.00091421,0.00741811
 ,-0.00435578,0.00104717,-0.02237530,0.01933809,0.05140835,-0.00044495,
 0.00064488,0.00148719,-0.05834167,0.00458179,-0.17517814,-0.02589785,0
 .00911450,-0.00849607,0.00256093,0.08892181,0.64700590,-0.00010111,-0.
 00001990,-0.00034267,0.00010164,0.00057874,0.00153863,-0.00124414,0.00
 295120,-0.00413154,-0.00085573,0.00017371,-0.00019056,-0.01610292,0.01
 048559,0.01440063,0.00024208,-0.00196888,0.00031835,-0.21685420,0.0962
 6165,0.10702651,0.22699448,0.00004164,-0.00000867,0.00014581,0.0002070
 8,0.00066588,-0.00064001,0.00323767,0.00593151,0.00027189,0.00007825,-
 0.00045463,0.00013530,0.00551237,-0.00070411,-0.00468565,-0.00191482,-
 0.00355630,0.00079096,0.09616494,-0.08765639,-0.06285844,-0.10602541,0
 .08292048,0.00006919,-0.00003253,-0.00002741,-0.00064476,0.00028368,0.
 00081999,-0.00305707,-0.00012774,-0.00102627,-0.00039727,0.00024289,-0
 .00010388,-0.01359902,0.00736583,0.01121733,0.00062748,0.00065423,0.00
 071567,0.10735417,-0.06298414,-0.13119540,-0.11360241,0.06816810,0.136
 52622,0.00015414,0.00007050,0.00057178,-0.00111108,0.00017281,0.000799
 43,-0.00940284,0.00590202,0.01822149,0.00000870,-0.00000446,-0.0007416
 7,0.02144855,-0.01109235,-0.02423469,-0.00277035,0.00386299,-0.0022481
 1,-0.11716906,0.01668994,-0.05358146,0.00558010,0.00309197,0.02418111,
 0.66221225,-0.00034060,0.00015040,-0.00025952,0.00015755,-0.00124546,-
 0.00096791,0.00593162,-0.00952619,-0.01469612,0.00028582,0.00020722,0.
 00034368,-0.01912504,0.01426742,0.00503431,0.00388181,0.00547075,-0.00
 016879,0.02844003,-0.07121634,-0.01922483,-0.00183791,0.00134427,-0.01
 296270,-0.21914139,0.22578743,-0.00172122,0.00089353,0.00042857,0.0006
 2917,-0.00101229,-0.00434778,0.02284155,-0.01774261,-0.03994179,0.0007
 5539,-0.00029605,0.00043634,-0.06766188,0.02382284,-0.02765857,-0.0018
 5931,-0.00009346,0.00103014,0.00527212,-0.04620743,-0.30612953,-0.0032
 4484,-0.00071636,-0.01139172,0.06906168,0.05384524,0.62803992,-0.00000
 686,0.00008938,-0.00014483,-0.00047696,-0.00068205,0.00011950,0.000120
 66,0.00039498,0.00139501,-0.00000168,0.00007610,-0.00014939,0.00262732
 ,0.00180748,-0.00000962,0.00006922,0.00012366,0.00010128,0.00204225,-0
 .00007621,0.00096567,0.00001692,-0.00157772,0.00001794,-0.25405685,0.0
 7508428,-0.11438366,0.26465352,0.00010077,0.00025331,0.00002394,-0.000
 84260,-0.00183294,0.00022137,0.00032758,0.00004986,-0.00073203,0.00013
 708,0.00018993,0.00004064,0.00171171,0.00568510,-0.00203088,-0.0001221
 2,0.00025428,-0.00016725,-0.00443093,0.00349171,-0.00213100,-0.0014882
 3,-0.00291100,0.00077412,0.07439231,-0.06148170,0.03453669,-0.08273739
 ,0.05323594,-0.00018259,0.00007495,0.00020627,0.00022462,0.00019879,-0
 .00032114,0.00078232,-0.00058079,-0.00083623,-0.00012308,0.00004566,0.
 00015010,0.00049206,-0.00219283,-0.00478757,-0.00117705,0.00040852,-0.
 00039432,-0.02653053,0.00953334,-0.00853253,0.00061947,0.00054134,0.00
 108005,-0.11315816,0.03338503,-0.12364430,0.12479371,-0.03616473,0.124
 17345,-0.00143638,-0.00048019,-0.00182944,0.00938823,0.00162346,0.0016
 3748,0.01991730,-0.01943678,-0.06713754,-0.00096586,0.00014250,0.00136
 422,-0.06026019,0.02370014,-0.00270132,-0.00122447,-0.00019972,-0.0001
 1004,0.03727786,-0.00059283,0.07325291,0.00188075,0.00159061,-0.001661
 76,-0.26589416,0.09447240,0.04106249,-0.01401437,0.01029193,0.01259396
 ,0.68579110,-0.00042425,-0.00168153,0.00098057,0.00147314,0.01153554,-
 0.00358939,-0.01158108,0.01348211,0.02532338,-0.00000867,-0.00138319,-
 0.00044792,0.02592835,-0.01529446,0.00107243,0.00006504,-0.00123796,0.
 00047739,-0.01151759,0.00143857,-0.03926614,0.00170079,0.00536398,-0.0
 0103375,0.10313280,-0.10857565,-0.03145254,0.00507518,0.00107407,-0.00
 382057,-0.23384585,0.26873069,0.00045973,-0.00018866,-0.00123646,-0.00
 388787,-0.00104880,-0.00293569,-0.02013598,0.00468662,-0.02831859,0.00
 303285,-0.00136477,-0.00109736,-0.00374451,0.00279108,0.00235322,0.000
 32795,0.00039304,0.00019839,0.03331974,-0.02086919,-0.02888722,-0.0016
 8589,-0.00137068,-0.00614968,0.08335361,-0.05533859,-0.16683344,-0.016
 29367,0.00745023,0.01373993,-0.04095172,0.09974004,0.60758588,0.000600
 85,-0.00059887,-0.00078715,-0.00285947,0.00134035,0.00063053,0.0004404
 2,0.00171264,-0.00297481,0.00140695,-0.00079572,-0.00172712,-0.0004271
 5,-0.00006299,0.00238346,0.00030138,0.00007355,-0.00030049,-0.00217790
 ,0.00313593,-0.00261507,0.00057048,0.00062413,0.00095896,-0.00067862,0
 .00145271,0.02304346,0.00025925,-0.00185029,-0.00091156,-0.09742153,0.
 00127508,0.06453091,0.42765724,-0.00020207,-0.00001757,-0.00000749,0.0
 0033787,-0.00075006,-0.00093896,0.00169977,0.00464878,-0.00484488,0.00
 016744,0.00057883,0.00041288,-0.00260210,0.00039997,0.00125530,-0.0003
 9863,-0.00069696,0.00002415,0.00539106,0.00346482,0.00106022,0.0000333
 5,0.00047478,-0.00065434,-0.00099339,0.00040378,-0.00968167,-0.0008064
 2,-0.00220084,0.00095603,0.01718408,-0.05997146,-0.08911551,0.04916561
 ,0.31259581,-0.00197835,0.00077420,-0.00076800,0.00403175,-0.00162970,
 -0.00067931,-0.00557602,0.00082214,0.00759575,-0.00233371,0.00095164,0
 .00002238,0.00439314,-0.00320984,-0.00702569,0.00030949,0.00013559,0.0
 0036118,-0.00509072,0.00170873,0.00187220,0.00002650,-0.00012944,0.000
 42099,0.01130505,-0.00287847,-0.00168858,0.00114248,0.00115410,-0.0003
 5579,0.03467996,-0.03035785,-0.22179599,0.14083849,0.22077546,0.553442
 75,0.00009376,-0.00007071,-0.00006767,-0.00021847,0.00012732,0.0003297
 5,0.00092930,0.00063359,-0.00004670,0.00014986,0.00002496,-0.00027214,
 0.00027979,-0.00001794,0.00019281,-0.00007111,-0.00024689,-0.00000805,
 -0.00053084,-0.00015289,-0.00043718,-0.00002187,0.00001060,0.00008968,
 0.00020222,-0.00013079,0.00139295,-0.00032364,0.00013510,-0.00004499,0
 .01234714,0.01096515,0.00737031,-0.17156739,-0.11224342,-0.12852668,0.
 16763078,-0.00022842,0.00008010,0.00015139,0.00066919,-0.00027622,0.00
 007896,-0.00006316,0.00145589,0.00289897,-0.00039984,0.00017179,0.0002
 3025,0.00140327,-0.00099752,-0.00107491,-0.00000016,0.00003630,0.00012
 563,-0.00083338,0.00097698,-0.00084208,0.00005166,0.00004295,-0.000034
 25,0.00067832,0.00035116,-0.00070711,-0.00012819,-0.00049285,-0.000076
 73,-0.00655433,-0.00821676,0.01281503,-0.12587696,-0.17720021,-0.18313
 505,0.12244747,0.17512775,-0.00006272,-0.00003065,-0.00013784,-0.00003
 075,-0.00011657,-0.00065486,-0.00065214,0.00111947,-0.00216687,0.00017
 239,-0.00000830,0.00010149,-0.00043861,0.00022366,0.00135109,-0.000024
 91,-0.00010654,-0.00008520,0.00079646,0.00082572,-0.00108857,0.0000119
 2,0.00007542,-0.00006553,-0.00188377,0.00109900,0.00223876,0.00006494,
 -0.00088911,0.00010586,-0.01779889,-0.01537097,-0.02298336,-0.10970971
 ,-0.13737693,-0.14333930,0.12761388,0.15710035,0.17702987,-0.00056135,
 0.00078478,0.00099672,0.00054924,-0.00272954,-0.00055806,0.00210090,-0
 .00236136,0.00019550,-0.00191344,0.00037360,-0.00116770,0.00353396,0.0
 0052029,-0.00382120,0.00070613,0.00064772,-0.00025367,-0.00268695,-0.0
 0003099,-0.00056931,-0.00008757,-0.00047590,-0.00000335,0.00037998,0.0
 0484649,-0.00199881,-0.00080465,0.00035443,0.00047990,-0.07407859,0.05
 528295,0.03314680,-0.11782649,0.00560870,-0.02295876,-0.00701592,0.007
 72557,-0.00087527,0.55899803,0.00025598,0.00054089,-0.00047056,-0.0010
 7406,-0.00465779,0.00078682,-0.00151237,-0.00245278,-0.00232780,0.0002
 4917,-0.00009849,0.00137043,-0.00047520,0.00564826,0.00030175,0.000568
 12,0.00168578,-0.00014950,0.00147782,-0.00068601,0.00153754,-0.0003042
 1,-0.00061047,0.00011348,0.00445403,0.00605596,-0.00196938,-0.00006512
 ,-0.00116622,-0.00000082,0.04249674,-0.00431378,-0.00999883,0.04029917
 ,-0.09752070,-0.00116410,-0.02278317,0.00723142,-0.00389203,0.01647086
 ,0.59023007,-0.00052497,0.00024114,0.00044452,0.00382198,-0.00131764,-
 0.00241076,0.00368949,-0.00351470,-0.00847910,-0.00049649,0.00085418,0
 .00232017,-0.00496634,0.00121619,-0.00079049,-0.00010840,-0.00039555,0
 .00046214,0.00218910,-0.00080852,0.00259703,-0.00003294,-0.00003997,-0
 .00030897,0.00062611,-0.00115140,-0.00574965,0.00014867,0.00071168,0.0
 0027156,0.02532963,-0.01562232,-0.00238049,-0.05493944,0.00633763,-0.0
 7342322,-0.00460994,0.01378968,-0.00598048,-0.11339825,0.02892047,0.36
 896252,-0.00001985,-0.00007446,0.00018430,0.00063347,0.00036202,0.0000
 9584,-0.00017397,0.00025154,0.00003983,-0.00015894,0.00009652,0.000206
 17,0.00079774,-0.00063509,0.00020936,0.00000544,-0.00000549,0.00001070
 ,-0.00066941,0.00005585,-0.00122292,0.00009172,0.00024424,0.00002549,-
 0.00191308,-0.00106025,0.00227036,-0.00004486,0.00009902,-0.00001842,0
 .00045678,0.00059240,-0.00462339,-0.00676654,0.02749617,0.00445759,0.0
 0133071,-0.00001994,0.00003054,-0.04817698,0.00941880,0.00006726,0.052
 66216,-0.00025698,0.00007187,0.00022584,0.00045476,-0.00039010,-0.0002
 4001,0.00053399,0.00002520,0.00084749,-0.00032545,0.00045854,0.0001031
 7,0.00001989,0.00011109,-0.00030220,0.00005683,-0.00003686,-0.00001084
 ,0.00004557,-0.00003804,0.00045672,-0.00000666,-0.00003907,-0.00001790
 ,0.00086889,0.00002590,-0.00081791,0.00009494,0.00002379,-0.00004196,-
 0.00079801,0.00069316,0.00056382,0.00289525,-0.00569402,0.00016887,0.0
 0063570,0.00061166,-0.00016871,0.01117328,-0.31591680,-0.01598007,-0.0
 1758362,0.33795395,-0.00034058,0.00026567,0.00017172,0.00112994,-0.001
 78189,-0.00025390,0.00040584,0.00056525,0.00153052,-0.00053415,0.00099
 575,0.00074984,0.00219057,0.00026042,-0.00023972,0.00019943,0.00007438
 ,-0.00009896,-0.00094317,-0.00019780,-0.00174991,0.00001945,0.00006796
 ,0.00003213,-0.00041893,0.00095283,0.00231212,0.00016786,-0.00019757,-
 0.00007644,0.00288226,0.00043838,-0.00779664,-0.00636981,0.01913145,0.
 00252840,0.00047313,-0.00036563,0.00120789,0.00123725,-0.02077243,-0.0
 4529006,-0.00140310,0.01908091,0.04546306,0.00009540,-0.00014526,-0.00
 013290,-0.00003413,-0.00012058,0.00024631,-0.00042290,0.00005734,-0.00
 089578,0.00023266,0.00009619,-0.00001441,0.00017063,0.00012326,0.00035
 164,-0.00004583,0.00001607,0.00000775,-0.00018969,0.00000145,-0.000579
 28,-0.00006945,-0.00014572,0.00011952,-0.00018228,0.00157771,0.0012240
 1,-0.00006409,-0.00000260,-0.00000024,-0.00158953,-0.00028234,-0.00140
 931,-0.01924447,-0.00508875,0.00274429,-0.00232301,0.00056146,0.001158
 11,-0.23763064,-0.10321212,0.07132835,0.00354132,0.00082562,-0.0001460
 8,0.26233517,-0.00004066,-0.00015276,-0.00022006,0.00007159,0.00064239
 ,-0.00020539,0.00006912,-0.00015936,0.00005890,0.00012817,-0.00019369,
 -0.00000977,-0.00039041,-0.00029568,0.00000614,-0.00000064,-0.00003145
 ,-0.00002515,0.00025038,-0.00006469,0.00029363,0.00006730,0.00014455,-
 0.00007042,0.00000121,-0.00159759,-0.00053985,0.00011374,0.00004907,-0
 .00001480,0.00190859,-0.00059357,0.00006184,0.01214900,0.00681926,-0.0
 0366840,0.00081309,-0.00019267,0.00006888,-0.10336786,-0.10228214,0.03
 784272,-0.02694576,-0.01232941,0.01070181,0.10608690,0.10508994,-0.000
 52399,0.00027508,0.00035158,0.00243756,-0.00027847,-0.00084683,0.00045
 499,-0.00028338,0.00112428,-0.00128422,0.00015315,0.00120877,0.0006638
 1,-0.00140956,-0.00003278,0.00009985,-0.00019025,-0.00005890,-0.000457
 09,0.00033532,-0.00113108,-0.00002587,-0.00004959,0.00007317,-0.000147
 83,-0.00006647,0.00201284,0.00022518,-0.00009773,-0.00012917,0.0001903
 7,-0.00312596,-0.00383521,-0.01585733,-0.00668272,0.00534083,-0.002904
 24,0.00031320,0.00026612,0.07646705,0.03942589,-0.07603047,-0.00221857
 ,-0.00166614,0.00297019,-0.07805695,-0.04052893,0.07548269,-0.00522762
 ,0.00331559,-0.00407622,-0.00604755,-0.00518757,-0.03553315,-0.1034793
 9,0.02492907,0.00850816,-0.00179641,0.00065238,-0.00194103,0.03380183,
 -0.00699200,0.02127890,-0.00348343,0.00330663,0.00248458,-0.02097206,0
 .00350881,-0.02469241,-0.00014118,-0.00066392,-0.00047791,-0.03680763,
 0.02550556,0.02331653,0.00000483,0.00392423,0.00216056,-0.25017409,0.0
 5216890,-0.13280953,-0.01226703,0.01525070,-0.03746449,-0.00089131,0.0
 0056744,0.00162853,-0.07548566,0.01373556,0.07187616,-0.00159570,0.001
 36602,0.00145009,-0.00457917,0.00908624,0.02093727,0.48914158,0.004396
 26,0.00210809,0.00285352,-0.00385041,0.00106878,0.01297284,0.01935934,
 -0.06996835,-0.05902067,0.00197170,-0.00024566,-0.00022498,0.00196131,
 0.00496334,-0.01836051,0.00348695,0.00170357,-0.00158348,0.00072628,-0
 .00346295,0.00264062,-0.00065279,-0.00094777,0.00031545,0.01791381,-0.
 00042137,-0.00186164,0.00321335,0.00577848,-0.00225044,0.06849727,-0.1
 0104977,0.05079334,0.01506140,0.01466581,-0.00031787,-0.00014718,0.001
 29025,-0.00255269,0.00517698,-0.08168720,-0.05108350,0.00770802,-0.005
 53085,-0.02921950,-0.00034864,0.00514780,0.01387655,-0.14447363,0.2265
 8781,0.00078557,0.00013082,0.00589740,-0.02453727,0.00779032,-0.021178
 41,-0.02593046,-0.04605839,-0.36502207,0.00420702,-0.00311167,-0.00501
 510,0.05804952,-0.03369066,-0.03261916,0.00202237,-0.00200357,0.000106
 70,-0.02886355,0.00660083,-0.04211520,-0.00070477,0.00029337,-0.000616
 68,-0.01170562,0.01305471,0.05088667,0.00183892,-0.00250247,-0.0006497
 3,-0.06080256,0.01605523,-0.12962728,-0.03619333,-0.00065062,-0.122508
 59,-0.00054490,-0.00126770,-0.00579907,0.03308116,-0.03171093,-0.15421
 426,0.00188895,-0.00220109,-0.00146026,0.00405499,-0.00375115,-0.00676
 603,0.08335396,0.08302298,0.83070107\\0.00001115,-0.00004120,-0.000024
 54,0.00006289,0.00008288,-0.00003178,-0.00011230,-0.00007668,-0.000041
 91,-0.00004273,-0.00000746,0.00006166,-0.00001325,-0.00001777,-0.00007
 047,-0.00000574,0.00000705,0.00004773,0.00004778,-0.00001952,-0.000008
 35,-0.00002139,0.00000282,0.00001858,0.00004199,-0.00005954,-0.0000161
 8,-0.00002042,0.00001810,0.00000027,0.00008734,0.00007373,0.00004015,-
 0.00021482,-0.00005288,-0.00000530,0.00009174,0.00005978,0.00003329,-0
 .00010044,-0.00001903,0.00009102,0.00001626,-0.00020204,-0.00000394,0.
 00013967,0.00011950,-0.00004276,0.00003227,0.00013226,-0.00004747\\\@


 DO NOT LET SELFISH MEN OR GREEDY INTERESTS SKIN YOUR COUNTRY OF ITS
 BEAUTY, ITS RICHES, OR ITS ROMANCE. -- THEODORE ROOSEVELT
 Job cpu time:       0 days  0 hours 11 minutes 57.6 seconds.
 File lengths (MBytes):  RWF=     79 Int=      0 D2E=      0 Chk=      4 Scr=      1
 Normal termination of Gaussian 09 at Fri Aug 20 15:52:28 2021.
