 Entering Gaussian System, Link 0=g09
 Input=B3LYP6-31G.WOBLUU.gjf
 Output=B3LYP6-31G.WOBLUU.log
 Initial command:
 /public/home/users/caep010/software/Gaussian09/g09/l1.exe "/public/home/users/caep010/.cache/gau_scr/Gau-145584.inp" -scrdir="/public/home/users/caep010/.cache/gau_scr/"
 Entering Link 1 = /public/home/users/caep010/software/Gaussian09/g09/l1.exe PID=    145585.
  
 Copyright (c) 1988,1990,1992,1993,1995,1998,2003,2009,2015,
            Gaussian, Inc.  All Rights Reserved.
  
 This is part of the Gaussian(R) 09 program.  It is based on
 the Gaussian(R) 03 system (copyright 2003, Gaussian, Inc.),
 the Gaussian(R) 98 system (copyright 1998, Gaussian, Inc.),
 the Gaussian(R) 94 system (copyright 1995, Gaussian, Inc.),
 the Gaussian 92(TM) system (copyright 1992, Gaussian, Inc.),
 the Gaussian 90(TM) system (copyright 1990, Gaussian, Inc.),
 the Gaussian 88(TM) system (copyright 1988, Gaussian, Inc.),
 the Gaussian 86(TM) system (copyright 1986, Carnegie Mellon
 University), and the Gaussian 82(TM) system (copyright 1983,
 Carnegie Mellon University). Gaussian is a federally registered
 trademark of Gaussian, Inc.
  
 This software contains proprietary and confidential information,
 including trade secrets, belonging to Gaussian, Inc.
  
 This software is provided under written license and may be
 used, copied, transmitted, or stored only in accord with that
 written license.
  
 The following legend is applicable only to US Government
 contracts under FAR:
  
                    RESTRICTED RIGHTS LEGEND
  
 Use, reproduction and disclosure by the US Government is
 subject to restrictions as set forth in subparagraphs (a)
 and (c) of the Commercial Computer Software - Restricted
 Rights clause in FAR 52.227-19.
  
 Gaussian, Inc.
 340 Quinnipiac St., Bldg. 40, Wallingford CT 06492
  
  
 ---------------------------------------------------------------
 Warning -- This program may not be used in any manner that
 competes with the business of Gaussian, Inc. or will provide
 assistance to any competitor of Gaussian, Inc.  The licensee
 of this program is prohibited from giving any competitor of
 Gaussian, Inc. access to this program.  By using this program,
 the user acknowledges that Gaussian, Inc. is engaged in the
 business of creating and licensing software in the field of
 computational chemistry and represents and warrants to the
 licensee that it is not a competitor of Gaussian, Inc. and that
 it will not use this program in any manner prohibited above.
 ---------------------------------------------------------------
  

 Cite this work as:
 Gaussian 09, Revision E.01,
 M. J. Frisch, G. W. Trucks, H. B. Schlegel, G. E. Scuseria, 
 M. A. Robb, J. R. Cheeseman, G. Scalmani, V. Barone, B. Mennucci, 
 G. A. Petersson, H. Nakatsuji, M. Caricato, X. Li, H. P. Hratchian, 
 A. F. Izmaylov, J. Bloino, G. Zheng, J. L. Sonnenberg, M. Hada, 
 M. Ehara, K. Toyota, R. Fukuda, J. Hasegawa, M. Ishida, T. Nakajima, 
 Y. Honda, O. Kitao, H. Nakai, T. Vreven, J. A. Montgomery, Jr., 
 J. E. Peralta, F. Ogliaro, M. Bearpark, J. J. Heyd, E. Brothers, 
 K. N. Kudin, V. N. Staroverov, T. Keith, R. Kobayashi, J. Normand, 
 K. Raghavachari, A. Rendell, J. C. Burant, S. S. Iyengar, J. Tomasi, 
 M. Cossi, N. Rega, J. M. Millam, M. Klene, J. E. Knox, J. B. Cross, 
 V. Bakken, C. Adamo, J. Jaramillo, R. Gomperts, R. E. Stratmann, 
 O. Yazyev, A. J. Austin, R. Cammi, C. Pomelli, J. W. Ochterski, 
 R. L. Martin, K. Morokuma, V. G. Zakrzewski, G. A. Voth, 
 P. Salvador, J. J. Dannenberg, S. Dapprich, A. D. Daniels, 
 O. Farkas, J. B. Foresman, J. V. Ortiz, J. Cioslowski, 
 and D. J. Fox, Gaussian, Inc., Wallingford CT, 2013.
 
 ******************************************
 Gaussian 09:  ES64L-G09RevE.01 30-Nov-2015
                20-Aug-2021 
 ******************************************
 %nproc=32
 Will use up to   32 processors via shared memory.
 %mem=180GB
 -------------------------
 #P OPT Freq B3LYP/6-31G**
 -------------------------
 1/14=-1,18=20,19=15,26=3,38=1/1,3;
 2/9=110,12=2,17=6,18=5,40=1/2;
 3/5=1,6=6,7=101,11=2,16=1,25=1,30=1,71=1,74=-5/1,2,3;
 4//1;
 5/5=2,38=5/2;
 6/7=2,8=2,9=2,10=2,28=1/1;
 7//1,2,3,16;
 1/14=-1,18=20,19=15,26=3/3(2);
 2/9=110/2;
 99//99;
 2/9=110/2;
 3/5=1,6=6,7=101,11=2,16=1,25=1,30=1,71=1,74=-5/1,2,3;
 4/5=5,16=3,69=1/1;
 5/5=2,38=5/2;
 7//1,2,3,16;
 1/14=-1,18=20,19=15,26=3/3(-5);
 2/9=110/2;
 6/7=2,8=2,9=2,10=2,19=2,28=1/1;
 99/9=1/99;
 Leave Link    1 at Fri Aug 20 15:59:17 2021, MaxMem= 24159191040 cpu:         2.6
 (Enter /public/home/users/caep010/software/Gaussian09/g09/l101.exe)
 ------
 WOBLUU
 ------
 Symbolic Z-matrix:
 Charge =  0 Multiplicity = 1
 N                     0.1212    1.7246    0.5223 
 N                     0.9396    1.4156    1.5568 
 C                    -0.4672    2.7848    1.0025 
 N                    -0.1183    3.2018    2.225 
 C                     1.9171    0.3866    1.4179 
 N                     3.1066    0.9097    0.6514 
 O                     3.9808    0.098     0.4278 
 O                     3.1282    2.0661    0.312 
 N                    -1.4595    3.4872    0.2114 
 O                    -1.7254    4.6258    0.5336 
 O                    -1.9568    2.8926   -0.725 
 C                     0.7813    2.3041    2.5487 
 H                     2.2561    0.1393    2.3051 
 H                     1.5959   -0.3363    0.9182 
 H                     1.2691    2.2191    3.3442 
 
 NAtoms=     15 NQM=       15 NQMF=       0 NMMI=      0 NMMIF=      0
                NMic=       0 NMicF=      0.
                    Isotopes and Nuclear Properties:
 (Nuclear quadrupole moments (NQMom) in fm**2, nuclear magnetic moments (NMagM)
  in nuclear magnetons)

  Atom         1           2           3           4           5           6           7           8           9          10
 IAtWgt=          14          14          12          14          12          14          16          16          14          16
 AtmWgt=  14.0030740  14.0030740  12.0000000  14.0030740  12.0000000  14.0030740  15.9949146  15.9949146  14.0030740  15.9949146
 NucSpn=           2           2           0           2           0           2           0           0           2           0
 AtZEff=   0.0000000   0.0000000   0.0000000   0.0000000   0.0000000   0.0000000   0.0000000   0.0000000   0.0000000   0.0000000
 NQMom=    2.0440000   2.0440000   0.0000000   2.0440000   0.0000000   2.0440000   0.0000000   0.0000000   2.0440000   0.0000000
 NMagM=    0.4037610   0.4037610   0.0000000   0.4037610   0.0000000   0.4037610   0.0000000   0.0000000   0.4037610   0.0000000
 AtZNuc=   7.0000000   7.0000000   6.0000000   7.0000000   6.0000000   7.0000000   8.0000000   8.0000000   7.0000000   8.0000000

  Atom        11          12          13          14          15
 IAtWgt=          16          12           1           1           1
 AtmWgt=  15.9949146  12.0000000   1.0078250   1.0078250   1.0078250
 NucSpn=           0           0           1           1           1
 AtZEff=   0.0000000   0.0000000   0.0000000   0.0000000   0.0000000
 NQMom=    0.0000000   0.0000000   0.0000000   0.0000000   0.0000000
 NMagM=    0.0000000   0.0000000   2.7928460   2.7928460   2.7928460
 AtZNuc=   8.0000000   6.0000000   1.0000000   1.0000000   1.0000000
 Leave Link  101 at Fri Aug 20 15:59:17 2021, MaxMem= 24159191040 cpu:        10.8
 (Enter /public/home/users/caep010/software/Gaussian09/g09/l103.exe)

 GradGradGradGradGradGradGradGradGradGradGradGradGradGradGradGradGradGrad
 Berny optimization.
 Initialization pass.
                           ----------------------------
                           !    Initial Parameters    !
                           ! (Angstroms and Degrees)  !
 --------------------------                            --------------------------
 ! Name  Definition              Value          Derivative Info.                !
 --------------------------------------------------------------------------------
 ! R1    R(1,2)                  1.3548         estimate D2E/DX2                !
 ! R2    R(1,3)                  1.3042         estimate D2E/DX2                !
 ! R3    R(2,5)                  1.4261         estimate D2E/DX2                !
 ! R4    R(2,12)                 1.341          estimate D2E/DX2                !
 ! R5    R(3,4)                  1.338          estimate D2E/DX2                !
 ! R6    R(3,9)                  1.4505         estimate D2E/DX2                !
 ! R7    R(4,12)                 1.3115         estimate D2E/DX2                !
 ! R8    R(5,6)                  1.5087         estimate D2E/DX2                !
 ! R9    R(5,13)                 0.9814         estimate D2E/DX2                !
 ! R10   R(5,14)                 0.9357         estimate D2E/DX2                !
 ! R11   R(6,7)                  1.2137         estimate D2E/DX2                !
 ! R12   R(6,8)                  1.2054         estimate D2E/DX2                !
 ! R13   R(9,10)                 1.2128         estimate D2E/DX2                !
 ! R14   R(9,11)                 1.2156         estimate D2E/DX2                !
 ! R15   R(12,15)                0.937          estimate D2E/DX2                !
 ! A1    A(2,1,3)              100.1835         estimate D2E/DX2                !
 ! A2    A(1,2,5)              120.283          estimate D2E/DX2                !
 ! A3    A(1,2,12)             110.0214         estimate D2E/DX2                !
 ! A4    A(5,2,12)             129.1265         estimate D2E/DX2                !
 ! A5    A(1,3,4)              118.1738         estimate D2E/DX2                !
 ! A6    A(1,3,9)              120.0996         estimate D2E/DX2                !
 ! A7    A(4,3,9)              121.7232         estimate D2E/DX2                !
 ! A8    A(3,4,12)             101.0148         estimate D2E/DX2                !
 ! A9    A(2,5,6)              109.8611         estimate D2E/DX2                !
 ! A10   A(2,5,13)             109.3014         estimate D2E/DX2                !
 ! A11   A(2,5,14)             111.9751         estimate D2E/DX2                !
 ! A12   A(6,5,13)             105.9211         estimate D2E/DX2                !
 ! A13   A(6,5,14)             105.4985         estimate D2E/DX2                !
 ! A14   A(13,5,14)            113.9965         estimate D2E/DX2                !
 ! A15   A(5,6,7)              115.4429         estimate D2E/DX2                !
 ! A16   A(5,6,8)              119.3294         estimate D2E/DX2                !
 ! A17   A(7,6,8)              125.2277         estimate D2E/DX2                !
 ! A18   A(3,9,10)             117.3688         estimate D2E/DX2                !
 ! A19   A(3,9,11)             117.5899         estimate D2E/DX2                !
 ! A20   A(10,9,11)            125.0407         estimate D2E/DX2                !
 ! A21   A(2,12,4)             110.6052         estimate D2E/DX2                !
 ! A22   A(2,12,15)            120.4239         estimate D2E/DX2                !
 ! A23   A(4,12,15)            128.9573         estimate D2E/DX2                !
 ! D1    D(3,1,2,5)           -172.4424         estimate D2E/DX2                !
 ! D2    D(3,1,2,12)            -0.3295         estimate D2E/DX2                !
 ! D3    D(2,1,3,4)              0.3824         estimate D2E/DX2                !
 ! D4    D(2,1,3,9)            179.7218         estimate D2E/DX2                !
 ! D5    D(1,2,5,6)             78.4892         estimate D2E/DX2                !
 ! D6    D(1,2,5,13)          -165.691          estimate D2E/DX2                !
 ! D7    D(1,2,5,14)           -38.3915         estimate D2E/DX2                !
 ! D8    D(12,2,5,6)           -91.944          estimate D2E/DX2                !
 ! D9    D(12,2,5,13)           23.8758         estimate D2E/DX2                !
 ! D10   D(12,2,5,14)          151.1754         estimate D2E/DX2                !
 ! D11   D(1,2,12,4)             0.2            estimate D2E/DX2                !
 ! D12   D(1,2,12,15)          178.9787         estimate D2E/DX2                !
 ! D13   D(5,2,12,4)           171.4136         estimate D2E/DX2                !
 ! D14   D(5,2,12,15)           -9.8076         estimate D2E/DX2                !
 ! D15   D(1,3,4,12)            -0.274          estimate D2E/DX2                !
 ! D16   D(9,3,4,12)          -179.6021         estimate D2E/DX2                !
 ! D17   D(1,3,9,10)          -161.6805         estimate D2E/DX2                !
 ! D18   D(1,3,9,11)            18.067          estimate D2E/DX2                !
 ! D19   D(4,3,9,10)            17.6349         estimate D2E/DX2                !
 ! D20   D(4,3,9,11)          -162.6176         estimate D2E/DX2                !
 ! D21   D(3,4,12,2)             0.0283         estimate D2E/DX2                !
 ! D22   D(3,4,12,15)         -178.6174         estimate D2E/DX2                !
 ! D23   D(2,5,6,7)           -177.1814         estimate D2E/DX2                !
 ! D24   D(2,5,6,8)              2.8307         estimate D2E/DX2                !
 ! D25   D(13,5,6,7)            64.8814         estimate D2E/DX2                !
 ! D26   D(13,5,6,8)          -115.1065         estimate D2E/DX2                !
 ! D27   D(14,5,6,7)           -56.3143         estimate D2E/DX2                !
 ! D28   D(14,5,6,8)           123.6978         estimate D2E/DX2                !
 --------------------------------------------------------------------------------
 Trust Radius=3.00D-01 FncErr=1.00D-07 GrdErr=1.00D-06
 Number of steps in this run=     76 maximum allowed number of steps=    100.
 GradGradGradGradGradGradGradGradGradGradGradGradGradGradGradGradGradGrad

 Leave Link  103 at Fri Aug 20 15:59:17 2021, MaxMem= 24159191040 cpu:         0.8
 (Enter /public/home/users/caep010/software/Gaussian09/g09/l202.exe)
                          Input orientation:                          
 ---------------------------------------------------------------------
 Center     Atomic      Atomic             Coordinates (Angstroms)
 Number     Number       Type             X           Y           Z
 ---------------------------------------------------------------------
      1          7           0        0.121200    1.724600    0.522300
      2          7           0        0.939600    1.415600    1.556800
      3          6           0       -0.467200    2.784800    1.002500
      4          7           0       -0.118300    3.201800    2.225000
      5          6           0        1.917100    0.386600    1.417900
      6          7           0        3.106600    0.909700    0.651400
      7          8           0        3.980800    0.098000    0.427800
      8          8           0        3.128200    2.066100    0.312000
      9          7           0       -1.459500    3.487200    0.211400
     10          8           0       -1.725400    4.625800    0.533600
     11          8           0       -1.956800    2.892600   -0.725000
     12          6           0        0.781300    2.304100    2.548700
     13          1           0        2.256100    0.139300    2.305100
     14          1           0        1.595900   -0.336300    0.918200
     15          1           0        1.269100    2.219100    3.344200
 ---------------------------------------------------------------------
                    Distance matrix (angstroms):
                    1          2          3          4          5
     1  N    0.000000
     2  N    1.354788   0.000000
     3  C    1.304159   2.039864   0.000000
     4  N    2.266863   2.180861   1.337956   0.000000
     5  C    2.411970   1.426058   3.407170   3.566457   0.000000
     6  N    3.097312   2.402410   4.051088   4.257924   1.508664
     7  O    4.189424   3.501372   5.228181   5.446662   2.307043
     8  O    3.033628   2.600509   3.730981   3.935625   2.347445
     9  N    2.387892   3.443444   1.450470   2.436156   4.740337
    10  O    3.439044   4.295876   2.278643   2.733383   5.658676
    11  O    2.690365   3.972062   2.283590   3.489726   5.087156
    12  C    2.208585   1.341028   2.044642   1.311460   2.499111
    13  H    3.201461   1.980421   4.013951   3.875964   0.981429
    14  H    2.564914   1.976789   3.742293   4.142989   0.935657
    15  H    3.086312   1.987204   2.969564   2.035482   2.736529
                    6          7          8          9         10
     6  N    0.000000
     7  O    1.213705   0.000000
     8  O    1.205371   2.147965   0.000000
     9  N    5.261784   6.413296   4.803815   0.000000
    10  O    6.096843   7.285114   5.491685   1.212817   0.000000
    11  O    5.609313   6.662870   5.255064   1.215607   2.154438
    12  C    3.309247   4.427403   3.250755   3.447301   3.966669
    13  H    2.012856   2.549618   2.906125   5.421964   6.254537
    14  H    1.976338   2.473228   2.913237   4.945118   5.983426
    15  H    3.513133   4.511959   3.560042   4.343705   4.760116
                   11         12         13         14         15
    11  O    0.000000
    12  C    4.308206   0.000000
    13  H    5.874580   2.630729   0.000000
    14  H    5.074207   3.208398   1.607965   0.000000
    15  H    5.236260   0.937013   2.525760   3.538692   0.000000
 Stoichiometry    C3H3N5O4
 Framework group  C1[X(C3H3N5O4)]
 Deg. of freedom    39
 Full point group                 C1      NOp   1
 Largest Abelian subgroup         C1      NOp   1
 Largest concise Abelian subgroup C1      NOp   1
                         Standard orientation:                         
 ---------------------------------------------------------------------
 Center     Atomic      Atomic             Coordinates (Angstroms)
 Number     Number       Type             X           Y           Z
 ---------------------------------------------------------------------
      1          7           0        0.324790   -0.404728   -0.622565
      2          7           0       -0.607883    0.576285   -0.566125
      3          6           0        1.346679    0.218593   -0.104836
      4          7           0        1.180598    1.487018    0.287137
      5          6           0       -1.967866    0.295070   -0.890171
      6          7           0       -2.640326   -0.391878    0.272570
      7          8           0       -3.791818   -0.726687    0.085358
      8          8           0       -2.022334   -0.567146    1.292515
      9          7           0        2.616086   -0.466571    0.046888
     10          8           0        3.418430    0.011013    0.820893
     11          8           0        2.792491   -1.476297   -0.606591
     12          6           0       -0.078679    1.682213   -0.022781
     13          1           0       -2.451480    1.139062   -1.020547
     14          1           0       -2.040791   -0.300144   -1.608402
     15          1           0       -0.595554    2.457888    0.072936
 ---------------------------------------------------------------------
 Rotational constants (GHZ):      2.4844185      0.5186818      0.4859264
 Leave Link  202 at Fri Aug 20 15:59:17 2021, MaxMem= 24159191040 cpu:         0.3
 (Enter /public/home/users/caep010/software/Gaussian09/g09/l301.exe)
 Standard basis: 6-31G(d,p) (6D, 7F)
 Ernie: Thresh=  0.10000D-02 Tol=  0.10000D-05 Strict=F.
 There are   195 symmetry adapted cartesian basis functions of A   symmetry.
 There are   195 symmetry adapted basis functions of A   symmetry.
   195 basis functions,   357 primitive gaussians,   195 cartesian basis functions
    44 alpha electrons       44 beta electrons
       nuclear repulsion energy       713.3928410074 Hartrees.
 IExCor=  402 DFT=T Ex+Corr=B3LYP ExCW=0 ScaHFX=  0.200000
 ScaDFX=  0.800000  0.720000  1.000000  0.810000 ScalE2=  1.000000  1.000000
 IRadAn=      0 IRanWt=     -1 IRanGd=            0 ICorTp=0 IEmpDi=  4
 NAtoms=   15 NActive=   15 NUniq=   15 SFac= 1.00D+00 NAtFMM=   60 NAOKFM=F Big=F
 Integral buffers will be    131072 words long.
 Raffenetti 2 integral format.
 Two-electron integral symmetry is turned on.
 Leave Link  301 at Fri Aug 20 15:59:17 2021, MaxMem= 24159191040 cpu:         1.9
 (Enter /public/home/users/caep010/software/Gaussian09/g09/l302.exe)
 NPDir=0 NMtPBC=     1 NCelOv=     1 NCel=       1 NClECP=     1 NCelD=      1
         NCelK=      1 NCelE2=     1 NClLst=     1 CellRange=     0.0.
 One-electron integrals computed using PRISM.
 NBasis=   195 RedAO= T EigKep=  1.25D-03  NBF=   195
 NBsUse=   195 1.00D-06 EigRej= -1.00D+00 NBFU=   195
 Precomputing XC quadrature grid using
 IXCGrd= 4 IRadAn=           0 IRanWt=          -1 IRanGd=           0 AccXCQ= 0.00D+00.
 Generated NRdTot=       0 NPtTot=           0 NUsed=           0 NTot=          32
 NSgBfM=   194   194   194   194   194 MxSgAt=    15 MxSgA2=    15.
 Leave Link  302 at Fri Aug 20 15:59:18 2021, MaxMem= 24159191040 cpu:        16.3
 (Enter /public/home/users/caep010/software/Gaussian09/g09/l303.exe)
 DipDrv:  MaxL=1.
 Leave Link  303 at Fri Aug 20 15:59:18 2021, MaxMem= 24159191040 cpu:         0.7
 (Enter /public/home/users/caep010/software/Gaussian09/g09/l401.exe)
 ExpMin= 1.61D-01 ExpMax= 5.48D+03 ExpMxC= 8.25D+02 IAcc=1 IRadAn=         1 AccDes= 0.00D+00
 Harris functional with IExCor=  402 and IRadAn=       1 diagonalized for initial guess.
 HarFok:  IExCor=  402 AccDes= 0.00D+00 IRadAn=         1 IDoV= 1 UseB2=F ITyADJ=14
 ICtDFT=  3500011 ScaDFX=  1.000000  1.000000  1.000000  1.000000
 FoFCou: FMM=F IPFlag=           0 FMFlag=      100000 FMFlg1=           0
         NFxFlg=           0 DoJE=T BraDBF=F KetDBF=T FulRan=T
         wScrn=  0.000000 ICntrl=     500 IOpCl=  0 I1Cent=   200000004 NGrid=           0
         NMat0=    1 NMatS0=      1 NMatT0=    0 NMatD0=    1 NMtDS0=    0 NMtDT0=    0
 Petite list used in FoFCou.
 Harris En= -690.508175866674    
 JPrj=0 DoOrth=F DoCkMO=F.
 Leave Link  401 at Fri Aug 20 15:59:19 2021, MaxMem= 24159191040 cpu:        10.8
 (Enter /public/home/users/caep010/software/Gaussian09/g09/l502.exe)
 Closed shell SCF:
 Using DIIS extrapolation, IDIIS=  1040.
 Integral symmetry usage will be decided dynamically.
 Keep R1 ints in memory in canonical form, NReq=186510592.
 IVT=      140317 IEndB=      140317 NGot= 24159191040 MDV= 23976445119
 LenX= 23976445119 LenY= 23976406653
 Requested convergence on RMS density matrix=1.00D-08 within 128 cycles.
 Requested convergence on MAX density matrix=1.00D-06.
 Requested convergence on             energy=1.00D-06.
 No special actions if energy rises.
 FoFCou: FMM=F IPFlag=           0 FMFlag=           0 FMFlg1=           0
         NFxFlg=           0 DoJE=F BraDBF=F KetDBF=F FulRan=T
         wScrn=  0.000000 ICntrl=     600 IOpCl=  0 I1Cent=           0 NGrid=           0
         NMat0=    1 NMatS0=  19110 NMatT0=    0 NMatD0=    1 NMtDS0=    0 NMtDT0=    0
 Symmetry not used in FoFCou.
 Integral accuracy reduced to 1.0D-05 until final iterations.

 Cycle   1  Pass 0  IDiag  1:
 E= -690.116902861773    
 DIIS: error= 3.30D-02 at cycle   1 NSaved=   1.
 NSaved= 1 IEnMin= 1 EnMin= -690.116902861773     IErMin= 1 ErrMin= 3.30D-02
 ErrMax= 3.30D-02  0.00D+00 EMaxC= 1.00D-01 BMatC= 5.09D-01 BMatP= 5.09D-01
 IDIUse=3 WtCom= 6.70D-01 WtEn= 3.30D-01
 Coeff-Com:  0.100D+01
 Coeff-En:   0.100D+01
 Coeff:      0.100D+01
 Gap=     0.208 Goal=   None    Shift=    0.000
 GapD=    0.208 DampG=1.000 DampE=0.500 DampFc=0.5000 IDamp=-1.
 Damping current iteration by 5.00D-01
 RMSDP=7.42D-03 MaxDP=2.40D-01              OVMax= 3.10D-01

 Cycle   2  Pass 0  IDiag  1:
 E= -690.164265706180     Delta-E=       -0.047362844406 Rises=F Damp=T
 DIIS: error= 1.40D-02 at cycle   2 NSaved=   2.
 NSaved= 2 IEnMin= 2 EnMin= -690.164265706180     IErMin= 2 ErrMin= 1.40D-02
 ErrMax= 1.40D-02  0.00D+00 EMaxC= 1.00D-01 BMatC= 1.15D-01 BMatP= 5.09D-01
 IDIUse=3 WtCom= 8.60D-01 WtEn= 1.40D-01
 Coeff-Com:  0.299D+00 0.701D+00
 Coeff-En:   0.448D+00 0.552D+00
 Coeff:      0.320D+00 0.680D+00
 Gap=     0.170 Goal=   None    Shift=    0.000
 RMSDP=1.85D-03 MaxDP=5.22D-02 DE=-4.74D-02 OVMax= 1.74D-01

 Cycle   3  Pass 0  IDiag  1:
 E= -690.479105064063     Delta-E=       -0.314839357884 Rises=F Damp=F
 DIIS: error= 5.88D-03 at cycle   3 NSaved=   3.
 NSaved= 3 IEnMin= 3 EnMin= -690.479105064063     IErMin= 3 ErrMin= 5.88D-03
 ErrMax= 5.88D-03  0.00D+00 EMaxC= 1.00D-01 BMatC= 1.25D-02 BMatP= 1.15D-01
 IDIUse=3 WtCom= 9.41D-01 WtEn= 5.88D-02
 Coeff-Com:  0.115D+00 0.249D+00 0.636D+00
 Coeff-En:   0.000D+00 0.000D+00 0.100D+01
 Coeff:      0.108D+00 0.234D+00 0.657D+00
 Gap=     0.205 Goal=   None    Shift=    0.000
 RMSDP=1.03D-03 MaxDP=2.83D-02 DE=-3.15D-01 OVMax= 6.38D-02

 Cycle   4  Pass 0  IDiag  1:
 E= -690.473848598501     Delta-E=        0.005256465562 Rises=F Damp=F
 DIIS: error= 6.83D-03 at cycle   4 NSaved=   4.
 NSaved= 4 IEnMin= 3 EnMin= -690.479105064063     IErMin= 3 ErrMin= 5.88D-03
 ErrMax= 6.83D-03  0.00D+00 EMaxC= 1.00D-01 BMatC= 2.01D-02 BMatP= 1.25D-02
 IDIUse=3 WtCom= 1.08D-01 WtEn= 8.92D-01
 Coeff-Com:  0.491D-01 0.844D-01 0.519D+00 0.347D+00
 Coeff-En:   0.000D+00 0.000D+00 0.577D+00 0.423D+00
 Coeff:      0.531D-02 0.912D-02 0.571D+00 0.414D+00
 Gap=     0.207 Goal=   None    Shift=    0.000
 RMSDP=6.97D-04 MaxDP=2.30D-02 DE= 5.26D-03 OVMax= 5.66D-02

 Cycle   5  Pass 0  IDiag  1:
 E= -690.488195804241     Delta-E=       -0.014347205740 Rises=F Damp=F
 DIIS: error= 1.99D-03 at cycle   5 NSaved=   5.
 NSaved= 5 IEnMin= 5 EnMin= -690.488195804241     IErMin= 5 ErrMin= 1.99D-03
 ErrMax= 1.99D-03  0.00D+00 EMaxC= 1.00D-01 BMatC= 2.22D-03 BMatP= 1.25D-02
 IDIUse=3 WtCom= 9.80D-01 WtEn= 1.99D-02
 Coeff-Com:  0.809D-02 0.136D-01 0.264D+00 0.265D+00 0.450D+00
 Coeff-En:   0.000D+00 0.000D+00 0.000D+00 0.116D+00 0.884D+00
 Coeff:      0.793D-02 0.133D-01 0.259D+00 0.262D+00 0.458D+00
 Gap=     0.202 Goal=   None    Shift=    0.000
 RMSDP=2.31D-04 MaxDP=6.84D-03 DE=-1.43D-02 OVMax= 1.76D-02

 Cycle   6  Pass 0  IDiag  1:
 E= -690.489931206646     Delta-E=       -0.001735402406 Rises=F Damp=F
 DIIS: error= 4.98D-04 at cycle   6 NSaved=   6.
 NSaved= 6 IEnMin= 6 EnMin= -690.489931206646     IErMin= 6 ErrMin= 4.98D-04
 ErrMax= 4.98D-04  0.00D+00 EMaxC= 1.00D-01 BMatC= 1.28D-04 BMatP= 2.22D-03
 IDIUse=3 WtCom= 9.95D-01 WtEn= 4.98D-03
 Coeff-Com:  0.144D-02 0.186D-02 0.123D+00 0.136D+00 0.285D+00 0.452D+00
 Coeff-En:   0.000D+00 0.000D+00 0.000D+00 0.000D+00 0.000D+00 0.100D+01
 Coeff:      0.143D-02 0.186D-02 0.123D+00 0.135D+00 0.284D+00 0.454D+00
 Gap=     0.200 Goal=   None    Shift=    0.000
 RMSDP=6.29D-05 MaxDP=2.29D-03 DE=-1.74D-03 OVMax= 5.12D-03

 Cycle   7  Pass 0  IDiag  1:
 E= -690.490020625014     Delta-E=       -0.000089418367 Rises=F Damp=F
 DIIS: error= 1.89D-04 at cycle   7 NSaved=   7.
 NSaved= 7 IEnMin= 7 EnMin= -690.490020625014     IErMin= 7 ErrMin= 1.89D-04
 ErrMax= 1.89D-04  0.00D+00 EMaxC= 1.00D-01 BMatC= 2.22D-05 BMatP= 1.28D-04
 IDIUse=3 WtCom= 9.98D-01 WtEn= 1.89D-03
 Coeff-Com: -0.108D-03-0.608D-03 0.517D-01 0.604D-01 0.141D+00 0.320D+00
 Coeff-Com:  0.427D+00
 Coeff-En:   0.000D+00 0.000D+00 0.000D+00 0.000D+00 0.000D+00 0.146D+00
 Coeff-En:   0.854D+00
 Coeff:     -0.108D-03-0.607D-03 0.516D-01 0.603D-01 0.141D+00 0.320D+00
 Coeff:      0.428D+00
 Gap=     0.200 Goal=   None    Shift=    0.000
 RMSDP=2.33D-05 MaxDP=7.52D-04 DE=-8.94D-05 OVMax= 1.88D-03

 Cycle   8  Pass 0  IDiag  1:
 E= -690.490036156543     Delta-E=       -0.000015531529 Rises=F Damp=F
 DIIS: error= 7.70D-05 at cycle   8 NSaved=   8.
 NSaved= 8 IEnMin= 8 EnMin= -690.490036156543     IErMin= 8 ErrMin= 7.70D-05
 ErrMax= 7.70D-05  0.00D+00 EMaxC= 1.00D-01 BMatC= 3.18D-06 BMatP= 2.22D-05
 IDIUse=1 WtCom= 1.00D+00 WtEn= 0.00D+00
 Coeff-Com: -0.279D-03-0.720D-03 0.212D-01 0.257D-01 0.646D-01 0.170D+00
 Coeff-Com:  0.303D+00 0.416D+00
 Coeff:     -0.279D-03-0.720D-03 0.212D-01 0.257D-01 0.646D-01 0.170D+00
 Coeff:      0.303D+00 0.416D+00
 Gap=     0.200 Goal=   None    Shift=    0.000
 RMSDP=9.74D-06 MaxDP=3.37D-04 DE=-1.55D-05 OVMax= 7.46D-04

 Initial convergence to 1.0D-05 achieved.  Increase integral accuracy.
 Cycle   9  Pass 1  IDiag  1:
 E= -690.490048268173     Delta-E=       -0.000012111630 Rises=F Damp=F
 DIIS: error= 3.09D-05 at cycle   1 NSaved=   1.
 NSaved= 1 IEnMin= 1 EnMin= -690.490048268173     IErMin= 1 ErrMin= 3.09D-05
 ErrMax= 3.09D-05  0.00D+00 EMaxC= 1.00D-01 BMatC= 5.86D-07 BMatP= 5.86D-07
 IDIUse=1 WtCom= 1.00D+00 WtEn= 0.00D+00
 Coeff-Com:  0.100D+01
 Coeff:      0.100D+01
 Gap=     0.200 Goal=   None    Shift=    0.000
 RMSDP=9.74D-06 MaxDP=3.37D-04 DE=-1.21D-05 OVMax= 8.46D-04

 Cycle  10  Pass 1  IDiag  1:
 E= -690.490045718339     Delta-E=        0.000002549834 Rises=F Damp=F
 DIIS: error= 8.86D-05 at cycle   2 NSaved=   2.
 NSaved= 2 IEnMin= 1 EnMin= -690.490048268173     IErMin= 1 ErrMin= 3.09D-05
 ErrMax= 8.86D-05  0.00D+00 EMaxC= 1.00D-01 BMatC= 3.74D-06 BMatP= 5.86D-07
 IDIUse=1 WtCom= 1.00D+00 WtEn= 0.00D+00
 Coeff-Com:  0.725D+00 0.275D+00
 Coeff:      0.725D+00 0.275D+00
 Gap=     0.200 Goal=   None    Shift=    0.000
 RMSDP=8.36D-06 MaxDP=3.05D-04 DE= 2.55D-06 OVMax= 7.12D-04

 Cycle  11  Pass 1  IDiag  1:
 E= -690.490048712203     Delta-E=       -0.000002993864 Rises=F Damp=F
 DIIS: error= 1.05D-05 at cycle   3 NSaved=   3.
 NSaved= 3 IEnMin= 3 EnMin= -690.490048712203     IErMin= 3 ErrMin= 1.05D-05
 ErrMax= 1.05D-05  0.00D+00 EMaxC= 1.00D-01 BMatC= 7.66D-08 BMatP= 5.86D-07
 IDIUse=1 WtCom= 1.00D+00 WtEn= 0.00D+00
 Coeff-Com:  0.355D+00 0.165D+00 0.480D+00
 Coeff:      0.355D+00 0.165D+00 0.480D+00
 Gap=     0.200 Goal=   None    Shift=    0.000
 RMSDP=1.67D-06 MaxDP=5.01D-05 DE=-2.99D-06 OVMax= 1.26D-04

 Cycle  12  Pass 1  IDiag  1:
 E= -690.490048756190     Delta-E=       -0.000000043988 Rises=F Damp=F
 DIIS: error= 6.10D-06 at cycle   4 NSaved=   4.
 NSaved= 4 IEnMin= 4 EnMin= -690.490048756190     IErMin= 4 ErrMin= 6.10D-06
 ErrMax= 6.10D-06  0.00D+00 EMaxC= 1.00D-01 BMatC= 2.03D-08 BMatP= 7.66D-08
 IDIUse=1 WtCom= 1.00D+00 WtEn= 0.00D+00
 Coeff-Com:  0.423D-01 0.390D-01 0.353D+00 0.565D+00
 Coeff:      0.423D-01 0.390D-01 0.353D+00 0.565D+00
 Gap=     0.200 Goal=   None    Shift=    0.000
 RMSDP=7.69D-07 MaxDP=2.84D-05 DE=-4.40D-08 OVMax= 6.23D-05

 Cycle  13  Pass 1  IDiag  1:
 E= -690.490048771256     Delta-E=       -0.000000015066 Rises=F Damp=F
 DIIS: error= 2.25D-06 at cycle   5 NSaved=   5.
 NSaved= 5 IEnMin= 5 EnMin= -690.490048771256     IErMin= 5 ErrMin= 2.25D-06
 ErrMax= 2.25D-06  0.00D+00 EMaxC= 1.00D-01 BMatC= 2.66D-09 BMatP= 2.03D-08
 IDIUse=1 WtCom= 1.00D+00 WtEn= 0.00D+00
 Coeff-Com: -0.804D-02 0.868D-02 0.176D+00 0.368D+00 0.455D+00
 Coeff:     -0.804D-02 0.868D-02 0.176D+00 0.368D+00 0.455D+00
 Gap=     0.200 Goal=   None    Shift=    0.000
 RMSDP=2.74D-07 MaxDP=8.64D-06 DE=-1.51D-08 OVMax= 2.13D-05

 Cycle  14  Pass 1  IDiag  1:
 E= -690.490048773214     Delta-E=       -0.000000001958 Rises=F Damp=F
 DIIS: error= 8.58D-07 at cycle   6 NSaved=   6.
 NSaved= 6 IEnMin= 6 EnMin= -690.490048773214     IErMin= 6 ErrMin= 8.58D-07
 ErrMax= 8.58D-07  0.00D+00 EMaxC= 1.00D-01 BMatC= 4.02D-10 BMatP= 2.66D-09
 IDIUse=1 WtCom= 1.00D+00 WtEn= 0.00D+00
 Coeff-Com: -0.877D-02 0.402D-02 0.107D+00 0.237D+00 0.332D+00 0.329D+00
 Coeff:     -0.877D-02 0.402D-02 0.107D+00 0.237D+00 0.332D+00 0.329D+00
 Gap=     0.200 Goal=   None    Shift=    0.000
 RMSDP=9.33D-08 MaxDP=2.84D-06 DE=-1.96D-09 OVMax= 6.91D-06

 Cycle  15  Pass 1  IDiag  1:
 E= -690.490048773530     Delta-E=       -0.000000000317 Rises=F Damp=F
 DIIS: error= 2.38D-07 at cycle   7 NSaved=   7.
 NSaved= 7 IEnMin= 7 EnMin= -690.490048773530     IErMin= 7 ErrMin= 2.38D-07
 ErrMax= 2.38D-07  0.00D+00 EMaxC= 1.00D-01 BMatC= 2.25D-11 BMatP= 4.02D-10
 IDIUse=1 WtCom= 1.00D+00 WtEn= 0.00D+00
 Coeff-Com: -0.415D-02 0.143D-02 0.409D-01 0.955D-01 0.139D+00 0.218D+00
 Coeff-Com:  0.509D+00
 Coeff:     -0.415D-02 0.143D-02 0.409D-01 0.955D-01 0.139D+00 0.218D+00
 Coeff:      0.509D+00
 Gap=     0.200 Goal=   None    Shift=    0.000
 RMSDP=2.55D-08 MaxDP=7.13D-07 DE=-3.17D-10 OVMax= 1.45D-06

 Cycle  16  Pass 1  IDiag  1:
 E= -690.490048773556     Delta-E=       -0.000000000026 Rises=F Damp=F
 DIIS: error= 8.14D-08 at cycle   8 NSaved=   8.
 NSaved= 8 IEnMin= 8 EnMin= -690.490048773556     IErMin= 8 ErrMin= 8.14D-08
 ErrMax= 8.14D-08  0.00D+00 EMaxC= 1.00D-01 BMatC= 3.41D-12 BMatP= 2.25D-11
 IDIUse=1 WtCom= 1.00D+00 WtEn= 0.00D+00
 Coeff-Com: -0.143D-02 0.322D-03 0.997D-02 0.263D-01 0.403D-01 0.996D-01
 Coeff-Com:  0.342D+00 0.483D+00
 Coeff:     -0.143D-02 0.322D-03 0.997D-02 0.263D-01 0.403D-01 0.996D-01
 Coeff:      0.342D+00 0.483D+00
 Gap=     0.200 Goal=   None    Shift=    0.000
 RMSDP=9.09D-09 MaxDP=3.13D-07 DE=-2.57D-11 OVMax= 4.37D-07

 SCF Done:  E(RB3LYP) =  -690.490048774     A.U. after   16 cycles
            NFock= 16  Conv=0.91D-08     -V/T= 2.0070
 KE= 6.857188015858D+02 PE=-3.042149084742D+03 EE= 9.525473933749D+02
 Leave Link  502 at Fri Aug 20 15:59:26 2021, MaxMem= 24159191040 cpu:        80.3
 (Enter /public/home/users/caep010/software/Gaussian09/g09/l601.exe)
 Copying SCF densities to generalized density rwf, IOpCl= 0 IROHF=0.

 **********************************************************************

            Population analysis using the SCF density.

 **********************************************************************

 Orbital symmetries:
       Occupied  (A) (A) (A) (A) (A) (A) (A) (A) (A) (A) (A) (A)
                 (A) (A) (A) (A) (A) (A) (A) (A) (A) (A) (A) (A)
                 (A) (A) (A) (A) (A) (A) (A) (A) (A) (A) (A) (A)
                 (A) (A) (A) (A) (A) (A) (A) (A)
       Virtual   (A) (A) (A) (A) (A) (A) (A) (A) (A) (A) (A) (A)
                 (A) (A) (A) (A) (A) (A) (A) (A) (A) (A) (A) (A)
                 (A) (A) (A) (A) (A) (A) (A) (A) (A) (A) (A) (A)
                 (A) (A) (A) (A) (A) (A) (A) (A) (A) (A) (A) (A)
                 (A) (A) (A) (A) (A) (A) (A) (A) (A) (A) (A) (A)
                 (A) (A) (A) (A) (A) (A) (A) (A) (A) (A) (A) (A)
                 (A) (A) (A) (A) (A) (A) (A) (A) (A) (A) (A) (A)
                 (A) (A) (A) (A) (A) (A) (A) (A) (A) (A) (A) (A)
                 (A) (A) (A) (A) (A) (A) (A) (A) (A) (A) (A) (A)
                 (A) (A) (A) (A) (A) (A) (A) (A) (A) (A) (A) (A)
                 (A) (A) (A) (A) (A) (A) (A) (A) (A) (A) (A) (A)
                 (A) (A) (A) (A) (A) (A) (A) (A) (A) (A) (A) (A)
                 (A) (A) (A) (A) (A) (A) (A)
 The electronic state is 1-A.
 Alpha  occ. eigenvalues --  -19.22511 -19.22040 -19.19116 -19.18972 -14.61130
 Alpha  occ. eigenvalues --  -14.58722 -14.48619 -14.41803 -14.38216 -10.31931
 Alpha  occ. eigenvalues --  -10.31858 -10.30019  -1.28189  -1.25134  -1.15345
 Alpha  occ. eigenvalues --   -1.10477  -1.07217  -0.98599  -0.92610  -0.86137
 Alpha  occ. eigenvalues --   -0.77807  -0.71904  -0.67250  -0.64537  -0.60635
 Alpha  occ. eigenvalues --   -0.59583  -0.59124  -0.56367  -0.55386  -0.53795
 Alpha  occ. eigenvalues --   -0.53242  -0.51338  -0.50587  -0.50171  -0.39047
 Alpha  occ. eigenvalues --   -0.36646  -0.35155  -0.34345  -0.33829  -0.33077
 Alpha  occ. eigenvalues --   -0.32481  -0.32014  -0.31700  -0.29689
 Alpha virt. eigenvalues --   -0.09707  -0.09516  -0.04676   0.03613   0.06112
 Alpha virt. eigenvalues --    0.08423   0.10376   0.12629   0.14341   0.15372
 Alpha virt. eigenvalues --    0.20281   0.22196   0.24643   0.25574   0.29506
 Alpha virt. eigenvalues --    0.30070   0.34172   0.36219   0.40501   0.41245
 Alpha virt. eigenvalues --    0.44947   0.48972   0.49128   0.51857   0.53416
 Alpha virt. eigenvalues --    0.54287   0.58043   0.60764   0.61517   0.63537
 Alpha virt. eigenvalues --    0.64977   0.66989   0.69971   0.71412   0.73931
 Alpha virt. eigenvalues --    0.74287   0.74447   0.76747   0.77396   0.78641
 Alpha virt. eigenvalues --    0.80169   0.81282   0.81924   0.85041   0.85778
 Alpha virt. eigenvalues --    0.87021   0.88500   0.91637   0.94447   0.94715
 Alpha virt. eigenvalues --    0.95264   0.96832   0.99877   1.01539   1.02444
 Alpha virt. eigenvalues --    1.03262   1.05309   1.07763   1.11986   1.14596
 Alpha virt. eigenvalues --    1.15314   1.22408   1.26394   1.27866   1.29532
 Alpha virt. eigenvalues --    1.32368   1.34117   1.34760   1.37063   1.39597
 Alpha virt. eigenvalues --    1.41772   1.42264   1.46113   1.52292   1.54000
 Alpha virt. eigenvalues --    1.58484   1.60348   1.64370   1.66458   1.68626
 Alpha virt. eigenvalues --    1.72270   1.73570   1.77015   1.78226   1.80448
 Alpha virt. eigenvalues --    1.83188   1.83370   1.86175   1.87764   1.89145
 Alpha virt. eigenvalues --    1.90708   1.93044   1.94420   1.95591   1.99800
 Alpha virt. eigenvalues --    2.01748   2.05300   2.07184   2.08945   2.10541
 Alpha virt. eigenvalues --    2.13186   2.20029   2.20556   2.21024   2.23309
 Alpha virt. eigenvalues --    2.26403   2.28353   2.29048   2.32314   2.36837
 Alpha virt. eigenvalues --    2.39332   2.45692   2.51330   2.54509   2.57573
 Alpha virt. eigenvalues --    2.59412   2.60562   2.63734   2.66237   2.69887
 Alpha virt. eigenvalues --    2.71654   2.73861   2.77370   2.78985   2.80186
 Alpha virt. eigenvalues --    2.82871   2.86347   2.88198   2.89324   2.94867
 Alpha virt. eigenvalues --    3.01656   3.06561   3.10826   3.18133   3.21980
 Alpha virt. eigenvalues --    3.28503   3.52799   3.60544   3.69410   3.76223
 Alpha virt. eigenvalues --    3.77784   3.80575   3.83736   3.87891   3.93438
 Alpha virt. eigenvalues --    4.03340   4.05138   4.24428   4.32157   4.42878
 Alpha virt. eigenvalues --    4.55510
          Condensed to atoms (all electrons):
               1          2          3          4          5          6
     1  N    6.941076   0.212713   0.385875  -0.100960  -0.051850  -0.001263
     2  N    0.212713   6.790648  -0.093653  -0.060375   0.247519  -0.048887
     3  C    0.385875  -0.093653   4.766937   0.435846   0.009449   0.000513
     4  N   -0.100960  -0.060375   0.435846   6.745876   0.004598  -0.000067
     5  C   -0.051850   0.247519   0.009449   0.004598   4.911592   0.205639
     6  N   -0.001263  -0.048887   0.000513  -0.000067   0.205639   5.859052
     7  O   -0.000022   0.004370   0.000002  -0.000001  -0.085407   0.274480
     8  O    0.001480  -0.003263   0.001628  -0.000722  -0.100870   0.331952
     9  N   -0.064326   0.005233   0.136127  -0.053773  -0.000063   0.000002
    10  O    0.003148  -0.000096  -0.082666   0.001789   0.000002  -0.000000
    11  O    0.001776   0.000470  -0.083445   0.002710   0.000006  -0.000000
    12  C   -0.077126   0.332672  -0.115789   0.504603  -0.034488  -0.001432
    13  H    0.004350  -0.029547  -0.000293   0.000142   0.388304  -0.029781
    14  H    0.004892  -0.021927  -0.000501  -0.000256   0.385831  -0.033395
    15  H    0.005197  -0.055281   0.003941  -0.034019   0.002133  -0.000071
               7          8          9         10         11         12
     1  N   -0.000022   0.001480  -0.064326   0.003148   0.001776  -0.077126
     2  N    0.004370  -0.003263   0.005233  -0.000096   0.000470   0.332672
     3  C    0.000002   0.001628   0.136127  -0.082666  -0.083445  -0.115789
     4  N   -0.000001  -0.000722  -0.053773   0.001789   0.002710   0.504603
     5  C   -0.085407  -0.100870  -0.000063   0.000002   0.000006  -0.034488
     6  N    0.274480   0.331952   0.000002  -0.000000  -0.000000  -0.001432
     7  O    8.246929  -0.095885   0.000000   0.000000  -0.000000   0.000076
     8  O   -0.095885   8.189831  -0.000005  -0.000000   0.000000   0.008288
     9  N    0.000000  -0.000005   5.982445   0.312613   0.307682  -0.000161
    10  O    0.000000  -0.000000   0.312613   8.221226  -0.093132   0.000618
    11  O   -0.000000   0.000000   0.307682  -0.093132   8.238276  -0.000261
    12  C    0.000076   0.008288  -0.000161   0.000618  -0.000261   4.602773
    13  H    0.004181   0.001554   0.000002  -0.000000  -0.000000   0.000550
    14  H    0.006709   0.002100  -0.000011   0.000000   0.000000   0.004582
    15  H    0.000005   0.000468  -0.000163   0.000008   0.000002   0.404191
              13         14         15
     1  N    0.004350   0.004892   0.005197
     2  N   -0.029547  -0.021927  -0.055281
     3  C   -0.000293  -0.000501   0.003941
     4  N    0.000142  -0.000256  -0.034019
     5  C    0.388304   0.385831   0.002133
     6  N   -0.029781  -0.033395  -0.000071
     7  O    0.004181   0.006709   0.000005
     8  O    0.001554   0.002100   0.000468
     9  N    0.000002  -0.000011  -0.000163
    10  O   -0.000000   0.000000   0.000008
    11  O   -0.000000   0.000000   0.000002
    12  C    0.000550   0.004582   0.404191
    13  H    0.505399  -0.023587   0.002063
    14  H   -0.023587   0.488561  -0.000091
    15  H    0.002063  -0.000091   0.557033
 Mulliken charges:
               1
     1  N   -0.264960
     2  N   -0.280597
     3  C    0.636028
     4  N   -0.445390
     5  C    0.117606
     6  N    0.443259
     7  O   -0.355439
     8  O   -0.336557
     9  N    0.374399
    10  O   -0.363509
    11  O   -0.374084
    12  C    0.370902
    13  H    0.176664
    14  H    0.187093
    15  H    0.114586
 Sum of Mulliken charges =  -0.00000
 Mulliken charges with hydrogens summed into heavy atoms:
               1
     1  N   -0.264960
     2  N   -0.280597
     3  C    0.636028
     4  N   -0.445390
     5  C    0.481362
     6  N    0.443259
     7  O   -0.355439
     8  O   -0.336557
     9  N    0.374399
    10  O   -0.363509
    11  O   -0.374084
    12  C    0.485488
 Electronic spatial extent (au):  <R**2>=           2176.7711
 Charge=             -0.0000 electrons
 Dipole moment (field-independent basis, Debye):
    X=             -4.5244    Y=              3.7249    Z=             -2.9214  Tot=              6.5483
 Quadrupole moment (field-independent basis, Debye-Ang):
   XX=            -81.8197   YY=            -64.8869   ZZ=            -65.5558
   XY=             -5.3914   XZ=              3.5763   YZ=             -2.7117
 Traceless Quadrupole moment (field-independent basis, Debye-Ang):
   XX=            -11.0656   YY=              5.8672   ZZ=              5.1984
   XY=             -5.3914   XZ=              3.5763   YZ=             -2.7117
 Octapole moment (field-independent basis, Debye-Ang**2):
  XXX=            -13.1285  YYY=              1.8679  ZZZ=             -1.7794  XYY=            -18.3859
  XXY=             19.8492  XXZ=            -18.9214  XZZ=             -5.4845  YZZ=             -1.3000
  YYZ=              1.4394  XYZ=             -8.2004
 Hexadecapole moment (field-independent basis, Debye-Ang**3):
 XXXX=          -2290.6468 YYYY=           -349.1382 ZZZZ=           -201.0626 XXXY=            -38.1804
 XXXZ=            -15.4291 YYYX=            -13.6047 YYYZ=             -6.9036 ZZZX=              6.9958
 ZZZY=             -0.0562 XXYY=           -411.3742 XXZZ=           -365.7001 YYZZ=            -96.8974
 XXYZ=            -11.7283 YYXZ=              5.2910 ZZXY=             -4.2089
 N-N= 7.133928410074D+02 E-N=-3.042149079382D+03  KE= 6.857188015858D+02
 No NMR shielding tensors so no spin-rotation constants.
 Leave Link  601 at Fri Aug 20 15:59:26 2021, MaxMem= 24159191040 cpu:        10.7
 (Enter /public/home/users/caep010/software/Gaussian09/g09/l701.exe)
 Compute integral first derivatives.
 ... and contract with generalized density number  0.
 Leave Link  701 at Fri Aug 20 15:59:26 2021, MaxMem= 24159191040 cpu:        10.6
 (Enter /public/home/users/caep010/software/Gaussian09/g09/l702.exe)
 L702 exits ... SP integral derivatives will be done elsewhere.
 Leave Link  702 at Fri Aug 20 15:59:26 2021, MaxMem= 24159191040 cpu:         0.5
 (Enter /public/home/users/caep010/software/Gaussian09/g09/l703.exe)
 Compute integral first derivatives, UseDBF=F ICtDFT=           0.
 Integral derivatives from FoFJK, PRISM(SPDF).
 Calling FoFJK, ICntrl=      2127 FMM=F ISym2X=0 I1Cent= 0 IOpClX= 0 NMat=1 NMatS=1 NMatT=0.
 FoFJK:  IHMeth= 1 ICntrl=    2127 DoSepK=F KAlg= 0 I1Cent=   0 FoldK=F
 IRaf=         0 NMat=   1 IRICut=       1 DoRegI=T DoRafI=F ISym2E= 0.
 FoFCou: FMM=F IPFlag=           0 FMFlag=      100000 FMFlg1=         800
         NFxFlg=           0 DoJE=F BraDBF=F KetDBF=F FulRan=T
         wScrn=  0.000000 ICntrl=    2127 IOpCl=  0 I1Cent=           0 NGrid=           0
         NMat0=    1 NMatS0=      1 NMatT0=    0 NMatD0=    1 NMtDS0=    0 NMtDT0=    0
 Symmetry not used in FoFCou.
 Leave Link  703 at Fri Aug 20 15:59:27 2021, MaxMem= 24159191040 cpu:        19.3
 (Enter /public/home/users/caep010/software/Gaussian09/g09/l716.exe)
 Dipole        =-1.78005222D+00 1.46548274D+00-1.14936339D+00
 ***** Axes restored to original set *****
 -------------------------------------------------------------------
 Center     Atomic                   Forces (Hartrees/Bohr)
 Number     Number              X              Y              Z
 -------------------------------------------------------------------
      1        7           0.006933650   -0.012857772   -0.003437773
      2        7          -0.004077406   -0.013908748   -0.016171588
      3        6          -0.011275291    0.009224255   -0.008600181
      4        7           0.000394253    0.005117461    0.011273793
      5        6           0.015646097    0.150607244    0.003212485
      6        7           0.012819836    0.000480485   -0.007284647
      7        8           0.007462750   -0.020316010    0.002034632
      8        8          -0.005927045    0.024706819   -0.002323401
      9        7          -0.003518898    0.001471768   -0.003155410
     10        8          -0.000180844    0.018972329    0.011202022
     11        8          -0.003758292   -0.015242590   -0.013693852
     12        6          -0.071279813    0.015724342   -0.113891412
     13        1           0.034871928   -0.029593167    0.088832929
     14        1          -0.058015760   -0.126598864   -0.084603754
     15        1           0.079904834   -0.007787553    0.136606157
 -------------------------------------------------------------------
 Cartesian Forces:  Max     0.150607244 RMS     0.048602518
 Leave Link  716 at Fri Aug 20 15:59:27 2021, MaxMem= 24159191040 cpu:         0.7
 (Enter /public/home/users/caep010/software/Gaussian09/g09/l103.exe)

 GradGradGradGradGradGradGradGradGradGradGradGradGradGradGradGradGradGrad
 Berny optimization.
 FormGI is forming the generalized inverse of G from B-inverse, IUseBI=4.
 Internal  Forces:  Max     0.162912722 RMS     0.031579139
 Search for a local minimum.
 Step number   1 out of a maximum of   76
 All quantities printed in internal units (Hartrees-Bohrs-Radians)
 RMS Force = .31579D-01 SwitMx=.10000D-02 MixMth= 1
 Mixed Optimization -- RFO/linear search
 Second derivative matrix not updated -- first step.
 ITU=  0
     Eigenvalues ---    0.00254   0.00254   0.01024   0.01024   0.01347
     Eigenvalues ---    0.01848   0.01928   0.02399   0.02617   0.02686
     Eigenvalues ---    0.05664   0.06841   0.09419   0.12887   0.15996
     Eigenvalues ---    0.22230   0.23595   0.24717   0.24979   0.24999
     Eigenvalues ---    0.25000   0.25000   0.25000   0.25000   0.31485
     Eigenvalues ---    0.38183   0.41561   0.48646   0.51108   0.52065
     Eigenvalues ---    0.57064   0.60612   0.60727   0.61057   0.64798
     Eigenvalues ---    0.97356   0.98228   0.98638   1.02170
 RFO step:  Lambda=-9.67604159D-02 EMin= 2.54368089D-03
 Linear search not attempted -- first point.
 Maximum step size (   0.300) exceeded in Quadratic search.
    -- Step size scaled by   0.787
 Iteration  1 RMS(Cart)=  0.04495462 RMS(Int)=  0.00059903
 Iteration  2 RMS(Cart)=  0.00072869 RMS(Int)=  0.00003603
 Iteration  3 RMS(Cart)=  0.00000067 RMS(Int)=  0.00003602
 ITry= 1 IFail=0 DXMaxC= 1.76D-01 DCOld= 1.00D+10 DXMaxT= 3.00D-01 DXLimC= 3.00D+00 Rises=F
 Variable       Old X    -DE/DX   Delta X   Delta X   Delta X     New X
                                 (Linear)    (Quad)   (Total)
    R1        2.56018   0.00474   0.00000   0.00558   0.00556   2.56574
    R2        2.46450   0.01691   0.00000   0.01752   0.01753   2.48203
    R3        2.69486   0.00523   0.00000   0.00802   0.00802   2.70288
    R4        2.53418   0.02253   0.00000   0.02652   0.02651   2.56068
    R5        2.52837   0.01579   0.00000   0.01865   0.01867   2.54704
    R6        2.74099   0.01070   0.00000   0.01759   0.01759   2.75858
    R7        2.47830   0.00958   0.00000   0.01040   0.01040   2.48870
    R8        2.85096   0.01687   0.00000   0.03224   0.03224   2.88320
    R9        1.85463   0.09980   0.00000   0.12919   0.12919   1.98382
   R10        1.76814   0.16291   0.00000   0.18122   0.18122   1.94936
   R11        2.29357   0.01859   0.00000   0.01355   0.01355   2.30712
   R12        2.27782   0.02426   0.00000   0.01706   0.01706   2.29489
   R13        2.29189   0.02083   0.00000   0.01513   0.01513   2.30702
   R14        2.29717   0.01954   0.00000   0.01436   0.01436   2.31153
   R15        1.77070   0.15828   0.00000   0.17690   0.17690   1.94759
    A1        1.74853   0.00500   0.00000   0.01058   0.01057   1.75910
    A2        2.09933  -0.00092   0.00000  -0.00180  -0.00179   2.09755
    A3        1.92023   0.00038   0.00000   0.00048   0.00046   1.92069
    A4        2.25368   0.00060   0.00000   0.00168   0.00169   2.25538
    A5        2.06252  -0.00695   0.00000  -0.01547  -0.01545   2.04707
    A6        2.09613   0.00369   0.00000   0.00822   0.00821   2.10434
    A7        2.12447   0.00327   0.00000   0.00727   0.00726   2.13173
    A8        1.76304   0.00552   0.00000   0.01381   0.01383   1.77687
    A9        1.91744   0.00893   0.00000   0.02393   0.02389   1.94133
   A10        1.90767   0.00121   0.00000   0.00761   0.00756   1.91523
   A11        1.95433  -0.00482   0.00000  -0.01507  -0.01512   1.93921
   A12        1.84867  -0.00366   0.00000  -0.00841  -0.00855   1.84013
   A13        1.84130   0.00002   0.00000   0.00307   0.00314   1.84444
   A14        1.98961  -0.00108   0.00000  -0.00927  -0.00930   1.98032
   A15        2.01486  -0.01130   0.00000  -0.02563  -0.02565   1.98921
   A16        2.08269  -0.00324   0.00000  -0.00736  -0.00737   2.07532
   A17        2.18564   0.01454   0.00000   0.03299   0.03298   2.21862
   A18        2.04847  -0.00545   0.00000  -0.01236  -0.01236   2.03611
   A19        2.05233  -0.00556   0.00000  -0.01261  -0.01261   2.03972
   A20        2.18237   0.01101   0.00000   0.02497   0.02497   2.20735
   A21        1.93042  -0.00394   0.00000  -0.00941  -0.00942   1.92100
   A22        2.10179   0.00842   0.00000   0.02447   0.02448   2.12628
   A23        2.25073  -0.00449   0.00000  -0.01510  -0.01509   2.23564
    D1       -3.00969  -0.00081   0.00000  -0.00494  -0.00496  -3.01464
    D2       -0.00575  -0.00036   0.00000  -0.00226  -0.00227  -0.00802
    D3        0.00667  -0.00005   0.00000  -0.00028  -0.00026   0.00641
    D4        3.13674   0.00029   0.00000   0.00181   0.00181   3.13855
    D5        1.36990   0.00148   0.00000   0.00766   0.00755   1.37744
    D6       -2.89185   0.00280   0.00000   0.01538   0.01544  -2.87642
    D7       -0.67006  -0.00128   0.00000  -0.00217  -0.00211  -0.67217
    D8       -1.60472   0.00100   0.00000   0.00459   0.00448  -1.60025
    D9        0.41671   0.00232   0.00000   0.01231   0.01236   0.42908
   D10        2.63851  -0.00176   0.00000  -0.00524  -0.00519   2.63332
   D11        0.00349   0.00064   0.00000   0.00406   0.00405   0.00754
   D12        3.12377   0.00037   0.00000   0.00248   0.00246   3.12623
   D13        2.99173   0.00098   0.00000   0.00669   0.00668   2.99842
   D14       -0.17118   0.00071   0.00000   0.00511   0.00510  -0.16608
   D15       -0.00478   0.00042   0.00000   0.00261   0.00261  -0.00217
   D16       -3.13465   0.00008   0.00000   0.00048   0.00050  -3.13415
   D17       -2.82186  -0.00059   0.00000  -0.00429  -0.00429  -2.82615
   D18        0.31533  -0.00046   0.00000  -0.00338  -0.00339   0.31194
   D19        0.30779  -0.00031   0.00000  -0.00228  -0.00227   0.30552
   D20       -2.83821  -0.00018   0.00000  -0.00137  -0.00136  -2.83958
   D21        0.00049  -0.00059   0.00000  -0.00379  -0.00379  -0.00330
   D22       -3.11746  -0.00050   0.00000  -0.00267  -0.00270  -3.12016
   D23       -3.09240   0.00154   0.00000   0.00594   0.00588  -3.08652
   D24        0.04940   0.00255   0.00000   0.01391   0.01386   0.06326
   D25        1.13239  -0.00243   0.00000  -0.01065  -0.01064   1.12176
   D26       -2.00899  -0.00142   0.00000  -0.00268  -0.00266  -2.01165
   D27       -0.98287   0.00063   0.00000   0.00267   0.00271  -0.98016
   D28        2.15893   0.00163   0.00000   0.01065   0.01069   2.16962
         Item               Value     Threshold  Converged?
 Maximum Force            0.162913     0.000450     NO 
 RMS     Force            0.031579     0.000300     NO 
 Maximum Displacement     0.176079     0.001800     NO 
 RMS     Displacement     0.045015     0.001200     NO 
 Predicted change in Energy=-5.059148D-02
 Lowest energy point so far.  Saving SCF results.
 GradGradGradGradGradGradGradGradGradGradGradGradGradGradGradGradGradGrad

 Leave Link  103 at Fri Aug 20 15:59:27 2021, MaxMem= 24159191040 cpu:         4.4
 (Enter /public/home/users/caep010/software/Gaussian09/g09/l202.exe)
                          Input orientation:                          
 ---------------------------------------------------------------------
 Center     Atomic      Atomic             Coordinates (Angstroms)
 Number     Number       Type             X           Y           Z
 ---------------------------------------------------------------------
      1          7           0        0.118833    1.736497    0.513686
      2          7           0        0.941415    1.427626    1.548768
      3          6           0       -0.489559    2.797976    0.991419
      4          7           0       -0.137312    3.208943    2.225796
      5          6           0        1.925157    0.399574    1.403408
      6          7           0        3.144955    0.906137    0.639653
      7          8           0        3.991557    0.050949    0.433598
      8          8           0        3.189324    2.074953    0.313046
      9          7           0       -1.494971    3.497725    0.197409
     10          8           0       -1.766936    4.637700    0.539319
     11          8           0       -1.978301    2.886551   -0.745512
     12          6           0        0.776827    2.319972    2.555150
     13          1           0        2.284782    0.116919    2.348312
     14          1           0        1.558248   -0.390203    0.850472
     15          1           0        1.304684    2.247683    3.437377
 ---------------------------------------------------------------------
                    Distance matrix (angstroms):
                    1          2          3          4          5
     1  N    0.000000
     2  N    1.357732   0.000000
     3  C    1.313433   2.058199   0.000000
     4  N    2.272669   2.189774   1.347834   0.000000
     5  C    2.416976   1.430304   3.428254   3.580874   0.000000
     6  N    3.140506   2.440088   4.112479   4.311849   1.525724
     7  O    4.224390   3.527351   5.285614   5.498405   2.309129
     8  O    3.095597   2.645588   3.810135   4.001381   2.365143
     9  N    2.409630   3.470945   1.459779   2.457842   4.769722
    10  O    3.460312   4.319575   2.284878   2.746129   5.686819
    11  O    2.702993   3.989602   2.289350   3.510248   5.102930
    12  C    2.222830   1.355055   2.068206   1.316964   2.516565
    13  H    3.268060   2.040063   4.089767   3.929652   1.049794
    14  H    2.590018   2.042695   3.791816   4.209548   1.031556
    15  H    3.196173   2.090766   3.082992   2.114545   2.817362
                    6          7          8          9         10
     6  N    0.000000
     7  O    1.220877   0.000000
     8  O    1.214401   2.180527   0.000000
     9  N    5.332993   6.483674   4.896965   0.000000
    10  O    6.169384   7.362723   5.584208   1.220824   0.000000
    11  O    5.664668   6.713429   5.337001   1.223209   2.182198
    12  C    3.357989   4.470339   3.302606   3.479527   3.988254
    13  H    2.069367   2.565845   2.965535   5.508426   6.334535
    14  H    2.059753   2.507866   3.004368   4.986444   6.036015
    15  H    3.607438   4.589947   3.652827   4.460724   4.852398
                   11         12         13         14         15
    11  O    0.000000
    12  C    4.336601   0.000000
    13  H    5.951174   2.677714   0.000000
    14  H    5.078529   3.295693   1.740272   0.000000
    15  H    5.355623   1.030623   2.585887   3.703352   0.000000
 Stoichiometry    C3H3N5O4
 Framework group  C1[X(C3H3N5O4)]
 Deg. of freedom    39
 Full point group                 C1      NOp   1
 RotChk:  IX=0 Diff= 2.93D-02
 Largest Abelian subgroup         C1      NOp   1
 Largest concise Abelian subgroup C1      NOp   1
                         Standard orientation:                         
 ---------------------------------------------------------------------
 Center     Atomic      Atomic             Coordinates (Angstroms)
 Number     Number       Type             X           Y           Z
 ---------------------------------------------------------------------
      1          7           0        0.332477   -0.420126   -0.605096
      2          7           0       -0.603262    0.563010   -0.569415
      3          6           0        1.370954    0.210636   -0.106285
      4          7           0        1.197584    1.497748    0.254191
      5          6           0       -1.966731    0.269825   -0.886848
      6          7           0       -2.677786   -0.392304    0.289511
      7          8           0       -3.829678   -0.719974    0.052198
      8          8           0       -2.076767   -0.532167    1.335449
      9          7           0        2.649383   -0.475430    0.054606
     10          8           0        3.454046    0.037073    0.816359
     11          8           0        2.807091   -1.507310   -0.583039
     12          6           0       -0.068753    1.694373   -0.049327
     13          1           0       -2.489723    1.162950   -1.062560
     14          1           0       -2.030322   -0.403447   -1.665802
     15          1           0       -0.619081    2.560220    0.048810
 ---------------------------------------------------------------------
 Rotational constants (GHZ):      2.4456165      0.5076659      0.4757274
 Leave Link  202 at Fri Aug 20 15:59:27 2021, MaxMem= 24159191040 cpu:         0.2
 (Enter /public/home/users/caep010/software/Gaussian09/g09/l301.exe)
 Standard basis: 6-31G(d,p) (6D, 7F)
 Ernie: Thresh=  0.10000D-02 Tol=  0.10000D-05 Strict=F.
 There are   195 symmetry adapted cartesian basis functions of A   symmetry.
 There are   195 symmetry adapted basis functions of A   symmetry.
   195 basis functions,   357 primitive gaussians,   195 cartesian basis functions
    44 alpha electrons       44 beta electrons
       nuclear repulsion energy       706.1032512151 Hartrees.
 IExCor=  402 DFT=T Ex+Corr=B3LYP ExCW=0 ScaHFX=  0.200000
 ScaDFX=  0.800000  0.720000  1.000000  0.810000 ScalE2=  1.000000  1.000000
 IRadAn=      0 IRanWt=     -1 IRanGd=            0 ICorTp=0 IEmpDi=  4
 NAtoms=   15 NActive=   15 NUniq=   15 SFac= 1.00D+00 NAtFMM=   60 NAOKFM=F Big=F
 Integral buffers will be    131072 words long.
 Raffenetti 2 integral format.
 Two-electron integral symmetry is turned on.
 Leave Link  301 at Fri Aug 20 15:59:28 2021, MaxMem= 24159191040 cpu:         1.6
 (Enter /public/home/users/caep010/software/Gaussian09/g09/l302.exe)
 NPDir=0 NMtPBC=     1 NCelOv=     1 NCel=       1 NClECP=     1 NCelD=      1
         NCelK=      1 NCelE2=     1 NClLst=     1 CellRange=     0.0.
 One-electron integrals computed using PRISM.
 NBasis=   195 RedAO= T EigKep=  1.32D-03  NBF=   195
 NBsUse=   195 1.00D-06 EigRej= -1.00D+00 NBFU=   195
 Precomputing XC quadrature grid using
 IXCGrd= 4 IRadAn=           0 IRanWt=          -1 IRanGd=           0 AccXCQ= 0.00D+00.
 Generated NRdTot=       0 NPtTot=           0 NUsed=           0 NTot=          32
 NSgBfM=   194   194   194   194   194 MxSgAt=    15 MxSgA2=    15.
 Leave Link  302 at Fri Aug 20 15:59:28 2021, MaxMem= 24159191040 cpu:        13.1
 (Enter /public/home/users/caep010/software/Gaussian09/g09/l303.exe)
 DipDrv:  MaxL=1.
 Leave Link  303 at Fri Aug 20 15:59:28 2021, MaxMem= 24159191040 cpu:         2.7
 (Enter /public/home/users/caep010/software/Gaussian09/g09/l401.exe)
 Initial guess from the checkpoint file:  "/public/home/users/caep010/.cache/gau_scr/Gau-145585.chk"
 B after Tr=     0.000000   -0.000000    0.000000
         Rot=    0.999946    0.010273    0.001026    0.000907 Ang=   1.19 deg.
 Guess basis will be translated and rotated to current coordinates.
 JPrj=2 DoOrth=T DoCkMO=T.
 Generating alternative initial guess.
 ExpMin= 1.61D-01 ExpMax= 5.48D+03 ExpMxC= 8.25D+02 IAcc=1 IRadAn=         1 AccDes= 0.00D+00
 Harris functional with IExCor=  402 and IRadAn=       1 diagonalized for initial guess.
 HarFok:  IExCor=  402 AccDes= 0.00D+00 IRadAn=         1 IDoV= 1 UseB2=F ITyADJ=14
 ICtDFT=  3500011 ScaDFX=  1.000000  1.000000  1.000000  1.000000
 FoFCou: FMM=F IPFlag=           0 FMFlag=      100000 FMFlg1=           0
         NFxFlg=           0 DoJE=T BraDBF=F KetDBF=T FulRan=T
         wScrn=  0.000000 ICntrl=     500 IOpCl=  0 I1Cent=   200000004 NGrid=           0
         NMat0=    1 NMatS0=      1 NMatT0=    0 NMatD0=    1 NMtDS0=    0 NMtDT0=    0
 Petite list used in FoFCou.
 Harris En= -690.538587120515    
 Leave Link  401 at Fri Aug 20 15:59:29 2021, MaxMem= 24159191040 cpu:        13.0
 (Enter /public/home/users/caep010/software/Gaussian09/g09/l502.exe)
 Closed shell SCF:
 Using DIIS extrapolation, IDIIS=  1040.
 Integral symmetry usage will be decided dynamically.
 Keep R1 ints in memory in canonical form, NReq=186510592.
 IVT=      140317 IEndB=      140317 NGot= 24159191040 MDV= 23976445119
 LenX= 23976445119 LenY= 23976406653
 Requested convergence on RMS density matrix=1.00D-08 within 128 cycles.
 Requested convergence on MAX density matrix=1.00D-06.
 Requested convergence on             energy=1.00D-06.
 No special actions if energy rises.
 FoFCou: FMM=F IPFlag=           0 FMFlag=           0 FMFlg1=           0
         NFxFlg=           0 DoJE=F BraDBF=F KetDBF=F FulRan=T
         wScrn=  0.000000 ICntrl=     600 IOpCl=  0 I1Cent=           0 NGrid=           0
         NMat0=    1 NMatS0=  19110 NMatT0=    0 NMatD0=    1 NMtDS0=    0 NMtDT0=    0
 Symmetry not used in FoFCou.
 Integral accuracy reduced to 1.0D-05 until final iterations.

 Cycle   1  Pass 0  IDiag  1:
 E= -690.529850680454    
 DIIS: error= 2.94D-03 at cycle   1 NSaved=   1.
 NSaved= 1 IEnMin= 1 EnMin= -690.529850680454     IErMin= 1 ErrMin= 2.94D-03
 ErrMax= 2.94D-03  0.00D+00 EMaxC= 1.00D-01 BMatC= 5.01D-03 BMatP= 5.01D-03
 IDIUse=3 WtCom= 9.71D-01 WtEn= 2.94D-02
 Coeff-Com:  0.100D+01
 Coeff-En:   0.100D+01
 Coeff:      0.100D+01
 Gap=     1.596 Goal=   None    Shift=    0.000
 GapD=    1.596 DampG=2.000 DampE=1.000 DampFc=2.0000 IDamp=-1.
 RMSDP=6.71D-04 MaxDP=2.01D-02              OVMax= 2.30D-02

 Cycle   2  Pass 0  IDiag  1:
 E= -690.535385855227     Delta-E=       -0.005535174773 Rises=F Damp=F
 DIIS: error= 2.28D-03 at cycle   2 NSaved=   2.
 NSaved= 2 IEnMin= 2 EnMin= -690.535385855227     IErMin= 2 ErrMin= 2.28D-03
 ErrMax= 2.28D-03  0.00D+00 EMaxC= 1.00D-01 BMatC= 1.22D-03 BMatP= 5.01D-03
 IDIUse=3 WtCom= 9.77D-01 WtEn= 2.28D-02
 Coeff-Com:  0.264D+00 0.736D+00
 Coeff-En:   0.000D+00 0.100D+01
 Coeff:      0.258D+00 0.742D+00
 Gap=     0.199 Goal=   None    Shift=    0.000
 RMSDP=2.98D-04 MaxDP=1.04D-02 DE=-5.54D-03 OVMax= 1.16D-02

 Cycle   3  Pass 0  IDiag  1:
 E= -690.535752570157     Delta-E=       -0.000366714929 Rises=F Damp=F
 DIIS: error= 1.55D-03 at cycle   3 NSaved=   3.
 NSaved= 3 IEnMin= 3 EnMin= -690.535752570157     IErMin= 3 ErrMin= 1.55D-03
 ErrMax= 1.55D-03  0.00D+00 EMaxC= 1.00D-01 BMatC= 9.38D-04 BMatP= 1.22D-03
 IDIUse=3 WtCom= 9.85D-01 WtEn= 1.55D-02
 Coeff-Com:  0.308D-01 0.463D+00 0.506D+00
 Coeff-En:   0.000D+00 0.417D+00 0.583D+00
 Coeff:      0.303D-01 0.462D+00 0.507D+00
 Gap=     0.201 Goal=   None    Shift=    0.000
 RMSDP=1.58D-04 MaxDP=4.60D-03 DE=-3.67D-04 OVMax= 6.69D-03

 Cycle   4  Pass 0  IDiag  1:
 E= -690.536506531040     Delta-E=       -0.000753960884 Rises=F Damp=F
 DIIS: error= 3.78D-04 at cycle   4 NSaved=   4.
 NSaved= 4 IEnMin= 4 EnMin= -690.536506531040     IErMin= 4 ErrMin= 3.78D-04
 ErrMax= 3.78D-04  0.00D+00 EMaxC= 1.00D-01 BMatC= 8.15D-05 BMatP= 9.38D-04
 IDIUse=3 WtCom= 9.96D-01 WtEn= 3.78D-03
 Coeff-Com: -0.167D-02 0.218D+00 0.296D+00 0.488D+00
 Coeff-En:   0.000D+00 0.000D+00 0.000D+00 0.100D+01
 Coeff:     -0.166D-02 0.217D+00 0.295D+00 0.490D+00
 Gap=     0.200 Goal=   None    Shift=    0.000
 RMSDP=4.10D-05 MaxDP=1.39D-03 DE=-7.54D-04 OVMax= 1.66D-03

 Cycle   5  Pass 0  IDiag  1:
 E= -690.536562900102     Delta-E=       -0.000056369061 Rises=F Damp=F
 DIIS: error= 1.44D-04 at cycle   5 NSaved=   5.
 NSaved= 5 IEnMin= 5 EnMin= -690.536562900102     IErMin= 5 ErrMin= 1.44D-04
 ErrMax= 1.44D-04  0.00D+00 EMaxC= 1.00D-01 BMatC= 7.94D-06 BMatP= 8.15D-05
 IDIUse=3 WtCom= 9.99D-01 WtEn= 1.44D-03
 Coeff-Com: -0.445D-02 0.692D-01 0.106D+00 0.277D+00 0.552D+00
 Coeff-En:   0.000D+00 0.000D+00 0.000D+00 0.403D-01 0.960D+00
 Coeff:     -0.445D-02 0.691D-01 0.106D+00 0.277D+00 0.553D+00
 Gap=     0.201 Goal=   None    Shift=    0.000
 RMSDP=1.62D-05 MaxDP=5.79D-04 DE=-5.64D-05 OVMax= 1.36D-03

 Cycle   6  Pass 0  IDiag  1:
 E= -690.536566209656     Delta-E=       -0.000003309554 Rises=F Damp=F
 DIIS: error= 1.03D-04 at cycle   6 NSaved=   6.
 NSaved= 6 IEnMin= 6 EnMin= -690.536566209656     IErMin= 6 ErrMin= 1.03D-04
 ErrMax= 1.03D-04  0.00D+00 EMaxC= 1.00D-01 BMatC= 3.55D-06 BMatP= 7.94D-06
 IDIUse=3 WtCom= 9.99D-01 WtEn= 1.03D-03
 Coeff-Com: -0.315D-02 0.282D-01 0.474D-01 0.155D+00 0.423D+00 0.350D+00
 Coeff-En:   0.000D+00 0.000D+00 0.000D+00 0.000D+00 0.333D+00 0.667D+00
 Coeff:     -0.315D-02 0.282D-01 0.474D-01 0.154D+00 0.423D+00 0.350D+00
 Gap=     0.201 Goal=   None    Shift=    0.000
 RMSDP=8.78D-06 MaxDP=3.82D-04 DE=-3.31D-06 OVMax= 8.61D-04

 Initial convergence to 1.0D-05 achieved.  Increase integral accuracy.
 Cycle   7  Pass 1  IDiag  1:
 E= -690.536563578989     Delta-E=        0.000002630666 Rises=F Damp=F
 DIIS: error= 2.51D-05 at cycle   1 NSaved=   1.
 NSaved= 1 IEnMin= 1 EnMin= -690.536563578989     IErMin= 1 ErrMin= 2.51D-05
 ErrMax= 2.51D-05  0.00D+00 EMaxC= 1.00D-01 BMatC= 3.14D-07 BMatP= 3.14D-07
 IDIUse=1 WtCom= 1.00D+00 WtEn= 0.00D+00
 Coeff-Com:  0.100D+01
 Coeff:      0.100D+01
 Gap=     0.200 Goal=   None    Shift=    0.000
 RMSDP=8.78D-06 MaxDP=3.82D-04 DE= 2.63D-06 OVMax= 6.26D-04

 Cycle   8  Pass 1  IDiag  1:
 E= -690.536562354224     Delta-E=        0.000001224765 Rises=F Damp=F
 DIIS: error= 6.92D-05 at cycle   2 NSaved=   2.
 NSaved= 2 IEnMin= 1 EnMin= -690.536563578989     IErMin= 1 ErrMin= 2.51D-05
 ErrMax= 6.92D-05  0.00D+00 EMaxC= 1.00D-01 BMatC= 1.90D-06 BMatP= 3.14D-07
 IDIUse=1 WtCom= 1.00D+00 WtEn= 0.00D+00
 Coeff-Com:  0.725D+00 0.275D+00
 Coeff:      0.725D+00 0.275D+00
 Gap=     0.200 Goal=   None    Shift=    0.000
 RMSDP=5.83D-06 MaxDP=2.55D-04 DE= 1.22D-06 OVMax= 5.53D-04

 Cycle   9  Pass 1  IDiag  1:
 E= -690.536563812449     Delta-E=       -0.000001458224 Rises=F Damp=F
 DIIS: error= 1.03D-05 at cycle   3 NSaved=   3.
 NSaved= 3 IEnMin= 3 EnMin= -690.536563812449     IErMin= 3 ErrMin= 1.03D-05
 ErrMax= 1.03D-05  0.00D+00 EMaxC= 1.00D-01 BMatC= 4.91D-08 BMatP= 3.14D-07
 IDIUse=1 WtCom= 1.00D+00 WtEn= 0.00D+00
 Coeff-Com:  0.277D+00 0.159D+00 0.563D+00
 Coeff:      0.277D+00 0.159D+00 0.563D+00
 Gap=     0.200 Goal=   None    Shift=    0.000
 RMSDP=1.27D-06 MaxDP=3.65D-05 DE=-1.46D-06 OVMax= 7.23D-05

 Cycle  10  Pass 1  IDiag  1:
 E= -690.536563839973     Delta-E=       -0.000000027524 Rises=F Damp=F
 DIIS: error= 4.52D-06 at cycle   4 NSaved=   4.
 NSaved= 4 IEnMin= 4 EnMin= -690.536563839973     IErMin= 4 ErrMin= 4.52D-06
 ErrMax= 4.52D-06  0.00D+00 EMaxC= 1.00D-01 BMatC= 1.51D-08 BMatP= 4.91D-08
 IDIUse=1 WtCom= 1.00D+00 WtEn= 0.00D+00
 Coeff-Com:  0.289D-01 0.494D-01 0.397D+00 0.525D+00
 Coeff:      0.289D-01 0.494D-01 0.397D+00 0.525D+00
 Gap=     0.200 Goal=   None    Shift=    0.000
 RMSDP=5.75D-07 MaxDP=1.86D-05 DE=-2.75D-08 OVMax= 3.20D-05

 Cycle  11  Pass 1  IDiag  1:
 E= -690.536563850111     Delta-E=       -0.000000010138 Rises=F Damp=F
 DIIS: error= 2.07D-06 at cycle   5 NSaved=   5.
 NSaved= 5 IEnMin= 5 EnMin= -690.536563850111     IErMin= 5 ErrMin= 2.07D-06
 ErrMax= 2.07D-06  0.00D+00 EMaxC= 1.00D-01 BMatC= 1.80D-09 BMatP= 1.51D-08
 IDIUse=1 WtCom= 1.00D+00 WtEn= 0.00D+00
 Coeff-Com: -0.548D-02 0.184D-01 0.206D+00 0.343D+00 0.437D+00
 Coeff:     -0.548D-02 0.184D-01 0.206D+00 0.343D+00 0.437D+00
 Gap=     0.200 Goal=   None    Shift=    0.000
 RMSDP=2.34D-07 MaxDP=7.36D-06 DE=-1.01D-08 OVMax= 1.53D-05

 Cycle  12  Pass 1  IDiag  1:
 E= -690.536563851286     Delta-E=       -0.000000001175 Rises=F Damp=F
 DIIS: error= 9.73D-07 at cycle   6 NSaved=   6.
 NSaved= 6 IEnMin= 6 EnMin= -690.536563851286     IErMin= 6 ErrMin= 9.73D-07
 ErrMax= 9.73D-07  0.00D+00 EMaxC= 1.00D-01 BMatC= 4.11D-10 BMatP= 1.80D-09
 IDIUse=1 WtCom= 1.00D+00 WtEn= 0.00D+00
 Coeff-Com: -0.820D-02 0.840D-02 0.112D+00 0.203D+00 0.331D+00 0.354D+00
 Coeff:     -0.820D-02 0.840D-02 0.112D+00 0.203D+00 0.331D+00 0.354D+00
 Gap=     0.200 Goal=   None    Shift=    0.000
 RMSDP=9.17D-08 MaxDP=3.21D-06 DE=-1.17D-09 OVMax= 6.69D-06

 Cycle  13  Pass 1  IDiag  1:
 E= -690.536563851562     Delta-E=       -0.000000000275 Rises=F Damp=F
 DIIS: error= 2.65D-07 at cycle   7 NSaved=   7.
 NSaved= 7 IEnMin= 7 EnMin= -690.536563851562     IErMin= 7 ErrMin= 2.65D-07
 ErrMax= 2.65D-07  0.00D+00 EMaxC= 1.00D-01 BMatC= 2.64D-11 BMatP= 4.11D-10
 IDIUse=1 WtCom= 1.00D+00 WtEn= 0.00D+00
 Coeff-Com: -0.458D-02 0.351D-02 0.480D-01 0.919D-01 0.163D+00 0.240D+00
 Coeff-Com:  0.459D+00
 Coeff:     -0.458D-02 0.351D-02 0.480D-01 0.919D-01 0.163D+00 0.240D+00
 Coeff:      0.459D+00
 Gap=     0.200 Goal=   None    Shift=    0.000
 RMSDP=2.71D-08 MaxDP=8.27D-07 DE=-2.75D-10 OVMax= 1.35D-06

 Cycle  14  Pass 1  IDiag  1:
 E= -690.536563851573     Delta-E=       -0.000000000012 Rises=F Damp=F
 DIIS: error= 5.66D-08 at cycle   8 NSaved=   8.
 NSaved= 8 IEnMin= 8 EnMin= -690.536563851573     IErMin= 8 ErrMin= 5.66D-08
 ErrMax= 5.66D-08  0.00D+00 EMaxC= 1.00D-01 BMatC= 2.24D-12 BMatP= 2.64D-11
 IDIUse=1 WtCom= 1.00D+00 WtEn= 0.00D+00
 Coeff-Com: -0.135D-03-0.346D-03-0.569D-02-0.653D-02-0.555D-02 0.338D-01
 Coeff-Com:  0.240D+00 0.744D+00
 Coeff:     -0.135D-03-0.346D-03-0.569D-02-0.653D-02-0.555D-02 0.338D-01
 Coeff:      0.240D+00 0.744D+00
 Gap=     0.200 Goal=   None    Shift=    0.000
 RMSDP=1.27D-08 MaxDP=3.34D-07 DE=-1.18D-11 OVMax= 7.57D-07

 Cycle  15  Pass 1  IDiag  1:
 E= -690.536563851578     Delta-E=       -0.000000000005 Rises=F Damp=F
 DIIS: error= 3.83D-08 at cycle   9 NSaved=   9.
 NSaved= 9 IEnMin= 9 EnMin= -690.536563851578     IErMin= 9 ErrMin= 3.83D-08
 ErrMax= 3.83D-08  0.00D+00 EMaxC= 1.00D-01 BMatC= 7.70D-13 BMatP= 2.24D-12
 IDIUse=1 WtCom= 1.00D+00 WtEn= 0.00D+00
 Coeff-Com:  0.478D-03-0.691D-03-0.977D-02-0.160D-01-0.243D-01-0.106D-01
 Coeff-Com:  0.988D-01 0.486D+00 0.476D+00
 Coeff:      0.478D-03-0.691D-03-0.977D-02-0.160D-01-0.243D-01-0.106D-01
 Coeff:      0.988D-01 0.486D+00 0.476D+00
 Gap=     0.200 Goal=   None    Shift=    0.000
 RMSDP=5.26D-09 MaxDP=1.85D-07 DE=-5.00D-12 OVMax= 3.08D-07

 SCF Done:  E(RB3LYP) =  -690.536563852     A.U. after   15 cycles
            NFock= 15  Conv=0.53D-08     -V/T= 2.0082
 KE= 6.849442194542D+02 PE=-3.027227896268D+03 EE= 9.456438617473D+02
 Leave Link  502 at Fri Aug 20 15:59:35 2021, MaxMem= 24159191040 cpu:        72.5
 (Enter /public/home/users/caep010/software/Gaussian09/g09/l701.exe)
 Compute integral first derivatives.
 ... and contract with generalized density number  0.
 Leave Link  701 at Fri Aug 20 15:59:36 2021, MaxMem= 24159191040 cpu:        10.7
 (Enter /public/home/users/caep010/software/Gaussian09/g09/l702.exe)
 L702 exits ... SP integral derivatives will be done elsewhere.
 Leave Link  702 at Fri Aug 20 15:59:36 2021, MaxMem= 24159191040 cpu:         0.5
 (Enter /public/home/users/caep010/software/Gaussian09/g09/l703.exe)
 Compute integral first derivatives, UseDBF=F ICtDFT=           0.
 Integral derivatives from FoFJK, PRISM(SPDF).
 Calling FoFJK, ICntrl=      2127 FMM=F ISym2X=0 I1Cent= 0 IOpClX= 0 NMat=1 NMatS=1 NMatT=0.
 FoFJK:  IHMeth= 1 ICntrl=    2127 DoSepK=F KAlg= 0 I1Cent=   0 FoldK=F
 IRaf=         0 NMat=   1 IRICut=       1 DoRegI=T DoRafI=F ISym2E= 0.
 FoFCou: FMM=F IPFlag=           0 FMFlag=      100000 FMFlg1=         800
         NFxFlg=           0 DoJE=F BraDBF=F KetDBF=F FulRan=T
         wScrn=  0.000000 ICntrl=    2127 IOpCl=  0 I1Cent=           0 NGrid=           0
         NMat0=    1 NMatS0=      1 NMatT0=    0 NMatD0=    1 NMtDS0=    0 NMtDT0=    0
 Symmetry not used in FoFCou.
 Leave Link  703 at Fri Aug 20 15:59:36 2021, MaxMem= 24159191040 cpu:        19.1
 (Enter /public/home/users/caep010/software/Gaussian09/g09/l716.exe)
 Dipole        =-1.73102035D+00 1.42478777D+00-1.14881544D+00
 ***** Axes restored to original set *****
 -------------------------------------------------------------------
 Center     Atomic                   Forces (Hartrees/Bohr)
 Number     Number              X              Y              Z
 -------------------------------------------------------------------
      1        7           0.003225798   -0.005684722   -0.000142680
      2        7          -0.000378598   -0.006717068   -0.008797403
      3        6          -0.002095385    0.001988786   -0.002167684
      4        7           0.002094658    0.000883720    0.007190103
      5        6           0.000700621    0.047342724   -0.000235627
      6        7           0.005202554   -0.000417259   -0.002942546
      7        8           0.001791949   -0.004969164    0.000342294
      8        8          -0.001107211    0.006809010   -0.000181991
      9        7          -0.000992104    0.000069427   -0.000768395
     10        8          -0.000606178    0.005361509    0.003071282
     11        8          -0.000940284   -0.003807782   -0.004066434
     12        6          -0.020782729    0.006052764   -0.031763449
     13        1           0.009858940   -0.011828247    0.025927309
     14        1          -0.016241642   -0.035531682   -0.022199877
     15        1           0.020269611    0.000447984    0.036735099
 -------------------------------------------------------------------
 Cartesian Forces:  Max     0.047342724 RMS     0.014005740
 Leave Link  716 at Fri Aug 20 15:59:36 2021, MaxMem= 24159191040 cpu:         0.6
 (Enter /public/home/users/caep010/software/Gaussian09/g09/l103.exe)

 GradGradGradGradGradGradGradGradGradGradGradGradGradGradGradGradGradGrad
 Berny optimization.
 Using GEDIIS/GDIIS optimizer.
 FormGI is forming the generalized inverse of G from B-inverse, IUseBI=4.
 Internal  Forces:  Max     0.044879930 RMS     0.008778477
 Search for a local minimum.
 Step number   2 out of a maximum of   76
 All quantities printed in internal units (Hartrees-Bohrs-Radians)
 RMS Force = .87785D-02 SwitMx=.10000D-02 MixMth= 1
 Mixed Optimization -- RFO/linear search
 Update second derivatives using D2CorX and points    1    2
 DE= -4.65D-02 DEPred=-5.06D-02 R= 9.19D-01
 TightC=F SS=  1.41D+00  RLast= 3.02D-01 DXNew= 5.0454D-01 9.0573D-01
 Trust test= 9.19D-01 RLast= 3.02D-01 DXMaxT set to 5.05D-01
 ITU=  1  0
 Use linear search instead of GDIIS.
     Eigenvalues ---    0.00254   0.00255   0.01024   0.01024   0.01347
     Eigenvalues ---    0.01842   0.01923   0.02397   0.02612   0.02686
     Eigenvalues ---    0.05489   0.06780   0.09634   0.13034   0.15987
     Eigenvalues ---    0.22262   0.23628   0.24726   0.24981   0.24999
     Eigenvalues ---    0.25000   0.25000   0.25000   0.25239   0.31477
     Eigenvalues ---    0.38189   0.41566   0.48751   0.51323   0.52115
     Eigenvalues ---    0.57009   0.60129   0.60885   0.64412   0.65576
     Eigenvalues ---    0.97337   0.98235   0.98603   1.02146
 RFO step:  Lambda=-3.19510244D-03 EMin= 2.54382790D-03
 Quartic linear search produced a step of  0.57885.
 Iteration  1 RMS(Cart)=  0.10582653 RMS(Int)=  0.01120581
 Iteration  2 RMS(Cart)=  0.01248513 RMS(Int)=  0.00183105
 Iteration  3 RMS(Cart)=  0.00024286 RMS(Int)=  0.00181370
 Iteration  4 RMS(Cart)=  0.00000099 RMS(Int)=  0.00181370
 ITry= 1 IFail=0 DXMaxC= 4.77D-01 DCOld= 1.00D+10 DXMaxT= 5.05D-01 DXLimC= 3.00D+00 Rises=F
 Variable       Old X    -DE/DX   Delta X   Delta X   Delta X     New X
                                 (Linear)    (Quad)   (Total)
    R1        2.56574  -0.00129   0.00322  -0.00760  -0.00437   2.56137
    R2        2.48203   0.00577   0.01015   0.00244   0.01262   2.49465
    R3        2.70288  -0.00094   0.00464  -0.00852  -0.00388   2.69900
    R4        2.56068   0.00916   0.01534   0.00754   0.02285   2.58353
    R5        2.54704   0.00566   0.01081   0.00368   0.01451   2.56155
    R6        2.75858   0.00348   0.01018   0.00357   0.01375   2.77233
    R7        2.48870  -0.00099   0.00602  -0.00936  -0.00337   2.48533
    R8        2.88320   0.00658   0.01866   0.01386   0.03253   2.91573
    R9        1.98382   0.02990   0.07478   0.00897   0.08375   2.06758
   R10        1.94936   0.04488   0.10490  -0.00348   0.10142   2.05078
   R11        2.30712   0.00466   0.00784  -0.00182   0.00602   2.31314
   R12        2.29489   0.00657   0.00988  -0.00162   0.00825   2.30314
   R13        2.30702   0.00600   0.00876  -0.00081   0.00795   2.31497
   R14        2.31153   0.00541   0.00832  -0.00111   0.00721   2.31874
   R15        1.94759   0.04180   0.10240  -0.00791   0.09448   2.04208
    A1        1.75910   0.00060   0.00612  -0.00208   0.00400   1.76310
    A2        2.09755  -0.00069  -0.00103  -0.00158  -0.00269   2.09486
    A3        1.92069  -0.00021   0.00026  -0.00192  -0.00188   1.91881
    A4        2.25538   0.00094   0.00098   0.00701   0.00792   2.26329
    A5        2.04707  -0.00084  -0.00894   0.00428  -0.00474   2.04233
    A6        2.10434   0.00049   0.00475  -0.00187   0.00284   2.10718
    A7        2.13173   0.00035   0.00420  -0.00226   0.00190   2.13363
    A8        1.77687   0.00012   0.00801  -0.00614   0.00173   1.77861
    A9        1.94133   0.00274   0.01383   0.01766   0.03092   1.97225
   A10        1.91523   0.00145   0.00438   0.02814   0.03196   1.94719
   A11        1.93921  -0.00163  -0.00875  -0.01204  -0.02090   1.91831
   A12        1.84013  -0.00121  -0.00495   0.00452  -0.00146   1.83867
   A13        1.84444   0.00053   0.00182   0.00978   0.01174   1.85618
   A14        1.98032  -0.00175  -0.00538  -0.04709  -0.05234   1.92798
   A15        1.98921  -0.00235  -0.01484  -0.00128  -0.02443   1.96478
   A16        2.07532  -0.00107  -0.00427  -0.00322  -0.01577   2.05955
   A17        2.21862   0.00341   0.01909   0.00272   0.01323   2.23185
   A18        2.03611  -0.00115  -0.00715  -0.00045  -0.00761   2.02851
   A19        2.03972  -0.00125  -0.00730  -0.00095  -0.00825   2.03147
   A20        2.20735   0.00240   0.01446   0.00140   0.01586   2.22320
   A21        1.92100   0.00033  -0.00545   0.00568   0.00007   1.92107
   A22        2.12628   0.00335   0.01417   0.02237   0.03656   2.16284
   A23        2.23564  -0.00368  -0.00874  -0.02834  -0.03703   2.19861
    D1       -3.01464  -0.00070  -0.00287  -0.04374  -0.04651  -3.06115
    D2       -0.00802  -0.00030  -0.00131  -0.01858  -0.01989  -0.02790
    D3        0.00641   0.00002  -0.00015   0.00034   0.00037   0.00678
    D4        3.13855   0.00026   0.00105   0.01809   0.01922  -3.12542
    D5        1.37744   0.00098   0.00437   0.08717   0.09106   1.46850
    D6       -2.87642   0.00201   0.00894   0.12033   0.12973  -2.74669
[...]
 ! A3    A(1,2,12)             109.8343         -DE/DX =    0.0                 !
 ! A4    A(5,2,12)             129.7704         -DE/DX =    0.0                 !
 ! A5    A(1,3,4)              116.9826         -DE/DX =    0.0                 !
 ! A6    A(1,3,9)              120.7204         -DE/DX =    0.0                 !
 ! A7    A(4,3,9)              122.2955         -DE/DX =    0.0                 !
 ! A8    A(3,4,12)             101.9187         -DE/DX =    0.0                 !
 ! A9    A(2,5,6)              112.2729         -DE/DX =    0.0                 !
 ! A10   A(2,5,13)             111.4909         -DE/DX =    0.0                 !
 ! A11   A(2,5,14)             110.2852         -DE/DX =    0.0                 !
 ! A12   A(6,5,13)             105.2654         -DE/DX =    0.0                 !
 ! A13   A(6,5,14)             106.2905         -DE/DX =    0.0                 !
 ! A14   A(13,5,14)            111.0296         -DE/DX =    0.0                 !
 ! A15   A(5,6,7)              114.1127         -DE/DX =    0.0                 !
 ! A16   A(5,6,8)              118.1683         -DE/DX =    0.0                 !
 ! A17   A(7,6,8)              127.6825         -DE/DX =    0.0                 !
 ! A18   A(3,9,10)             116.5219         -DE/DX =    0.0                 !
 ! A19   A(3,9,11)             116.6383         -DE/DX =    0.0                 !
 ! A20   A(10,9,11)            126.8398         -DE/DX =    0.0                 !
 ! A21   A(2,12,4)             110.1821         -DE/DX =    0.0                 !
 ! A22   A(2,12,15)            123.2132         -DE/DX =    0.0                 !
 ! A23   A(4,12,15)            126.6042         -DE/DX =    0.0                 !
 ! D1    D(3,1,2,5)           -175.2304         -DE/DX =    0.0                 !
 ! D2    D(3,1,2,12)            -0.9722         -DE/DX =    0.0                 !
 ! D3    D(2,1,3,4)              0.5009         -DE/DX =    0.0                 !
 ! D4    D(2,1,3,9)           -179.0723         -DE/DX =    0.0                 !
 ! D5    D(1,2,5,6)             91.3722         -DE/DX =    0.0                 !
 ! D6    D(1,2,5,13)          -150.7855         -DE/DX =    0.0                 !
 ! D7    D(1,2,5,14)           -26.9581         -DE/DX =    0.0                 !
 ! D8    D(12,2,5,6)           -81.5949         -DE/DX =    0.0                 !
 ! D9    D(12,2,5,13)           36.2474         -DE/DX =    0.0                 !
 ! D10   D(12,2,5,14)          160.0748         -DE/DX =    0.0                 !
 ! D11   D(1,2,12,4)             1.1884         -DE/DX =    0.0                 !
 ! D12   D(1,2,12,15)         -179.0512         -DE/DX =    0.0                 !
 ! D13   D(5,2,12,4)           174.722          -DE/DX =    0.0                 !
 ! D14   D(5,2,12,15)           -5.5176         -DE/DX =    0.0                 !
 ! D15   D(1,3,4,12)             0.1795         -DE/DX =    0.0                 !
 ! D16   D(9,3,4,12)           179.7455         -DE/DX =    0.0                 !
 ! D17   D(1,3,9,10)          -179.0724         -DE/DX =    0.0                 !
 ! D18   D(1,3,9,11)             0.9338         -DE/DX =    0.0                 !
 ! D19   D(4,3,9,10)             1.3776         -DE/DX =    0.0                 !
 ! D20   D(4,3,9,11)          -178.6162         -DE/DX =    0.0                 !
 ! D21   D(3,4,12,2)            -0.8018         -DE/DX =    0.0                 !
 ! D22   D(3,4,12,15)          179.4479         -DE/DX =    0.0                 !
 ! D23   D(2,5,6,7)           -168.0055         -DE/DX =    0.0                 !
 ! D24   D(2,5,6,8)             14.0227         -DE/DX =    0.0                 !
 ! D25   D(13,5,6,7)            70.5177         -DE/DX =    0.0                 !
 ! D26   D(13,5,6,8)          -107.454          -DE/DX =    0.0                 !
 ! D27   D(14,5,6,7)           -47.341          -DE/DX =    0.0                 !
 ! D28   D(14,5,6,8)           134.6873         -DE/DX =    0.0                 !
 --------------------------------------------------------------------------------
 GradGradGradGradGradGradGradGradGradGradGradGradGradGradGradGradGradGrad

 Leave Link  103 at Fri Aug 20 16:02:10 2021, MaxMem= 24159191040 cpu:         1.6
 (Enter /public/home/users/caep010/software/Gaussian09/g09/l9999.exe)
 1\1\GINC-B1075\Freq\RB3LYP\6-31G(d,p)\C3H3N5O4\ROOT\20-Aug-2021\0\\#P 
 Geom=AllCheck Guess=TCheck SCRF=Check GenChk RB3LYP/6-31G(d,p) Freq\\W
 OBLUU\\0,1\N,0.0669943619,1.7230276328,0.5142157407\N,0.9598290734,1.4
 685612069,1.5029530818\C,-0.5129938055,2.8149788839,0.9717423171\N,-0.
 0701624257,3.2950325312,2.1593020937\C,1.8919732824,0.4006813392,1.365
 7944822\N,3.2147194556,0.8597609549,0.730694527\O,3.9466330985,-0.0555
 808621,0.3849834179\O,3.4350928409,2.0572599735,0.6615960324\N,-1.5926
 283411,3.4602381685,0.2200315398\O,-2.0644559524,4.4795607199,0.707037
 7856\O,-1.928738854,2.9232275592,-0.8298984143\C,0.8693618441,2.430725
 5948,2.4679019601\H,2.1681402737,-0.0155439045,2.335176665\H,1.4900371
 678,-0.3688407141,0.7108830933\H,1.4948979803,2.4459109158,3.349485677
 8\\Version=ES64L-G09RevE.01\State=1-A\HF=-690.5433086\RMSD=4.882e-09\R
 MSF=1.467e-05\ZeroPoint=0.0930319\Thermal=0.1029043\Dipole=0.8850782,-
 1.5712268,1.5552357\DipoleDeriv=0.0953284,-0.2133842,0.0057406,-0.1402
 956,-0.1280787,-0.1529014,0.1977389,-0.3265239,-0.329739,-0.5368123,0.
 3478376,0.0166198,0.4380637,-0.5005119,-0.0114806,-0.135491,0.1781503,
 -0.137407,0.1219257,0.1014005,0.0627429,0.2242462,0.0912775,0.0893784,
 0.1681116,0.0240208,0.3935763,-0.4931547,0.1630315,-0.0733254,0.189189
 2,-0.402826,-0.0373378,-0.1655832,-0.0004849,-0.3872427,0.6598498,-0.3
 681927,-0.0458812,-0.5010728,0.5499846,0.0415478,-0.0508718,0.050915,0
 .2530217,1.1104147,-0.1880286,-0.3839066,-0.0934451,1.4207686,0.054126
 9,-0.4451832,0.1284915,0.3524983,-0.7918426,0.4367798,0.1968929,0.1809
 755,-0.7743372,-0.0633715,0.2567434,-0.1981667,-0.3105443,-0.546351,-0
 .1098758,0.1249858,0.0050701,-0.9001303,-0.0009396,0.1773574,0.0115195
 ,-0.2409063,1.0992251,-0.5594953,0.3909494,-0.5215685,1.160624,0.28427
 98,0.5115657,0.2014509,1.1488238,-0.5398502,0.3566095,0.0121227,0.2658
 67,-0.7427249,-0.2301816,-0.1182238,-0.0847312,-0.4731135,-0.5198254,0
 .0571061,-0.2910447,0.1117211,-0.4845603,-0.1268593,-0.2583929,-0.1938
 193,-0.771109,0.2673851,-0.1462831,-0.0011291,-0.2612481,0.4307714,0.1
 651857,-0.1218658,0.2220521,0.3106383,-0.0254979,0.0648293,0.0061981,0
 .0337681,0.08053,-0.0235422,0.0030129,0.0193706,0.0272642,0.0149375,0.
 0247536,0.0201345,0.0363074,0.0944336,0.0007833,0.027614,-0.0471336,0.
 07108,0.0842678,0.0329117,-0.0410997,0.0324219,0.1047797,0.011312,-0.0
 465322,0.0148889,0.093159\Polar=80.7844226,-27.3174396,80.798493,9.596
 4277,7.7001279,64.9539474\PG=C01 [X(C3H3N5O4)]\NImag=0\\0.31749244,-0.
 18501199,0.44677094,0.09160702,0.15005433,0.40780847,-0.14908956,0.044
 20790,-0.06993252,0.49418406,0.00714934,-0.08217273,-0.01731761,-0.283
 33678,0.58514643,-0.10097234,0.02882692,-0.17910150,0.11764116,0.16282
 361,0.50377998,-0.12909704,0.09398488,0.03188858,-0.06522068,0.0573321
 7,-0.04137709,0.47121381,0.11460933,-0.28383325,-0.08747580,0.07582626
 ,-0.06919991,0.02674409,-0.23651711,0.56201184,0.05489219,-0.11530384,
 -0.13198075,-0.01644427,-0.01007819,-0.01781999,0.17060794,0.14092699,
 0.55652118,0.02094398,-0.01499057,-0.02738699,-0.01976552,0.08046725,0
 .02896424,-0.09726724,-0.01694657,-0.05156720,0.37703814,0.02660893,-0
 .02597662,-0.02583956,0.03701222,-0.06375881,-0.04899058,-0.01225540,-
 0.12093706,-0.07196852,-0.21097919,0.42853759,0.02075695,-0.08492466,-
 0.03953409,-0.01695210,0.01297493,0.00444241,-0.04639972,-0.07889682,-
 0.23088758,0.14322126,0.08749382,0.40343108,-0.02722160,0.02290393,-0.
 00082092,-0.13431934,0.07597216,-0.01456247,-0.00004996,-0.00211798,-0
 .00911907,0.01019638,-0.00323385,0.00065126,0.41269219,0.01207711,-0.0
 1468725,0.01271461,0.08643473,-0.18100199,-0.02598441,-0.00128881,0.00
 785102,0.00271788,-0.00288109,0.00298136,-0.00952112,-0.03994059,0.589
 88367,-0.01363248,0.02885341,0.00567527,-0.00952095,-0.03048354,-0.105
 68388,-0.00853826,0.00053456,-0.00570402,0.00032439,-0.00735342,-0.002
 31387,0.12093508,0.04712814,0.60393053,-0.00056240,-0.00287653,0.00045
 457,-0.03362787,0.01409559,0.01236377,0.00111270,0.00036787,0.00039893
 ,0.00098326,-0.00255418,-0.00112978,-0.07682204,-0.01082760,-0.0062918
 1,0.58033031,0.00013940,-0.00040578,-0.00192985,0.02387028,0.00354972,
 -0.01255505,0.00173097,-0.00307049,-0.00256752,0.00278893,-0.00456384,
 0.00268619,-0.01248203,-0.07450246,0.00531815,-0.08955866,1.02286385,-
 0.00097394,0.00082554,0.00138871,0.00708926,-0.00884485,-0.00214174,-0
 .00003254,0.00064630,0.00002279,-0.00149449,0.00118846,0.00032756,-0.0
 0667855,0.00583469,-0.09763928,-0.16291614,0.05530776,0.30970657,0.002
 00774,-0.00151528,0.00239684,-0.00931691,0.00176475,0.00615676,-0.0007
 6818,0.00256015,0.00145920,-0.00210323,0.00229300,-0.00161220,-0.02780
 614,0.02969763,0.02087526,-0.31510812,0.21184468,0.11388557,0.31723303
 ,-0.00059723,0.00105493,-0.00042067,0.00100132,0.00154320,0.00010967,-
 0.00019446,-0.00057593,-0.00002386,-0.00000389,0.00069254,0.00029180,0
 .01233739,0.00108378,-0.00605233,0.20811567,-0.35828939,-0.10041675,-0
 .26863083,0.45039202,-0.00048142,0.00046079,-0.00165470,0.00595901,0.0
 0042819,-0.00042432,0.00047095,-0.00125461,-0.00046287,0.00102849,-0.0
 0088187,0.00072324,0.02167384,-0.01522937,0.00922779,0.11266946,-0.101
 55875,-0.12612394,-0.13577951,0.13013427,0.09058803,0.00149202,-0.0000
 1779,0.00152628,-0.00160945,-0.00355839,0.00059561,-0.00026592,0.00054
 665,-0.00013461,-0.00058775,0.00085851,0.00025920,-0.00404225,-0.03696
 250,0.00987022,-0.14757189,-0.10683952,0.03307092,0.03660893,0.0479501
 8,-0.00429887,0.12448929,0.00036474,0.00057069,0.00034810,0.00274915,0
 .00323625,-0.00112895,-0.00109969,0.00136795,0.00145074,-0.00179120,0.
 00204875,-0.00111396,-0.01672655,-0.03516146,0.00689822,-0.10712797,-0
 .57080151,0.03602489,0.02265053,-0.09902474,-0.01244082,0.10430647,0.6
 9937742,0.00001879,0.00004982,0.00003028,0.00076767,0.00123254,-0.0009
 4802,0.00007460,-0.00046456,-0.00008580,0.00061194,-0.00021135,-0.0000
 7866,0.01098759,0.01722117,0.01829255,0.03395226,0.03769327,-0.0840382
 6,-0.00510851,-0.02447453,0.02621553,-0.04315446,-0.03241216,0.0427032
 5,-0.02684697,0.01566269,-0.00433101,0.01117076,0.00058366,0.00667495,
 -0.11047698,0.02020907,-0.02998753,-0.01600860,-0.00094275,-0.01031269
 ,-0.00139459,0.00478722,-0.00000191,-0.00199029,0.00009312,0.00133793,
 0.00216725,-0.00095417,-0.00115924,0.00119055,-0.00031619,-0.00057405,
 0.46099282,0.02140811,-0.01989147,0.01981617,0.00255659,-0.00378219,-0
 .01156453,0.02271322,-0.08759829,0.01346010,-0.00715462,0.00375139,0.0
 0537572,0.00213966,-0.00052654,-0.00046387,0.00161689,-0.00043262,-0.0
 0028692,-0.00087283,0.00025199,0.00025770,-0.00082408,0.00006685,0.000
 26353,-0.17988970,0.70584370,0.00299483,0.01193932,0.00685134,0.006366
 74,-0.01218900,0.00475345,-0.02669246,0.00945622,-0.09888451,-0.018413
 71,0.01409197,-0.01852320,-0.00234892,0.00219140,0.00244399,-0.0018171
 8,-0.00000078,0.00086538,0.00162423,-0.00061995,-0.00083866,0.00093693
 ,0.00004709,-0.00055412,0.12936653,0.29497167,0.72233550,-0.00058670,0
 .00008252,-0.00551553,-0.00393774,0.00271484,-0.00080594,-0.01518174,0
 .04791085,0.00777490,-0.00000982,0.00178189,-0.00059581,0.00033194,-0.
 00164695,-0.00059029,0.00094458,0.00017755,-0.00059681,-0.00089059,0.0
 0028742,0.00046337,-0.00050334,0.00000160,0.00022729,-0.18105789,0.178
 46582,0.05045901,0.16484047,0.00265706,0.00320381,0.00365557,0.0019691
 7,-0.00091556,0.00281452,0.03915300,-0.04011313,-0.01128361,-0.0022048
 1,0.00208503,-0.00263380,-0.00052068,0.00063598,0.00119188,-0.00107115
 ,-0.00016006,0.00042667,0.00061122,-0.00008243,-0.00025791,0.00051852,
 0.00013000,-0.00017740,0.17244368,-0.42196221,-0.15223840,-0.22244258,
 0.49711087,-0.00263692,-0.00015729,-0.00036708,-0.00144007,0.00396805,
 0.00092621,-0.00198431,0.00066130,0.01617646,-0.00484979,0.00283275,-0
 .00194662,0.00087033,-0.00042621,-0.00042275,0.00035300,-0.00001671,-0
 .00019259,-0.00040535,0.00014914,0.00021354,-0.00020164,-0.00000137,0.
 00014492,0.04381525,-0.14386333,-0.17302031,-0.05752734,0.21879229,0.1
 9052848,0.00034171,0.00002986,-0.00155885,-0.00157338,0.00008954,-0.00
 248518,-0.00730428,-0.00738616,-0.04196839,-0.00250638,0.00496678,-0.0
 0238423,0.00101086,-0.00144534,-0.00013603,0.00079165,-0.00022276,-0.0
 0043482,-0.00078218,0.00036186,0.00038897,-0.00043667,0.00018538,0.000
 22478,-0.14590880,-0.03663844,-0.13888769,0.03709379,0.00643542,0.0223
 1170,0.12199495,0.00438570,-0.00242497,0.00133801,-0.00077654,0.001999
 74,0.00118117,-0.00119819,0.01571130,-0.00349758,0.00208554,0.00083425
 ,-0.00016318,-0.00044337,0.00017851,0.00014913,-0.00035077,-0.00003179
 ,0.00009156,0.00015282,0.00004028,-0.00003558,0.00019351,0.00005286,-0
 .00005505,-0.02995200,-0.18226365,-0.16095549,-0.00855528,-0.03686233,
 -0.08105800,0.03394636,0.20309221,0.00315422,-0.00458967,0.00079889,-0
 .00296885,0.00236776,-0.00221905,-0.03502373,-0.01179100,-0.04329233,-
 0.00559478,0.00365343,0.00015169,0.00125519,-0.00136028,-0.00040727,0.
 00089362,-0.00005103,-0.00055444,-0.00088791,0.00037831,0.00048156,-0.
 00048051,0.00004167,0.00037698,-0.13160100,-0.17049687,-0.44038007,0.0
 0565066,-0.06036804,-0.03327386,0.16661527,0.24081560,0.51964622,-0.01
 454917,0.02138964,-0.02092199,-0.08692054,0.01328566,-0.01623909,-0.04
 613870,-0.00613300,-0.08337219,-0.25672765,0.15691880,-0.07133856,-0.0
 0278153,0.01313718,0.01931355,0.00016905,0.00233086,0.00095800,-0.0001
 5003,-0.00077830,-0.00008709,-0.00140118,-0.00003930,0.00033978,0.0067
 3768,-0.00294210,-0.00421917,-0.00059081,0.00208816,0.00201521,-0.0017
 4920,0.00068103,-0.00022294,0.54928587,-0.00317862,-0.02138249,-0.0481
 1167,0.01678108,-0.16398415,-0.10826336,0.02995064,0.02069307,0.057149
 47,0.15940876,-0.22712521,0.04777751,0.00739364,-0.02473716,-0.0101253
 6,-0.00100372,0.00268956,-0.00030861,-0.00382881,0.00067342,0.00173760
 ,-0.00225338,-0.00082450,0.00097996,-0.00184059,0.00534505,-0.00623210
 ,0.00118005,-0.00292362,-0.00109155,-0.00057226,-0.00027551,0.00040977
 ,-0.20686289,0.46007703,-0.05412868,-0.01305973,-0.07172249,-0.0130031
 0,-0.10259131,-0.20086693,-0.04125038,0.00344515,-0.04580602,-0.064598
 41,0.04209962,-0.11644594,0.01309840,0.00067549,0.00786477,0.00076421,
 0.00113256,-0.00085672,-0.00273501,0.00034253,0.00127958,-0.00158131,-
 0.00079705,0.00005500,-0.00295545,-0.00732107,-0.00543548,0.00099427,0
 .00014367,0.00125086,-0.00182805,0.00198198,-0.00124862,0.32283923,0.0
 8092967,0.68358544,0.00090039,0.00477381,0.00080031,-0.01083979,0.0102
 8575,-0.02209110,-0.00141337,0.00062139,-0.00039851,-0.00059301,0.0003
 4837,-0.00037369,-0.06226634,0.02682128,-0.06210082,0.00394474,-0.0124
 8973,0.03279516,-0.00173632,-0.00012958,-0.00281306,-0.00378319,-0.001
 49084,-0.00185257,0.00020796,-0.00035418,0.00088227,-0.00027007,0.0003
 7884,-0.00017922,-0.00016216,0.00007589,-0.00021824,0.00047644,-0.0017
 7396,-0.00031136,0.07645366,-0.00098170,-0.00278681,-0.00193295,0.0122
 7149,-0.00984566,0.02389999,0.00116551,-0.00047064,0.00072616,0.000240
 98,0.00011767,0.00014232,0.02745468,-0.08626445,0.08484216,-0.00098564
 ,-0.00647589,0.01564352,0.00031690,0.00077476,-0.00182529,-0.00218881,
 -0.00045204,-0.00133240,0.00004934,0.00008487,-0.00058447,0.00012588,-
 0.00023934,0.00009021,-0.00000360,-0.00000016,0.00008683,-0.00036592,0
 .00094135,0.00080288,-0.03270577,0.09274442,0.00015206,-0.00057950,0.0
 0020730,0.00201452,-0.00385958,0.00838200,0.00047873,-0.00059821,0.000
 40759,-0.00007454,0.00032825,0.00018865,-0.06648572,0.09288039,-0.2766
 9110,-0.00023927,0.00596859,-0.01194548,0.00100882,-0.00051471,0.00172
 775,0.00101433,-0.00055887,0.00034187,0.00011405,0.00014650,-0.0002184
 6,0.00003505,-0.00011506,0.00003252,0.00000615,-0.00001764,0.00006630,
 0.00009872,-0.00036998,0.00046470,0.06489430,-0.10077233,0.28925497,0.
 00121460,-0.00197129,0.00160200,0.00704183,0.02482565,0.01920381,0.000
 22009,0.00111346,0.00104720,-0.00220526,0.00160718,0.00041855,-0.08740
 720,-0.07734168,-0.07053946,-0.01292245,-0.02198695,-0.01612720,0.0007
 4763,0.00139402,0.00196897,-0.00341106,-0.00132045,0.00347633,0.000267
 33,0.00003841,0.00046271,-0.00007606,-0.00003318,-0.00016732,-0.000136
 40,-0.00011441,-0.00027313,-0.00104856,0.00077405,-0.00433038,-0.00114
 088,-0.00438950,-0.00313482,0.09886251,-0.00210104,0.00258201,-0.00064
 981,-0.00449915,-0.02273069,-0.01969826,0.00011489,-0.00067179,-0.0006
 7653,0.00146348,-0.00086461,-0.00003152,-0.07161724,-0.18662755,-0.120
 41132,-0.00823193,-0.01084576,-0.00604584,0.00300024,0.00164632,0.0004
 8292,-0.00167850,-0.00023069,0.00175534,0.00001217,-0.00013267,-0.0001
 2619,-0.00006063,0.00011634,0.00007204,-0.00002238,0.00009703,0.000110
 08,0.00081120,0.00044908,0.00371966,0.00536420,0.01221869,0.00782315,0
 .07741611,0.20509980,0.00001666,0.00114077,0.00042063,0.00048434,-0.00
 227335,-0.00107617,0.00001560,0.00038630,-0.00007562,-0.00008128,0.000
 34083,0.00003106,-0.06921046,-0.12927660,-0.15820857,0.01022806,0.0118
 7528,0.01149881,-0.00070090,0.00064200,-0.00097730,0.00259608,0.002963
 59,-0.00284073,-0.00011350,0.00005852,0.00017535,0.00005720,-0.0000700
 0,-0.00003488,0.00005808,-0.00007066,-0.00004723,-0.00040325,-0.000415
 28,0.00072282,-0.00919454,-0.01937029,-0.01227458,0.06632602,0.1338745
 8,0.16260648,0.00356057,0.00334821,0.00019223,0.00382414,-0.00167118,0
 .00693290,0.00063749,0.00533580,-0.00318858,-0.01138728,-0.00243032,-0
 .01420846,-0.00012037,-0.00062059,0.00003352,0.00032877,0.00060387,0.0
 0011765,-0.00010289,-0.00015940,-0.00000386,-0.00016809,-0.00034566,0.
 00000856,0.00094978,-0.00026273,-0.00071412,-0.00010603,0.00001733,0.0
 0002646,-0.00067350,-0.00013028,-0.00029787,-0.14461168,0.00582601,-0.
 15097396,0.00022193,-0.00000386,0.00011761,-0.00000614,0.00002857,-0.0
 0007812,0.14765331,0.00247086,-0.00062101,-0.00424885,-0.01606771,0.00
 191634,-0.01821484,0.00640837,-0.00116469,-0.00103169,0.01049702,0.002
 17758,0.02054277,-0.00111917,0.00089454,-0.00002581,0.00039215,0.00047
 647,-0.00008642,-0.00004418,-0.00018075,-0.00001728,-0.00005088,-0.000
 35584,-0.00006820,0.00005445,0.00124579,0.00024871,-0.00002297,-0.0000
 2336,0.00004866,0.00027573,-0.00014777,0.00079343,0.00647897,-0.049615
 91,-0.01150406,0.00027453,-0.00034678,0.00023899,-0.00001142,-0.000105
 50,0.00019431,-0.00953576,0.04585088,-0.00076695,-0.00353620,0.0011797
 3,-0.01006083,0.00384235,-0.01200245,-0.00223790,-0.00231992,0.0018714
 6,-0.00008913,0.00321616,0.00043428,-0.00024557,0.00043420,-0.00036416
 ,0.00031631,-0.00130210,-0.00031736,-0.00017731,0.00047505,0.00002476,
 -0.00001817,0.00067887,0.00038522,-0.00027232,-0.00035333,0.00042981,-
 0.00003004,0.00011963,-0.00001489,0.00007827,0.00029573,-0.00009878,-0
 .14876021,-0.01406608,-0.25284099,0.00016107,-0.00041635,0.00005598,0.
 00006673,-0.00019829,0.00007992,0.16203604,0.01313028,0.26117747\\-0.0
 0000737,0.00000904,0.00000563,0.00001192,-0.00002287,0.00000111,-0.000
 00878,0.00000397,-0.00001372,0.00001055,0.00000088,0.00000194,0.000013
 94,0.00002422,0.00005756,0.00000083,0.00003026,-0.00000447,0.00000029,
 -0.00001626,-0.00000375,-0.00000650,-0.00002703,-0.00000486,-0.0000019
 7,-0.00000617,0.00000213,0.00000287,0.00001005,0.00000555,0.00000069,-
 0.00000493,0.00000142,-0.00000476,0.00001243,-0.00000428,-0.00001231,0
 .00000734,-0.00003298,-0.00000837,-0.00002066,-0.00000787,0.00000898,-
 0.00000027,-0.00000341\\\@


 WE DON'T KNOW ONE MILLIONTH OF ONE PERCENT ABOUT
 ANYTHING.
                                     T. A. EDISON.
 Job cpu time:       0 days  0 hours 10 minutes 28.8 seconds.
 File lengths (MBytes):  RWF=     76 Int=      0 D2E=      0 Chk=      4 Scr=      1
 Normal termination of Gaussian 09 at Fri Aug 20 16:02:10 2021.
