 Entering Gaussian System, Link 0=g09
 Input=B3LYP6-31G.MENFXN.gjf
 Output=B3LYP6-31G.MENFXN.log
 Initial command:
 /public/home/users/caep010/software/Gaussian09/g09/l1.exe "/public/home/users/caep010/.cache/gau_scr/Gau-21635.inp" -scrdir="/public/home/users/caep010/.cache/gau_scr/"
 Entering Link 1 = /public/home/users/caep010/software/Gaussian09/g09/l1.exe PID=     21636.
  
 Copyright (c) 1988,1990,1992,1993,1995,1998,2003,2009,2015,
            Gaussian, Inc.  All Rights Reserved.
  
 This is part of the Gaussian(R) 09 program.  It is based on
 the Gaussian(R) 03 system (copyright 2003, Gaussian, Inc.),
 the Gaussian(R) 98 system (copyright 1998, Gaussian, Inc.),
 the Gaussian(R) 94 system (copyright 1995, Gaussian, Inc.),
 the Gaussian 92(TM) system (copyright 1992, Gaussian, Inc.),
 the Gaussian 90(TM) system (copyright 1990, Gaussian, Inc.),
 the Gaussian 88(TM) system (copyright 1988, Gaussian, Inc.),
 the Gaussian 86(TM) system (copyright 1986, Carnegie Mellon
 University), and the Gaussian 82(TM) system (copyright 1983,
 Carnegie Mellon University). Gaussian is a federally registered
 trademark of Gaussian, Inc.
  
 This software contains proprietary and confidential information,
 including trade secrets, belonging to Gaussian, Inc.
  
 This software is provided under written license and may be
 used, copied, transmitted, or stored only in accord with that
 written license.
  
 The following legend is applicable only to US Government
 contracts under FAR:
  
                    RESTRICTED RIGHTS LEGEND
  
 Use, reproduction and disclosure by the US Government is
 subject to restrictions as set forth in subparagraphs (a)
 and (c) of the Commercial Computer Software - Restricted
 Rights clause in FAR 52.227-19.
  
 Gaussian, Inc.
 340 Quinnipiac St., Bldg. 40, Wallingford CT 06492
  
  
 ---------------------------------------------------------------
 Warning -- This program may not be used in any manner that
 competes with the business of Gaussian, Inc. or will provide
 assistance to any competitor of Gaussian, Inc.  The licensee
 of this program is prohibited from giving any competitor of
 Gaussian, Inc. access to this program.  By using this program,
 the user acknowledges that Gaussian, Inc. is engaged in the
 business of creating and licensing software in the field of
 computational chemistry and represents and warrants to the
 licensee that it is not a competitor of Gaussian, Inc. and that
 it will not use this program in any manner prohibited above.
 ---------------------------------------------------------------
  

 Cite this work as:
 Gaussian 09, Revision E.01,
 M. J. Frisch, G. W. Trucks, H. B. Schlegel, G. E. Scuseria, 
 M. A. Robb, J. R. Cheeseman, G. Scalmani, V. Barone, B. Mennucci, 
 G. A. Petersson, H. Nakatsuji, M. Caricato, X. Li, H. P. Hratchian, 
 A. F. Izmaylov, J. Bloino, G. Zheng, J. L. Sonnenberg, M. Hada, 
 M. Ehara, K. Toyota, R. Fukuda, J. Hasegawa, M. Ishida, T. Nakajima, 
 Y. Honda, O. Kitao, H. Nakai, T. Vreven, J. A. Montgomery, Jr., 
 J. E. Peralta, F. Ogliaro, M. Bearpark, J. J. Heyd, E. Brothers, 
 K. N. Kudin, V. N. Staroverov, T. Keith, R. Kobayashi, J. Normand, 
 K. Raghavachari, A. Rendell, J. C. Burant, S. S. Iyengar, J. Tomasi, 
 M. Cossi, N. Rega, J. M. Millam, M. Klene, J. E. Knox, J. B. Cross, 
 V. Bakken, C. Adamo, J. Jaramillo, R. Gomperts, R. E. Stratmann, 
 O. Yazyev, A. J. Austin, R. Cammi, C. Pomelli, J. W. Ochterski, 
 R. L. Martin, K. Morokuma, V. G. Zakrzewski, G. A. Voth, 
 P. Salvador, J. J. Dannenberg, S. Dapprich, A. D. Daniels, 
 O. Farkas, J. B. Foresman, J. V. Ortiz, J. Cioslowski, 
 and D. J. Fox, Gaussian, Inc., Wallingford CT, 2013.
 
 ******************************************
 Gaussian 09:  ES64L-G09RevE.01 30-Nov-2015
                20-Aug-2021 
 ******************************************
 %nproc=32
 Will use up to   32 processors via shared memory.
 %mem=180GB
 -------------------------
 #P OPT Freq B3LYP/6-31G**
 -------------------------
 1/14=-1,18=20,19=15,26=3,38=1/1,3;
 2/9=110,12=2,17=6,18=5,40=1/2;
 3/5=1,6=6,7=101,11=2,16=1,25=1,30=1,71=1,74=-5/1,2,3;
 4//1;
 5/5=2,38=5/2;
 6/7=2,8=2,9=2,10=2,28=1/1;
 7//1,2,3,16;
 1/14=-1,18=20,19=15,26=3/3(2);
 2/9=110/2;
 99//99;
 2/9=110/2;
 3/5=1,6=6,7=101,11=2,16=1,25=1,30=1,71=1,74=-5/1,2,3;
 4/5=5,16=3,69=1/1;
 5/5=2,38=5/2;
 7//1,2,3,16;
 1/14=-1,18=20,19=15,26=3/3(-5);
 2/9=110/2;
 6/7=2,8=2,9=2,10=2,19=2,28=1/1;
 99/9=1/99;
 Leave Link    1 at Fri Aug 20 15:52:52 2021, MaxMem= 24159191040 cpu:         2.5
 (Enter /public/home/users/caep010/software/Gaussian09/g09/l101.exe)
 ------
 MENFXN
 ------
 Symbolic Z-matrix:
 Charge =  0 Multiplicity = 1
 C                     1.3538   -0.8204    2.0838 
 C                     0.5126   -0.7746    0.9646 
 N                    -0.387    -1.6929    0.881 
 N                     0.9335   -1.8938    2.751 
 C                     2.4965   -0.023     2.5697 
 H                     2.2502    0.7804    2.7597 
 H                     3.2036   -0.0349    2.0768 
 H                     2.825    -0.3087    3.3998 
 N                     0.5635    0.2218   -0.0989 
 O                    -0.208    -2.4581    1.9996 
 O                    -0.0144   -0.0422   -1.1444 
 O                     1.261    -2.4569    3.7829 
 O                     1.1915    1.2366    0.129 
 
 NAtoms=     13 NQM=       13 NQMF=       0 NMMI=      0 NMMIF=      0
                NMic=       0 NMicF=      0.
                    Isotopes and Nuclear Properties:
 (Nuclear quadrupole moments (NQMom) in fm**2, nuclear magnetic moments (NMagM)
  in nuclear magnetons)

  Atom         1           2           3           4           5           6           7           8           9          10
 IAtWgt=          12          12          14          14          12           1           1           1          14          16
 AtmWgt=  12.0000000  12.0000000  14.0030740  14.0030740  12.0000000   1.0078250   1.0078250   1.0078250  14.0030740  15.9949146
 NucSpn=           0           0           2           2           0           1           1           1           2           0
 AtZEff=   0.0000000   0.0000000   0.0000000   0.0000000   0.0000000   0.0000000   0.0000000   0.0000000   0.0000000   0.0000000
 NQMom=    0.0000000   0.0000000   2.0440000   2.0440000   0.0000000   0.0000000   0.0000000   0.0000000   2.0440000   0.0000000
 NMagM=    0.0000000   0.0000000   0.4037610   0.4037610   0.0000000   2.7928460   2.7928460   2.7928460   0.4037610   0.0000000
 AtZNuc=   6.0000000   6.0000000   7.0000000   7.0000000   6.0000000   1.0000000   1.0000000   1.0000000   7.0000000   8.0000000

  Atom        11          12          13
 IAtWgt=          16          16          16
 AtmWgt=  15.9949146  15.9949146  15.9949146
 NucSpn=           0           0           0
 AtZEff=   0.0000000   0.0000000   0.0000000
 NQMom=    0.0000000   0.0000000   0.0000000
 NMagM=    0.0000000   0.0000000   0.0000000
 AtZNuc=   8.0000000   8.0000000   8.0000000
 Leave Link  101 at Fri Aug 20 15:52:52 2021, MaxMem= 24159191040 cpu:        10.1
 (Enter /public/home/users/caep010/software/Gaussian09/g09/l103.exe)

 GradGradGradGradGradGradGradGradGradGradGradGradGradGradGradGradGradGrad
 Berny optimization.
 Initialization pass.
                           ----------------------------
                           !    Initial Parameters    !
                           ! (Angstroms and Degrees)  !
 --------------------------                            --------------------------
 ! Name  Definition              Value          Derivative Info.                !
 --------------------------------------------------------------------------------
 ! R1    R(1,2)                  1.4008         estimate D2E/DX2                !
 ! R2    R(1,4)                  1.3319         estimate D2E/DX2                !
 ! R3    R(1,5)                  1.4757         estimate D2E/DX2                !
 ! R4    R(2,3)                  1.2882         estimate D2E/DX2                !
 ! R5    R(2,9)                  1.4582         estimate D2E/DX2                !
 ! R6    R(3,10)                 1.3671         estimate D2E/DX2                !
 ! R7    R(4,10)                 1.4785         estimate D2E/DX2                !
 ! R8    R(4,12)                 1.2203         estimate D2E/DX2                !
 ! R9    R(5,6)                  0.8615         estimate D2E/DX2                !
 ! R10   R(5,7)                  0.862          estimate D2E/DX2                !
 ! R11   R(5,8)                  0.9373         estimate D2E/DX2                !
 ! R12   R(9,11)                 1.2234         estimate D2E/DX2                !
 ! R13   R(9,13)                 1.215          estimate D2E/DX2                !
 ! A1    A(2,1,4)              103.7141         estimate D2E/DX2                !
 ! A2    A(2,1,5)              135.2671         estimate D2E/DX2                !
 ! A3    A(4,1,5)              120.9898         estimate D2E/DX2                !
 ! A4    A(1,2,3)              116.6081         estimate D2E/DX2                !
 ! A5    A(1,2,9)              125.7369         estimate D2E/DX2                !
 ! A6    A(3,2,9)              117.6535         estimate D2E/DX2                !
 ! A7    A(2,3,10)             104.7421         estimate D2E/DX2                !
 ! A8    A(1,4,10)             107.2556         estimate D2E/DX2                !
 ! A9    A(1,4,12)             135.2985         estimate D2E/DX2                !
 ! A10   A(10,4,12)            117.4404         estimate D2E/DX2                !
 ! A11   A(1,5,6)              110.8019         estimate D2E/DX2                !
 ! A12   A(1,5,7)              116.0685         estimate D2E/DX2                !
 ! A13   A(1,5,8)              113.4703         estimate D2E/DX2                !
 ! A14   A(6,5,7)              111.9309         estimate D2E/DX2                !
 ! A15   A(6,5,8)              100.9015         estimate D2E/DX2                !
 ! A16   A(7,5,8)              102.3976         estimate D2E/DX2                !
 ! A17   A(2,9,11)             117.3429         estimate D2E/DX2                !
 ! A18   A(2,9,13)             116.8696         estimate D2E/DX2                !
 ! A19   A(11,9,13)            125.7817         estimate D2E/DX2                !
 ! A20   A(3,10,4)             107.656          estimate D2E/DX2                !
 ! D1    D(4,1,2,3)              0.79           estimate D2E/DX2                !
 ! D2    D(4,1,2,9)           -179.6685         estimate D2E/DX2                !
 ! D3    D(5,1,2,3)            178.7464         estimate D2E/DX2                !
 ! D4    D(5,1,2,9)             -1.7122         estimate D2E/DX2                !
 ! D5    D(2,1,4,10)            -1.3739         estimate D2E/DX2                !
 ! D6    D(2,1,4,12)           179.5307         estimate D2E/DX2                !
 ! D7    D(5,1,4,10)          -179.6962         estimate D2E/DX2                !
 ! D8    D(5,1,4,12)             1.2084         estimate D2E/DX2                !
 ! D9    D(2,1,5,6)             64.9806         estimate D2E/DX2                !
 ! D10   D(2,1,5,7)            -64.1162         estimate D2E/DX2                !
 ! D11   D(2,1,5,8)            177.6559         estimate D2E/DX2                !
 ! D12   D(4,1,5,6)           -117.3355         estimate D2E/DX2                !
 ! D13   D(4,1,5,7)            113.5677         estimate D2E/DX2                !
 ! D14   D(4,1,5,8)             -4.6602         estimate D2E/DX2                !
 ! D15   D(1,2,3,10)             0.2392         estimate D2E/DX2                !
 ! D16   D(9,2,3,10)          -179.3405         estimate D2E/DX2                !
 ! D17   D(1,2,9,11)           163.4374         estimate D2E/DX2                !
 ! D18   D(1,2,9,13)           -15.7397         estimate D2E/DX2                !
 ! D19   D(3,2,9,11)           -17.0255         estimate D2E/DX2                !
 ! D20   D(3,2,9,13)           163.7974         estimate D2E/DX2                !
 ! D21   D(2,3,10,4)            -1.0846         estimate D2E/DX2                !
 ! D22   D(1,4,10,3)             1.6161         estimate D2E/DX2                !
 ! D23   D(12,4,10,3)         -179.1009         estimate D2E/DX2                !
 --------------------------------------------------------------------------------
 Trust Radius=3.00D-01 FncErr=1.00D-07 GrdErr=1.00D-06
 Number of steps in this run=     66 maximum allowed number of steps=    100.
 GradGradGradGradGradGradGradGradGradGradGradGradGradGradGradGradGradGrad

 Leave Link  103 at Fri Aug 20 15:52:52 2021, MaxMem= 24159191040 cpu:         0.4
 (Enter /public/home/users/caep010/software/Gaussian09/g09/l202.exe)
                          Input orientation:                          
 ---------------------------------------------------------------------
 Center     Atomic      Atomic             Coordinates (Angstroms)
 Number     Number       Type             X           Y           Z
 ---------------------------------------------------------------------
      1          6           0        1.353800   -0.820400    2.083800
      2          6           0        0.512600   -0.774600    0.964600
      3          7           0       -0.387000   -1.692900    0.881000
      4          7           0        0.933500   -1.893800    2.751000
      5          6           0        2.496500   -0.023000    2.569700
      6          1           0        2.250200    0.780400    2.759700
      7          1           0        3.203600   -0.034900    2.076800
      8          1           0        2.825000   -0.308700    3.399800
      9          7           0        0.563500    0.221800   -0.098900
     10          8           0       -0.208000   -2.458100    1.999600
     11          8           0       -0.014400   -0.042200   -1.144400
     12          8           0        1.261000   -2.456900    3.782900
     13          8           0        1.191500    1.236600    0.129000
 ---------------------------------------------------------------------
                    Distance matrix (angstroms):
                    1          2          3          4          5
     1  C    0.000000
     2  C    1.400830   0.000000
     3  N    2.288748   1.288233   0.000000
     4  N    1.331914   2.149649   2.298039   0.000000
     5  C    1.475706   2.660283   3.735619   2.444531   0.000000
     6  H    1.955233   2.942730   4.074500   2.980792   0.861519
     7  H    2.009681   3.004268   4.131744   3.010550   0.862022
     8  H    2.039147   3.390347   4.310140   2.551716   0.937338
     9  N    2.544589   1.458230   2.351538   3.568556   3.304216
    10  O    2.264591   2.103488   1.367054   1.478533   3.683619
    11  O    3.591496   2.293909   2.639297   4.416003   4.483250
    12  O    2.360865   3.366460   3.423540   1.220310   2.987002
    13  O    2.842329   2.281240   3.411618   4.091559   3.040828
                    6          7          8          9         10
     6  H    0.000000
     7  H    1.428299   0.000000
     8  H    1.387898   1.403080   0.000000
     9  N    3.365796   3.430699   4.199609   0.000000
    10  O    4.136228   4.185316   3.972351   3.490097   0.000000
    11  O    4.587710   4.553208   5.364976   1.223411   3.969734
    12  O    3.536321   3.542676   2.684702   4.767632   2.310437
    13  O    2.872202   3.075579   3.969182   1.214966   4.371333
                   11         12         13
    11  O    0.000000
    12  O    5.633445   0.000000
    13  O    2.170500   5.195937   0.000000
 Stoichiometry    C3H3N3O4
 Framework group  C1[X(C3H3N3O4)]
 Deg. of freedom    33
 Full point group                 C1      NOp   1
 Largest Abelian subgroup         C1      NOp   1
 Largest concise Abelian subgroup C1      NOp   1
                         Standard orientation:                         
 ---------------------------------------------------------------------
 Center     Atomic      Atomic             Coordinates (Angstroms)
 Number     Number       Type             X           Y           Z
 ---------------------------------------------------------------------
      1          6           0       -0.609085    0.606960    0.023272
      2          6           0        0.451905   -0.306743   -0.018815
      3          7           0        0.136843   -1.554484   -0.077315
      4          7           0       -1.693057   -0.166760    0.004341
      5          6           0       -0.725112    2.075262    0.114577
      6          1           0       -0.398804    2.452238   -0.588009
      7          1           0       -0.428305    2.434336    0.839873
      8          1           0       -1.610256    2.382318    0.085605
      9          7           0        1.869832    0.033646   -0.011566
     10          8           0       -1.230125   -1.568152   -0.084275
     11          8           0        2.660823   -0.859745    0.258472
     12          8           0       -2.897626    0.027101    0.028561
     13          8           0        2.158901    1.187223   -0.260245
 ---------------------------------------------------------------------
 Rotational constants (GHZ):      2.7163902      1.1094817      0.7966658
 Leave Link  202 at Fri Aug 20 15:52:52 2021, MaxMem= 24159191040 cpu:         0.6
 (Enter /public/home/users/caep010/software/Gaussian09/g09/l301.exe)
 Standard basis: 6-31G(d,p) (6D, 7F)
 Ernie: Thresh=  0.10000D-02 Tol=  0.10000D-05 Strict=F.
 There are   165 symmetry adapted cartesian basis functions of A   symmetry.
 There are   165 symmetry adapted basis functions of A   symmetry.
   165 basis functions,   301 primitive gaussians,   165 cartesian basis functions
    37 alpha electrons       37 beta electrons
       nuclear repulsion energy       546.1255998447 Hartrees.
 IExCor=  402 DFT=T Ex+Corr=B3LYP ExCW=0 ScaHFX=  0.200000
 ScaDFX=  0.800000  0.720000  1.000000  0.810000 ScalE2=  1.000000  1.000000
 IRadAn=      0 IRanWt=     -1 IRanGd=            0 ICorTp=0 IEmpDi=  4
 NAtoms=   13 NActive=   13 NUniq=   13 SFac= 1.00D+00 NAtFMM=   60 NAOKFM=F Big=F
 Integral buffers will be    131072 words long.
 Raffenetti 2 integral format.
 Two-electron integral symmetry is turned on.
 Leave Link  301 at Fri Aug 20 15:52:52 2021, MaxMem= 24159191040 cpu:         1.9
 (Enter /public/home/users/caep010/software/Gaussian09/g09/l302.exe)
 NPDir=0 NMtPBC=     1 NCelOv=     1 NCel=       1 NClECP=     1 NCelD=      1
         NCelK=      1 NCelE2=     1 NClLst=     1 CellRange=     0.0.
 One-electron integrals computed using PRISM.
 NBasis=   165 RedAO= T EigKep=  7.74D-04  NBF=   165
 NBsUse=   165 1.00D-06 EigRej= -1.00D+00 NBFU=   165
 Precomputing XC quadrature grid using
 IXCGrd= 4 IRadAn=           0 IRanWt=          -1 IRanGd=           0 AccXCQ= 0.00D+00.
 Generated NRdTot=       0 NPtTot=           0 NUsed=           0 NTot=          32
 NSgBfM=   164   164   164   164   164 MxSgAt=    13 MxSgA2=    13.
 Leave Link  302 at Fri Aug 20 15:52:53 2021, MaxMem= 24159191040 cpu:        10.9
 (Enter /public/home/users/caep010/software/Gaussian09/g09/l303.exe)
 DipDrv:  MaxL=1.
 Leave Link  303 at Fri Aug 20 15:52:53 2021, MaxMem= 24159191040 cpu:         0.7
 (Enter /public/home/users/caep010/software/Gaussian09/g09/l401.exe)
 ExpMin= 1.61D-01 ExpMax= 5.48D+03 ExpMxC= 8.25D+02 IAcc=1 IRadAn=         1 AccDes= 0.00D+00
 Harris functional with IExCor=  402 and IRadAn=       1 diagonalized for initial guess.
 HarFok:  IExCor=  402 AccDes= 0.00D+00 IRadAn=         1 IDoV= 1 UseB2=F ITyADJ=14
 ICtDFT=  3500011 ScaDFX=  1.000000  1.000000  1.000000  1.000000
 FoFCou: FMM=F IPFlag=           0 FMFlag=      100000 FMFlg1=           0
         NFxFlg=           0 DoJE=T BraDBF=F KetDBF=T FulRan=T
         wScrn=  0.000000 ICntrl=     500 IOpCl=  0 I1Cent=   200000004 NGrid=           0
         NMat0=    1 NMatS0=      1 NMatT0=    0 NMatD0=    1 NMtDS0=    0 NMtDT0=    0
 Petite list used in FoFCou.
 Harris En= -581.005024298028    
 JPrj=0 DoOrth=F DoCkMO=F.
 Leave Link  401 at Fri Aug 20 15:52:53 2021, MaxMem= 24159191040 cpu:        10.5
 (Enter /public/home/users/caep010/software/Gaussian09/g09/l502.exe)
 Closed shell SCF:
 Using DIIS extrapolation, IDIIS=  1040.
 Integral symmetry usage will be decided dynamically.
 Keep R1 ints in memory in canonical form, NReq=96177160.
 IVT=      106735 IEndB=      106735 NGot= 24159191040 MDV= 24065300946
 LenX= 24065300946 LenY= 24065273280
 Requested convergence on RMS density matrix=1.00D-08 within 128 cycles.
 Requested convergence on MAX density matrix=1.00D-06.
 Requested convergence on             energy=1.00D-06.
 No special actions if energy rises.
 FoFCou: FMM=F IPFlag=           0 FMFlag=           0 FMFlg1=           0
         NFxFlg=           0 DoJE=F BraDBF=F KetDBF=F FulRan=T
         wScrn=  0.000000 ICntrl=     600 IOpCl=  0 I1Cent=           0 NGrid=           0
         NMat0=    1 NMatS0=  13695 NMatT0=    0 NMatD0=    1 NMtDS0=    0 NMtDT0=    0
 Symmetry not used in FoFCou.
 Integral accuracy reduced to 1.0D-05 until final iterations.

 Cycle   1  Pass 0  IDiag  1:
 E= -580.480126955624    
 DIIS: error= 4.67D-02 at cycle   1 NSaved=   1.
 NSaved= 1 IEnMin= 1 EnMin= -580.480126955624     IErMin= 1 ErrMin= 4.67D-02
 ErrMax= 4.67D-02  0.00D+00 EMaxC= 1.00D-01 BMatC= 5.09D-01 BMatP= 5.09D-01
 IDIUse=3 WtCom= 5.33D-01 WtEn= 4.67D-01
 Coeff-Com:  0.100D+01
 Coeff-En:   0.100D+01
 Coeff:      0.100D+01
 Gap=     0.124 Goal=   None    Shift=    0.000
 GapD=    0.124 DampG=1.000 DampE=0.500 DampFc=0.5000 IDamp=-1.
 Damping current iteration by 5.00D-01
 RMSDP=9.87D-03 MaxDP=2.51D-01              OVMax= 3.01D-01

 Cycle   2  Pass 0  IDiag  1:
 E= -580.457758402988     Delta-E=        0.022368552636 Rises=F Damp=T
 DIIS: error= 2.16D-02 at cycle   2 NSaved=   2.
 NSaved= 2 IEnMin= 1 EnMin= -580.480126955624     IErMin= 2 ErrMin= 2.16D-02
 ErrMax= 2.16D-02  0.00D+00 EMaxC= 1.00D-01 BMatC= 1.84D-01 BMatP= 5.09D-01
 IDIUse=3 WtCom= 7.84D-01 WtEn= 2.16D-01
 Coeff-Com:  0.348D+00 0.652D+00
 Coeff-En:   0.520D+00 0.480D+00
 Coeff:      0.385D+00 0.615D+00
 Gap=     0.172 Goal=   None    Shift=    0.000
 RMSDP=3.73D-03 MaxDP=1.18D-01 DE= 2.24D-02 OVMax= 2.78D-01

 Cycle   3  Pass 0  IDiag  1:
 E= -580.761895451847     Delta-E=       -0.304137048859 Rises=F Damp=F
 DIIS: error= 1.94D-02 at cycle   3 NSaved=   3.
 NSaved= 3 IEnMin= 3 EnMin= -580.761895451847     IErMin= 3 ErrMin= 1.94D-02
 ErrMax= 1.94D-02  0.00D+00 EMaxC= 1.00D-01 BMatC= 1.34D-01 BMatP= 1.84D-01
 IDIUse=3 WtCom= 8.06D-01 WtEn= 1.94D-01
 Coeff-Com:  0.207D+00 0.425D+00 0.369D+00
 Coeff-En:   0.838D-01 0.000D+00 0.916D+00
 Coeff:      0.183D+00 0.342D+00 0.475D+00
 Gap=     0.141 Goal=   None    Shift=    0.000
 RMSDP=3.46D-03 MaxDP=1.34D-01 DE=-3.04D-01 OVMax= 3.09D-01

 Cycle   4  Pass 0  IDiag  1:
 E= -580.809096763840     Delta-E=       -0.047201311992 Rises=F Damp=F
 DIIS: error= 2.10D-02 at cycle   4 NSaved=   4.
 NSaved= 4 IEnMin= 4 EnMin= -580.809096763840     IErMin= 3 ErrMin= 1.94D-02
 ErrMax= 2.10D-02  0.00D+00 EMaxC= 1.00D-01 BMatC= 8.35D-02 BMatP= 1.34D-01
 IDIUse=3 WtCom= 7.90D-01 WtEn= 2.10D-01
 Coeff-Com:  0.899D-01 0.131D+00 0.385D+00 0.394D+00
 Coeff-En:   0.000D+00 0.000D+00 0.413D+00 0.587D+00
 Coeff:      0.710D-01 0.103D+00 0.391D+00 0.435D+00
 Gap=     0.159 Goal=   None    Shift=    0.000
 RMSDP=1.83D-03 MaxDP=7.01D-02 DE=-4.72D-02 OVMax= 1.74D-01

 Cycle   5  Pass 0  IDiag  1:
 E= -580.879338367727     Delta-E=       -0.070241603888 Rises=F Damp=F
 DIIS: error= 3.75D-03 at cycle   5 NSaved=   5.
 NSaved= 5 IEnMin= 5 EnMin= -580.879338367727     IErMin= 5 ErrMin= 3.75D-03
 ErrMax= 3.75D-03  0.00D+00 EMaxC= 1.00D-01 BMatC= 3.87D-03 BMatP= 8.35D-02
 IDIUse=3 WtCom= 9.63D-01 WtEn= 3.75D-02
 Coeff-Com:  0.146D-01 0.851D-02 0.153D+00 0.260D+00 0.564D+00
 Coeff-En:   0.000D+00 0.000D+00 0.000D+00 0.442D-01 0.956D+00
 Coeff:      0.141D-01 0.820D-02 0.147D+00 0.252D+00 0.578D+00
 Gap=     0.156 Goal=   None    Shift=    0.000
 RMSDP=5.30D-04 MaxDP=2.18D-02 DE=-7.02D-02 OVMax= 3.99D-02

 Cycle   6  Pass 0  IDiag  1:
 E= -580.881905858881     Delta-E=       -0.002567491153 Rises=F Damp=F
 DIIS: error= 2.15D-03 at cycle   6 NSaved=   6.
 NSaved= 6 IEnMin= 6 EnMin= -580.881905858881     IErMin= 6 ErrMin= 2.15D-03
 ErrMax= 2.15D-03  0.00D+00 EMaxC= 1.00D-01 BMatC= 1.25D-03 BMatP= 3.87D-03
 IDIUse=3 WtCom= 9.79D-01 WtEn= 2.15D-02
 Coeff-Com: -0.234D-02-0.101D-01 0.452D-01 0.112D+00 0.432D+00 0.423D+00
 Coeff-En:   0.000D+00 0.000D+00 0.000D+00 0.000D+00 0.267D+00 0.733D+00
 Coeff:     -0.229D-02-0.986D-02 0.442D-01 0.110D+00 0.428D+00 0.430D+00
 Gap=     0.156 Goal=   None    Shift=    0.000
 RMSDP=2.28D-04 MaxDP=8.47D-03 DE=-2.57D-03 OVMax= 1.27D-02

 Cycle   7  Pass 0  IDiag  1:
 E= -580.882888553579     Delta-E=       -0.000982694699 Rises=F Damp=F
 DIIS: error= 1.37D-03 at cycle   7 NSaved=   7.
 NSaved= 7 IEnMin= 7 EnMin= -580.882888553579     IErMin= 7 ErrMin= 1.37D-03
 ErrMax= 1.37D-03  0.00D+00 EMaxC= 1.00D-01 BMatC= 1.56D-04 BMatP= 1.25D-03
 IDIUse=3 WtCom= 9.86D-01 WtEn= 1.37D-02
 Coeff-Com: -0.284D-02-0.587D-02 0.110D-01 0.375D-01 0.222D+00 0.300D+00
 Coeff-Com:  0.438D+00
 Coeff-En:   0.000D+00 0.000D+00 0.000D+00 0.000D+00 0.000D+00 0.707D-01
 Coeff-En:   0.929D+00
 Coeff:     -0.280D-02-0.579D-02 0.108D-01 0.370D-01 0.219D+00 0.297D+00
 Coeff:      0.445D+00
 Gap=     0.157 Goal=   None    Shift=    0.000
 RMSDP=8.14D-05 MaxDP=3.87D-03 DE=-9.83D-04 OVMax= 8.03D-03

 Cycle   8  Pass 0  IDiag  1:
 E= -580.882975755501     Delta-E=       -0.000087201922 Rises=F Damp=F
 DIIS: error= 7.50D-04 at cycle   8 NSaved=   8.
 NSaved= 8 IEnMin= 8 EnMin= -580.882975755501     IErMin= 8 ErrMin= 7.50D-04
 ErrMax= 7.50D-04  0.00D+00 EMaxC= 1.00D-01 BMatC= 4.78D-05 BMatP= 1.56D-04
 IDIUse=3 WtCom= 9.93D-01 WtEn= 7.50D-03
 Coeff-Com: -0.156D-02-0.180D-02-0.255D-04 0.589D-02 0.883D-01 0.153D+00
 Coeff-Com:  0.362D+00 0.394D+00
 Coeff-En:   0.000D+00 0.000D+00 0.000D+00 0.000D+00 0.000D+00 0.000D+00
 Coeff-En:   0.269D+00 0.731D+00
 Coeff:     -0.155D-02-0.178D-02-0.253D-04 0.584D-02 0.876D-01 0.152D+00
 Coeff:      0.361D+00 0.397D+00
 Gap=     0.157 Goal=   None    Shift=    0.000
 RMSDP=3.37D-05 MaxDP=1.65D-03 DE=-8.72D-05 OVMax= 3.01D-03

 Cycle   9  Pass 0  IDiag  1:
 E= -580.883013128624     Delta-E=       -0.000037373122 Rises=F Damp=F
 DIIS: error= 5.05D-05 at cycle   9 NSaved=   9.
 NSaved= 9 IEnMin= 9 EnMin= -580.883013128624     IErMin= 9 ErrMin= 5.05D-05
 ErrMax= 5.05D-05  0.00D+00 EMaxC= 1.00D-01 BMatC= 6.12D-07 BMatP= 4.78D-05
 IDIUse=1 WtCom= 1.00D+00 WtEn= 0.00D+00
 Coeff-Com: -0.479D-03-0.106D-03-0.935D-03-0.822D-03 0.203D-01 0.410D-01
 Coeff-Com:  0.115D+00 0.170D+00 0.656D+00
 Coeff:     -0.479D-03-0.106D-03-0.935D-03-0.822D-03 0.203D-01 0.410D-01
 Coeff:      0.115D+00 0.170D+00 0.656D+00
 Gap=     0.157 Goal=   None    Shift=    0.000
 RMSDP=5.61D-06 MaxDP=1.50D-04 DE=-3.74D-05 OVMax= 2.04D-04

 Initial convergence to 1.0D-05 achieved.  Increase integral accuracy.
 Cycle  10  Pass 1  IDiag  1:
 E= -580.883029142665     Delta-E=       -0.000016014042 Rises=F Damp=F
 DIIS: error= 2.11D-05 at cycle   1 NSaved=   1.
 NSaved= 1 IEnMin= 1 EnMin= -580.883029142665     IErMin= 1 ErrMin= 2.11D-05
 ErrMax= 2.11D-05  0.00D+00 EMaxC= 1.00D-01 BMatC= 1.87D-07 BMatP= 1.87D-07
 IDIUse=1 WtCom= 1.00D+00 WtEn= 0.00D+00
 Coeff-Com:  0.100D+01
 Coeff:      0.100D+01
 Gap=     0.157 Goal=   None    Shift=    0.000
 RMSDP=5.61D-06 MaxDP=1.50D-04 DE=-1.60D-05 OVMax= 2.40D-04

 Cycle  11  Pass 1  IDiag  1:
 E= -580.883028876674     Delta-E=        0.000000265992 Rises=F Damp=F
 DIIS: error= 4.22D-05 at cycle   2 NSaved=   2.
 NSaved= 2 IEnMin= 1 EnMin= -580.883029142665     IErMin= 1 ErrMin= 2.11D-05
 ErrMax= 4.22D-05  0.00D+00 EMaxC= 1.00D-01 BMatC= 5.75D-07 BMatP= 1.87D-07
 IDIUse=1 WtCom= 1.00D+00 WtEn= 0.00D+00
 Coeff-Com:  0.649D+00 0.351D+00
 Coeff:      0.649D+00 0.351D+00
 Gap=     0.157 Goal=   None    Shift=    0.000
 RMSDP=3.47D-06 MaxDP=1.51D-04 DE= 2.66D-07 OVMax= 1.61D-04

 Cycle  12  Pass 1  IDiag  1:
 E= -580.883029282538     Delta-E=       -0.000000405865 Rises=F Damp=F
 DIIS: error= 8.80D-06 at cycle   3 NSaved=   3.
 NSaved= 3 IEnMin= 3 EnMin= -580.883029282538     IErMin= 3 ErrMin= 8.80D-06
 ErrMax= 8.80D-06  0.00D+00 EMaxC= 1.00D-01 BMatC= 1.84D-08 BMatP= 1.87D-07
 IDIUse=1 WtCom= 1.00D+00 WtEn= 0.00D+00
 Coeff-Com:  0.169D+00 0.169D+00 0.662D+00
 Coeff:      0.169D+00 0.169D+00 0.662D+00
 Gap=     0.157 Goal=   None    Shift=    0.000
 RMSDP=1.35D-06 MaxDP=4.03D-05 DE=-4.06D-07 OVMax= 9.09D-05

 Cycle  13  Pass 1  IDiag  1:
 E= -580.883029279691     Delta-E=        0.000000002848 Rises=F Damp=F
 DIIS: error= 8.40D-06 at cycle   4 NSaved=   4.
 NSaved= 4 IEnMin= 3 EnMin= -580.883029282538     IErMin= 4 ErrMin= 8.40D-06
 ErrMax= 8.40D-06  0.00D+00 EMaxC= 1.00D-01 BMatC= 2.15D-08 BMatP= 1.84D-08
 IDIUse=1 WtCom= 1.00D+00 WtEn= 0.00D+00
 Coeff-Com:  0.863D-02 0.687D-01 0.555D+00 0.368D+00
 Coeff:      0.863D-02 0.687D-01 0.555D+00 0.368D+00
 Gap=     0.157 Goal=   None    Shift=    0.000
 RMSDP=8.22D-07 MaxDP=2.93D-05 DE= 2.85D-09 OVMax= 6.54D-05

 Cycle  14  Pass 1  IDiag  1:
 E= -580.883029297079     Delta-E=       -0.000000017388 Rises=F Damp=F
 DIIS: error= 1.49D-06 at cycle   5 NSaved=   5.
 NSaved= 5 IEnMin= 5 EnMin= -580.883029297079     IErMin= 5 ErrMin= 1.49D-06
 ErrMax= 1.49D-06  0.00D+00 EMaxC= 1.00D-01 BMatC= 6.89D-10 BMatP= 1.84D-08
 IDIUse=1 WtCom= 1.00D+00 WtEn= 0.00D+00
 Coeff-Com: -0.764D-02 0.312D-01 0.305D+00 0.228D+00 0.444D+00
 Coeff:     -0.764D-02 0.312D-01 0.305D+00 0.228D+00 0.444D+00
 Gap=     0.157 Goal=   None    Shift=    0.000
 RMSDP=2.02D-07 MaxDP=7.83D-06 DE=-1.74D-08 OVMax= 1.69D-05

 Cycle  15  Pass 1  IDiag  1:
 E= -580.883029297541     Delta-E=       -0.000000000462 Rises=F Damp=F
 DIIS: error= 7.03D-07 at cycle   6 NSaved=   6.
 NSaved= 6 IEnMin= 6 EnMin= -580.883029297541     IErMin= 6 ErrMin= 7.03D-07
 ErrMax= 7.03D-07  0.00D+00 EMaxC= 1.00D-01 BMatC= 1.31D-10 BMatP= 6.89D-10
 IDIUse=1 WtCom= 1.00D+00 WtEn= 0.00D+00
 Coeff-Com: -0.560D-02 0.130D-01 0.140D+00 0.108D+00 0.329D+00 0.416D+00
 Coeff:     -0.560D-02 0.130D-01 0.140D+00 0.108D+00 0.329D+00 0.416D+00
 Gap=     0.157 Goal=   None    Shift=    0.000
 RMSDP=7.11D-08 MaxDP=2.04D-06 DE=-4.62D-10 OVMax= 5.04D-06

 Cycle  16  Pass 1  IDiag  1:
 E= -580.883029297665     Delta-E=       -0.000000000124 Rises=F Damp=F
 DIIS: error= 8.35D-08 at cycle   7 NSaved=   7.
 NSaved= 7 IEnMin= 7 EnMin= -580.883029297665     IErMin= 7 ErrMin= 8.35D-08
 ErrMax= 8.35D-08  0.00D+00 EMaxC= 1.00D-01 BMatC= 1.84D-12 BMatP= 1.31D-10
 IDIUse=1 WtCom= 1.00D+00 WtEn= 0.00D+00
 Coeff-Com: -0.160D-02 0.250D-02 0.313D-01 0.241D-01 0.100D+00 0.153D+00
 Coeff-Com:  0.690D+00
 Coeff:     -0.160D-02 0.250D-02 0.313D-01 0.241D-01 0.100D+00 0.153D+00
 Coeff:      0.690D+00
 Gap=     0.157 Goal=   None    Shift=    0.000
 RMSDP=1.36D-08 MaxDP=5.21D-07 DE=-1.24D-10 OVMax= 8.06D-07

 Cycle  17  Pass 1  IDiag  1:
 E= -580.883029297678     Delta-E=       -0.000000000013 Rises=F Damp=F
 DIIS: error= 1.12D-07 at cycle   8 NSaved=   8.
 NSaved= 8 IEnMin= 8 EnMin= -580.883029297678     IErMin= 7 ErrMin= 8.35D-08
 ErrMax= 1.12D-07  0.00D+00 EMaxC= 1.00D-01 BMatC= 1.48D-12 BMatP= 1.84D-12
 IDIUse=1 WtCom= 1.00D+00 WtEn= 0.00D+00
 Coeff-Com: -0.529D-03 0.241D-03 0.649D-02 0.497D-02 0.336D-01 0.621D-01
 Coeff-Com:  0.498D+00 0.395D+00
 Coeff:     -0.529D-03 0.241D-03 0.649D-02 0.497D-02 0.336D-01 0.621D-01
 Coeff:      0.498D+00 0.395D+00
 Gap=     0.157 Goal=   None    Shift=    0.000
 RMSDP=7.85D-09 MaxDP=3.42D-07 DE=-1.32D-11 OVMax= 5.86D-07

 SCF Done:  E(RB3LYP) =  -580.883029298     A.U. after   17 cycles
            NFock= 17  Conv=0.79D-08     -V/T= 2.0062
 KE= 5.773081396281D+02 PE=-2.452044094759D+03 EE= 7.477273259883D+02
 Leave Link  502 at Fri Aug 20 15:52:58 2021, MaxMem= 24159191040 cpu:        69.1
 (Enter /public/home/users/caep010/software/Gaussian09/g09/l601.exe)
 Copying SCF densities to generalized density rwf, IOpCl= 0 IROHF=0.

 **********************************************************************

            Population analysis using the SCF density.

 **********************************************************************

 Orbital symmetries:
       Occupied  (A) (A) (A) (A) (A) (A) (A) (A) (A) (A) (A) (A)
                 (A) (A) (A) (A) (A) (A) (A) (A) (A) (A) (A) (A)
                 (A) (A) (A) (A) (A) (A) (A) (A) (A) (A) (A) (A)
                 (A)
       Virtual   (A) (A) (A) (A) (A) (A) (A) (A) (A) (A) (A) (A)
                 (A) (A) (A) (A) (A) (A) (A) (A) (A) (A) (A) (A)
                 (A) (A) (A) (A) (A) (A) (A) (A) (A) (A) (A) (A)
                 (A) (A) (A) (A) (A) (A) (A) (A) (A) (A) (A) (A)
                 (A) (A) (A) (A) (A) (A) (A) (A) (A) (A) (A) (A)
                 (A) (A) (A) (A) (A) (A) (A) (A) (A) (A) (A) (A)
                 (A) (A) (A) (A) (A) (A) (A) (A) (A) (A) (A) (A)
                 (A) (A) (A) (A) (A) (A) (A) (A) (A) (A) (A) (A)
                 (A) (A) (A) (A) (A) (A) (A) (A) (A) (A) (A) (A)
                 (A) (A) (A) (A) (A) (A) (A) (A) (A) (A) (A) (A)
                 (A) (A) (A) (A) (A) (A) (A) (A)
 The electronic state is 1-A.
 Alpha  occ. eigenvalues --  -19.30326 -19.21741 -19.21238 -19.21142 -14.61046
 Alpha  occ. eigenvalues --  -14.57547 -14.45142 -10.32127 -10.30028 -10.17931
 Alpha  occ. eigenvalues --   -1.26975  -1.24465  -1.15265  -1.09328  -0.95173
 Alpha  occ. eigenvalues --   -0.92226  -0.82748  -0.78909  -0.67675  -0.65970
 Alpha  occ. eigenvalues --   -0.59051  -0.58338  -0.55776  -0.54295  -0.53872
 Alpha  occ. eigenvalues --   -0.51749  -0.51268  -0.47361  -0.45521  -0.45313
 Alpha  occ. eigenvalues --   -0.40587  -0.36108  -0.34146  -0.34132  -0.32524
 Alpha  occ. eigenvalues --   -0.32359  -0.27682
 Alpha virt. eigenvalues --   -0.11964  -0.07317  -0.00175   0.02667   0.06596
 Alpha virt. eigenvalues --    0.11004   0.13788   0.16428   0.20097   0.20800
 Alpha virt. eigenvalues --    0.23681   0.25188   0.28677   0.31655   0.34971
 Alpha virt. eigenvalues --    0.40060   0.46186   0.46269   0.50878   0.51975
 Alpha virt. eigenvalues --    0.52657   0.54921   0.59832   0.60944   0.61716
 Alpha virt. eigenvalues --    0.66044   0.67412   0.69479   0.72607   0.73354
 Alpha virt. eigenvalues --    0.73853   0.74392   0.78887   0.79064   0.83649
 Alpha virt. eigenvalues --    0.87140   0.88948   0.91123   0.93662   0.93844
 Alpha virt. eigenvalues --    0.96079   0.97117   0.98693   0.99443   0.99945
 Alpha virt. eigenvalues --    1.01465   1.06551   1.08009   1.12666   1.15101
 Alpha virt. eigenvalues --    1.18476   1.21077   1.25880   1.28071   1.29035
 Alpha virt. eigenvalues --    1.34129   1.36073   1.37113   1.41824   1.43270
 Alpha virt. eigenvalues --    1.44325   1.51892   1.53741   1.58829   1.60388
 Alpha virt. eigenvalues --    1.61681   1.68491   1.69450   1.71287   1.73927
 Alpha virt. eigenvalues --    1.75469   1.78009   1.78917   1.85323   1.87310
 Alpha virt. eigenvalues --    1.89551   1.90319   1.94651   1.96280   1.99647
 Alpha virt. eigenvalues --    2.03985   2.05592   2.09257   2.11223   2.13065
 Alpha virt. eigenvalues --    2.17972   2.19506   2.21551   2.25642   2.31210
 Alpha virt. eigenvalues --    2.32851   2.41381   2.41571   2.43464   2.45864
 Alpha virt. eigenvalues --    2.48737   2.54566   2.56088   2.59769   2.65879
 Alpha virt. eigenvalues --    2.68121   2.74493   2.77043   2.81172   2.82539
 Alpha virt. eigenvalues --    2.86579   2.88533   2.90479   2.92386   3.03686
 Alpha virt. eigenvalues --    3.08506   3.18346   3.20956   3.24331   3.40210
 Alpha virt. eigenvalues --    3.56700   3.74818   3.76748   3.85223   3.88083
 Alpha virt. eigenvalues --    4.01364   4.05148   4.14207   4.19828   4.22604
 Alpha virt. eigenvalues --    4.26795   4.40446   4.60355
          Condensed to atoms (all electrons):
               1          2          3          4          5          6
     1  C    5.005687   0.276481  -0.045589   0.290064   0.434091  -0.009972
     2  C    0.276481   5.093838   0.327663  -0.006453  -0.057886  -0.001399
     3  N   -0.045589   0.327663   6.877006  -0.046325   0.005205  -0.000036
     4  N    0.290064  -0.006453  -0.046325   6.194111  -0.064946   0.002920
     5  C    0.434091  -0.057886   0.005205  -0.064946   4.755025   0.392047
     6  H   -0.009972  -0.001399  -0.000036   0.002920   0.392047   0.528986
     7  H   -0.007683  -0.001884  -0.000030   0.002201   0.401554  -0.027448
     8  H   -0.015436   0.006928  -0.000147  -0.009889   0.371745  -0.035031
     9  N   -0.055555   0.135307  -0.062593   0.002003  -0.005690   0.000393
    10  O   -0.073622  -0.040334   0.095592   0.060015   0.003897  -0.000057
    11  O    0.003536  -0.081382  -0.001418  -0.000052   0.000013   0.000014
    12  O   -0.072609   0.006982   0.003612   0.303805  -0.010532   0.000540
    13  O   -0.010647  -0.076659   0.003139   0.000074   0.005808   0.003420
               7          8          9         10         11         12
     1  C   -0.007683  -0.015436  -0.055555  -0.073622   0.003536  -0.072609
     2  C   -0.001884   0.006928   0.135307  -0.040334  -0.081382   0.006982
     3  N   -0.000030  -0.000147  -0.062593   0.095592  -0.001418   0.003612
     4  N    0.002201  -0.009889   0.002003   0.060015  -0.000052   0.303805
     5  C    0.401554   0.371745  -0.005690   0.003897   0.000013  -0.010532
     6  H   -0.027448  -0.035031   0.000393  -0.000057   0.000014   0.000540
     7  H    0.527541  -0.037500   0.000449  -0.000036  -0.000013   0.000378
     8  H   -0.037500   0.570185  -0.000072   0.000386   0.000002   0.012017
     9  N    0.000449  -0.000072   6.011591   0.003217   0.297107  -0.000019
    10  O   -0.000036   0.000386   0.003217   8.230247   0.000121  -0.058562
    11  O   -0.000013   0.000002   0.297107   0.000121   8.221525   0.000000
    12  O    0.000378   0.012017  -0.000019  -0.058562   0.000000   8.248532
    13  O    0.000468   0.000563   0.296906  -0.000039  -0.088274  -0.000000
              13
     1  C   -0.010647
     2  C   -0.076659
     3  N    0.003139
     4  N    0.000074
     5  C    0.005808
     6  H    0.003420
     7  H    0.000468
     8  H    0.000563
     9  N    0.296906
    10  O   -0.000039
    11  O   -0.088274
    12  O   -0.000000
    13  O    8.246032
 Mulliken charges:
               1
     1  C    0.281252
     2  C    0.418796
     3  N   -0.156079
     4  N    0.272471
     5  C   -0.230330
     6  H    0.145623
     7  H    0.142003
     8  H    0.136249
     9  N    0.376956
    10  O   -0.220825
    11  O   -0.351182
    12  O   -0.434144
    13  O   -0.380791
 Sum of Mulliken charges =  -0.00000
 Mulliken charges with hydrogens summed into heavy atoms:
               1
     1  C    0.281252
     2  C    0.418796
     3  N   -0.156079
     4  N    0.272471
     5  C    0.193545
     9  N    0.376956
    10  O   -0.220825
    11  O   -0.351182
    12  O   -0.434144
    13  O   -0.380791
 Electronic spatial extent (au):  <R**2>=           1308.9088
 Charge=             -0.0000 electrons
 Dipole moment (field-independent basis, Debye):
    X=             -1.1146    Y=              2.6876    Z=              0.1175  Tot=              2.9119
 Quadrupole moment (field-independent basis, Debye-Ang):
   XX=            -69.0822   YY=            -54.5685   ZZ=            -52.0380
   XY=             -1.9659   XZ=             -0.1750   YZ=              0.9510
 Traceless Quadrupole moment (field-independent basis, Debye-Ang):
   XX=            -10.5193   YY=              3.9944   ZZ=              6.5249
   XY=             -1.9659   XZ=             -0.1750   YZ=              0.9510
 Octapole moment (field-independent basis, Debye-Ang**2):
  XXX=              4.1225  YYY=             15.9171  ZZZ=              0.0512  XYY=            -10.7661
  XXY=              1.5267  XXZ=             -1.2764  XZZ=              1.3897  YZZ=              0.2091
  YYZ=              1.1622  XYZ=              2.0056
 Hexadecapole moment (field-independent basis, Debye-Ang**3):
 XXXX=          -1120.2788 YYYY=           -455.1949 ZZZZ=            -50.1362 XXXY=              6.1533
 XXXZ=             -2.0750 YYYX=             -7.4501 YYYZ=              0.8165 ZZZX=              0.4154
 ZZZY=             -0.5107 XXYY=           -252.2914 XXZZ=           -165.7882 YYZZ=            -84.4618
 XXYZ=              4.2194 YYXZ=              0.1733 ZZXY=              2.0377
 N-N= 5.461255998447D+02 E-N=-2.452044096128D+03  KE= 5.773081396281D+02
 No NMR shielding tensors so no spin-rotation constants.
 Leave Link  601 at Fri Aug 20 15:52:58 2021, MaxMem= 24159191040 cpu:        10.7
 (Enter /public/home/users/caep010/software/Gaussian09/g09/l701.exe)
 Compute integral first derivatives.
 ... and contract with generalized density number  0.
 Leave Link  701 at Fri Aug 20 15:52:59 2021, MaxMem= 24159191040 cpu:        12.0
 (Enter /public/home/users/caep010/software/Gaussian09/g09/l702.exe)
 L702 exits ... SP integral derivatives will be done elsewhere.
 Leave Link  702 at Fri Aug 20 15:52:59 2021, MaxMem= 24159191040 cpu:         0.5
 (Enter /public/home/users/caep010/software/Gaussian09/g09/l703.exe)
 Compute integral first derivatives, UseDBF=F ICtDFT=           0.
 Integral derivatives from FoFJK, PRISM(SPDF).
 Calling FoFJK, ICntrl=      2127 FMM=F ISym2X=0 I1Cent= 0 IOpClX= 0 NMat=1 NMatS=1 NMatT=0.
 FoFJK:  IHMeth= 1 ICntrl=    2127 DoSepK=F KAlg= 0 I1Cent=   0 FoldK=F
 IRaf=         0 NMat=   1 IRICut=       1 DoRegI=T DoRafI=F ISym2E= 0.
 FoFCou: FMM=F IPFlag=           0 FMFlag=      100000 FMFlg1=         800
         NFxFlg=           0 DoJE=F BraDBF=F KetDBF=F FulRan=T
         wScrn=  0.000000 ICntrl=    2127 IOpCl=  0 I1Cent=           0 NGrid=           0
         NMat0=    1 NMatS0=      1 NMatT0=    0 NMatD0=    1 NMtDS0=    0 NMtDT0=    0
 Symmetry not used in FoFCou.
 Leave Link  703 at Fri Aug 20 15:52:59 2021, MaxMem= 24159191040 cpu:        15.9
 (Enter /public/home/users/caep010/software/Gaussian09/g09/l716.exe)
 Dipole        =-4.38501551D-01 1.05737863D+00 4.62208653D-02
 ***** Axes restored to original set *****
 -------------------------------------------------------------------
 Center     Atomic                   Forces (Hartrees/Bohr)
 Number     Number              X              Y              Z
 -------------------------------------------------------------------
      1        6           0.002184371   -0.012668056    0.006300714
      2        6           0.005125421    0.021320744   -0.016790563
      3        7          -0.009080680   -0.019371893    0.011756024
      4        7          -0.001623887   -0.011611360    0.014124366
      5        6          -0.192488149   -0.210493520   -0.003578126
      6        1          -0.091148740    0.291624121    0.050403748
      7        1           0.240795148   -0.001919331   -0.191947137
      8        1           0.044624082   -0.068733966    0.145208117
      9        7          -0.008026799   -0.011015599   -0.013123109
     10        8          -0.000048591    0.003889886   -0.006286806
     11        8          -0.002469595   -0.001821960    0.000357068
     12        8          -0.000426673    0.004430724   -0.005876035
     13        8           0.012584093    0.016370208    0.009451742
 -------------------------------------------------------------------
 Cartesian Forces:  Max     0.291624121 RMS     0.088112522
 Leave Link  716 at Fri Aug 20 15:52:59 2021, MaxMem= 24159191040 cpu:         0.7
 (Enter /public/home/users/caep010/software/Gaussian09/g09/l103.exe)

 GradGradGradGradGradGradGradGradGradGradGradGradGradGradGradGradGradGrad
 Berny optimization.
 FormGI is forming the generalized inverse of G from B-inverse, IUseBI=4.
 Internal  Forces:  Max     0.309123264 RMS     0.062712945
 Search for a local minimum.
 Step number   1 out of a maximum of   66
 All quantities printed in internal units (Hartrees-Bohrs-Radians)
 RMS Force = .62713D-01 SwitMx=.10000D-02 MixMth= 1
 Mixed Optimization -- RFO/linear search
 Second derivative matrix not updated -- first step.
 ITU=  0
     Eigenvalues ---    0.00922   0.00923   0.01087   0.01318   0.01762
     Eigenvalues ---    0.01934   0.02092   0.02467   0.06460   0.07353
     Eigenvalues ---    0.16000   0.16000   0.16000   0.24974   0.24996
     Eigenvalues ---    0.24997   0.24999   0.24999   0.25000   0.25000
     Eigenvalues ---    0.33627   0.35066   0.37187   0.43418   0.49276
     Eigenvalues ---    0.56461   0.60648   0.67368   0.83270   0.83457
     Eigenvalues ---    0.93888   0.95246   0.97649
 RFO step:  Lambda=-2.19410892D-01 EMin= 9.21503199D-03
 Linear search not attempted -- first point.
 Maximum step size (   0.300) exceeded in Quadratic search.
    -- Step size scaled by   0.634
 Iteration  1 RMS(Cart)=  0.04063307 RMS(Int)=  0.00078875
 Iteration  2 RMS(Cart)=  0.00083191 RMS(Int)=  0.00006295
 Iteration  3 RMS(Cart)=  0.00000105 RMS(Int)=  0.00006295
 Iteration  4 RMS(Cart)=  0.00000000 RMS(Int)=  0.00006295
 ITry= 1 IFail=0 DXMaxC= 1.77D-01 DCOld= 1.00D+10 DXMaxT= 3.00D-01 DXLimC= 3.00D+00 Rises=F
 Variable       Old X    -DE/DX   Delta X   Delta X   Delta X     New X
                                 (Linear)    (Quad)   (Total)
    R1        2.64718   0.01060   0.00000   0.01077   0.01078   2.65796
    R2        2.51695   0.00749   0.00000   0.00572   0.00572   2.52267
    R3        2.78868   0.00707   0.00000   0.00786   0.00786   2.79654
    R4        2.43441   0.01819   0.00000   0.01298   0.01299   2.44740
    R5        2.75566   0.00491   0.00000   0.00527   0.00527   2.76092
    R6        2.58336  -0.00373   0.00000  -0.00354  -0.00355   2.57981
    R7        2.79402   0.00087   0.00000  -0.00007  -0.00008   2.79394
    R8        2.30605  -0.00713   0.00000  -0.00386  -0.00386   2.30219
    R9        1.62804   0.30912   0.00000   0.18602   0.18602   1.81405
   R10        1.62899   0.30730   0.00000   0.18525   0.18525   1.81423
   R11        1.77131   0.16519   0.00000   0.12686   0.12686   1.89817
   R12        2.31191   0.00125   0.00000   0.00069   0.00069   2.31260
   R13        2.29595   0.02196   0.00000   0.01164   0.01164   2.30760
    A1        1.81015   0.00482   0.00000   0.00736   0.00737   1.81753
    A2        2.36086  -0.00716   0.00000  -0.01010  -0.01010   2.35075
    A3        2.11167   0.00235   0.00000   0.00276   0.00276   2.11443
    A4        2.03519  -0.01171   0.00000  -0.01402  -0.01400   2.02120
    A5        2.19452   0.00002   0.00000  -0.00087  -0.00088   2.19364
    A6        2.05344   0.01168   0.00000   0.01489   0.01488   2.06832
    A7        1.82809   0.00408   0.00000   0.00630   0.00631   1.83441
    A8        1.87196  -0.00192   0.00000  -0.00382  -0.00384   1.86812
    A9        2.36140  -0.00118   0.00000  -0.00098  -0.00097   2.36043
   A10        2.04972   0.00311   0.00000   0.00481   0.00482   2.05454
   A11        1.93386  -0.00107   0.00000  -0.00202  -0.00211   1.93175
   A12        2.02578  -0.01186   0.00000  -0.02127  -0.02152   2.00426
   A13        1.98043  -0.02019   0.00000  -0.03209  -0.03221   1.94822
   A14        1.95356   0.00119   0.00000  -0.00068  -0.00086   1.95270
   A15        1.76106   0.01758   0.00000   0.03242   0.03247   1.79353
   A16        1.78717   0.01897   0.00000   0.03209   0.03184   1.81902
   A17        2.04802   0.00071   0.00000   0.00097   0.00096   2.04898
   A18        2.03976  -0.00703   0.00000  -0.00948  -0.00949   2.03027
   A19        2.19531   0.00634   0.00000   0.00857   0.00857   2.20387
   A20        1.87895   0.00475   0.00000   0.00421   0.00419   1.88314
    D1        0.01379  -0.00002   0.00000  -0.00004  -0.00004   0.01375
    D2       -3.13581  -0.00030   0.00000  -0.00082  -0.00082  -3.13663
    D3        3.11971   0.00048   0.00000   0.00122   0.00121   3.12093
    D4       -0.02988   0.00020   0.00000   0.00043   0.00043  -0.02945
    D5       -0.02398   0.00027   0.00000   0.00077   0.00077  -0.02321
    D6        3.13340  -0.00015   0.00000  -0.00026  -0.00026   3.13314
    D7       -3.13629   0.00012   0.00000   0.00009   0.00008  -3.13621
    D8        0.02109  -0.00030   0.00000  -0.00095  -0.00095   0.02014
    D9        1.13412  -0.00659   0.00000  -0.01454  -0.01446   1.11967
   D10       -1.11904   0.00323   0.00000   0.00718   0.00721  -1.11183
   D11        3.10068   0.00258   0.00000   0.00538   0.00527   3.10595
   D12       -2.04789  -0.00604   0.00000  -0.01312  -0.01303  -2.06092
   D13        1.98213   0.00379   0.00000   0.00861   0.00864   1.99077
   D14       -0.08134   0.00314   0.00000   0.00681   0.00669  -0.07464
   D15        0.00418  -0.00030   0.00000  -0.00078  -0.00077   0.00340
   D16       -3.13008   0.00000   0.00000   0.00001   0.00001  -3.13007
   D17        2.85252   0.00160   0.00000   0.00437   0.00437   2.85689
   D18       -0.27471   0.00017   0.00000   0.00039   0.00039  -0.27432
   D19       -0.29715   0.00122   0.00000   0.00346   0.00345  -0.29370
   D20        2.85880  -0.00021   0.00000  -0.00052  -0.00053   2.85828
   D21       -0.01893   0.00039   0.00000   0.00114   0.00115  -0.01778
   D22        0.02821  -0.00046   0.00000  -0.00132  -0.00132   0.02688
   D23       -3.12590  -0.00017   0.00000  -0.00055  -0.00055  -3.12645
         Item               Value     Threshold  Converged?
 Maximum Force            0.309123     0.000450     NO 
 RMS     Force            0.062713     0.000300     NO 
 Maximum Displacement     0.176995     0.001800     NO 
 RMS     Displacement     0.040778     0.001200     NO 
 Predicted change in Energy=-1.049698D-01
 Lowest energy point so far.  Saving SCF results.
 GradGradGradGradGradGradGradGradGradGradGradGradGradGradGradGradGradGrad

 Leave Link  103 at Fri Aug 20 15:53:00 2021, MaxMem= 24159191040 cpu:         3.1
 (Enter /public/home/users/caep010/software/Gaussian09/g09/l202.exe)
                          Input orientation:                          
 ---------------------------------------------------------------------
 Center     Atomic      Atomic             Coordinates (Angstroms)
 Number     Number       Type             X           Y           Z
 ---------------------------------------------------------------------
      1          6           0        1.346966   -0.829224    2.085588
      2          6           0        0.507022   -0.778405    0.958534
      3          7           0       -0.393312   -1.706389    0.884074
      4          7           0        0.927313   -1.904163    2.756754
      5          6           0        2.490875   -0.023880    2.568180
      6          1           0        2.214283    0.874062    2.764937
      7          1           0        3.265525   -0.043588    2.001410
      8          1           0        2.826371   -0.352322    3.456169
      9          7           0        0.565042    0.223612   -0.103148
     10          8           0       -0.212260   -2.468228    2.002345
     11          8           0       -0.012399   -0.032414   -1.151306
     12          8           0        1.256188   -2.462889    3.788181
     13          8           0        1.200185    1.237128    0.142881
 ---------------------------------------------------------------------
                    Distance matrix (angstroms):
                    1          2          3          4          5
     1  C    0.000000
     2  C    1.406534   0.000000
     3  N    2.289459   1.295106   0.000000
     4  N    1.334940   2.162768   2.300020   0.000000
     5  C    1.479866   2.663821   3.739731   2.452703   0.000000
     6  H    2.028531   2.984708   4.122612   3.061844   0.959956
     7  H    2.074893   3.039224   4.171383   3.082128   0.960051
     8  H    2.072334   3.434983   4.337687   2.550257   1.004468
     9  N    2.551555   1.461018   2.370222   3.582974   3.302436
    10  O    2.263724   2.112441   1.365177   1.478489   3.688082
    11  O    3.600036   2.297330   2.662716   4.433896   4.483418
    12  O    2.361340   3.377223   3.424468   1.218268   2.993596
    13  O    2.839976   2.282135   3.428249   4.095668   3.022929
                    6          7          8          9         10
     6  H    0.000000
     7  H    1.590649   0.000000
     8  H    1.535079   1.550644   0.000000
     9  N    3.371794   3.434118   4.256060   0.000000
    10  O    4.200067   4.239560   3.977932   3.504754   0.000000
    11  O    4.595299   4.548025   5.421234   1.223774   3.989818
    12  O    3.619421   3.617043   2.651453   4.778850   2.312050
    13  O    2.834677   3.059411   4.018546   1.221127   4.379757
                   11         12         13
    11  O    0.000000
    12  O    5.649341   0.000000
    13  O    2.181058   5.194369   0.000000
 Stoichiometry    C3H3N3O4
 Framework group  C1[X(C3H3N3O4)]
 Deg. of freedom    33
 Full point group                 C1      NOp   1
 RotChk:  IX=0 Diff= 8.38D-03
 Largest Abelian subgroup         C1      NOp   1
 Largest concise Abelian subgroup C1      NOp   1
                         Standard orientation:                         
 ---------------------------------------------------------------------
 Center     Atomic      Atomic             Coordinates (Angstroms)
 Number     Number       Type             X           Y           Z
 ---------------------------------------------------------------------
      1          6           0       -0.608289    0.603613    0.023745
      2          6           0        0.456382   -0.314585   -0.017819
      3          7           0        0.121222   -1.564177   -0.076863
      4          7           0       -1.700959   -0.163037    0.004106
      5          6           0       -0.708709    2.077279    0.114455
      6          1           0       -0.329070    2.491508   -0.663879
      7          1           0       -0.362647    2.455840    0.926015
      8          1           0       -1.664256    2.385636    0.086146
      9          7           0        1.876958    0.026706   -0.010279
     10          8           0       -1.243938   -1.566394   -0.083353
     11          8           0        2.669449   -0.867058    0.255739
     12          8           0       -2.901717    0.041387    0.027938
     13          8           0        2.156097    1.188656   -0.261489
 ---------------------------------------------------------------------
 Rotational constants (GHZ):      2.6983204      1.1041078      0.7929170
 Leave Link  202 at Fri Aug 20 15:53:00 2021, MaxMem= 24159191040 cpu:         0.3
 (Enter /public/home/users/caep010/software/Gaussian09/g09/l301.exe)
 Standard basis: 6-31G(d,p) (6D, 7F)
 Ernie: Thresh=  0.10000D-02 Tol=  0.10000D-05 Strict=F.
 There are   165 symmetry adapted cartesian basis functions of A   symmetry.
 There are   165 symmetry adapted basis functions of A   symmetry.
   165 basis functions,   301 primitive gaussians,   165 cartesian basis functions
    37 alpha electrons       37 beta electrons
       nuclear repulsion energy       543.6703722027 Hartrees.
 IExCor=  402 DFT=T Ex+Corr=B3LYP ExCW=0 ScaHFX=  0.200000
 ScaDFX=  0.800000  0.720000  1.000000  0.810000 ScalE2=  1.000000  1.000000
 IRadAn=      0 IRanWt=     -1 IRanGd=            0 ICorTp=0 IEmpDi=  4
 NAtoms=   13 NActive=   13 NUniq=   13 SFac= 1.00D+00 NAtFMM=   60 NAOKFM=F Big=F
 Integral buffers will be    131072 words long.
 Raffenetti 2 integral format.
 Two-electron integral symmetry is turned on.
 Leave Link  301 at Fri Aug 20 15:53:00 2021, MaxMem= 24159191040 cpu:         1.8
 (Enter /public/home/users/caep010/software/Gaussian09/g09/l302.exe)
 NPDir=0 NMtPBC=     1 NCelOv=     1 NCel=       1 NClECP=     1 NCelD=      1
         NCelK=      1 NCelE2=     1 NClLst=     1 CellRange=     0.0.
 One-electron integrals computed using PRISM.
 NBasis=   165 RedAO= T EigKep=  8.03D-04  NBF=   165
 NBsUse=   165 1.00D-06 EigRej= -1.00D+00 NBFU=   165
 Precomputing XC quadrature grid using
 IXCGrd= 4 IRadAn=           0 IRanWt=          -1 IRanGd=           0 AccXCQ= 0.00D+00.
 Generated NRdTot=       0 NPtTot=           0 NUsed=           0 NTot=          32
 NSgBfM=   164   164   164   164   164 MxSgAt=    13 MxSgA2=    13.
 Leave Link  302 at Fri Aug 20 15:53:00 2021, MaxMem= 24159191040 cpu:        11.3
 (Enter /public/home/users/caep010/software/Gaussian09/g09/l303.exe)
 DipDrv:  MaxL=1.
 Leave Link  303 at Fri Aug 20 15:53:00 2021, MaxMem= 24159191040 cpu:         0.7
 (Enter /public/home/users/caep010/software/Gaussian09/g09/l401.exe)
 Initial guess from the checkpoint file:  "/public/home/users/caep010/.cache/gau_scr/Gau-21636.chk"
 B after Tr=    -0.000000    0.000000    0.000000
         Rot=    0.999998   -0.000132   -0.000261    0.002040 Ang=  -0.24 deg.
 Guess basis will be translated and rotated to current coordinates.
 JPrj=2 DoOrth=T DoCkMO=T.
 Generating alternative initial guess.
 ExpMin= 1.61D-01 ExpMax= 5.48D+03 ExpMxC= 8.25D+02 IAcc=1 IRadAn=         1 AccDes= 0.00D+00
 Harris functional with IExCor=  402 and IRadAn=       1 diagonalized for initial guess.
 HarFok:  IExCor=  402 AccDes= 0.00D+00 IRadAn=         1 IDoV= 1 UseB2=F ITyADJ=14
 ICtDFT=  3500011 ScaDFX=  1.000000  1.000000  1.000000  1.000000
 FoFCou: FMM=F IPFlag=           0 FMFlag=      100000 FMFlg1=           0
         NFxFlg=           0 DoJE=T BraDBF=F KetDBF=T FulRan=T
         wScrn=  0.000000 ICntrl=     500 IOpCl=  0 I1Cent=   200000004 NGrid=           0
         NMat0=    1 NMatS0=      1 NMatT0=    0 NMatD0=    1 NMtDS0=    0 NMtDT0=    0
 Petite list used in FoFCou.
 Harris En= -581.055961893666    
 Leave Link  401 at Fri Aug 20 15:53:01 2021, MaxMem= 24159191040 cpu:        18.2
 (Enter /public/home/users/caep010/software/Gaussian09/g09/l502.exe)
 Closed shell SCF:
 Using DIIS extrapolation, IDIIS=  1040.
 Integral symmetry usage will be decided dynamically.
 Keep R1 ints in memory in canonical form, NReq=96177160.
 IVT=      106735 IEndB=      106735 NGot= 24159191040 MDV= 24065300946
 LenX= 24065300946 LenY= 24065273280
 Requested convergence on RMS density matrix=1.00D-08 within 128 cycles.
 Requested convergence on MAX density matrix=1.00D-06.
 Requested convergence on             energy=1.00D-06.
 No special actions if energy rises.
 FoFCou: FMM=F IPFlag=           0 FMFlag=           0 FMFlg1=           0
         NFxFlg=           0 DoJE=F BraDBF=F KetDBF=F FulRan=T
         wScrn=  0.000000 ICntrl=     600 IOpCl=  0 I1Cent=           0 NGrid=           0
         NMat0=    1 NMatS0=  13695 NMatT0=    0 NMatD0=    1 NMtDS0=    0 NMtDT0=    0
 Symmetry not used in FoFCou.
 Integral accuracy reduced to 1.0D-05 until final iterations.

 Cycle   1  Pass 0  IDiag  1:
 E= -580.974052949567    
 DIIS: error= 6.98D-03 at cycle   1 NSaved=   1.
 NSaved= 1 IEnMin= 1 EnMin= -580.974052949567     IErMin= 1 ErrMin= 6.98D-03
 ErrMax= 6.98D-03  0.00D+00 EMaxC= 1.00D-01 BMatC= 4.93D-03 BMatP= 4.93D-03
 IDIUse=3 WtCom= 9.30D-01 WtEn= 6.98D-02
 Coeff-Com:  0.100D+01
 Coeff-En:   0.100D+01
 Coeff:      0.100D+01
 Gap=     1.840 Goal=   None    Shift=    0.000
 GapD=    1.840 DampG=2.000 DampE=1.000 DampFc=2.0000 IDamp=-1.
 RMSDP=7.68D-04 MaxDP=2.93D-02              OVMax= 3.12D-02

 Cycle   2  Pass 0  IDiag  1:
 E= -580.977564753034     Delta-E=       -0.003511803467 Rises=F Damp=F
 DIIS: error= 4.42D-03 at cycle   2 NSaved=   2.
 NSaved= 2 IEnMin= 2 EnMin= -580.977564753034     IErMin= 2 ErrMin= 4.42D-03
 ErrMax= 4.42D-03  0.00D+00 EMaxC= 1.00D-01 BMatC= 1.93D-03 BMatP= 4.93D-03
 IDIUse=3 WtCom= 9.56D-01 WtEn= 4.42D-02
 Coeff-Com:  0.353D+00 0.647D+00
 Coeff-En:   0.303D-01 0.970D+00
 Coeff:      0.338D+00 0.662D+00
 Gap=     0.153 Goal=   None    Shift=    0.000
 RMSDP=3.65D-04 MaxDP=1.43D-02 DE=-3.51D-03 OVMax= 1.67D-02

 Cycle   3  Pass 0  IDiag  1:
 E= -580.978929222790     Delta-E=       -0.001364469756 Rises=F Damp=F
 DIIS: error= 1.90D-03 at cycle   3 NSaved=   3.
 NSaved= 3 IEnMin= 3 EnMin= -580.978929222790     IErMin= 3 ErrMin= 1.90D-03
 ErrMax= 1.90D-03  0.00D+00 EMaxC= 1.00D-01 BMatC= 5.95D-04 BMatP= 1.93D-03
 IDIUse=3 WtCom= 9.81D-01 WtEn= 1.90D-02
 Coeff-Com:  0.672D-01 0.355D+00 0.578D+00
 Coeff-En:   0.000D+00 0.208D+00 0.792D+00
 Coeff:      0.659D-01 0.352D+00 0.582D+00
 Gap=     0.157 Goal=   None    Shift=    0.000
 RMSDP=2.24D-04 MaxDP=7.42D-03 DE=-1.36D-03 OVMax= 1.76D-02

 Cycle   4  Pass 0  IDiag  1:
 E= -580.979175946213     Delta-E=       -0.000246723423 Rises=F Damp=F
 DIIS: error= 1.43D-03 at cycle   4 NSaved=   4.
 NSaved= 4 IEnMin= 4 EnMin= -580.979175946213     IErMin= 4 ErrMin= 1.43D-03
 ErrMax= 1.43D-03  0.00D+00 EMaxC= 1.00D-01 BMatC= 3.54D-04 BMatP= 5.95D-04
 IDIUse=3 WtCom= 9.86D-01 WtEn= 1.43D-02
 Coeff-Com:  0.934D-02 0.195D+00 0.450D+00 0.346D+00
 Coeff-En:   0.000D+00 0.000D+00 0.378D+00 0.622D+00
 Coeff:      0.921D-02 0.192D+00 0.449D+00 0.350D+00
 Gap=     0.155 Goal=   None    Shift=    0.000
 RMSDP=1.12D-04 MaxDP=4.13D-03 DE=-2.47D-04 OVMax= 9.42D-03

 Cycle   5  Pass 0  IDiag  1:
 E= -580.979485880807     Delta-E=       -0.000309934594 Rises=F Damp=F
 DIIS: error= 2.38D-04 at cycle   5 NSaved=   5.
 NSaved= 5 IEnMin= 5 EnMin= -580.979485880807     IErMin= 5 ErrMin= 2.38D-04
 ErrMax= 2.38D-04  0.00D+00 EMaxC= 1.00D-01 BMatC= 1.24D-05 BMatP= 3.54D-04
 IDIUse=3 WtCom= 9.98D-01 WtEn= 2.38D-03
 Coeff-Com:  0.114D-02 0.989D-01 0.244D+00 0.220D+00 0.436D+00
 Coeff-En:   0.000D+00 0.000D+00 0.000D+00 0.000D+00 0.100D+01
 Coeff:      0.114D-02 0.987D-01 0.244D+00 0.220D+00 0.437D+00
 Gap=     0.155 Goal=   None    Shift=    0.000
 RMSDP=2.74D-05 MaxDP=7.41D-04 DE=-3.10D-04 OVMax= 1.71D-03

 Cycle   6  Pass 0  IDiag  1:
 E= -580.979493370733     Delta-E=       -0.000007489926 Rises=F Damp=F
 DIIS: error= 1.28D-04 at cycle   6 NSaved=   6.
 NSaved= 6 IEnMin= 6 EnMin= -580.979493370733     IErMin= 6 ErrMin= 1.28D-04
 ErrMax= 1.28D-04  0.00D+00 EMaxC= 1.00D-01 BMatC= 3.71D-06 BMatP= 1.24D-05
 IDIUse=3 WtCom= 9.99D-01 WtEn= 1.28D-03
 Coeff-Com: -0.151D-02 0.299D-01 0.804D-01 0.862D-01 0.350D+00 0.455D+00
 Coeff-En:   0.000D+00 0.000D+00 0.000D+00 0.000D+00 0.277D+00 0.723D+00
 Coeff:     -0.151D-02 0.299D-01 0.803D-01 0.861D-01 0.350D+00 0.456D+00
 Gap=     0.155 Goal=   None    Shift=    0.000
 RMSDP=1.01D-05 MaxDP=3.32D-04 DE=-7.49D-06 OVMax= 5.43D-04

 Cycle   7  Pass 0  IDiag  1:
 E= -580.979496383591     Delta-E=       -0.000003012858 Rises=F Damp=F
 DIIS: error= 1.80D-05 at cycle   7 NSaved=   7.
 NSaved= 7 IEnMin= 7 EnMin= -580.979496383591     IErMin= 7 ErrMin= 1.80D-05
 ErrMax= 1.80D-05  0.00D+00 EMaxC= 1.00D-01 BMatC= 1.30D-07 BMatP= 3.71D-06
 IDIUse=1 WtCom= 1.00D+00 WtEn= 0.00D+00
 Coeff-Com: -0.941D-03 0.990D-02 0.280D-01 0.320D-01 0.167D+00 0.255D+00
 Coeff-Com:  0.509D+00
 Coeff:     -0.941D-03 0.990D-02 0.280D-01 0.320D-01 0.167D+00 0.255D+00
 Coeff:      0.509D+00
 Gap=     0.155 Goal=   None    Shift=    0.000
 RMSDP=2.29D-06 MaxDP=5.65D-05 DE=-3.01D-06 OVMax= 8.66D-05

 Initial convergence to 1.0D-05 achieved.  Increase integral accuracy.
 Cycle   8  Pass 1  IDiag  1:
 E= -580.979513774690     Delta-E=       -0.000017391099 Rises=F Damp=F
 DIIS: error= 1.37D-05 at cycle   1 NSaved=   1.
 NSaved= 1 IEnMin= 1 EnMin= -580.979513774690     IErMin= 1 ErrMin= 1.37D-05
 ErrMax= 1.37D-05  0.00D+00 EMaxC= 1.00D-01 BMatC= 7.20D-08 BMatP= 7.20D-08
 IDIUse=1 WtCom= 1.00D+00 WtEn= 0.00D+00
 Coeff-Com:  0.100D+01
 Coeff:      0.100D+01
 Gap=     0.155 Goal=   None    Shift=    0.000
 RMSDP=2.29D-06 MaxDP=5.65D-05 DE=-1.74D-05 OVMax= 7.45D-05

 Cycle   9  Pass 1  IDiag  1:
 E= -580.979513792942     Delta-E=       -0.000000018252 Rises=F Damp=F
 DIIS: error= 2.05D-05 at cycle   2 NSaved=   2.
 NSaved= 2 IEnMin= 2 EnMin= -580.979513792942     IErMin= 1 ErrMin= 1.37D-05
 ErrMax= 2.05D-05  0.00D+00 EMaxC= 1.00D-01 BMatC= 6.35D-08 BMatP= 7.20D-08
 IDIUse=1 WtCom= 1.00D+00 WtEn= 0.00D+00
 Coeff-Com:  0.478D+00 0.522D+00
 Coeff:      0.478D+00 0.522D+00
 Gap=     0.155 Goal=   None    Shift=    0.000
 RMSDP=2.05D-06 MaxDP=8.76D-05 DE=-1.83D-08 OVMax= 1.47D-04

 Cycle  10  Pass 1  IDiag  1:
 E= -580.979513809677     Delta-E=       -0.000000016734 Rises=F Damp=F
 DIIS: error= 2.49D-05 at cycle   3 NSaved=   3.
 NSaved= 3 IEnMin= 3 EnMin= -580.979513809677     IErMin= 1 ErrMin= 1.37D-05
 ErrMax= 2.49D-05  0.00D+00 EMaxC= 1.00D-01 BMatC= 4.15D-08 BMatP= 6.35D-08
 IDIUse=1 WtCom= 1.00D+00 WtEn= 0.00D+00
 Coeff-Com:  0.573D-01 0.434D+00 0.509D+00
 Coeff:      0.573D-01 0.434D+00 0.509D+00
 Gap=     0.155 Goal=   None    Shift=    0.000
 RMSDP=1.30D-06 MaxDP=5.91D-05 DE=-1.67D-08 OVMax= 1.28D-04

 Cycle  11  Pass 1  IDiag  1:
 E= -580.979513833127     Delta-E=       -0.000000023450 Rises=F Damp=F
 DIIS: error= 1.30D-05 at cycle   4 NSaved=   4.
 NSaved= 4 IEnMin= 4 EnMin= -580.979513833127     IErMin= 4 ErrMin= 1.30D-05
 ErrMax= 1.30D-05  0.00D+00 EMaxC= 1.00D-01 BMatC= 1.24D-08 BMatP= 4.15D-08
 IDIUse=1 WtCom= 1.00D+00 WtEn= 0.00D+00
 Coeff-Com: -0.145D-01 0.282D+00 0.409D+00 0.323D+00
 Coeff:     -0.145D-01 0.282D+00 0.409D+00 0.323D+00
 Gap=     0.155 Goal=   None    Shift=    0.000
 RMSDP=4.98D-07 MaxDP=2.53D-05 DE=-2.35D-08 OVMax= 4.69D-05

 Cycle  12  Pass 1  IDiag  1:
 E= -580.979513842821     Delta-E=       -0.000000009694 Rises=F Damp=F
 DIIS: error= 3.78D-07 at cycle   5 NSaved=   5.
 NSaved= 5 IEnMin= 5 EnMin= -580.979513842821     IErMin= 5 ErrMin= 3.78D-07
 ErrMax= 3.78D-07  0.00D+00 EMaxC= 1.00D-01 BMatC= 5.53D-11 BMatP= 1.24D-08
 IDIUse=1 WtCom= 1.00D+00 WtEn= 0.00D+00
 Coeff-Com: -0.788D-02 0.118D+00 0.177D+00 0.145D+00 0.568D+00
 Coeff:     -0.788D-02 0.118D+00 0.177D+00 0.145D+00 0.568D+00
 Gap=     0.155 Goal=   None    Shift=    0.000
 RMSDP=6.27D-08 MaxDP=1.87D-06 DE=-9.69D-09 OVMax= 3.74D-06

 Cycle  13  Pass 1  IDiag  1:
 E= -580.979513842844     Delta-E=       -0.000000000023 Rises=F Damp=F
 DIIS: error= 3.69D-07 at cycle   6 NSaved=   6.
 NSaved= 6 IEnMin= 6 EnMin= -580.979513842844     IErMin= 6 ErrMin= 3.69D-07
 ErrMax= 3.69D-07  0.00D+00 EMaxC= 1.00D-01 BMatC= 3.18D-11 BMatP= 5.53D-11
 IDIUse=1 WtCom= 1.00D+00 WtEn= 0.00D+00
 Coeff-Com: -0.427D-02 0.537D-01 0.827D-01 0.679D-01 0.413D+00 0.387D+00
 Coeff:     -0.427D-02 0.537D-01 0.827D-01 0.679D-01 0.413D+00 0.387D+00
 Gap=     0.155 Goal=   None    Shift=    0.000
 RMSDP=3.93D-08 MaxDP=1.34D-06 DE=-2.27D-11 OVMax= 3.22D-06

 Cycle  14  Pass 1  IDiag  1:
 E= -580.979513842860     Delta-E=       -0.000000000015 Rises=F Damp=F
 DIIS: error= 1.38D-07 at cycle   7 NSaved=   7.
 NSaved= 7 IEnMin= 7 EnMin= -580.979513842860     IErMin= 7 ErrMin= 1.38D-07
 ErrMax= 1.38D-07  0.00D+00 EMaxC= 1.00D-01 BMatC= 4.93D-12 BMatP= 3.18D-11
 IDIUse=1 WtCom= 1.00D+00 WtEn= 0.00D+00
 Coeff-Com: -0.126D-02 0.128D-01 0.207D-01 0.172D-01 0.187D+00 0.298D+00
 Coeff-Com:  0.465D+00
 Coeff:     -0.126D-02 0.128D-01 0.207D-01 0.172D-01 0.187D+00 0.298D+00
 Coeff:      0.465D+00
 Gap=     0.155 Goal=   None    Shift=    0.000
 RMSDP=1.35D-08 MaxDP=4.65D-07 DE=-1.55D-11 OVMax= 1.12D-06

 Cycle  15  Pass 1  IDiag  1:
 E= -580.979513842861     Delta-E=       -0.000000000002 Rises=F Damp=F
 DIIS: error= 3.94D-08 at cycle   8 NSaved=   8.
 NSaved= 8 IEnMin= 8 EnMin= -580.979513842861     IErMin= 8 ErrMin= 3.94D-08
 ErrMax= 3.94D-08  0.00D+00 EMaxC= 1.00D-01 BMatC= 3.46D-13 BMatP= 4.93D-12
 IDIUse=1 WtCom= 1.00D+00 WtEn= 0.00D+00
 Coeff-Com: -0.359D-03 0.276D-02 0.445D-02 0.426D-02 0.631D-01 0.132D+00
 Coeff-Com:  0.269D+00 0.525D+00
 Coeff:     -0.359D-03 0.276D-02 0.445D-02 0.426D-02 0.631D-01 0.132D+00
 Coeff:      0.269D+00 0.525D+00
 Gap=     0.155 Goal=   None    Shift=    0.000
 RMSDP=4.85D-09 MaxDP=1.51D-07 DE=-1.59D-12 OVMax= 4.00D-07

 SCF Done:  E(RB3LYP) =  -580.979513843     A.U. after   15 cycles
            NFock= 15  Conv=0.49D-08     -V/T= 2.0074
 KE= 5.766888381873D+02 PE=-2.446901495633D+03 EE= 7.455627714001D+02
 Leave Link  502 at Fri Aug 20 15:53:05 2021, MaxMem= 24159191040 cpu:        66.1
 (Enter /public/home/users/caep010/software/Gaussian09/g09/l701.exe)
 Compute integral first derivatives.
 ... and contract with generalized density number  0.
 Leave Link  701 at Fri Aug 20 15:53:05 2021, MaxMem= 24159191040 cpu:        10.5
 (Enter /public/home/users/caep010/software/Gaussian09/g09/l702.exe)
 L702 exits ... SP integral derivatives will be done elsewhere.
 Leave Link  702 at Fri Aug 20 15:53:06 2021, MaxMem= 24159191040 cpu:         0.6
 (Enter /public/home/users/caep010/software/Gaussian09/g09/l703.exe)
 Compute integral first derivatives, UseDBF=F ICtDFT=           0.
 Integral derivatives from FoFJK, PRISM(SPDF).
 Calling FoFJK, ICntrl=      2127 FMM=F ISym2X=0 I1Cent= 0 IOpClX= 0 NMat=1 NMatS=1 NMatT=0.
 FoFJK:  IHMeth= 1 ICntrl=    2127 DoSepK=F KAlg= 0 I1Cent=   0 FoldK=F
 IRaf=         0 NMat=   1 IRICut=       1 DoRegI=T DoRafI=F ISym2E= 0.
 FoFCou: FMM=F IPFlag=           0 FMFlag=      100000 FMFlg1=         800
         NFxFlg=           0 DoJE=F BraDBF=F KetDBF=F FulRan=T
         wScrn=  0.000000 ICntrl=    2127 IOpCl=  0 I1Cent=           0 NGrid=           0
         NMat0=    1 NMatS0=      1 NMatT0=    0 NMatD0=    1 NMtDS0=    0 NMtDT0=    0
 Symmetry not used in FoFCou.
 Leave Link  703 at Fri Aug 20 15:53:06 2021, MaxMem= 24159191040 cpu:        17.9
 (Enter /public/home/users/caep010/software/Gaussian09/g09/l716.exe)
 Dipole        =-4.09607675D-01 1.03279687D+00 5.21255284D-02
 ***** Axes restored to original set *****
 -------------------------------------------------------------------
 Center     Atomic                   Forces (Hartrees/Bohr)
 Number     Number              X              Y              Z
 -------------------------------------------------------------------
      1        6           0.000860508   -0.009862430    0.003562718
      2        6           0.002924156    0.013642593   -0.011038319
      3        7          -0.004893466   -0.012891985    0.009222040
      4        7          -0.000653017   -0.006005261    0.008772593
      5        6          -0.076215736   -0.080512939    0.005935086
      6        1          -0.037462027    0.124114219    0.014157800
      7        1           0.096989659    0.000508920   -0.086158848
      8        1           0.018119166   -0.036731644    0.067149569
      9        7          -0.005702719   -0.008030894   -0.008592896
     10        8          -0.000345556    0.003961164   -0.006617435
     11        8          -0.000786807   -0.000220072    0.001775070
     12        8          -0.000231734    0.002750171   -0.003665974
     13        8           0.007397573    0.009278158    0.005498597
 -------------------------------------------------------------------
 Cartesian Forces:  Max     0.124114219 RMS     0.037070272
 Leave Link  716 at Fri Aug 20 15:53:06 2021, MaxMem= 24159191040 cpu:         0.6
 (Enter /public/home/users/caep010/software/Gaussian09/g09/l103.exe)

 GradGradGradGradGradGradGradGradGradGradGradGradGradGradGradGradGradGrad
 Berny optimization.
 Using GEDIIS/GDIIS optimizer.
 FormGI is forming the generalized inverse of G from B-inverse, IUseBI=4.
 Internal  Forces:  Max     0.129789936 RMS     0.026964730
 Search for a local minimum.
 Step number   2 out of a maximum of   66
 All quantities printed in internal units (Hartrees-Bohrs-Radians)
 RMS Force = .26965D-01 SwitMx=.10000D-02 MixMth= 1
 Mixed Optimization -- RFO/linear search
 Update second derivatives using D2CorX and points    1    2
 DE= -9.65D-02 DEPred=-1.05D-01 R= 9.19D-01
 TightC=F SS=  1.41D+00  RLast= 3.01D-01 DXNew= 5.0454D-01 9.0308D-01
 Trust test= 9.19D-01 RLast= 3.01D-01 DXMaxT set to 5.05D-01
 ITU=  1  0
 Use linear search instead of GDIIS.
 Linear search step of   0.506 exceeds DXMaxT=   0.505 but not scaled.
 Quartic linear search produced a step of  1.68683.
 Iteration  1 RMS(Cart)=  0.05102995 RMS(Int)=  0.02130767
 Iteration  2 RMS(Cart)=  0.02074588 RMS(Int)=  0.00030734
 Iteration  3 RMS(Cart)=  0.00006038 RMS(Int)=  0.00030386
 Iteration  4 RMS(Cart)=  0.00000004 RMS(Int)=  0.00030386
 ITry= 1 IFail=0 DXMaxC= 3.01D-01 DCOld= 1.00D+10 DXMaxT= 5.05D-01 DXLimC= 3.00D+00 Rises=F
 Variable       Old X    -DE/DX   Delta X   Delta X   Delta X     New X
                                 (Linear)    (Quad)   (Total)
    R1        2.65796   0.00675   0.01818   0.00000   0.01824   2.67621
    R2        2.52267   0.00333   0.00965   0.00000   0.00963   2.53230
    R3        2.79654   0.00547   0.01326   0.00000   0.01326   2.80980
    R4        2.44740   0.01048   0.02191   0.00000   0.02196   2.46936
    R5        2.76092   0.00171   0.00889   0.00000   0.00889   2.76981
    R6        2.57981  -0.00499  -0.00598   0.00000  -0.00601   2.57380
    R7        2.79394   0.00094  -0.00014   0.00000  -0.00021   2.79373
    R8        2.30219  -0.00443  -0.00651   0.00000  -0.00651   2.29568
    R9        1.81405   0.12979   0.31378   0.00000   0.31378   2.12784
   R10        1.81423   0.12911   0.31248   0.00000   0.31248   2.12672
   R11        1.89817   0.07743   0.21398   0.00000   0.21398   2.11215
   R12        2.31260  -0.00111   0.00116   0.00000   0.00116   2.31375
   R13        2.30760   0.01266   0.01964   0.00000   0.01964   2.32724
    A1        1.81753   0.00267   0.01244   0.00000   0.01248   1.83000
    A2        2.35075  -0.00435  -0.01704   0.00000  -0.01706   2.33369
    A3        2.11443   0.00169   0.00465   0.00000   0.00463   2.11906
    A4        2.02120  -0.00707  -0.02361   0.00000  -0.02351   1.99768
    A5        2.19364   0.00046  -0.00149   0.00000  -0.00154   2.19210
    A6        2.06832   0.00660   0.02510   0.00000   0.02504   2.09336
    A7        1.83441   0.00251   0.01065   0.00000   0.01070   1.84511
    A8        1.86812  -0.00152  -0.00648   0.00000  -0.00655   1.86158
    A9        2.36043  -0.00061  -0.00164   0.00000  -0.00160   2.35883
   A10        2.05454   0.00213   0.00813   0.00000   0.00817   2.06271
   A11        1.93175   0.00014  -0.00356   0.00000  -0.00402   1.92773
   A12        2.00426  -0.00818  -0.03629   0.00000  -0.03741   1.96685
   A13        1.94822  -0.01293  -0.05433   0.00000  -0.05494   1.89328
   A14        1.95270  -0.00110  -0.00145   0.00000  -0.00232   1.95038
   A15        1.79353   0.01216   0.05477   0.00000   0.05489   1.84842
   A16        1.81902   0.01237   0.05372   0.00000   0.05247   1.87149
   A17        2.04898   0.00087   0.00163   0.00000   0.00162   2.05060
   A18        2.03027  -0.00423  -0.01600   0.00000  -0.01601   2.01426
   A19        2.20387   0.00337   0.01445   0.00000   0.01444   2.21832
   A20        1.88314   0.00341   0.00706   0.00000   0.00694   1.89008
    D1        0.01375  -0.00006  -0.00007   0.00000  -0.00008   0.01367
    D2       -3.13663  -0.00025  -0.00138   0.00000  -0.00136  -3.13798
    D3        3.12093   0.00037   0.00204   0.00000   0.00201   3.12294
    D4       -0.02945   0.00017   0.00073   0.00000   0.00073  -0.02872
    D5       -0.02321   0.00029   0.00130   0.00000   0.00130  -0.02191
    D6        3.13314  -0.00008  -0.00044   0.00000  -0.00042   3.13273
    D7       -3.13621   0.00010   0.00013   0.00000   0.00009  -3.13613
    D8        0.02014  -0.00028  -0.00160   0.00000  -0.00163   0.01851
    D9        1.11967  -0.00541  -0.02439   0.00000  -0.02400   1.09567
   D10       -1.11183   0.00284   0.01217   0.00000   0.01235  -1.09948
   D11        3.10595   0.00199   0.00889   0.00000   0.00835   3.11430
   D12       -2.06092  -0.00495  -0.02199   0.00000  -0.02161  -2.08254
   D13        1.99077   0.00331   0.01457   0.00000   0.01473   2.00550
   D14       -0.07464   0.00245   0.01129   0.00000   0.01073  -0.06391
   D15        0.00340  -0.00023  -0.00131   0.00000  -0.00129   0.00211
   D16       -3.13007  -0.00002   0.00002   0.00000   0.00003  -3.13005
   D17        2.85689   0.00134   0.00738   0.00000   0.00739   2.86428
   D18       -0.27432   0.00029   0.00066   0.00000   0.00067  -0.27365
   D19       -0.29370   0.00107   0.00583   0.00000   0.00582  -0.28788
   D20        2.85828   0.00003  -0.00089   0.00000  -0.00090   2.85738
   D21       -0.01778   0.00036   0.00193   0.00000   0.00196  -0.01582
   D22        0.02688  -0.00043  -0.00223   0.00000  -0.00223   0.02465
   D23       -3.12645  -0.00015  -0.00092   0.00000  -0.00093  -3.12738
         Item               Value     Threshold  Converged?
 Maximum Force            0.129790     0.000450     NO 
 RMS     Force            0.026965     0.000300     NO 
 Maximum Displacement     0.301319     0.001800     NO 
 RMS     Displacement     0.069479     0.001200     NO 
 Predicted change in Energy=-1.035389D-02
 Lowest energy point so far.  Saving SCF results.
 GradGradGradGradGradGradGradGradGradGradGradGradGradGradGradGradGradGrad

 Leave Link  103 at Fri Aug 20 15:53:06 2021, MaxMem= 24159191040 cpu:         1.2
 (Enter /public/home/users/caep010/software/Gaussian09/g09/l202.exe)
                          Input orientation:                          
 ---------------------------------------------------------------------
 Center     Atomic      Atomic             Coordinates (Angstroms)
 Number     Number       Type             X           Y           Z
 ---------------------------------------------------------------------
      1          6           0        1.336538   -0.843369    2.089893
      2          6           0        0.499144   -0.784208    0.949340
      3          7           0       -0.401897   -1.728748    0.890105
      4          7           0        0.918232   -1.921072    2.767590
      5          6           0        2.481946   -0.024194    2.567192
      6          1           0        2.152347    1.033513    2.768444
      7          1           0        3.362947   -0.060526    1.867861
      8          1           0        2.822996   -0.431163    3.550717
      9          7           0        0.569205    0.227396   -0.109000
     10          8           0       -0.217607   -2.485053    2.007725
     11          8           0       -0.006948   -0.015206   -1.161764
     12          8           0        1.249299   -2.472384    3.798243
     13          8           0        1.215598    1.238312    0.168255
 ---------------------------------------------------------------------
                    Distance matrix (angstroms):
                    1          2          3          4          5
     1  C    0.000000
     2  C    1.416188   0.000000
     3  N    2.290315   1.306729   0.000000
     4  N    1.340036   2.184978   2.303189   0.000000
     5  C    1.486883   2.669564   3.746288   2.466476   0.000000
     6  H    2.156075   3.057177   4.205045   3.201970   1.126002
     7  H    2.183684   3.093342   4.232378   3.201214   1.125410
     8  H    2.124495   3.506008   4.377501   2.541897   1.117703
     9  N    2.563292   1.465720   2.401614   3.607285   3.299073
    10  O    2.262133   2.127624   1.361997   1.478378   3.695459
    11  O    3.614427   2.303097   2.702291   4.464091   4.483279
    12  O    2.362151   3.395426   3.425888   1.214823   3.004752
    13  O    2.835615   2.283415   3.455546   4.102033   2.992066
                    6          7          8          9         10
     6  H    0.000000
     7  H    1.863739   0.000000
     8  H    1.790809   1.805803   0.000000
     9  N    3.381693   3.434512   4.348195   0.000000
    10  O    4.309951   4.326460   3.980522   3.529444   0.000000
    11  O    4.605313   4.531763   5.512630   1.224386   4.023703
    12  O    3.763946   3.743119   2.589280   4.797696   2.314720
    13  O    2.771358   3.030965   4.100235   1.231521   4.393310
                   11         12         13
    11  O    0.000000
    12  O    5.676051   0.000000
    13  O    2.198835   5.191070   0.000000
 Stoichiometry    C3H3N3O4
 Framework group  C1[X(C3H3N3O4)]
 Deg. of freedom    33
 Full point group                 C1      NOp   1
 RotChk:  IX=0 Diff= 1.49D-02
 Largest Abelian subgroup         C1      NOp   1
 Largest concise Abelian subgroup C1      NOp   1
                         Standard orientation:                         
 ---------------------------------------------------------------------
 Center     Atomic      Atomic             Coordinates (Angstroms)
[...]
     33 -0.101532D-02 -0.391532D+00 -0.519619D-03  0.239537D-02 -0.497532D-02
     34 -0.243957D-02  0.147415D-02 -0.682145D-02  0.205806D-01 -0.324588D-01
     35  0.297531D-02 -0.213148D-02  0.154096D-01  0.278212D-01 -0.113430D-01
     36 -0.621848D-02  0.473072D-02 -0.265773D-01 -0.451308D-02 -0.299471D-01
     37 -0.222710D+00 -0.426433D-01  0.518043D-03  0.132139D-03  0.428274D-02
     38 -0.330679D+00 -0.104718D-01  0.178388D-02 -0.469727D-02  0.439062D-02
     39  0.242136D-02 -0.116540D+00  0.242860D-02  0.226022D-02 -0.222044D-02
               31            32            33            34            35 
     31  0.328192D+00
     32  0.627956D-01  0.937699D-01
     33  0.321927D+00  0.679575D-02  0.441197D+00
     34  0.313819D-03  0.919341D-03 -0.951040D-04  0.988997D-01
     35  0.890777D-03 -0.985254D-03  0.181952D-02 -0.519268D-01  0.202391D+00
     36 -0.576196D-04  0.187345D-02 -0.261839D-02  0.151650D+00 -0.266319D+00
     37 -0.491384D-01 -0.498359D-01 -0.410940D-01  0.118716D-02  0.827250D-04
     38 -0.337653D-01  0.118267D-01 -0.284779D-01  0.131207D-02 -0.789268D-03
     39 -0.593874D-01 -0.495176D-01  0.430483D-02  0.493834D-04  0.101831D-02
               36            37            38            39 
     36  0.532589D+00
     37  0.146278D-02  0.352486D+00
     38  0.264472D-02  0.308202D+00  0.365619D+00
     39 -0.108653D-02  0.759801D-01  0.168819D-01  0.106513D+00
 FormGI is forming the generalized inverse of G from B-inverse, IUseBI=4.
 GSVD:  received Info=                   1 from GESDD.
 Leave Link  716 at Fri Aug 20 15:54:21 2021, MaxMem= 24159191040 cpu:         1.5
 (Enter /public/home/users/caep010/software/Gaussian09/g09/l103.exe)

 GradGradGradGradGradGradGradGradGradGradGradGradGradGradGradGradGradGrad
 Berny optimization.
 Red2BG is reusing G-inverse.
 Internal  Forces:  Max     0.000312233 RMS     0.000078352
 Search for a local minimum.
 Step number   1 out of a maximum of    2
 All quantities printed in internal units (Hartrees-Bohrs-Radians)
 Second derivative matrix not updated -- analytic derivatives used.
 ITU=  0
     Eigenvalues ---    0.00052   0.00269   0.00831   0.01725   0.02568
     Eigenvalues ---    0.03931   0.04658   0.05586   0.05880   0.06469
     Eigenvalues ---    0.11304   0.12757   0.14156   0.15243   0.17160
     Eigenvalues ---    0.20126   0.21524   0.22099   0.24924   0.26420
     Eigenvalues ---    0.30749   0.32527   0.34231   0.34742   0.35245
     Eigenvalues ---    0.36116   0.39246   0.44940   0.49871   0.56470
     Eigenvalues ---    0.63091   0.74131   0.79338
 Angle between quadratic step and forces=  71.05 degrees.
 Linear search not attempted -- first point.
 Iteration  1 RMS(Cart)=  0.00253006 RMS(Int)=  0.00000458
 Iteration  2 RMS(Cart)=  0.00000492 RMS(Int)=  0.00000016
 Iteration  3 RMS(Cart)=  0.00000000 RMS(Int)=  0.00000016
 ITry= 1 IFail=0 DXMaxC= 8.61D-03 DCOld= 1.00D+10 DXMaxT= 3.00D-01 DXLimC= 3.00D+00 Rises=F
 Variable       Old X    -DE/DX   Delta X   Delta X   Delta X     New X
                                 (Linear)    (Quad)   (Total)
    R1        2.68124   0.00004   0.00000   0.00044   0.00044   2.68168
    R2        2.52146  -0.00004   0.00000  -0.00055  -0.00055   2.52092
    R3        2.81622   0.00004   0.00000   0.00030   0.00030   2.81652
    R4        2.46843  -0.00001   0.00000  -0.00026  -0.00026   2.46818
    R5        2.75462   0.00011   0.00000   0.00032   0.00032   2.75494
    R6        2.54014  -0.00003   0.00000  -0.00104  -0.00104   2.53910
    R7        2.82594   0.00031   0.00000   0.00454   0.00454   2.83047
    R8        2.29502  -0.00024   0.00000  -0.00069  -0.00069   2.29434
    R9        2.06484   0.00003   0.00000  -0.00001  -0.00001   2.06483
   R10        2.06562  -0.00029   0.00000  -0.00078  -0.00078   2.06483
   R11        2.06185   0.00014   0.00000   0.00040   0.00040   2.06225
   R12        2.30707   0.00001   0.00000   0.00006   0.00006   2.30713
   R13        2.32850  -0.00013   0.00000  -0.00021  -0.00021   2.32828
    A1        1.83487  -0.00001   0.00000   0.00057   0.00057   1.83545
    A2        2.33186  -0.00002   0.00000  -0.00065  -0.00065   2.33121
    A3        2.11645   0.00004   0.00000   0.00008   0.00008   2.11653
    A4        1.99233   0.00002   0.00000   0.00011   0.00011   1.99243
    A5        2.20084  -0.00003   0.00000  -0.00021  -0.00021   2.20063
    A6        2.09001   0.00000   0.00000   0.00010   0.00010   2.09012
    A7        1.85502   0.00009   0.00000   0.00088   0.00088   1.85590
    A8        1.85207   0.00002   0.00000  -0.00080  -0.00080   1.85127
    A9        2.36620   0.00003   0.00000   0.00098   0.00098   2.36718
   A10        2.06491  -0.00005   0.00000  -0.00018  -0.00018   2.06474
   A11        1.93126   0.00000   0.00000  -0.00018  -0.00018   1.93108
   A12        1.93112  -0.00001   0.00000  -0.00002  -0.00002   1.93109
   A13        1.90202  -0.00001   0.00000   0.00001   0.00001   1.90203
   A14        1.87464  -0.00001   0.00000  -0.00008  -0.00008   1.87456
   A15        1.91207   0.00001   0.00000   0.00039   0.00039   1.91246
   A16        1.91256   0.00001   0.00000  -0.00011  -0.00011   1.91245
   A17        2.05815  -0.00002   0.00000  -0.00014  -0.00014   2.05800
   A18        2.01408   0.00007   0.00000   0.00028   0.00028   2.01436
   A19        2.21096  -0.00005   0.00000  -0.00014  -0.00014   2.21082
   A20        1.89048  -0.00012   0.00000  -0.00075  -0.00075   1.88973
    D1       -0.00076   0.00002   0.00000   0.00076   0.00076   0.00000
    D2       -3.14145   0.00000   0.00000  -0.00014  -0.00014   3.14159
    D3       -3.14144   0.00001   0.00000  -0.00014  -0.00014  -3.14158
    D4        0.00105  -0.00000   0.00000  -0.00105  -0.00105   0.00001
    D5        0.00041  -0.00000   0.00000  -0.00041  -0.00041  -0.00000
    D6        3.14128   0.00001   0.00000   0.00031   0.00031  -3.14159
    D7        3.14123   0.00000   0.00000   0.00035   0.00035   3.14158
    D8       -0.00108   0.00002   0.00000   0.00107   0.00107  -0.00001
    D9        1.04134  -0.00001   0.00000  -0.00371  -0.00371   1.03763
   D10       -1.03434   0.00001   0.00000  -0.00348  -0.00348  -1.03782
   D11       -3.13835   0.00000   0.00000  -0.00333  -0.00334   3.14150
   D12       -2.09923  -0.00002   0.00000  -0.00473  -0.00473  -2.10395
   D13        2.10829  -0.00000   0.00000  -0.00450  -0.00450   2.10379
   D14        0.00427  -0.00001   0.00000  -0.00435  -0.00435  -0.00008
   D15        0.00075  -0.00003   0.00000  -0.00075  -0.00075  -0.00000
   D16        3.14151  -0.00001   0.00000   0.00009   0.00009  -3.14159
   D17       -3.13736  -0.00003   0.00000  -0.00423  -0.00423   3.14159
   D18        0.00377   0.00001   0.00000  -0.00378  -0.00378  -0.00000
   D19        0.00517  -0.00004   0.00000  -0.00518  -0.00518  -0.00001
   D20       -3.13688  -0.00000   0.00000  -0.00472  -0.00472   3.14159
   D21       -0.00045   0.00002   0.00000   0.00045   0.00045  -0.00000
   D22        0.00000  -0.00001   0.00000   0.00000   0.00000   0.00000
   D23       -3.14102  -0.00002   0.00000  -0.00057  -0.00057   3.14159
         Item               Value     Threshold  Converged?
 Maximum Force            0.000312     0.000450     YES
 RMS     Force            0.000078     0.000300     YES
 Maximum Displacement     0.008610     0.001800     NO 
 RMS     Displacement     0.002530     0.001200     NO 
 Predicted change in Energy=-1.386705D-06
 GradGradGradGradGradGradGradGradGradGradGradGradGradGradGradGradGradGrad

 Leave Link  103 at Fri Aug 20 15:54:21 2021, MaxMem= 24159191040 cpu:         1.2
 (Enter /public/home/users/caep010/software/Gaussian09/g09/l9999.exe)
 1\1\GINC-B1048\Freq\RB3LYP\6-31G(d,p)\C3H3N3O4\ROOT\20-Aug-2021\0\\#P 
 Geom=AllCheck Guess=TCheck SCRF=Check GenChk RB3LYP/6-31G(d,p) Freq\\M
 ENFXN\\0,1\C,1.3426549567,-0.8503119035,2.0978572145\C,0.5188254763,-0
 .7924913873,0.9441231721\N,-0.3646060508,-1.7517896997,0.8695948722\N,
 0.9248952662,-1.924176018,2.7706523651\C,2.4582167421,-0.0038576157,2.
 6077312668\H,2.1209670395,1.0231788334,2.7670500057\H,3.277947842,0.02
 94296434,1.8854069746\H,2.8177161574,-0.4204721291,3.5498878408\N,0.58
 71830024,0.2113911938,-0.1105736281\O,-0.1904296341,-2.5105762951,1.96
 53752579\O,-0.2010504722,0.1204068309,-1.0384118348\O,1.2368239027,-2.
 473237648,3.8080438124\O,1.4526557718,1.075806195,0.0378626809\\Versio
 n=ES64L-G09RevE.01\State=1-A\HF=-581.0177822\RMSD=2.826e-09\RMSF=1.451
 e-04\ZeroPoint=0.0797859\Thermal=0.0884666\Dipole=0.7625069,0.3651202,
 0.5925471\DipoleDeriv=0.1291142,0.014238,0.1358594,0.1897619,-0.119609
 ,0.4030663,-0.0635752,0.1727039,-0.2666792,0.2252043,-0.189332,0.27598
 45,-0.0847604,-0.0564726,0.158338,0.1565727,0.0198483,0.3649169,-0.271
 7757,0.0586124,-0.2861488,0.098451,0.2068649,-0.2260091,-0.3320378,-0.
 2793146,-0.2262374,0.3975955,-0.1413293,0.4529667,-0.032831,0.7137682,
 -0.6554518,0.3294814,-0.7982185,1.5216938,0.0652096,0.0045583,-0.01262
 59,-0.0343952,0.0421139,-0.0119669,0.0309356,0.0381436,0.068521,0.0244
 039,0.023096,-0.001235,0.0130899,-0.0229009,-0.0241084,-0.0124366,-0.0
 277017,0.107036,0.0120101,-0.0371753,0.0474216,-0.0237223,0.0709196,-0
 .0293666,0.0545902,-0.030307,0.0274448,0.0762476,-0.0203523,0.0009246,
 0.0319997,0.0584143,0.0810989,-0.0585973,0.0124009,0.0022553,0.9518297
 ,0.3935497,0.4149044,0.3677895,1.0811544,-0.4187865,0.4445946,-0.38338
 93,1.3111774,-0.1909325,0.0779889,-0.256534,-0.2615576,-0.3397827,-0.0
 314906,0.1306389,0.4172341,-0.3669064,-0.5160839,-0.0943822,-0.2818821
 ,-0.027186,-0.4040889,0.1758758,-0.3579593,0.0879072,-0.7878622,-0.321
 66,0.1560862,-0.3202029,0.0763381,-0.5902634,0.5296473,-0.2291683,0.63
 44866,-1.240131,-0.5811629,-0.2455582,-0.1694326,-0.3129777,-0.6401177
 ,0.0491536,-0.0930388,0.1362068,-0.515229\Polar=57.3211391,14.4577768,
 64.4045049,17.7460452,-18.6176959,75.9638106\PG=C01 [X(C3H3N3O4)]\NIma
 g=0\\0.48721212,0.24333813,0.50555643,0.19299438,-0.10503875,0.5060301
 9,-0.14734487,-0.02708760,-0.09051865,0.47322208,-0.01032140,-0.086694
 24,0.02204023,0.24627109,0.54580521,-0.10963717,-0.00009966,-0.2001438
 5,0.18446138,-0.15909370,0.54576218,-0.02598581,-0.01695716,-0.0506156
 1,-0.24426187,-0.17001290,-0.05920422,0.36230925,-0.04608851,0.0044462
 0,-0.03527402,-0.19502150,-0.24122899,-0.04313972,0.22957280,0.4202869
 2,-0.01733855,0.00323511,0.00031937,-0.03081329,-0.01011119,-0.0819905
 1,0.10768970,-0.08109852,0.31767488,-0.11857546,-0.07083209,-0.0024591
 4,0.03290302,0.00969113,0.02473368,-0.02626834,0.01810182,-0.05464676,
 0.25974739,-0.09113368,-0.24032623,0.09026100,0.04884900,-0.00539887,0
 .07725225,-0.00928323,0.00105069,-0.01409888,0.06261087,0.59031798,0.0
 2060871,0.11704766,-0.16172621,-0.01984466,0.02547009,-0.04952927,-0.0
 2338937,0.02213926,-0.05674817,0.08942073,-0.43284171,0.74937260,-0.15
 480842,-0.06971865,-0.04486148,-0.00904583,-0.00407880,-0.00645257,0.0
 0212849,0.00047596,-0.00063854,-0.01391368,-0.01578871,0.00524844,0.51
 785639,-0.06395647,-0.11912567,-0.01804105,0.00338938,0.00864281,-0.00
 609588,0.00247607,0.00055979,0.00515777,-0.02363941,-0.02460157,-0.008
 03338,-0.02822325,0.55261912,-0.05145509,-0.02572218,-0.09944394,-0.01
 491739,-0.01592379,-0.00222688,-0.00292963,0.00244757,-0.00449328,0.01
 419329,0.00247034,0.01167954,-0.01640932,-0.03407249,0.57154018,0.0066
 5036,-0.02851131,-0.00341857,0.00107313,0.00089364,0.00019889,-0.00044
 103,-0.00082988,0.00071359,-0.00066492,-0.00087630,-0.00443326,-0.0729
 4552,0.08395611,0.01145586,0.08057946,-0.00103267,-0.01751079,-0.00259
 055,0.00083177,0.00056365,0.00176311,-0.00053818,-0.00079873,0.0001522
 8,0.00041866,-0.00009723,-0.00264170,0.08403097,-0.28531968,-0.0367224
 6,-0.08585246,0.31003609,0.00245945,-0.01060065,-0.00179022,0.00058441
 ,0.00022802,-0.00002789,-0.00070811,-0.00082920,0.00075700,0.00018550,
 0.00135838,-0.00340204,0.01071276,-0.03665149,-0.05105909,-0.01183078,
 0.04094191,0.04994929,-0.01973715,-0.00530339,0.01288960,0.00154043,0.
 00037009,0.00101244,-0.00059497,-0.00152737,0.00046578,-0.00260361,0.0
 0318416,-0.00259371,-0.19639878,-0.00400130,0.13538762,-0.00743894,0.0
 0030640,0.00711769,0.21323758,-0.01709916,-0.00405298,0.01300203,0.001
 17387,0.00038437,0.00048039,-0.00023201,-0.00032653,0.00024323,-0.0026
 6285,0.00041889,-0.00062051,-0.00367232,-0.04313819,0.00422362,0.02336
 039,0.00132389,-0.02069468,0.00948506,0.04813369,-0.01069350,0.0004148
 3,0.01119759,-0.00020901,0.00103874,-0.00030928,0.00006634,-0.00086369
 ,0.00045374,-0.00202247,0.00136375,-0.00205205,0.13574374,0.00360755,-
 0.16929727,0.00279851,0.00057928,-0.00353260,-0.14674308,-0.00250312,0
 .17870877,-0.01189257,0.00894812,-0.02284241,-0.00181882,-0.00312133,0
 .00061287,-0.00054872,-0.00037143,-0.00089277,-0.00027585,0.00295371,-
 0.00529951,-0.07875686,0.03298143,-0.07527432,-0.00397557,0.00287707,-
 0.00835148,0.01099257,-0.00999828,0.02067100,0.08419083,-0.00717569,0.
 00690578,-0.01969126,-0.00246622,-0.00259714,0.00017972,-0.00062654,0.
 00002460,-0.00036218,-0.00192444,0.00193305,-0.00335828,0.03600511,-0.
 09099171,0.09380343,0.00839764,-0.00833924,0.02657170,-0.00036281,-0.0
 0079836,-0.00152054,-0.03392320,0.09475711,-0.00467120,0.00148149,-0.0
 1000545,-0.00015967,-0.00070255,0.00103078,-0.00059516,-0.00001047,-0.
 00033714,0.00026431,0.00303196,-0.00192837,-0.07868339,0.08985675,-0.2
 5443135,0.00307093,-0.00212600,0.00709127,-0.00782603,0.00724056,-0.01
 536784,0.08741590,-0.09865226,0.27287168,0.00605848,0.01734531,-0.0062
 6314,-0.07968562,-0.00300881,-0.00809164,-0.00328730,-0.00846286,0.026
 41896,-0.00027682,0.00086166,-0.00517052,-0.00000559,-0.00032745,0.001
 90020,-0.00054492,-0.00069755,-0.00225290,-0.00228632,0.00004478,-0.00
 137351,-0.00019979,-0.00042969,0.00025914,0.66256768,0.01006245,0.0043
 2003,0.00355357,0.00370977,-0.10241954,0.04069625,-0.00877320,-0.04471
 217,0.02116583,0.00386896,0.00227628,0.00583793,0.00093273,-0.00093687
 ,0.00086161,-0.00105369,-0.00072864,-0.00248280,-0.00219267,0.00084507
 ,-0.00132174,-0.00056702,-0.00074655,0.00012087,0.26631403,0.57206508,
 0.00206845,0.01319402,-0.01651164,-0.01583645,0.03178400,-0.12825983,0
 .02677463,0.02150410,-0.00509760,-0.00863258,0.00180060,-0.01058337,0.
 00051307,-0.00072185,0.00032439,-0.00045790,-0.00038395,-0.00002349,-0
 .00022484,-0.00004100,0.00009203,0.00039965,0.00028239,0.00019182,0.27
 819875,-0.05407098,0.64434010,-0.03760859,-0.04751723,0.00812352,-0.01
 547434,-0.03114290,0.00076860,-0.06500380,0.01057216,-0.02350048,-0.02
 296676,-0.03940298,0.06400394,0.00756465,-0.00467919,0.00166004,-0.002
 71230,-0.00093619,-0.00123619,-0.00006929,0.00016598,-0.00005532,0.000
 33358,0.00070601,-0.00005021,0.00018118,-0.01343133,-0.00627558,0.1413
 6632,-0.02291730,-0.03224665,0.00327121,-0.03805050,-0.08315014,0.0568
 8006,-0.02860323,-0.14124895,0.05897087,-0.02482763,-0.11351083,0.0539
 5705,-0.00150373,0.00177374,0.00781799,0.00026106,0.00023575,0.0005651
 8,-0.00098742,-0.00161928,-0.00125215,0.00048689,0.00038902,-0.0000710
 6,-0.01327659,0.00934053,-0.00930953,0.10543394,0.33676969,-0.01988580
 ,-0.02917752,0.00420265,0.00868449,0.06604173,-0.05297756,0.02114001,0
 .11076197,-0.15465671,0.04737560,0.03470124,-0.01432290,-0.00196416,0.
 00355250,0.00364797,0.00040107,-0.00000653,-0.00064513,-0.00174070,-0.
 00070740,-0.00143190,0.00019011,0.00020781,-0.00021706,-0.00646055,-0.
 00954811,0.01886933,-0.01877001,-0.17097214,0.23467415,0.00211612,-0.0
 0102926,0.00054637,0.00177326,0.00831574,-0.03023206,-0.00155649,-0.00
 621901,0.00221369,0.00001625,-0.00087719,0.00084082,-0.00024888,-0.000
 20271,-0.00089530,-0.00000488,0.00047743,0.00093670,0.00073758,-0.0002
 8651,0.00033853,0.00001916,0.00034940,-0.00007854,-0.28291239,-0.03372
 076,-0.23535808,0.00069276,0.00327178,-0.00079405,0.32819206,-0.003810
 23,-0.00309130,0.00144473,0.01347945,0.01020257,0.02613482,-0.00026372
 ,0.00005929,0.00197669,-0.00042543,-0.00051752,0.00017793,-0.00063910,
 0.00006802,-0.00018938,0.00018106,0.00015811,0.00053362,0.00071610,-0.
 00017708,0.00018954,0.00026523,0.00014299,-0.00008378,-0.02642066,-0.1
 1159969,0.00856543,0.00303820,0.00014319,0.00209878,0.06279564,0.09376
 993,0.00368787,0.00511544,0.00165556,-0.03609263,0.01938239,-0.0517059
 7,-0.00455934,-0.00581311,0.00275427,0.00034675,-0.00040249,0.00105464
 ,-0.00042390,0.00035483,-0.00032508,-0.00004262,0.00009691,0.00040228,
 0.00052500,-0.00028263,0.00002702,0.00002570,0.00003127,-0.00023842,-0
 .24368509,-0.00101532,-0.39153239,-0.00051962,0.00239537,-0.00497532,0
 .32192697,0.00679575,0.44119696,0.01623679,-0.00134504,0.00838889,-0.0
 0519882,-0.00826733,-0.00391071,-0.00203087,-0.00127424,-0.01058521,-0
 .10430535,0.04106032,-0.11790077,0.00011147,0.00058776,-0.00043244,0.0
 0037821,-0.00023598,0.00115775,0.00060063,-0.00006727,0.00099617,0.001
 27906,0.00109618,0.00166633,-0.00065032,-0.00243957,0.00147415,-0.0068
 2145,0.02058060,-0.03245875,0.00031382,0.00091934,-0.00009510,0.098899
 68,0.01248670,-0.01686775,0.04828436,-0.00996136,-0.00148152,-0.005861
 59,-0.00132756,-0.00167099,0.00821257,0.03311655,-0.21088065,0.2265376
 0,0.00209079,0.00137938,0.00114750,-0.00043900,-0.00015244,-0.00055043
 ,-0.00048908,-0.00041926,-0.00049978,-0.00057737,-0.00131950,-0.000315
 02,0.00064402,0.00297531,-0.00213148,0.01540965,0.02782121,-0.01134296
 ,0.00089078,-0.00098525,0.00181952,-0.05192684,0.20239073,-0.00732850,
 0.03005235,-0.03294417,-0.00201210,-0.00362466,0.00639766,-0.01051474,
 0.00828564,-0.01625643,-0.10882926,0.23697319,-0.46420657,-0.00221485,
 -0.00081746,-0.00188682,0.00148957,0.00001905,0.00178026,0.00140466,-0
 .00022973,0.00183046,0.00357912,0.00187362,0.00161797,-0.00205208,-0.0
 0621848,0.00473072,-0.02657730,-0.00451308,-0.02994707,-0.00005762,0.0
 0187345,-0.00261839,0.15165032,-0.26631860,0.53258891,-0.00232099,-0.0
 0132983,-0.00196377,-0.00768175,-0.03558823,0.00574049,0.00554147,0.00
 107205,0.00091388,-0.00281587,-0.00215762,-0.00149084,-0.00153745,0.00
 163904,-0.00228353,0.00004691,0.00035072,0.00122522,0.00202028,-0.0002
 1168,0.00048261,0.00065297,0.00035424,-0.00061242,-0.29895825,-0.22270
 969,-0.04264327,0.00051804,0.00013214,0.00428274,-0.04913836,-0.049835
 87,-0.04109400,0.00118716,0.00008272,0.00146278,0.35248585,-0.00235219
 ,-0.00131282,-0.00122152,-0.04511716,-0.04262817,0.01090395,0.00456885
 ,0.00355886,0.00655642,-0.00349613,-0.00066399,-0.00367194,0.00008902,
 -0.00092916,-0.00014176,0.00051275,0.00062925,0.00161045,0.00080224,-0
 .00057422,0.00076733,0.00004618,0.00063994,0.00022951,-0.23258619,-0.3
 3067886,-0.01047176,0.00178388,-0.00469727,0.00439062,-0.03376533,0.01
 182674,-0.02847792,0.00131207,-0.00078927,0.00264472,0.30820200,0.3656
 1895,-0.00080905,0.00009784,-0.00083989,0.01667357,0.02347069,0.013980
 42,-0.00315451,0.00189019,-0.00237941,0.00007033,-0.00186964,0.0023921
 8,-0.00056979,0.00190421,-0.00402835,0.00005472,0.00091865,0.00050035,
 0.00032556,-0.00011075,-0.00031866,-0.00023389,0.00063458,-0.00027789,
 -0.03142761,0.00242136,-0.11654007,0.00242860,0.00226022,-0.00222044,-
 0.05938743,-0.04951756,0.00430483,0.00004938,0.00101831,-0.00108653,0.
 07598012,0.01688189,0.10651347\\0.00003141,0.00002048,-0.00009440,0.00
 004037,0.00015188,0.00003140,-0.00002770,-0.00007496,-0.00012469,-0.00
 036903,-0.00008226,-0.00027627,-0.00022471,-0.00006670,0.00030256,0.00
 000149,-0.00003607,0.00002363,0.00022676,-0.00000195,-0.00018257,-0.00
 004146,0.00005409,-0.00011650,-0.00010741,-0.00018297,-0.00004013,0.00
 027316,0.00023063,0.00018726,-0.00001166,0.00001972,0.00002954,0.00010
 021,-0.00010843,0.00019513,0.00010857,0.00007656,0.00006504\\\@


 We find comfort among those who agree with us -- growth among those who don't.
 -- Frank A. Clark
 Job cpu time:       0 days  0 hours  7 minutes 35.0 seconds.
 File lengths (MBytes):  RWF=     49 Int=      0 D2E=      0 Chk=      3 Scr=      1
 Normal termination of Gaussian 09 at Fri Aug 20 15:54:21 2021.
