 Entering Gaussian System, Link 0=g09
 Input=G4.ARIFUD.gjf
 Output=G4.ARIFUD.log
 Initial command:
 /public/home/users/caep010/software/Gaussian09/g09/l1.exe "/public/home/users/caep010/.cache/gau_scr/Gau-80582.inp" -scrdir="/public/home/users/caep010/.cache/gau_scr/"
 Entering Link 1 = /public/home/users/caep010/software/Gaussian09/g09/l1.exe PID=     80583.
  
 Copyright (c) 1988,1990,1992,1993,1995,1998,2003,2009,2015,
            Gaussian, Inc.  All Rights Reserved.
  
 This is part of the Gaussian(R) 09 program.  It is based on
 the Gaussian(R) 03 system (copyright 2003, Gaussian, Inc.),
 the Gaussian(R) 98 system (copyright 1998, Gaussian, Inc.),
 the Gaussian(R) 94 system (copyright 1995, Gaussian, Inc.),
 the Gaussian 92(TM) system (copyright 1992, Gaussian, Inc.),
 the Gaussian 90(TM) system (copyright 1990, Gaussian, Inc.),
 the Gaussian 88(TM) system (copyright 1988, Gaussian, Inc.),
 the Gaussian 86(TM) system (copyright 1986, Carnegie Mellon
 University), and the Gaussian 82(TM) system (copyright 1983,
 Carnegie Mellon University). Gaussian is a federally registered
 trademark of Gaussian, Inc.
  
 This software contains proprietary and confidential information,
 including trade secrets, belonging to Gaussian, Inc.
  
 This software is provided under written license and may be
 used, copied, transmitted, or stored only in accord with that
 written license.
  
 The following legend is applicable only to US Government
 contracts under FAR:
  
                    RESTRICTED RIGHTS LEGEND
  
 Use, reproduction and disclosure by the US Government is
 subject to restrictions as set forth in subparagraphs (a)
 and (c) of the Commercial Computer Software - Restricted
 Rights clause in FAR 52.227-19.
  
 Gaussian, Inc.
 340 Quinnipiac St., Bldg. 40, Wallingford CT 06492
  
  
 ---------------------------------------------------------------
 Warning -- This program may not be used in any manner that
 competes with the business of Gaussian, Inc. or will provide
 assistance to any competitor of Gaussian, Inc.  The licensee
 of this program is prohibited from giving any competitor of
 Gaussian, Inc. access to this program.  By using this program,
 the user acknowledges that Gaussian, Inc. is engaged in the
 business of creating and licensing software in the field of
 computational chemistry and represents and warrants to the
 licensee that it is not a competitor of Gaussian, Inc. and that
 it will not use this program in any manner prohibited above.
 ---------------------------------------------------------------
  

 Cite this work as:
 Gaussian 09, Revision E.01,
 M. J. Frisch, G. W. Trucks, H. B. Schlegel, G. E. Scuseria, 
 M. A. Robb, J. R. Cheeseman, G. Scalmani, V. Barone, B. Mennucci, 
 G. A. Petersson, H. Nakatsuji, M. Caricato, X. Li, H. P. Hratchian, 
 A. F. Izmaylov, J. Bloino, G. Zheng, J. L. Sonnenberg, M. Hada, 
 M. Ehara, K. Toyota, R. Fukuda, J. Hasegawa, M. Ishida, T. Nakajima, 
 Y. Honda, O. Kitao, H. Nakai, T. Vreven, J. A. Montgomery, Jr., 
 J. E. Peralta, F. Ogliaro, M. Bearpark, J. J. Heyd, E. Brothers, 
 K. N. Kudin, V. N. Staroverov, T. Keith, R. Kobayashi, J. Normand, 
 K. Raghavachari, A. Rendell, J. C. Burant, S. S. Iyengar, J. Tomasi, 
 M. Cossi, N. Rega, J. M. Millam, M. Klene, J. E. Knox, J. B. Cross, 
 V. Bakken, C. Adamo, J. Jaramillo, R. Gomperts, R. E. Stratmann, 
 O. Yazyev, A. J. Austin, R. Cammi, C. Pomelli, J. W. Ochterski, 
 R. L. Martin, K. Morokuma, V. G. Zakrzewski, G. A. Voth, 
 P. Salvador, J. J. Dannenberg, S. Dapprich, A. D. Daniels, 
 O. Farkas, J. B. Foresman, J. V. Ortiz, J. Cioslowski, 
 and D. J. Fox, Gaussian, Inc., Wallingford CT, 2013.
 
 ******************************************
 Gaussian 09:  ES64L-G09RevE.01 30-Nov-2015
                25-Aug-2021 
 ******************************************
 %nproc=32
 Will use up to   32 processors via shared memory.
 %mem=180GB
 ----------------
 #P G4 OPT=calcfc
 ----------------
 1/10=4,14=-1,18=20,19=15,26=3,38=1/1,3;
 2/9=110,12=2,17=6,18=5,40=1/2;
 3/5=35,7=104,11=2,16=1,25=1,30=1,71=2,74=-5,140=1/1,2,3;
 4//1;
 5/5=2,38=5/2;
 8/6=4,10=90,11=11/1;
 11/6=1,8=1,9=11,15=111,16=1/1,2,10;
 10/6=1,13=1/2;
 6/7=2,8=2,9=2,10=2,28=1/1;
 7/10=1,18=20,25=1/1,2,3,16;
 1/10=4,14=-1,18=20,19=15,26=3/3(2);
 2/9=110/2;
 99//99;
 2/9=110/2;
 3/5=35,7=104,11=2,16=1,25=1,30=1,71=1,74=-5/1,2,3;
 4/5=5,16=3,69=1/1;
 5/5=2,38=5/2;
 7//1,2,3,16;
 1/14=-1,18=20,19=15,26=3/3(-5);
 2/9=110/2;
 6/7=2,8=2,9=2,10=2,19=2,28=1/1;
 99/9=1/99;
 Leave Link    1 at Wed Aug 25 13:38:43 2021, MaxMem= 24159191040 cpu:         3.2
 (Enter /public/home/users/caep010/software/Gaussian09/g09/l101.exe)
 ------
 ARIFUD
 ------
 Symbolic Z-matrix:
 Charge =  0 Multiplicity = 1
 N                     3.0331    9.1659    9.409 
 C                     2.6797    10.4922   9.5718 
 N                     3.1273    11.5657   8.7665 
 O                     3.9032    11.3482   7.8462 
 O                     2.6893    12.681    9.0286 
 C                     3.9047    8.5444    8.3928 
 H                     3.6964    7.5982    8.3346 
 C                     5.3771    8.7056    8.6975 
 C                     5.8681    7.9217    9.8773 
 O                     5.7179    6.5371    9.6102 
 H                     6.8023    8.1263    10.0426 
 H                     5.8232    6.1084    10.3945 
 H                     5.3594    8.1625    10.6677 
 C                     2.3514    8.4992    10.3799 
 N                     1.6152    9.3178    11.1203 
 C                     2.3919    7.0311    10.5638 
 H                     2.0591    6.5996    9.773 
 H                     1.8456    6.7868    11.3145 
 C                     1.811     10.5507   10.6136 
 H                     1.4091    11.3266   10.929 
 H                     3.2966    6.7532    10.7231 
 H                     5.8843    8.4365    7.9161 
 H                     5.5582    9.6447    8.8536 
 H                     3.7155    8.9422    7.5286 
 
 NAtoms=     24 NQM=       24 NQMF=       0 NMMI=      0 NMMIF=      0
                NMic=       0 NMicF=      0.
                    Isotopes and Nuclear Properties:
 (Nuclear quadrupole moments (NQMom) in fm**2, nuclear magnetic moments (NMagM)
  in nuclear magnetons)

  Atom         1           2           3           4           5           6           7           8           9          10
 IAtWgt=          14          12          14          16          16          12           1          12          12          16
 AtmWgt=  14.0030740  12.0000000  14.0030740  15.9949146  15.9949146  12.0000000   1.0078250  12.0000000  12.0000000  15.9949146
 NucSpn=           2           0           2           0           0           0           1           0           0           0
 AtZEff=   0.0000000   0.0000000   0.0000000   0.0000000   0.0000000   0.0000000   0.0000000   0.0000000   0.0000000   0.0000000
 NQMom=    2.0440000   0.0000000   2.0440000   0.0000000   0.0000000   0.0000000   0.0000000   0.0000000   0.0000000   0.0000000
 NMagM=    0.4037610   0.0000000   0.4037610   0.0000000   0.0000000   0.0000000   2.7928460   0.0000000   0.0000000   0.0000000
 AtZNuc=   7.0000000   6.0000000   7.0000000   8.0000000   8.0000000   6.0000000   1.0000000   6.0000000   6.0000000   8.0000000

  Atom        11          12          13          14          15          16          17          18          19          20
 IAtWgt=           1           1           1          12          14          12           1           1          12           1
 AtmWgt=   1.0078250   1.0078250   1.0078250  12.0000000  14.0030740  12.0000000   1.0078250   1.0078250  12.0000000   1.0078250
 NucSpn=           1           1           1           0           2           0           1           1           0           1
 AtZEff=   0.0000000   0.0000000   0.0000000   0.0000000   0.0000000   0.0000000   0.0000000   0.0000000   0.0000000   0.0000000
 NQMom=    0.0000000   0.0000000   0.0000000   0.0000000   2.0440000   0.0000000   0.0000000   0.0000000   0.0000000   0.0000000
 NMagM=    2.7928460   2.7928460   2.7928460   0.0000000   0.4037610   0.0000000   2.7928460   2.7928460   0.0000000   2.7928460
 AtZNuc=   1.0000000   1.0000000   1.0000000   6.0000000   7.0000000   6.0000000   1.0000000   1.0000000   6.0000000   1.0000000

  Atom        21          22          23          24
 IAtWgt=           1           1           1           1
 AtmWgt=   1.0078250   1.0078250   1.0078250   1.0078250
 NucSpn=           1           1           1           1
 AtZEff=   0.0000000   0.0000000   0.0000000   0.0000000
 NQMom=    0.0000000   0.0000000   0.0000000   0.0000000
 NMagM=    2.7928460   2.7928460   2.7928460   2.7928460
 AtZNuc=   1.0000000   1.0000000   1.0000000   1.0000000
 Leave Link  101 at Wed Aug 25 13:38:44 2021, MaxMem= 24159191040 cpu:        10.7
 (Enter /public/home/users/caep010/software/Gaussian09/g09/l103.exe)

 GradGradGradGradGradGradGradGradGradGradGradGradGradGradGradGradGradGrad
 Berny optimization.
 Initialization pass.
                           ----------------------------
                           !    Initial Parameters    !
                           ! (Angstroms and Degrees)  !
 --------------------------                            --------------------------
 ! Name  Definition              Value          Derivative Info.                !
 --------------------------------------------------------------------------------
 ! R1    R(1,2)                  1.3822         calculate D2E/DX2 analytically  !
 ! R2    R(1,6)                  1.476          calculate D2E/DX2 analytically  !
 ! R3    R(1,14)                 1.3608         calculate D2E/DX2 analytically  !
 ! R4    R(2,3)                  1.4147         calculate D2E/DX2 analytically  !
 ! R5    R(2,19)                 1.3577         calculate D2E/DX2 analytically  !
 ! R6    R(3,4)                  1.2232         calculate D2E/DX2 analytically  !
 ! R7    R(3,5)                  1.2266         calculate D2E/DX2 analytically  !
 ! R8    R(6,7)                  0.9706         calculate D2E/DX2 analytically  !
 ! R9    R(6,8)                  1.5122         calculate D2E/DX2 analytically  !
 ! R10   R(6,24)                 0.97           calculate D2E/DX2 analytically  !
 ! R11   R(8,9)                  1.4992         calculate D2E/DX2 analytically  !
 ! R12   R(8,22)                 0.9697         calculate D2E/DX2 analytically  !
 ! R13   R(8,23)                 0.9691         calculate D2E/DX2 analytically  !
 ! R14   R(9,10)                 1.4181         calculate D2E/DX2 analytically  !
 ! R15   R(9,11)                 0.9705         calculate D2E/DX2 analytically  !
 ! R16   R(9,13)                 0.9703         calculate D2E/DX2 analytically  !
 ! R17   R(10,12)                0.9            calculate D2E/DX2 analytically  !
 ! R18   R(14,15)                1.3268         calculate D2E/DX2 analytically  !
 ! R19   R(14,16)                1.4801         calculate D2E/DX2 analytically  !
 ! R20   R(15,19)                1.3473         calculate D2E/DX2 analytically  !
 ! R21   R(16,17)                0.9604         calculate D2E/DX2 analytically  !
 ! R22   R(16,18)                0.96           calculate D2E/DX2 analytically  !
 ! R23   R(16,21)                0.9597         calculate D2E/DX2 analytically  !
 ! R24   R(19,20)                0.929          calculate D2E/DX2 analytically  !
 ! A1    A(2,1,6)              129.5025         calculate D2E/DX2 analytically  !
 ! A2    A(2,1,14)             104.9511         calculate D2E/DX2 analytically  !
 ! A3    A(6,1,14)             125.5016         calculate D2E/DX2 analytically  !
 ! A4    A(1,2,3)              125.4651         calculate D2E/DX2 analytically  !
 ! A5    A(1,2,19)             107.1762         calculate D2E/DX2 analytically  !
 ! A6    A(3,2,19)             127.3399         calculate D2E/DX2 analytically  !
 ! A7    A(2,3,4)              119.6071         calculate D2E/DX2 analytically  !
 ! A8    A(2,3,5)              117.0895         calculate D2E/DX2 analytically  !
 ! A9    A(4,3,5)              123.2957         calculate D2E/DX2 analytically  !
 ! A10   A(1,6,7)              108.9677         calculate D2E/DX2 analytically  !
 ! A11   A(1,6,8)              113.0388         calculate D2E/DX2 analytically  !
 ! A12   A(1,6,24)             108.9974         calculate D2E/DX2 analytically  !
 ! A13   A(7,6,8)              108.9631         calculate D2E/DX2 analytically  !
 ! A14   A(7,6,24)             107.7288         calculate D2E/DX2 analytically  !
 ! A15   A(8,6,24)             109.0091         calculate D2E/DX2 analytically  !
 ! A16   A(6,8,9)              114.9433         calculate D2E/DX2 analytically  !
 ! A17   A(6,8,22)             108.5022         calculate D2E/DX2 analytically  !
 ! A18   A(6,8,23)             108.5253         calculate D2E/DX2 analytically  !
 ! A19   A(9,8,22)             108.527          calculate D2E/DX2 analytically  !
 ! A20   A(9,8,23)             108.5873         calculate D2E/DX2 analytically  !
 ! A21   A(22,8,23)            107.5174         calculate D2E/DX2 analytically  !
 ! A22   A(8,9,10)             109.1244         calculate D2E/DX2 analytically  !
 ! A23   A(8,9,11)             109.8197         calculate D2E/DX2 analytically  !
 ! A24   A(8,9,13)             109.8516         calculate D2E/DX2 analytically  !
 ! A25   A(10,9,11)            109.8687         calculate D2E/DX2 analytically  !
 ! A26   A(10,9,13)            109.8894         calculate D2E/DX2 analytically  !
 ! A27   A(11,9,13)            108.2756         calculate D2E/DX2 analytically  !
 ! A28   A(9,10,12)            106.7712         calculate D2E/DX2 analytically  !
 ! A29   A(1,14,15)            111.9525         calculate D2E/DX2 analytically  !
 ! A30   A(1,14,16)            124.1166         calculate D2E/DX2 analytically  !
 ! A31   A(15,14,16)           123.9056         calculate D2E/DX2 analytically  !
 ! A32   A(14,15,19)           105.9081         calculate D2E/DX2 analytically  !
 ! A33   A(14,16,17)           109.5035         calculate D2E/DX2 analytically  !
 ! A34   A(14,16,18)           109.5108         calculate D2E/DX2 analytically  !
 ! A35   A(14,16,21)           109.4888         calculate D2E/DX2 analytically  !
 ! A36   A(17,16,18)           109.4118         calculate D2E/DX2 analytically  !
 ! A37   A(17,16,21)           109.4654         calculate D2E/DX2 analytically  !
 ! A38   A(18,16,21)           109.447          calculate D2E/DX2 analytically  !
 ! A39   A(2,19,15)            110.0073         calculate D2E/DX2 analytically  !
 ! A40   A(2,19,20)            124.9804         calculate D2E/DX2 analytically  !
 ! A41   A(15,19,20)           125.0121         calculate D2E/DX2 analytically  !
 ! D1    D(6,1,2,3)             -1.1727         calculate D2E/DX2 analytically  !
 ! D2    D(6,1,2,19)           177.3415         calculate D2E/DX2 analytically  !
 ! D3    D(14,1,2,3)          -178.8045         calculate D2E/DX2 analytically  !
 ! D4    D(14,1,2,19)           -0.2903         calculate D2E/DX2 analytically  !
 ! D5    D(2,1,6,7)           -158.9197         calculate D2E/DX2 analytically  !
 ! D6    D(2,1,6,8)             79.7772         calculate D2E/DX2 analytically  !
 ! D7    D(2,1,6,24)           -41.6054         calculate D2E/DX2 analytically  !
 ! D8    D(14,1,6,7)            18.2695         calculate D2E/DX2 analytically  !
 ! D9    D(14,1,6,8)          -103.0336         calculate D2E/DX2 analytically  !
 ! D10   D(14,1,6,24)          135.5838         calculate D2E/DX2 analytically  !
 ! D11   D(2,1,14,15)           -0.1533         calculate D2E/DX2 analytically  !
 ! D12   D(2,1,14,16)          178.0789         calculate D2E/DX2 analytically  !
 ! D13   D(6,1,14,15)         -177.9088         calculate D2E/DX2 analytically  !
 ! D14   D(6,1,14,16)            0.3235         calculate D2E/DX2 analytically  !
 ! D15   D(1,2,3,4)             -0.771          calculate D2E/DX2 analytically  !
 ! D16   D(1,2,3,5)            178.2471         calculate D2E/DX2 analytically  !
 ! D17   D(19,2,3,4)          -178.9854         calculate D2E/DX2 analytically  !
 ! D18   D(19,2,3,5)             0.0327         calculate D2E/DX2 analytically  !
 ! D19   D(1,2,19,15)            0.6332         calculate D2E/DX2 analytically  !
 ! D20   D(1,2,19,20)         -179.2153         calculate D2E/DX2 analytically  !
 ! D21   D(3,2,19,15)          179.1111         calculate D2E/DX2 analytically  !
 ! D22   D(3,2,19,20)           -0.7374         calculate D2E/DX2 analytically  !
 ! D23   D(1,6,8,9)             69.4219         calculate D2E/DX2 analytically  !
 ! D24   D(1,6,8,22)          -168.8978         calculate D2E/DX2 analytically  !
 ! D25   D(1,6,8,23)           -52.3541         calculate D2E/DX2 analytically  !
 ! D26   D(7,6,8,9)            -51.8838         calculate D2E/DX2 analytically  !
 ! D27   D(7,6,8,22)            69.7966         calculate D2E/DX2 analytically  !
 ! D28   D(7,6,8,23)          -173.6598         calculate D2E/DX2 analytically  !
 ! D29   D(24,6,8,9)          -169.2021         calculate D2E/DX2 analytically  !
 ! D30   D(24,6,8,22)          -47.5218         calculate D2E/DX2 analytically  !
 ! D31   D(24,6,8,23)           69.0219         calculate D2E/DX2 analytically  !
 ! D32   D(6,8,9,10)            63.4197         calculate D2E/DX2 analytically  !
 ! D33   D(6,8,9,11)          -176.0932         calculate D2E/DX2 analytically  !
 ! D34   D(6,8,9,13)           -57.1124         calculate D2E/DX2 analytically  !
 ! D35   D(22,8,9,10)          -58.2472         calculate D2E/DX2 analytically  !
 ! D36   D(22,8,9,11)           62.2399         calculate D2E/DX2 analytically  !
 ! D37   D(22,8,9,13)         -178.7793         calculate D2E/DX2 analytically  !
 ! D38   D(23,8,9,10)         -174.8379         calculate D2E/DX2 analytically  !
 ! D39   D(23,8,9,11)          -54.3508         calculate D2E/DX2 analytically  !
 ! D40   D(23,8,9,13)           64.6299         calculate D2E/DX2 analytically  !
 ! D41   D(8,9,10,12)         -166.2388         calculate D2E/DX2 analytically  !
 ! D42   D(11,9,10,12)          73.3042         calculate D2E/DX2 analytically  !
 ! D43   D(13,9,10,12)         -45.7297         calculate D2E/DX2 analytically  !
 ! D44   D(1,14,15,19)           0.5341         calculate D2E/DX2 analytically  !
 ! D45   D(16,14,15,19)       -177.7025         calculate D2E/DX2 analytically  !
 ! D46   D(1,14,16,17)         -60.7744         calculate D2E/DX2 analytically  !
 ! D47   D(1,14,16,18)         179.2544         calculate D2E/DX2 analytically  !
 ! D48   D(1,14,16,21)          59.249          calculate D2E/DX2 analytically  !
 ! D49   D(15,14,16,17)        117.25           calculate D2E/DX2 analytically  !
 ! D50   D(15,14,16,18)         -2.7212         calculate D2E/DX2 analytically  !
 ! D51   D(15,14,16,21)       -122.7266         calculate D2E/DX2 analytically  !
 ! D52   D(14,15,19,2)          -0.7154         calculate D2E/DX2 analytically  !
 ! D53   D(14,15,19,20)        179.1331         calculate D2E/DX2 analytically  !
 --------------------------------------------------------------------------------
 Trust Radius=3.00D-01 FncErr=1.00D-07 GrdErr=1.00D-06
 Number of steps in this run=    128 maximum allowed number of steps=    144.
 GradGradGradGradGradGradGradGradGradGradGradGradGradGradGradGradGradGrad

 Leave Link  103 at Wed Aug 25 13:38:44 2021, MaxMem= 24159191040 cpu:         0.5
 (Enter /public/home/users/caep010/software/Gaussian09/g09/l202.exe)
                          Input orientation:                          
 ---------------------------------------------------------------------
 Center     Atomic      Atomic             Coordinates (Angstroms)
 Number     Number       Type             X           Y           Z
 ---------------------------------------------------------------------
      1          7           0        3.033100    9.165900    9.409000
      2          6           0        2.679700   10.492200    9.571800
      3          7           0        3.127300   11.565700    8.766500
      4          8           0        3.903200   11.348200    7.846200
      5          8           0        2.689300   12.681000    9.028600
      6          6           0        3.904700    8.544400    8.392800
      7          1           0        3.696400    7.598200    8.334600
      8          6           0        5.377100    8.705600    8.697500
      9          6           0        5.868100    7.921700    9.877300
     10          8           0        5.717900    6.537100    9.610200
     11          1           0        6.802300    8.126300   10.042600
     12          1           0        5.823200    6.108400   10.394500
     13          1           0        5.359400    8.162500   10.667700
     14          6           0        2.351400    8.499200   10.379900
     15          7           0        1.615200    9.317800   11.120300
     16          6           0        2.391900    7.031100   10.563800
     17          1           0        2.059100    6.599600    9.773000
     18          1           0        1.845600    6.786800   11.314500
     19          6           0        1.811000   10.550700   10.613600
     20          1           0        1.409100   11.326600   10.929000
     21          1           0        3.296600    6.753200   10.723100
     22          1           0        5.884300    8.436500    7.916100
     23          1           0        5.558200    9.644700    8.853600
     24          1           0        3.715500    8.942200    7.528600
 ---------------------------------------------------------------------
                    Distance matrix (angstroms):
                    1          2          3          4          5
     1  N    0.000000
     2  C    1.382196   0.000000
     3  N    2.486105   1.414658   0.000000
     4  O    2.821675   2.281969   1.223225   0.000000
     5  O    3.552299   2.255217   1.226554   2.155917   0.000000
     6  C    1.476012   2.585458   3.142015   2.856583   4.358084
     7  H    2.012954   3.307503   4.031311   3.787321   5.227881
     8  C    2.492478   3.351463   3.639579   3.143315   4.810166
     9  C    3.131224   4.106908   4.693037   4.441520   5.785845
    10  O    3.762874   4.987479   5.719253   5.436131   6.874459
    11  H    3.960945   4.776501   5.192642   4.858970   6.220149
    12  H    4.254900   5.456751   6.300824   6.134797   7.408514
    13  H    2.828924   3.716085   4.492060   4.497784   5.498448
    14  C    1.360827   2.175513   3.550845   4.116372   4.407680
    15  N    2.227569   2.215903   3.588854   4.480759   4.103659
    16  C    2.510393   3.611939   4.932920   5.320407   5.862308
    17  H    2.768947   3.946893   5.178440   5.446326   6.159116
    18  H    3.271269   4.178841   5.565334   6.088447   6.377990
    19  C    2.205053   1.357722   2.484884   3.559749   2.796751
    20  H    3.101032   2.037803   2.772325   3.965433   2.661735
    21  H    2.759966   3.960578   5.197798   5.455139   6.195075
    22  H    3.300018   4.151711   4.256304   3.522448   5.427841
    23  H    2.629420   3.085422   3.099533   2.579882   4.180948
    24  H    2.012863   2.765872   2.959920   2.434119   4.157128
                    6          7          8          9         10
     6  C    0.000000
     7  H    0.970603   0.000000
     8  C    1.512213   2.045185   0.000000
     9  C    2.538983   2.683441   1.499169   0.000000
    10  O    2.966313   2.615253   2.377301   1.418104   0.000000
    11  H    3.360466   3.583681   2.043545   0.970523   1.971915
    12  H    3.690737   3.314509   3.134368   1.886152   0.899999
    13  H    2.727117   2.920164   2.043761   0.970305   1.971992
    14  C    2.522568   2.608463   3.468131   3.599068   3.971851
    15  N    3.644066   3.879245   4.516264   4.645568   5.181201
    16  C    3.048259   2.644363   3.898518   3.653549   3.495092
    17  H    3.015533   2.397279   4.074440   4.033275   3.662953
    18  H    3.983137   3.600505   4.796037   4.419734   4.238124
    19  C    3.652502   4.179214   4.448921   4.890178   5.690313
    20  H    4.516743   5.085629   5.253024   5.708073   6.576040
    21  H    3.001413   2.564917   3.499057   2.948454   2.673563
    22  H    2.039044   2.380083   0.969666   2.027705   2.550565
    23  H    2.038887   2.814929   0.969058   2.027986   3.202362
    24  H    0.969991   1.567270   2.045292   3.345370   3.758613
                   11         12         13         14         15
    11  H    0.000000
    12  H    2.270328   0.000000
    13  H    1.572902   2.123458   0.000000
    14  C    4.479212   4.215392   3.040437   0.000000
    15  N    5.430204   5.341750   3.944439   1.326759   0.000000
    16  C    4.574138   3.557226   3.177565   1.480127   2.478296
    17  H    4.990135   3.846555   3.759671   2.015502   3.066085
    18  H    5.289694   4.138590   3.828536   2.015347   2.548874
    19  C    5.578246   5.989974   4.277566   2.134315   1.347266
    20  H    6.333580   6.855624   5.068005   3.030451   2.028386
    21  H    3.826018   2.628203   2.498868   2.014871   3.092256
    22  H    2.336868   3.400919   2.814587   4.307624   5.410065
    23  H    2.295004   3.866525   2.351042   3.731666   4.559829
    24  H    4.063770   4.548209   3.628262   3.191697   4.177636
                   16         17         18         19         20
    16  C    0.000000
    17  H    0.960371   0.000000
    18  H    0.960040   1.567434   0.000000
    19  C    3.567563   4.047141   3.828760   0.000000
    20  H    4.421605   4.909518   4.577000   0.928990   0.000000
    21  H    0.959733   1.567702   1.567254   4.079216   4.951872
    22  H    4.602426   4.631893   5.530075   5.323356   6.120266
    23  H    4.447600   4.728809   5.292166   4.237917   4.934684
    24  H    3.823174   3.642632   4.740814   3.966310   4.750533
                   21         22         23         24
    21  H    0.000000
    22  H    4.172402   0.000000
    23  H    4.119543   1.563648   0.000000
    24  H    3.895129   2.260438   2.375852   0.000000
 Stoichiometry    C7H11N3O3
 Framework group  C1[X(C7H11N3O3)]
 Deg. of freedom    66
 Full point group                 C1      NOp   1
 Largest Abelian subgroup         C1      NOp   1
 Largest concise Abelian subgroup C1      NOp   1
                         Standard orientation:                         
 ---------------------------------------------------------------------
 Center     Atomic      Atomic             Coordinates (Angstroms)
 Number     Number       Type             X           Y           Z
 ---------------------------------------------------------------------
      1          7           0       -0.093463    0.352509    0.369682
      2          6           0       -1.408490    0.285064   -0.050581
      3          7           0       -2.231688   -0.863812    0.010132
      4          8           0       -1.777593   -1.909945    0.452495
      5          8           0       -3.389460   -0.742422   -0.376213
      6          6           0        0.750898   -0.691231    0.983093
      7          1           0        1.482836   -0.266102    1.458070
      8          6           0        1.319006   -1.662379   -0.027310
      9          6           0        2.358325   -1.087258   -0.941947
     10          8           0        3.481826   -0.686686   -0.174934
     11          1           0        2.625688   -1.752662   -1.595911
     12          1           0        3.989372   -0.169250   -0.708463
     13          1           0        1.993409   -0.323652   -1.416537
     14          6           0        0.280421    1.641968    0.147518
     15          7           0       -0.703794    2.360352   -0.377395
     16          6           0        1.612085    2.190727    0.488564
     17          1           0        1.757177    2.115316    1.434911
     18          1           0        1.653292    3.114957    0.232092
     19          6           0       -1.752644    1.522414   -0.490959
     20          1           0       -2.589118    1.757041   -0.820021
     21          1           0        2.290501    1.698765    0.020789
     22          1           0        1.709104   -2.410519    0.450562
     23          1           0        0.590920   -2.007755   -0.565528
     24          1           0        0.223647   -1.182894    1.632059
 ---------------------------------------------------------------------
 Rotational constants (GHZ):      1.1944171      0.6374369      0.4540540
 Leave Link  202 at Wed Aug 25 13:38:44 2021, MaxMem= 24159191040 cpu:         0.5
 (Enter /public/home/users/caep010/software/Gaussian09/g09/l301.exe)
 Standard basis: GTBas3 (6D, 7F)
 Ernie: Thresh=  0.10000D-02 Tol=  0.10000D-05 Strict=F.
 There are   458 symmetry adapted cartesian basis functions of A   symmetry.
 There are   419 symmetry adapted basis functions of A   symmetry.
   419 basis functions,   649 primitive gaussians,   458 cartesian basis functions
    49 alpha electrons       49 beta electrons
       nuclear repulsion energy       855.3553638199 Hartrees.
 IExCor=  402 DFT=T Ex+Corr=B3LYP ExCW=0 ScaHFX=  0.200000
 ScaDFX=  0.800000  0.720000  1.000000  0.810000 ScalE2=  1.000000  1.000000
 IRadAn=      0 IRanWt=     -1 IRanGd=            0 ICorTp=0 IEmpDi=  4
 NAtoms=   24 NActive=   24 NUniq=   24 SFac= 1.00D+00 NAtFMM=   60 NAOKFM=F Big=F
 Integral buffers will be    131072 words long.
 Raffenetti 2 integral format.
 Two-electron integral symmetry is turned on.
 Leave Link  301 at Wed Aug 25 13:38:44 2021, MaxMem= 24159191040 cpu:         2.5
 (Enter /public/home/users/caep010/software/Gaussian09/g09/l302.exe)
 NPDir=0 NMtPBC=     1 NCelOv=     1 NCel=       1 NClECP=     1 NCelD=      1
         NCelK=      1 NCelE2=     1 NClLst=     1 CellRange=     0.0.
 One-electron integrals computed using PRISM.
 NBasis=   419 RedAO= T EigKep=  1.43D-04  NBF=   419
 NBsUse=   419 1.00D-06 EigRej= -1.00D+00 NBFU=   419
 Precomputing XC quadrature grid using
 IXCGrd= 4 IRadAn=           0 IRanWt=          -1 IRanGd=           0 AccXCQ= 0.00D+00.
 Generated NRdTot=       0 NPtTot=           0 NUsed=           0 NTot=          32
 NSgBfM=   458   458   458   458   458 MxSgAt=    24 MxSgA2=    24.
 Leave Link  302 at Wed Aug 25 13:38:45 2021, MaxMem= 24159191040 cpu:        24.1
 (Enter /public/home/users/caep010/software/Gaussian09/g09/l303.exe)
 DipDrv:  MaxL=1.
 Leave Link  303 at Wed Aug 25 13:38:45 2021, MaxMem= 24159191040 cpu:         1.2
 (Enter /public/home/users/caep010/software/Gaussian09/g09/l401.exe)
 ExpMin= 1.61D-01 ExpMax= 5.48D+03 ExpMxC= 8.25D+02 IAcc=1 IRadAn=         1 AccDes= 0.00D+00
 Harris functional with IExCor=  402 and IRadAn=       1 diagonalized for initial guess.
 HarFok:  IExCor=  402 AccDes= 0.00D+00 IRadAn=         1 IDoV= 1 UseB2=F ITyADJ=14
 ICtDFT=  3500011 ScaDFX=  1.000000  1.000000  1.000000  1.000000
 FoFCou: FMM=F IPFlag=           0 FMFlag=      100000 FMFlg1=           0
         NFxFlg=           0 DoJE=T BraDBF=F KetDBF=T FulRan=T
         wScrn=  0.000000 ICntrl=     500 IOpCl=  0 I1Cent=   200000004 NGrid=           0
         NMat0=    1 NMatS0=      1 NMatT0=    0 NMatD0=    1 NMtDS0=    0 NMtDT0=    0
 Petite list used in FoFCou.
 Harris En= -663.232252353796    
 JPrj=0 DoOrth=F DoCkMO=F.
 Leave Link  401 at Wed Aug 25 13:38:46 2021, MaxMem= 24159191040 cpu:        24.5
 (Enter /public/home/users/caep010/software/Gaussian09/g09/l502.exe)
 Closed shell SCF:
 Using DIIS extrapolation, IDIIS=  1040.
 Integral symmetry usage will be decided dynamically.
 Keep R1 ints in memory in canonical form, NReq=3920180929.
 IVT=      665824 IEndB=      665824 NGot= 24159191040 MDV= 20287361172
 LenX= 20287361172 LenY= 20287150950
 Requested convergence on RMS density matrix=1.00D-08 within 128 cycles.
 Requested convergence on MAX density matrix=1.00D-06.
 Requested convergence on             energy=1.00D-06.
 No special actions if energy rises.
 FoFCou: FMM=F IPFlag=           0 FMFlag=           0 FMFlg1=           0
         NFxFlg=           0 DoJE=F BraDBF=F KetDBF=F FulRan=T
         wScrn=  0.000000 ICntrl=     600 IOpCl=  0 I1Cent=           0 NGrid=           0
         NMat0=    1 NMatS0=  87990 NMatT0=    0 NMatD0=    1 NMtDS0=    0 NMtDT0=    0
 Symmetry not used in FoFCou.
 Integral accuracy reduced to 1.0D-05 until final iterations.

 Cycle   1  Pass 0  IDiag  1:
 E= -662.611066589697    
 DIIS: error= 2.35D-02 at cycle   1 NSaved=   1.
 NSaved= 1 IEnMin= 1 EnMin= -662.611066589697     IErMin= 1 ErrMin= 2.35D-02
 ErrMax= 2.35D-02  0.00D+00 EMaxC= 1.00D-01 BMatC= 5.79D-01 BMatP= 5.79D-01
 IDIUse=3 WtCom= 7.65D-01 WtEn= 2.35D-01
 Coeff-Com:  0.100D+01
 Coeff-En:   0.100D+01
 Coeff:      0.100D+01
 Gap=     0.109 Goal=   None    Shift=    0.000
 GapD=    0.109 DampG=1.000 DampE=0.500 DampFc=0.5000 IDamp=-1.
 Damping current iteration by 5.00D-01
 RMSDP=3.87D-03 MaxDP=2.33D-01              OVMax= 3.22D-01

 Cycle   2  Pass 0  IDiag  1:
 E= -662.746262560231     Delta-E=       -0.135195970534 Rises=F Damp=T
 DIIS: error= 1.05D-02 at cycle   2 NSaved=   2.
 NSaved= 2 IEnMin= 2 EnMin= -662.746262560231     IErMin= 2 ErrMin= 1.05D-02
 ErrMax= 1.05D-02  0.00D+00 EMaxC= 1.00D-01 BMatC= 9.71D-02 BMatP= 5.79D-01
 IDIUse=3 WtCom= 8.95D-01 WtEn= 1.05D-01
 Coeff-Com:  0.224D+00 0.776D+00
 Coeff-En:   0.341D+00 0.659D+00
 Coeff:      0.236D+00 0.764D+00
 Gap=     0.209 Goal=   None    Shift=    0.000
 RMSDP=1.15D-03 MaxDP=7.74D-02 DE=-1.35D-01 OVMax= 2.46D-01

 Cycle   3  Pass 0  IDiag  1:
 E= -663.038093673222     Delta-E=       -0.291831112992 Rises=F Damp=F
 DIIS: error= 7.63D-03 at cycle   3 NSaved=   3.
 NSaved= 3 IEnMin= 3 EnMin= -663.038093673222     IErMin= 3 ErrMin= 7.63D-03
 ErrMax= 7.63D-03  0.00D+00 EMaxC= 1.00D-01 BMatC= 6.74D-02 BMatP= 9.71D-02
 IDIUse=3 WtCom= 9.24D-01 WtEn= 7.63D-02
 Coeff-Com:  0.680D-01 0.447D+00 0.485D+00
 Coeff-En:   0.000D+00 0.000D+00 0.100D+01
 Coeff:      0.628D-01 0.413D+00 0.524D+00
 Gap=     0.174 Goal=   None    Shift=    0.000
 RMSDP=7.91D-04 MaxDP=5.96D-02 DE=-2.92D-01 OVMax= 1.20D-01

 Cycle   4  Pass 0  IDiag  1:
 E= -663.078149048172     Delta-E=       -0.040055374949 Rises=F Damp=F
 DIIS: error= 5.39D-03 at cycle   4 NSaved=   4.
 NSaved= 4 IEnMin= 4 EnMin= -663.078149048172     IErMin= 4 ErrMin= 5.39D-03
 ErrMax= 5.39D-03  0.00D+00 EMaxC= 1.00D-01 BMatC= 2.26D-02 BMatP= 6.74D-02
 IDIUse=3 WtCom= 9.46D-01 WtEn= 5.39D-02
 Coeff-Com:  0.232D-01 0.176D+00 0.367D+00 0.434D+00
 Coeff-En:   0.000D+00 0.000D+00 0.272D+00 0.728D+00
 Coeff:      0.220D-01 0.167D+00 0.362D+00 0.450D+00
 Gap=     0.176 Goal=   None    Shift=    0.000
 RMSDP=4.04D-04 MaxDP=3.68D-02 DE=-4.01D-02 OVMax= 8.55D-02

 Cycle   5  Pass 0  IDiag  1:
 E= -663.092372375385     Delta-E=       -0.014223327214 Rises=F Damp=F
 DIIS: error= 3.46D-03 at cycle   5 NSaved=   5.
 NSaved= 5 IEnMin= 5 EnMin= -663.092372375385     IErMin= 5 ErrMin= 3.46D-03
 ErrMax= 3.46D-03  0.00D+00 EMaxC= 1.00D-01 BMatC= 5.14D-03 BMatP= 2.26D-02
 IDIUse=3 WtCom= 9.65D-01 WtEn= 3.46D-02
 Coeff-Com:  0.606D-02 0.333D-01 0.176D+00 0.357D+00 0.428D+00
 Coeff-En:   0.000D+00 0.000D+00 0.000D+00 0.211D+00 0.789D+00
 Coeff:      0.585D-02 0.321D-01 0.170D+00 0.352D+00 0.440D+00
 Gap=     0.174 Goal=   None    Shift=    0.000
 RMSDP=1.65D-04 MaxDP=1.72D-02 DE=-1.42D-02 OVMax= 3.61D-02

 Cycle   6  Pass 0  IDiag  1:
 E= -663.096170629999     Delta-E=       -0.003798254613 Rises=F Damp=F
 DIIS: error= 6.67D-04 at cycle   6 NSaved=   6.
 NSaved= 6 IEnMin= 6 EnMin= -663.096170629999     IErMin= 6 ErrMin= 6.67D-04
 ErrMax= 6.67D-04  0.00D+00 EMaxC= 1.00D-01 BMatC= 3.04D-04 BMatP= 5.14D-03
 IDIUse=3 WtCom= 9.93D-01 WtEn= 6.67D-03
 Coeff-Com:  0.117D-02 0.168D-02 0.615D-01 0.159D+00 0.271D+00 0.505D+00
 Coeff-En:   0.000D+00 0.000D+00 0.000D+00 0.000D+00 0.311D-01 0.969D+00
 Coeff:      0.116D-02 0.167D-02 0.611D-01 0.158D+00 0.269D+00 0.509D+00
 Gap=     0.175 Goal=   None    Shift=    0.000
 RMSDP=4.35D-05 MaxDP=2.73D-03 DE=-3.80D-03 OVMax= 5.37D-03

 Cycle   7  Pass 0  IDiag  1:
 E= -663.096400477555     Delta-E=       -0.000229847556 Rises=F Damp=F
 DIIS: error= 1.29D-04 at cycle   7 NSaved=   7.
 NSaved= 7 IEnMin= 7 EnMin= -663.096400477555     IErMin= 7 ErrMin= 1.29D-04
 ErrMax= 1.29D-04  0.00D+00 EMaxC= 1.00D-01 BMatC= 2.58D-05 BMatP= 3.04D-04
 IDIUse=3 WtCom= 9.99D-01 WtEn= 1.29D-03
 Coeff-Com:  0.884D-04-0.205D-02 0.190D-01 0.573D-01 0.118D+00 0.300D+00
 Coeff-Com:  0.508D+00
 Coeff-En:   0.000D+00 0.000D+00 0.000D+00 0.000D+00 0.000D+00 0.198D-01
 Coeff-En:   0.980D+00
 Coeff:      0.883D-04-0.205D-02 0.189D-01 0.572D-01 0.118D+00 0.300D+00
 Coeff:      0.509D+00
 Gap=     0.175 Goal=   None    Shift=    0.000
 RMSDP=1.30D-05 MaxDP=8.34D-04 DE=-2.30D-04 OVMax= 2.00D-03

 Cycle   8  Pass 0  IDiag  1:
 E= -663.096420828385     Delta-E=       -0.000020350830 Rises=F Damp=F
 DIIS: error= 7.64D-05 at cycle   8 NSaved=   8.
 NSaved= 8 IEnMin= 8 EnMin= -663.096420828385     IErMin= 8 ErrMin= 7.64D-05
 ErrMax= 7.64D-05  0.00D+00 EMaxC= 1.00D-01 BMatC= 1.96D-06 BMatP= 2.58D-05
 IDIUse=1 WtCom= 1.00D+00 WtEn= 0.00D+00
 Coeff-Com: -0.611D-04-0.121D-02 0.465D-02 0.162D-01 0.403D-01 0.116D+00
 Coeff-Com:  0.277D+00 0.547D+00
 Coeff:     -0.611D-04-0.121D-02 0.465D-02 0.162D-01 0.403D-01 0.116D+00
 Coeff:      0.277D+00 0.547D+00
 Gap=     0.175 Goal=   None    Shift=    0.000
 RMSDP=4.17D-06 MaxDP=2.72D-04 DE=-2.04D-05 OVMax= 7.34D-04

 Initial convergence to 1.0D-05 achieved.  Increase integral accuracy.
 Cycle   9  Pass 1  IDiag  1:
 E= -663.096451273785     Delta-E=       -0.000030445400 Rises=F Damp=F
 DIIS: error= 1.76D-05 at cycle   1 NSaved=   1.
 NSaved= 1 IEnMin= 1 EnMin= -663.096451273785     IErMin= 1 ErrMin= 1.76D-05
 ErrMax= 1.76D-05  0.00D+00 EMaxC= 1.00D-01 BMatC= 4.60D-07 BMatP= 4.60D-07
 IDIUse=1 WtCom= 1.00D+00 WtEn= 0.00D+00
 Coeff-Com:  0.100D+01
 Coeff:      0.100D+01
 Gap=     0.175 Goal=   None    Shift=    0.000
 RMSDP=4.17D-06 MaxDP=2.72D-04 DE=-3.04D-05 OVMax= 4.02D-04

 Cycle  10  Pass 1  IDiag  1:
 E= -663.096451122247     Delta-E=        0.000000151538 Rises=F Damp=F
 DIIS: error= 2.71D-05 at cycle   2 NSaved=   2.
 NSaved= 2 IEnMin= 1 EnMin= -663.096451273785     IErMin= 1 ErrMin= 1.76D-05
 ErrMax= 2.71D-05  0.00D+00 EMaxC= 1.00D-01 BMatC= 6.28D-07 BMatP= 4.60D-07
 IDIUse=1 WtCom= 1.00D+00 WtEn= 0.00D+00
 Coeff-Com:  0.548D+00 0.452D+00
 Coeff:      0.548D+00 0.452D+00
 Gap=     0.175 Goal=   None    Shift=    0.000
 RMSDP=2.31D-06 MaxDP=1.53D-04 DE= 1.52D-07 OVMax= 3.73D-04

 Cycle  11  Pass 1  IDiag  1:
 E= -663.096451589465     Delta-E=       -0.000000467218 Rises=F Damp=F
 DIIS: error= 1.19D-05 at cycle   3 NSaved=   3.
 NSaved= 3 IEnMin= 3 EnMin= -663.096451589465     IErMin= 3 ErrMin= 1.19D-05
 ErrMax= 1.19D-05  0.00D+00 EMaxC= 1.00D-01 BMatC= 1.02D-07 BMatP= 4.60D-07
 IDIUse=1 WtCom= 1.00D+00 WtEn= 0.00D+00
 Coeff-Com:  0.806D-01 0.282D+00 0.638D+00
 Coeff:      0.806D-01 0.282D+00 0.638D+00
 Gap=     0.175 Goal=   None    Shift=    0.000
 RMSDP=1.00D-06 MaxDP=8.82D-05 DE=-4.67D-07 OVMax= 1.91D-04

 Cycle  12  Pass 1  IDiag  1:
 E= -663.096451633514     Delta-E=       -0.000000044049 Rises=F Damp=F
 DIIS: error= 8.94D-06 at cycle   4 NSaved=   4.
 NSaved= 4 IEnMin= 4 EnMin= -663.096451633514     IErMin= 4 ErrMin= 8.94D-06
 ErrMax= 8.94D-06  0.00D+00 EMaxC= 1.00D-01 BMatC= 5.62D-08 BMatP= 1.02D-07
 IDIUse=1 WtCom= 1.00D+00 WtEn= 0.00D+00
 Coeff-Com: -0.848D-02 0.164D+00 0.499D+00 0.345D+00
 Coeff:     -0.848D-02 0.164D+00 0.499D+00 0.345D+00
 Gap=     0.175 Goal=   None    Shift=    0.000
 RMSDP=5.12D-07 MaxDP=5.36D-05 DE=-4.40D-08 OVMax= 1.11D-04

 Cycle  13  Pass 1  IDiag  1:
 E= -663.096451675740     Delta-E=       -0.000000042226 Rises=F Damp=F
 DIIS: error= 1.41D-06 at cycle   5 NSaved=   5.
 NSaved= 5 IEnMin= 5 EnMin= -663.096451675740     IErMin= 5 ErrMin= 1.41D-06
 ErrMax= 1.41D-06  0.00D+00 EMaxC= 1.00D-01 BMatC= 2.01D-09 BMatP= 5.62D-08
 IDIUse=1 WtCom= 1.00D+00 WtEn= 0.00D+00
 Coeff-Com: -0.102D-01 0.913D-01 0.290D+00 0.227D+00 0.402D+00
 Coeff:     -0.102D-01 0.913D-01 0.290D+00 0.227D+00 0.402D+00
 Gap=     0.175 Goal=   None    Shift=    0.000
 RMSDP=9.83D-08 MaxDP=8.23D-06 DE=-4.22D-08 OVMax= 1.57D-05

 Cycle  14  Pass 1  IDiag  1:
 E= -663.096451677300     Delta-E=       -0.000000001560 Rises=F Damp=F
 DIIS: error= 2.01D-07 at cycle   6 NSaved=   6.
 NSaved= 6 IEnMin= 6 EnMin= -663.096451677300     IErMin= 6 ErrMin= 2.01D-07
 ErrMax= 2.01D-07  0.00D+00 EMaxC= 1.00D-01 BMatC= 7.54D-11 BMatP= 2.01D-09
 IDIUse=1 WtCom= 1.00D+00 WtEn= 0.00D+00
 Coeff-Com: -0.458D-02 0.326D-01 0.105D+00 0.862D-01 0.215D+00 0.566D+00
 Coeff:     -0.458D-02 0.326D-01 0.105D+00 0.862D-01 0.215D+00 0.566D+00
 Gap=     0.175 Goal=   None    Shift=    0.000
 RMSDP=2.16D-08 MaxDP=1.35D-06 DE=-1.56D-09 OVMax= 2.06D-06

 Cycle  15  Pass 1  IDiag  1:
 E= -663.096451677312     Delta-E=       -0.000000000012 Rises=F Damp=F
 DIIS: error= 1.07D-07 at cycle   7 NSaved=   7.
 NSaved= 7 IEnMin= 7 EnMin= -663.096451677312     IErMin= 7 ErrMin= 1.07D-07
 ErrMax= 1.07D-07  0.00D+00 EMaxC= 1.00D-01 BMatC= 7.66D-12 BMatP= 7.54D-11
 IDIUse=1 WtCom= 1.00D+00 WtEn= 0.00D+00
 Coeff-Com: -0.130D-02 0.807D-02 0.251D-01 0.219D-01 0.716D-01 0.292D+00
 Coeff-Com:  0.582D+00
 Coeff:     -0.130D-02 0.807D-02 0.251D-01 0.219D-01 0.716D-01 0.292D+00
 Coeff:      0.582D+00
 Gap=     0.175 Goal=   None    Shift=    0.000
 RMSDP=7.92D-09 MaxDP=5.02D-07 DE=-1.23D-11 OVMax= 1.22D-06

 SCF Done:  E(RB3LYP) =  -663.096451677     A.U. after   15 cycles
            NFock= 15  Conv=0.79D-08     -V/T= 2.0029
 KE= 6.611791899730D+02 PE=-3.260758050127D+03 EE= 1.081127044657D+03
 Leave Link  502 at Wed Aug 25 13:40:41 2021, MaxMem= 24159191040 cpu:       584.8
 (Enter /public/home/users/caep010/software/Gaussian09/g09/l801.exe)
 DoSCS=F DFT=T ScalE2(SS,OS)=  1.000000  1.000000
 Range of M.O.s used for correlation:     1   419
 NBasis=   419 NAE=    49 NBE=    49 NFC=     0 NFV=     0
 NROrb=    419 NOA=    49 NOB=    49 NVA=   370 NVB=   370

 **** Warning!!: The largest alpha MO coefficient is  0.64641175D+02

 Leave Link  801 at Wed Aug 25 13:40:41 2021, MaxMem= 24159191040 cpu:         0.6
 (Enter /public/home/users/caep010/software/Gaussian09/g09/l1101.exe)
 Using compressed storage, NAtomX=    24.
 Will process     25 centers per pass.
 Leave Link 1101 at Wed Aug 25 13:40:42 2021, MaxMem= 24159191040 cpu:        27.9
 (Enter /public/home/users/caep010/software/Gaussian09/g09/l1102.exe)
 Symmetrizing basis deriv contribution to polar:
 IMax=3 JMax=2 DiffMx= 0.00D+00
 Leave Link 1102 at Wed Aug 25 13:40:42 2021, MaxMem= 24159191040 cpu:         1.5
 (Enter /public/home/users/caep010/software/Gaussian09/g09/l1110.exe)
 Forming Gx(P) for the SCF density, NAtomX=    24.
 Integral derivatives from FoFJK, PRISM(SPDF).
 Do as many integral derivatives as possible in FoFJK.
 G2DrvN: MDV=   24159190744.
 G2DrvN: will do    25 centers at a time, making    1 passes.
 Calling FoFCou, ICntrl=  3107 FMM=F I1Cent=   0 AccDes= 0.00D+00.
 FoFJK:  IHMeth= 1 ICntrl=    3107 DoSepK=F KAlg= 0 I1Cent=   0 FoldK=F
 IRaf=         0 NMat=   1 IRICut=       1 DoRegI=T DoRafI=F ISym2E= 0.
 FoFCou: FMM=F IPFlag=           0 FMFlag=      100000 FMFlg1=           0
         NFxFlg=           0 DoJE=F BraDBF=F KetDBF=F FulRan=T
         wScrn=  0.000000 ICntrl=    3107 IOpCl=  0 I1Cent=           0 NGrid=           0
         NMat0=    1 NMatS0=      1 NMatT0=    0 NMatD0=    1 NMtDS0=    0 NMtDT0=    0
 Symmetry not used in FoFCou.
 End of G2Drv F.D. properties file   721 does not exist.
 End of G2Drv F.D. properties file   722 does not exist.
 End of G2Drv F.D. properties file   788 does not exist.
 Leave Link 1110 at Wed Aug 25 13:41:23 2021, MaxMem= 24159191040 cpu:      1276.6
 (Enter /public/home/users/caep010/software/Gaussian09/g09/l1002.exe)
 Minotr:  Closed shell wavefunction.
          IDoAtm=111111111111111111111111
          Direct CPHF calculation.
          Differentiating once with respect to nuclear coordinates.
          Requested convergence is 1.0D-08 RMS, and 1.0D-07 maximum.
          Secondary convergence is 1.0D-12 RMS, and 1.0D-12 maximum.
          NewPWx=T KeepS1=F KeepF1=F KeepIn=T MapXYZ=F SortEE=F KeepMc=T.
          MDV=   24159190377 using IRadAn=       2.
 Generate precomputed XC quadrature information.
 Keep R1 ints in memory in canonical form, NReq=3919523573.
 FoFCou: FMM=F IPFlag=           0 FMFlag=           0 FMFlg1=           0
         NFxFlg=           0 DoJE=F BraDBF=F KetDBF=F FulRan=T
         wScrn=  0.000000 ICntrl=     600 IOpCl=  0 I1Cent=           0 NGrid=           0
         NMat0=    1 NMatS0=  87990 NMatT0=    0 NMatD0=    1 NMtDS0=    0 NMtDT0=    0
 Symmetry not used in FoFCou.
          Solving linear equations simultaneously, MaxMat=       0.
          There are    75 degrees of freedom in the 1st order CPHF.  IDoFFX=6 NUNeed=     0.
     69 vectors produced by pass  0 Test12= 2.42D-14 1.33D-09 XBig12= 2.29D-01 2.47D-01.
 AX will form    69 AO Fock derivatives at one time.
     69 vectors produced by pass  1 Test12= 2.42D-14 1.33D-09 XBig12= 1.67D-01 2.10D-01.
     69 vectors produced by pass  2 Test12= 2.42D-14 1.33D-09 XBig12= 1.88D-03 4.83D-03.
     69 vectors produced by pass  3 Test12= 2.42D-14 1.33D-09 XBig12= 9.28D-06 3.04D-04.
     69 vectors produced by pass  4 Test12= 2.42D-14 1.33D-09 XBig12= 2.89D-08 1.57D-05.
     62 vectors produced by pass  5 Test12= 2.42D-14 1.33D-09 XBig12= 4.42D-11 6.01D-07.
     18 vectors produced by pass  6 Test12= 2.42D-14 1.33D-09 XBig12= 5.00D-14 2.53D-08.
 InvSVY:  IOpt=1 It=  1 EMax= 7.22D-16
 Solved reduced A of dimension   425 with    75 vectors.
 End of Minotr F.D. properties file   721 does not exist.
 End of Minotr F.D. properties file   722 does not exist.
 End of Minotr F.D. properties file   788 does not exist.
 Leave Link 1002 at Wed Aug 25 13:42:33 2021, MaxMem= 24159191040 cpu:      2221.1
 (Enter /public/home/users/caep010/software/Gaussian09/g09/l601.exe)
 Copying SCF densities to generalized density rwf, IOpCl= 0 IROHF=0.

 **********************************************************************

            Population analysis using the SCF density.

 **********************************************************************

 Orbital symmetries:
       Occupied  (A) (A) (A) (A) (A) (A) (A) (A) (A) (A) (A) (A)
                 (A) (A) (A) (A) (A) (A) (A) (A) (A) (A) (A) (A)
                 (A) (A) (A) (A) (A) (A) (A) (A) (A) (A) (A) (A)
                 (A) (A) (A) (A) (A) (A) (A) (A) (A) (A) (A) (A)
                 (A)
       Virtual   (A) (A) (A) (A) (A) (A) (A) (A) (A) (A) (A) (A)
                 (A) (A) (A) (A) (A) (A) (A) (A) (A) (A) (A) (A)
                 (A) (A) (A) (A) (A) (A) (A) (A) (A) (A) (A) (A)
                 (A) (A) (A) (A) (A) (A) (A) (A) (A) (A) (A) (A)
                 (A) (A) (A) (A) (A) (A) (A) (A) (A) (A) (A) (A)
                 (A) (A) (A) (A) (A) (A) (A) (A) (A) (A) (A) (A)
                 (A) (A) (A) (A) (A) (A) (A) (A) (A) (A) (A) (A)
                 (A) (A) (A) (A) (A) (A) (A) (A) (A) (A) (A) (A)
                 (A) (A) (A) (A) (A) (A) (A) (A) (A) (A) (A) (A)
                 (A) (A) (A) (A) (A) (A) (A) (A) (A) (A) (A) (A)
                 (A) (A) (A) (A) (A) (A) (A) (A) (A) (A) (A) (A)
                 (A) (A) (A) (A) (A) (A) (A) (A) (A) (A) (A) (A)
                 (A) (A) (A) (A) (A) (A) (A) (A) (A) (A) (A) (A)
                 (A) (A) (A) (A) (A) (A) (A) (A) (A) (A) (A) (A)
                 (A) (A) (A) (A) (A) (A) (A) (A) (A) (A) (A) (A)
                 (A) (A) (A) (A) (A) (A) (A) (A) (A) (A) (A) (A)
                 (A) (A) (A) (A) (A) (A) (A) (A) (A) (A) (A) (A)
                 (A) (A) (A) (A) (A) (A) (A) (A) (A) (A) (A) (A)
                 (A) (A) (A) (A) (A) (A) (A) (A) (A) (A) (A) (A)
                 (A) (A) (A) (A) (A) (A) (A) (A) (A) (A) (A) (A)
                 (A) (A) (A) (A) (A) (A) (A) (A) (A) (A) (A) (A)
                 (A) (A) (A) (A) (A) (A) (A) (A) (A) (A) (A) (A)
                 (A) (A) (A) (A) (A) (A) (A) (A) (A) (A) (A) (A)
                 (A) (A) (A) (A) (A) (A) (A) (A) (A) (A) (A) (A)
                 (A) (A) (A) (A) (A) (A) (A) (A) (A) (A) (A) (A)
                 (A) (A) (A) (A) (A) (A) (A) (A) (A) (A) (A) (A)
                 (A) (A) (A) (A) (A) (A) (A) (A) (A) (A) (A) (A)
                 (A) (A) (A) (A) (A) (A) (A) (A) (A) (A) (A) (A)
                 (A) (A) (A) (A) (A) (A) (A) (A) (A) (A) (A) (A)
                 (A) (A) (A) (A) (A) (A) (A) (A) (A) (A) (A) (A)
                 (A) (A) (A) (A) (A) (A) (A) (A) (A) (A)
 The electronic state is 1-A.
 Alpha  occ. eigenvalues --  -19.16528 -19.16081 -19.14555 -14.56508 -14.41028
 Alpha  occ. eigenvalues --  -14.32335 -10.26295 -10.25850 -10.21824 -10.21507
 Alpha  occ. eigenvalues --  -10.20694 -10.16991 -10.16812  -1.22630  -1.04957
 Alpha  occ. eigenvalues --   -1.04741  -1.04309  -0.91118  -0.83950  -0.81584
 Alpha  occ. eigenvalues --   -0.78236  -0.73550  -0.69089  -0.65051  -0.61723
 Alpha  occ. eigenvalues --   -0.58108  -0.56266  -0.54621  -0.53980  -0.51910
 Alpha  occ. eigenvalues --   -0.51345  -0.50490  -0.48123  -0.47122  -0.45663
 Alpha  occ. eigenvalues --   -0.44400  -0.43895  -0.42002  -0.41467  -0.39624
 Alpha  occ. eigenvalues --   -0.38706  -0.35058  -0.31133  -0.30437  -0.29586
 Alpha  occ. eigenvalues --   -0.28990  -0.28955  -0.27826  -0.25163
 Alpha virt. eigenvalues --   -0.07633   0.02752   0.06316   0.06911   0.11572
 Alpha virt. eigenvalues --    0.12286   0.13024   0.14139   0.15691   0.17175
 Alpha virt. eigenvalues --    0.17784   0.18218   0.18816   0.19290   0.20022
 Alpha virt. eigenvalues --    0.20431   0.21629   0.23211   0.23642   0.24032
 Alpha virt. eigenvalues --    0.25594   0.26291   0.27962   0.30166   0.35136
 Alpha virt. eigenvalues --    0.36437   0.40704   0.41761   0.42160   0.43191
 Alpha virt. eigenvalues --    0.44567   0.45819   0.46961   0.48540   0.48872
 Alpha virt. eigenvalues --    0.49580   0.51108   0.52919   0.54330   0.56789
 Alpha virt. eigenvalues --    0.57819   0.58230   0.58432   0.59357   0.60608
 Alpha virt. eigenvalues --    0.62522   0.64032   0.66062   0.66858   0.68136
 Alpha virt. eigenvalues --    0.70357   0.70990   0.71720   0.72578   0.73196
 Alpha virt. eigenvalues --    0.74221   0.75918   0.76857   0.77636   0.77984
 Alpha virt. eigenvalues --    0.79011   0.79952   0.80157   0.81145   0.82629
 Alpha virt. eigenvalues --    0.82718   0.84644   0.86339   0.87295   0.87489
 Alpha virt. eigenvalues --    0.89672   0.90323   0.90955   0.91676   0.93197
 Alpha virt. eigenvalues --    0.93896   0.94828   0.96162   0.96422   0.97130
 Alpha virt. eigenvalues --    0.97967   0.99318   1.00955   1.02056   1.03260
 Alpha virt. eigenvalues --    1.05173   1.05563   1.06808   1.08442   1.09876
 Alpha virt. eigenvalues --    1.12421   1.13360   1.14328   1.16861   1.18921
 Alpha virt. eigenvalues --    1.20409   1.22734   1.23869   1.26273   1.26387
 Alpha virt. eigenvalues --    1.28854   1.31169   1.31932   1.32700   1.35087
 Alpha virt. eigenvalues --    1.36804   1.37356   1.39983   1.40189   1.42924
 Alpha virt. eigenvalues --    1.43317   1.44546   1.45414   1.47594   1.48314
 Alpha virt. eigenvalues --    1.50549   1.51610   1.51968   1.54313   1.56732
 Alpha virt. eigenvalues --    1.57230   1.58734   1.60603   1.62523   1.63904
 Alpha virt. eigenvalues --    1.64784   1.67892   1.68853   1.69509   1.70434
 Alpha virt. eigenvalues --    1.73070   1.76689   1.77316   1.80231   1.82367
 Alpha virt. eigenvalues --    1.84940   1.87562   1.89100   1.91014   1.93357
 Alpha virt. eigenvalues --    1.96927   1.98457   2.01179   2.03288   2.05066
 Alpha virt. eigenvalues --    2.06599   2.10375   2.11186   2.18279   2.19264
 Alpha virt. eigenvalues --    2.23661   2.25206   2.26212   2.27092   2.32843
 Alpha virt. eigenvalues --    2.34326   2.37825   2.40396   2.42799   2.45210
 Alpha virt. eigenvalues --    2.49174   2.49967   2.52022   2.52867   2.55035
 Alpha virt. eigenvalues --    2.56510   2.59925   2.64706   2.65481   2.67005
 Alpha virt. eigenvalues --    2.70815   2.73219   2.75663   2.81802   2.83265
 Alpha virt. eigenvalues --    2.85968   2.89511   2.90872   2.94651   2.97288
 Alpha virt. eigenvalues --    2.99927   3.01597   3.01882   3.03328   3.03565
 Alpha virt. eigenvalues --    3.06196   3.06621   3.08626   3.09996   3.10606
 Alpha virt. eigenvalues --    3.12188   3.13641   3.14749   3.16173   3.18087
 Alpha virt. eigenvalues --    3.20352   3.22789   3.27618   3.28587   3.30384
 Alpha virt. eigenvalues --    3.31264   3.33624   3.36030   3.39632   3.41035
 Alpha virt. eigenvalues --    3.43166   3.44270   3.45836   3.47159   3.48856
 Alpha virt. eigenvalues --    3.50052   3.51866   3.53743   3.56389   3.58777
 Alpha virt. eigenvalues --    3.60615   3.61708   3.63313   3.64677   3.67169
 Alpha virt. eigenvalues --    3.68123   3.68878   3.69783   3.71596   3.72751
 Alpha virt. eigenvalues --    3.76282   3.77698   3.78230   3.81966   3.85047
 Alpha virt. eigenvalues --    3.86208   3.88118   3.88651   3.90941   3.91528
 Alpha virt. eigenvalues --    3.94971   3.98387   3.99885   4.01866   4.03042
 Alpha virt. eigenvalues --    4.03789   4.04953   4.07931   4.09176   4.09826
 Alpha virt. eigenvalues --    4.11808   4.12852   4.14399   4.16815   4.17590
 Alpha virt. eigenvalues --    4.19279   4.21605   4.23924   4.24731   4.26293
 Alpha virt. eigenvalues --    4.27908   4.29548   4.30869   4.33063   4.34310
 Alpha virt. eigenvalues --    4.35727   4.36821   4.39168   4.42168   4.42886
 Alpha virt. eigenvalues --    4.43636   4.44937   4.46742   4.47215   4.49603
 Alpha virt. eigenvalues --    4.50260   4.50780   4.51764   4.53619   4.54209
 Alpha virt. eigenvalues --    4.54929   4.56226   4.57470   4.59623   4.59993
 Alpha virt. eigenvalues --    4.61070   4.62754   4.65066   4.65810   4.66076
 Alpha virt. eigenvalues --    4.69295   4.71695   4.72375   4.74102   4.76879
 Alpha virt. eigenvalues --    4.77741   4.81014   4.82670   4.84743   4.87773
 Alpha virt. eigenvalues --    4.92185   4.95402   4.97115   4.97742   5.00037
 Alpha virt. eigenvalues --    5.00665   5.03095   5.03935   5.05162   5.06530
 Alpha virt. eigenvalues --    5.09311   5.10297   5.11660   5.13111   5.15028
 Alpha virt. eigenvalues --    5.15954   5.18808   5.21902   5.23785   5.25676
 Alpha virt. eigenvalues --    5.28570   5.30062   5.30455   5.34184   5.35855
 Alpha virt. eigenvalues --    5.39891   5.42002   5.45261   5.48047   5.50488
 Alpha virt. eigenvalues --    5.50961   5.52466   5.56439   5.56685   5.62460
 Alpha virt. eigenvalues --    5.65792   5.67026   5.73690   5.80738   5.86734
 Alpha virt. eigenvalues --    5.92775   5.93225   5.95534   5.99989   6.01469
 Alpha virt. eigenvalues --    6.04061   6.06880   6.12173   6.19338   6.26701
 Alpha virt. eigenvalues --    6.38345   6.41825   6.64516   6.80301   6.93515
 Alpha virt. eigenvalues --    6.98987   7.11970   7.14365   7.53090  10.51490
 Alpha virt. eigenvalues --   10.91823  11.23799  11.26326  11.32659  11.40202
 Alpha virt. eigenvalues --   11.50112  12.01061  12.10663  12.59755  13.01469
 Alpha virt. eigenvalues --   13.17889  13.30810  17.93567  20.95632  27.01158
          Condensed to atoms (all electrons):
               1          2          3          4          5          6
     1  N    6.085238   0.379034  -0.012407  -0.011455   0.000820   0.390283
     2  C    0.379034   4.848237   0.348778  -0.097251  -0.122935  -0.041064
     3  N   -0.012407   0.348778   5.323245   0.503524   0.545289  -0.002607
     4  O   -0.011455  -0.097251   0.503524   8.047605  -0.082408  -0.002107
     5  O    0.000820  -0.122935   0.545289  -0.082408   8.009345   0.000172
     6  C    0.390283  -0.041064  -0.002607  -0.002107   0.000172   4.770248
     7  H   -0.020042   0.006109   0.000172   0.000683   0.000003   0.361304
     8  C   -0.036939   0.000653  -0.000225  -0.003972  -0.000012   0.407447
     9  C   -0.003837   0.000112  -0.000047   0.000248   0.000000  -0.019012
    10  O    0.000067   0.000000  -0.000000  -0.000000  -0.000000  -0.002419
    11  H    0.000131  -0.000029   0.000000  -0.000000  -0.000000   0.006357
    12  H   -0.000052  -0.000001   0.000000   0.000000   0.000000   0.000484
    13  H    0.005725   0.000330   0.000003   0.000012   0.000000  -0.014939
    14  C    0.526488  -0.103175  -0.003011  -0.000324  -0.000066  -0.055854
    15  N   -0.072194   0.006539   0.004303  -0.000101   0.000370   0.004856
    16  C   -0.038385   0.003629  -0.000081   0.000002   0.000001  -0.004219
    17  H   -0.002909   0.000375   0.000001  -0.000000  -0.000000  -0.000107
    18  H    0.002414  -0.000339   0.000000   0.000000  -0.000000   0.000031
    19  C   -0.021097   0.470941  -0.021499   0.005318   0.006579   0.005929
    20  H    0.003369  -0.017430  -0.010323   0.000259   0.012289  -0.000144
    21  H   -0.002378   0.000122  -0.000000  -0.000000  -0.000000   0.000550
    22  H    0.003335  -0.000172   0.000075   0.000014  -0.000000  -0.030345
    23  H   -0.006122   0.002025   0.000166   0.012360  -0.000011  -0.031149
    24  H   -0.014085  -0.005744  -0.000511   0.015952   0.000086   0.368476
               7          8          9         10         11         12
     1  N   -0.020042  -0.036939  -0.003837   0.000067   0.000131  -0.000052
     2  C    0.006109   0.000653   0.000112   0.000000  -0.000029  -0.000001
     3  N    0.000172  -0.000225  -0.000047  -0.000000   0.000000   0.000000
     4  O    0.000683  -0.003972   0.000248  -0.000000  -0.000000   0.000000
     5  O    0.000003  -0.000012   0.000000  -0.000000  -0.000000   0.000000
     6  C    0.361304   0.407447  -0.019012  -0.002419   0.006357   0.000484
     7  H    0.611561  -0.044629  -0.009364   0.014405   0.000724  -0.000834
     8  C   -0.044629   4.821514   0.418869  -0.038884  -0.035025   0.006833
     9  C   -0.009364   0.418869   4.670492   0.333891   0.387867  -0.052883
    10  O    0.014405  -0.038884   0.333891   7.833285  -0.023394   0.326759
    11  H    0.000724  -0.035025   0.387867  -0.023394   0.649690  -0.000894
    12  H   -0.000834   0.006833  -0.052883   0.326759  -0.000894   0.450210
    13  H    0.000284  -0.034086   0.373137  -0.037051  -0.071784  -0.006695
    14  C   -0.013645   0.001804   0.000455  -0.000413  -0.000117   0.000041
    15  N    0.000554  -0.000138  -0.000071  -0.000001  -0.000001   0.000001
    16  C    0.004582   0.001082  -0.000726  -0.007621  -0.000066   0.000021
    17  H    0.002057  -0.000123   0.000136  -0.000391  -0.000008   0.000022
    18  H   -0.000070  -0.000012   0.000000   0.000118   0.000002  -0.000024
    19  C   -0.000608   0.000189   0.000021   0.000000  -0.000000   0.000000
    20  H    0.000003   0.000004  -0.000000   0.000000  -0.000000   0.000000
    21  H    0.001961  -0.001815   0.000194   0.021323   0.000461   0.000859
    22  H    0.000351   0.367539  -0.032808   0.001031  -0.007426  -0.000178
    23  H    0.008920   0.361403  -0.031001   0.002368   0.000617  -0.000407
    24  H   -0.046203  -0.031260   0.004391   0.000237  -0.000215   0.000010
              13         14         15         16         17         18
     1  N    0.005725   0.526488  -0.072194  -0.038385  -0.002909   0.002414
     2  C    0.000330  -0.103175   0.006539   0.003629   0.000375  -0.000339
     3  N    0.000003  -0.003011   0.004303  -0.000081   0.000001   0.000000
     4  O    0.000012  -0.000324  -0.000101   0.000002  -0.000000   0.000000
     5  O    0.000000  -0.000066   0.000370   0.000001  -0.000000  -0.000000
     6  C   -0.014939  -0.055854   0.004856  -0.004219  -0.000107   0.000031
     7  H    0.000284  -0.013645   0.000554   0.004582   0.002057  -0.000070
     8  C   -0.034086   0.001804  -0.000138   0.001082  -0.000123  -0.000012
     9  C    0.373137   0.000455  -0.000071  -0.000726   0.000136   0.000000
    10  O   -0.037051  -0.000413  -0.000001  -0.007621  -0.000391   0.000118
    11  H   -0.071784  -0.000117  -0.000001  -0.000066  -0.000008   0.000002
    12  H   -0.006695   0.000041   0.000001   0.000021   0.000022  -0.000024
    13  H    0.682778   0.003525   0.000019   0.002626   0.000137  -0.000079
    14  C    0.003525   4.562021   0.549852   0.386727  -0.016276  -0.010655
    15  N    0.000019   0.549852   6.394939  -0.034893   0.000258  -0.000790
    16  C    0.002626   0.386727  -0.034893   4.970090   0.388174   0.380458
    17  H    0.000137  -0.016276   0.000258   0.388174   0.565374  -0.032778
    18  H   -0.000079  -0.010655  -0.000790   0.380458  -0.032778   0.547504
    19  C   -0.000166  -0.112781   0.481647   0.006732  -0.000236   0.000750
    20  H   -0.000002   0.007387  -0.010017  -0.000304   0.000006   0.000005
    21  H   -0.005611  -0.015797   0.000631   0.347157  -0.043681  -0.029515
    22  H    0.010619  -0.000059   0.000004  -0.000002   0.000009  -0.000001
    23  H    0.000076  -0.000082   0.000006   0.000027   0.000001   0.000002
    24  H    0.000137   0.004735  -0.000390  -0.000247   0.000165  -0.000003
              19         20         21         22         23         24
     1  N   -0.021097   0.003369  -0.002378   0.003335  -0.006122  -0.014085
     2  C    0.470941  -0.017430   0.000122  -0.000172   0.002025  -0.005744
     3  N   -0.021499  -0.010323  -0.000000   0.000075   0.000166  -0.000511
     4  O    0.005318   0.000259  -0.000000   0.000014   0.012360   0.015952
     5  O    0.006579   0.012289  -0.000000  -0.000000  -0.000011   0.000086
     6  C    0.005929  -0.000144   0.000550  -0.030345  -0.031149   0.368476
     7  H   -0.000608   0.000003   0.001961   0.000351   0.008920  -0.046203
     8  C    0.000189   0.000004  -0.001815   0.367539   0.361403  -0.031260
     9  C    0.000021  -0.000000   0.000194  -0.032808  -0.031001   0.004391
    10  O    0.000000   0.000000   0.021323   0.001031   0.002368   0.000237
    11  H   -0.000000  -0.000000   0.000461  -0.007426   0.000617  -0.000215
    12  H    0.000000   0.000000   0.000859  -0.000178  -0.000407   0.000010
    13  H   -0.000166  -0.000002  -0.005611   0.010619   0.000076   0.000137
    14  C   -0.112781   0.007387  -0.015797  -0.000059  -0.000082   0.004735
    15  N    0.481647  -0.010017   0.000631   0.000004   0.000006  -0.000390
    16  C    0.006732  -0.000304   0.347157  -0.000002   0.000027  -0.000247
    17  H   -0.000236   0.000006  -0.043681   0.000009   0.000001   0.000165
    18  H    0.000750   0.000005  -0.029515  -0.000001   0.000002  -0.000003
    19  C    4.855181   0.347665  -0.000183  -0.000002  -0.000234   0.000353
    20  H    0.347665   0.540896   0.000006  -0.000000  -0.000000  -0.000005
    21  H   -0.000183   0.000006   0.599078  -0.000082   0.000004   0.000112
    22  H   -0.000002  -0.000000  -0.000082   0.620670  -0.039028  -0.002238
    23  H   -0.000234  -0.000000   0.000004  -0.039028   0.614173  -0.004260
    24  H    0.000353  -0.000005   0.000112  -0.002238  -0.004260   0.579963
 Mulliken charges:
               1
     1  N   -0.155001
     2  C    0.321255
     3  N    0.325154
     4  O   -0.388357
     5  O   -0.369522
     6  C   -0.112171
     7  H    0.121721
     8  C   -0.160217
     9  C   -0.040065
    10  O   -0.423311
    11  H    0.093107
    12  H    0.276728
    13  H    0.091003
    14  C    0.289222
    15  N   -0.325383
    16  C   -0.404763
    17  H    0.139794
    18  H    0.142981
    19  C   -0.024499
    20  H    0.126336
    21  H    0.126606
    22  H    0.108694
    23  H    0.110145
    24  H    0.130544
 Sum of Mulliken charges =  -0.00000
 Mulliken charges with hydrogens summed into heavy atoms:
               1
     1  N   -0.155001
     2  C    0.321255
     3  N    0.325154
     4  O   -0.388357
     5  O   -0.369522
     6  C    0.140095
     8  C    0.058622
     9  C    0.144045
    10  O   -0.146584
    14  C    0.289222
    15  N   -0.325383
    16  C    0.004618
    19  C    0.101836
 APT charges:
               1
     1  N   -0.695187
     2  C   -0.026858
     3  N   -1.236275
     4  O    0.158323
     5  O    0.787918
     6  C   -0.574188
     7  H    0.370287
     8  C   -0.662640
     9  C   -0.488954
    10  O   -0.765404
    11  H    0.492889
    12  H    0.742453
    13  H    0.143388
    14  C   -0.302194
    15  N    0.385433
    16  C   -0.769037
    17  H    0.350339
    18  H    0.540901
    19  C   -0.291314
    20  H    0.574712
    21  H    0.209389
    22  H    0.467985
    23  H    0.215351
    24  H    0.372685
 Sum of APT charges =  -0.00000
 APT charges with hydrogens summed into heavy atoms:
               1
     1  N   -0.695187
     2  C   -0.026858
     3  N   -1.236275
     4  O    0.158323
     5  O    0.787918
     6  C    0.168783
     8  C    0.020695
     9  C    0.147323
    10  O   -0.022952
    14  C   -0.302194
    15  N    0.385433
    16  C    0.331592
    19  C    0.283398
 Electronic spatial extent (au):  <R**2>=           2427.6928
 Charge=             -0.0000 electrons
 Dipole moment (field-independent basis, Debye):
    X=              4.7216    Y=              0.7610    Z=             -0.1611  Tot=              4.7852
 Quadrupole moment (field-independent basis, Debye-Ang):
   XX=            -79.9846   YY=            -81.4542   ZZ=            -70.5184
   XY=             -1.2299   XZ=             -4.4299   YZ=              2.8453
 Traceless Quadrupole moment (field-independent basis, Debye-Ang):
   XX=             -2.6655   YY=             -4.1352   ZZ=              6.8007
   XY=             -1.2299   XZ=             -4.4299   YZ=              2.8453
 Octapole moment (field-independent basis, Debye-Ang**2):
  XXX=             45.5039  YYY=            -25.3751  ZZZ=              2.0560  XYY=             19.3462
  XXY=             28.6585  XXZ=            -16.6357  XZZ=              5.8438  YZZ=             -6.9321
  YYZ=              3.2116  XYZ=              2.5856
 Hexadecapole moment (field-independent basis, Debye-Ang**3):
 XXXX=          -1806.1858 YYYY=          -1063.0701 ZZZZ=           -202.3802 XXXY=              7.0405
 XXXZ=            -91.2193 YYYX=             19.0291 YYYZ=             21.8501 ZZZX=             -4.2364
 ZZZY=              1.4706 XXYY=           -464.0758 XXZZ=           -300.7097 YYZZ=           -197.7101
 XXYZ=             -1.1301 YYXZ=              5.4967 ZZXY=              2.0650
 N-N= 8.553553638199D+02 E-N=-3.260758078228D+03  KE= 6.611791899730D+02
  Exact polarizability:   0.000   0.000   0.000   0.000   0.000   0.000
 Approx polarizability: 181.783  14.151 191.656  21.562 -20.552 108.657
 No NMR shielding tensors so no spin-rotation constants.
 Leave Link  601 at Wed Aug 25 13:42:34 2021, MaxMem= 24159191040 cpu:        17.9
 (Enter /public/home/users/caep010/software/Gaussian09/g09/l701.exe)
 Compute integral second derivatives.
 ... and contract with generalized density number  0.
 Leave Link  701 at Wed Aug 25 13:42:35 2021, MaxMem= 24159191040 cpu:        20.1
 (Enter /public/home/users/caep010/software/Gaussian09/g09/l702.exe)
 L702 exits ... SP integral derivatives will be done elsewhere.
 Leave Link  702 at Wed Aug 25 13:42:35 2021, MaxMem= 24159191040 cpu:         0.7
 (Enter /public/home/users/caep010/software/Gaussian09/g09/l703.exe)
 Compute integral second derivatives, UseDBF=F ICtDFT=           0.
 Integral derivatives from FoFJK, PRISM(SPDF).
 Calling FoFJK, ICntrl=    100147 FMM=F ISym2X=0 I1Cent= 0 IOpClX= 0 NMat=1 NMatS=1 NMatT=0.
 FoFJK:  IHMeth= 1 ICntrl=  100147 DoSepK=F KAlg= 0 I1Cent=   0 FoldK=F
 IRaf=         0 NMat=   1 IRICut=       1 DoRegI=T DoRafI=F ISym2E= 0.
 FoFCou: FMM=F IPFlag=           0 FMFlag=      100000 FMFlg1=         800
         NFxFlg=           0 DoJE=F BraDBF=F KetDBF=F FulRan=T
         wScrn=  0.000000 ICntrl=  100147 IOpCl=  0 I1Cent=           0 NGrid=           0
         NMat0=    1 NMatS0=      1 NMatT0=    0 NMatD0=    1 NMtDS0=    0 NMtDT0=    0
 Symmetry not used in FoFCou.
 Leave Link  703 at Wed Aug 25 13:43:39 2021, MaxMem= 24159191040 cpu:      2013.1
 (Enter /public/home/users/caep010/software/Gaussian09/g09/l716.exe)
 Dipole        = 1.85761458D+00 2.99382857D-01-6.33969113D-02
 Polarizability= 0.00000000D+00 0.00000000D+00 0.00000000D+00
                 0.00000000D+00 0.00000000D+00 0.00000000D+00
 ***** Axes restored to original set *****
 -------------------------------------------------------------------
 Center     Atomic                   Forces (Hartrees/Bohr)
 Number     Number              X              Y              Z
 -------------------------------------------------------------------
      1        7           0.003085250   -0.009422410   -0.005268273
      2        6           0.009467106   -0.001094982   -0.012319266
      3        7          -0.006534532    0.007305847    0.002022249
      4        8           0.011456951   -0.008403895   -0.010469777
      5        8          -0.003770143    0.002752777    0.005651876
      6        6           0.036997815    0.057730124    0.096874934
      7        1          -0.028186453   -0.109650440   -0.000566749
      8        6          -0.067639987   -0.063733184    0.065315294
      9        6          -0.045538012   -0.048884272   -0.096045116
     10        8          -0.012838397    0.025263737   -0.065810652
     11        1           0.113385001    0.025573424    0.017542183
     12        1           0.009731616   -0.040815074    0.064315627
     13        1          -0.062505705    0.029736975    0.096022805
     14        6          -0.004098479    0.008091913    0.001604586
     15        7          -0.004472617   -0.005355041    0.005567777
     16        6          -0.000178666    0.117284044   -0.014861085
     17        1          -0.043149275   -0.060611102   -0.105230645
     18        1          -0.073209999   -0.028608046    0.098967445
     19        6           0.063503502   -0.121911447   -0.047665253
     20        1          -0.073702339    0.135861155    0.060243683
     21        1           0.120736688   -0.041428571    0.018719842
     22        1           0.059132211   -0.033573169   -0.094805376
     23        1           0.022049162    0.113079351    0.017683662
     24        1          -0.023720697    0.050812285   -0.097489772
 -------------------------------------------------------------------
 Cartesian Forces:  Max     0.135861155 RMS     0.058344081
 FormGI is forming the generalized inverse of G from B-inverse, IUseBI=4.
 Leave Link  716 at Wed Aug 25 13:43:39 2021, MaxMem= 24159191040 cpu:         1.2
 (Enter /public/home/users/caep010/software/Gaussian09/g09/l103.exe)

 GradGradGradGradGradGradGradGradGradGradGradGradGradGradGradGradGradGrad
 Berny optimization.
 Red2BG is reusing G-inverse.
 Internal  Forces:  Max     0.165810746 RMS     0.037436715
 Search for a local minimum.
 Step number   1 out of a maximum of  128
 All quantities printed in internal units (Hartrees-Bohrs-Radians)
 RMS Force = .37437D-01 SwitMx=.10000D-02 MixMth= 1
 Mixed Optimization -- RFO/linear search
 Second derivative matrix not updated -- analytic derivatives used.
 ITU=  0
     Eigenvalues ---    0.00071   0.00199   0.00235   0.00427   0.00532
     Eigenvalues ---    0.00645   0.01025   0.01480   0.01964   0.02564
     Eigenvalues ---    0.03342   0.04076   0.04368   0.04689   0.05329
     Eigenvalues ---    0.05526   0.05822   0.06195   0.06282   0.07002
     Eigenvalues ---    0.07749   0.08515   0.10322   0.11270   0.11341
     Eigenvalues ---    0.12348   0.12614   0.13163   0.13861   0.14061
     Eigenvalues ---    0.15923   0.16612   0.17393   0.19544   0.21147
     Eigenvalues ---    0.22368   0.23309   0.25180   0.25682   0.25782
     Eigenvalues ---    0.28721   0.29880   0.33289   0.33859   0.35405
     Eigenvalues ---    0.35883   0.39322   0.40959   0.42120   0.46501
     Eigenvalues ---    0.49246   0.50955   0.57803   0.61981   0.67029
     Eigenvalues ---    0.67683   0.67885   0.67994   0.68319   0.68422
     Eigenvalues ---    0.71687   0.72066   0.72258   0.79316   0.80779
     Eigenvalues ---    0.86229
 RFO step:  Lambda=-1.83688278D-01 EMin= 7.10114400D-04
 Linear search not attempted -- first point.
 Maximum step size (   0.300) exceeded in Quadratic search.
    -- Step size scaled by   0.661
 Iteration  1 RMS(Cart)=  0.03077938 RMS(Int)=  0.00019014
 Iteration  2 RMS(Cart)=  0.00023965 RMS(Int)=  0.00001013
 Iteration  3 RMS(Cart)=  0.00000007 RMS(Int)=  0.00001013
 ITry= 1 IFail=0 DXMaxC= 1.06D-01 DCOld= 1.00D+10 DXMaxT= 3.00D-01 DXLimC= 3.00D+00 Rises=F
 Variable       Old X    -DE/DX   Delta X   Delta X   Delta X     New X
                                 (Linear)    (Quad)   (Total)
    R1        2.61197   0.00480   0.00000   0.00567   0.00567   2.61764
    R2        2.78926  -0.00390   0.00000  -0.00582  -0.00582   2.78344
    R3        2.57159   0.00400   0.00000   0.00358   0.00358   2.57517
    R4        2.67332   0.00321   0.00000   0.00355   0.00355   2.67687
    R5        2.56572   0.01872   0.00000   0.01737   0.01737   2.58309
    R6        2.31156   0.01664   0.00000   0.01160   0.01160   2.32316
    R7        2.31785   0.00506   0.00000   0.00197   0.00197   2.31982
    R8        1.83417   0.11298   0.00000   0.08634   0.08634   1.92051
    R9        2.85767   0.01692   0.00000   0.02006   0.02006   2.87773
   R10        1.83302   0.11232   0.00000   0.08563   0.08563   1.91865
   R11        2.83302   0.01810   0.00000   0.02052   0.02052   2.85354
   R12        1.83240   0.11665   0.00000   0.08914   0.08914   1.92154
   R13        1.83125   0.11655   0.00000   0.08871   0.08871   1.91996
   R14        2.67983   0.01579   0.00000   0.01267   0.01267   2.69250
   R15        1.83402   0.11752   0.00000   0.09021   0.09021   1.92423
   R16        1.83361   0.11837   0.00000   0.09073   0.09073   1.92434
   R17        1.70075   0.07663   0.00000   0.05116   0.05116   1.75191
   R18        2.50721   0.00642   0.00000   0.00438   0.00438   2.51159
   R19        2.79704   0.01307   0.00000   0.01363   0.01363   2.81067
   R20        2.54596   0.00980   0.00000   0.00776   0.00776   2.55373
   R21        1.81484   0.12883   0.00000   0.09479   0.09479   1.90963
   R22        1.81421   0.12633   0.00000   0.09261   0.09261   1.90682
   R23        1.81363   0.12892   0.00000   0.09438   0.09438   1.90801
   R24        1.75554   0.16581   0.00000   0.10475   0.10475   1.86029
    A1        2.26024  -0.00219   0.00000  -0.00215  -0.00214   2.25810
    A2        1.83174   0.00196   0.00000   0.00147   0.00146   1.83321
    A3        2.19042   0.00024   0.00000   0.00072   0.00072   2.19114
    A4        2.18978  -0.00188   0.00000   0.00006   0.00006   2.18984
    A5        1.87058  -0.00044   0.00000  -0.00164  -0.00164   1.86894
    A6        2.22250   0.00233   0.00000   0.00163   0.00163   2.22413
    A7        2.08754  -0.00486   0.00000  -0.00541  -0.00541   2.08212
    A8        2.04360  -0.00357   0.00000  -0.00349  -0.00349   2.04011
    A9        2.15192   0.00847   0.00000   0.00897   0.00897   2.16088
   A10        1.90184  -0.00527   0.00000  -0.01032  -0.01032   1.89152
   A11        1.97290   0.00176   0.00000   0.00359   0.00360   1.97650
   A12        1.90236  -0.00167   0.00000  -0.00328  -0.00328   1.89908
   A13        1.90176   0.00293   0.00000   0.00526   0.00527   1.90703
   A14        1.88022   0.00238   0.00000   0.00432   0.00429   1.88452
   A15        1.90257  -0.00006   0.00000   0.00051   0.00051   1.90308
   A16        2.00614  -0.00426   0.00000  -0.00418  -0.00418   2.00196
   A17        1.89372  -0.00099   0.00000  -0.00367  -0.00367   1.89005
   A18        1.89412   0.00229   0.00000   0.00373   0.00373   1.89786
   A19        1.89415   0.00259   0.00000   0.00392   0.00391   1.89807
   A20        1.89521   0.00101   0.00000   0.00136   0.00136   1.89657
   A21        1.87653  -0.00046   0.00000  -0.00104  -0.00104   1.87549
   A22        1.90458  -0.00312   0.00000  -0.00589  -0.00589   1.89870
   A23        1.91672  -0.00189   0.00000  -0.00320  -0.00320   1.91352
   A24        1.91727   0.00117   0.00000   0.00236   0.00237   1.91964
   A25        1.91757   0.00230   0.00000   0.00452   0.00451   1.92208
   A26        1.91793   0.00079   0.00000   0.00278   0.00278   1.92071
   A27        1.88977   0.00081   0.00000  -0.00049  -0.00050   1.88927
   A28        1.86351   0.00816   0.00000   0.01041   0.01041   1.87392
   A29        1.95394   0.00176   0.00000   0.00235   0.00235   1.95629
   A30        2.16624  -0.00315   0.00000  -0.00236  -0.00236   2.16389
   A31        2.16256   0.00140   0.00000   0.00001   0.00001   2.16257
   A32        1.84844   0.00135   0.00000   0.00099   0.00099   1.84943
   A33        1.91120   0.00357   0.00000   0.00869   0.00867   1.91987
   A34        1.91132  -0.00614   0.00000  -0.01009  -0.01007   1.90125
   A35        1.91094   0.00550   0.00000   0.01263   0.01261   1.92355
   A36        1.90960   0.00035   0.00000  -0.00173  -0.00172   1.90788
   A37        1.91053  -0.00420   0.00000  -0.01043  -0.01048   1.90005
   A38        1.91021   0.00093   0.00000   0.00092   0.00095   1.91116
   A39        1.91999  -0.00462   0.00000  -0.00315  -0.00315   1.91684
   A40        2.18132   0.00679   0.00000   0.01006   0.01006   2.19138
   A41        2.18187  -0.00216   0.00000  -0.00691  -0.00691   2.17496
    D1       -0.02047   0.00034   0.00000   0.00139   0.00139  -0.01908
    D2        3.09519   0.00108   0.00000   0.00346   0.00345   3.09865
    D3       -3.12073   0.00005   0.00000   0.00025   0.00025  -3.12048
    D4       -0.00507   0.00079   0.00000   0.00231   0.00231  -0.00275
    D5       -2.77367  -0.00008   0.00000  -0.00180  -0.00181  -2.77548
    D6        1.39238  -0.00123   0.00000  -0.00357  -0.00357   1.38881
    D7       -0.72615  -0.00114   0.00000  -0.00429  -0.00428  -0.73043
    D8        0.31886   0.00029   0.00000  -0.00045  -0.00046   0.31840
    D9       -1.79828  -0.00087   0.00000  -0.00222  -0.00222  -1.80050
   D10        2.36638  -0.00078   0.00000  -0.00294  -0.00293   2.36345
   D11       -0.00268  -0.00051   0.00000  -0.00163  -0.00164  -0.00431
   D12        3.10806  -0.00037   0.00000  -0.00156  -0.00156   3.10651
   D13       -3.10509  -0.00071   0.00000  -0.00263  -0.00263  -3.10772
   D14        0.00565  -0.00057   0.00000  -0.00255  -0.00255   0.00309
   D15       -0.01346  -0.00071   0.00000  -0.00121  -0.00121  -0.01467
   D16        3.11100   0.00146   0.00000   0.00336   0.00336   3.11436
   D17       -3.12388  -0.00154   0.00000  -0.00364  -0.00364  -3.12753
   D18        0.00057   0.00063   0.00000   0.00093   0.00093   0.00150
   D19        0.01105  -0.00084   0.00000  -0.00229  -0.00229   0.00876
   D20       -3.12790  -0.00062   0.00000  -0.00194  -0.00194  -3.12983
   D21        3.12608  -0.00017   0.00000  -0.00020  -0.00020   3.12588
   D22       -0.01287   0.00005   0.00000   0.00014   0.00015  -0.01272
   D23        1.21164  -0.00137   0.00000  -0.00351  -0.00351   1.20813
   D24       -2.94782  -0.00166   0.00000  -0.00403  -0.00402  -2.95185
   D25       -0.91375  -0.00150   0.00000  -0.00523  -0.00523  -0.91898
   D26       -0.90554   0.00211   0.00000   0.00352   0.00352  -0.90203
   D27        1.21818   0.00181   0.00000   0.00300   0.00301   1.22119
   D28       -3.03094   0.00197   0.00000   0.00180   0.00180  -3.02914
   D29       -2.95313  -0.00237   0.00000  -0.00493  -0.00494  -2.95807
   D30       -0.82941  -0.00267   0.00000  -0.00545  -0.00545  -0.83486
   D31        1.20466  -0.00251   0.00000  -0.00665  -0.00666   1.19800
   D32        1.10688  -0.00152   0.00000  -0.00368  -0.00369   1.10320
   D33       -3.07341  -0.00181   0.00000  -0.00376  -0.00375  -3.07716
   D34       -0.99680  -0.00126   0.00000  -0.00488  -0.00488  -1.00168
   D35       -1.01660   0.00072   0.00000   0.00097   0.00097  -1.01564
   D36        1.08629   0.00043   0.00000   0.00089   0.00090   1.08719
   D37       -3.12029   0.00098   0.00000  -0.00023  -0.00023  -3.12051
[...]
 22804,-0.08399809,-0.18502376,-0.20168760,0.00275560,0.36284945,0.0011
 2778,-0.02014381,0.00155676,-0.00078721,0.00224428,0.00383991,0.001268
 90,-0.00110997,0.00131131,0.00037334,-0.00020373,-0.00054101,-0.000633
 39,-0.00015469,-0.00038467,-0.00041079,-0.00110109,-0.00105047,0.00026
 850,-0.00041943,0.00051981,-0.00006096,-0.00002637,0.00018765,-0.00019
 518,0.00014534,0.00019189,-0.00110836,0.00038784,0.00006124,0.00008248
 ,-0.00002894,-0.00012596,-0.00052483,-0.00009179,0.00015876,0.00003131
 ,-0.00013196,-0.00010461,-0.07631678,-0.00336276,0.00849141,0.00215830
 ,0.01903110,-0.00227300,0.56099567,-0.00327777,-0.01261909,0.00445588,
 -0.00026327,0.00024233,0.00097860,0.00040089,0.00102176,-0.00054154,-0
 .00030818,0.00016653,0.00050264,0.00014280,-0.00067527,-0.00024377,0.0
 0047837,-0.00010526,-0.00018285,-0.00008958,-0.00001044,0.00026282,-0.
 00026214,-0.00000916,-0.00009055,0.00044389,0.00063860,0.00013990,-0.0
 0111348,0.00057256,0.00024833,0.00000599,0.00000529,-0.00001551,-0.000
 01632,-0.00018760,-0.00004243,-0.00005098,-0.00002930,-0.00010630,-0.0
 0194704,-0.22338479,0.01245472,0.00348399,-0.02554977,-0.00302308,-0.0
 0946032,0.49205830,0.00088837,0.03022433,-0.00151222,0.00416066,-0.004
 81935,-0.00264687,0.00244561,0.00260477,-0.00026582,-0.00086192,0.0003
 3511,0.00102888,-0.00056709,-0.00022378,-0.00044493,-0.00129264,0.0010
 0547,-0.00103039,0.00093135,0.00111463,-0.00028746,-0.00016962,0.00024
 639,0.00026599,0.00002952,-0.00041946,-0.00010075,0.00083660,0.0000361
 5,0.00090583,0.00004830,0.00016547,0.00000226,0.00054653,0.00006261,-0
 .00014075,0.00000565,0.00011765,0.00001693,0.00781511,0.01377194,-0.07
 859583,-0.00092584,-0.02064135,0.00352523,-0.02892001,0.00571144,0.565
 56423,0.00055017,-0.00001921,0.00026156,0.00014866,-0.00078432,-0.0001
 9199,0.00045384,0.00014413,-0.00024081,-0.00015019,0.00008910,0.000170
 80,-0.00008406,-0.00006966,0.00003937,0.00018156,-0.00076716,-0.000494
 08,-0.00062850,-0.00001382,0.00038744,-0.00017632,0.00027350,-0.000014
 68,0.00021288,0.00030806,-0.00023172,-0.00077693,-0.00008650,0.0006006
 2,-0.00002155,-0.00000862,0.00006486,0.00028578,-0.00008526,-0.0000495
 0,0.00002457,0.00008441,0.00006715,0.00014519,-0.00033114,0.00205239,-
 0.00045804,0.00174074,0.00001048,-0.11142935,-0.05499367,-0.10127570,0
 .11871549,0.00106509,0.00245336,-0.00054587,0.00074146,-0.00307527,-0.
 00014056,0.00122997,0.00103426,-0.00082553,-0.00044451,0.00000312,0.00
 056438,-0.00026402,-0.00048205,0.00005072,-0.00016141,-0.00052992,-0.0
 0030638,-0.00059839,0.00016626,0.00026596,-0.00006903,0.00030516,0.000
 14521,-0.00003726,-0.00030380,0.00003923,0.00037350,0.00017867,-0.0002
 3378,0.00001648,0.00002880,-0.00000279,-0.00015081,0.00004571,0.000039
 06,0.00000040,-0.00002701,0.00003171,-0.01650260,-0.01752905,-0.025573
 57,-0.00120740,-0.00106014,0.00045227,-0.05535411,-0.08650348,-0.07936
 897,0.06017134,0.09841871,0.00076285,0.00016034,-0.00043274,-0.0004740
 2,0.00018477,-0.00014502,-0.00043881,-0.00013814,-0.00009615,0.0000817
 2,-0.00003824,-0.00003627,0.00007026,0.00012085,0.00011897,-0.00028348
 ,0.00017525,0.00020934,0.00031109,0.00020404,-0.00011769,0.00012125,-0
 .00015533,0.00001456,0.00001743,0.00007599,-0.00002927,-0.00013108,-0.
 00007147,0.00006219,-0.00000943,-0.00001753,0.00000188,0.00006003,-0.0
 0003000,-0.00003296,-0.00000912,0.00000715,-0.00000629,0.00464934,-0.0
 0023896,0.00405936,-0.00062119,-0.00046158,0.00042265,-0.10049927,-0.0
 7750365,-0.19276676,0.11109404,0.08786904,0.20842963,0.00094636,-0.000
 03808,0.00036120,0.00012192,0.00044263,0.00023441,0.00015152,0.0000065
 0,0.00029040,0.00002571,-0.00008553,-0.00011564,-0.00005905,0.00000871
 ,-0.00005229,0.00006521,0.00028338,0.00021965,-0.00031960,-0.00022450,
 -0.00018000,0.00010257,0.00002130,-0.00008880,0.00012259,0.00048768,0.
 00002700,-0.00099540,-0.00013202,0.00004935,-0.00004457,-0.00007795,-0
 .00001255,-0.00015065,-0.00007736,0.00009799,0.00005637,-0.00006677,0.
 00000725,-0.00202282,-0.00096610,-0.00001672,-0.00015910,0.00082339,-0
 .00023413,-0.10573229,-0.02936546,0.11065694,0.00817447,0.00492991,-0.
 01556675,0.11013332,0.00100032,-0.00689152,-0.00023822,-0.00090677,0.0
 0042102,0.00111613,0.00001773,-0.00042934,-0.00040849,0.00006206,0.000
 00792,-0.00005875,0.00003668,-0.00031488,0.00009979,0.00079575,-0.0007
 4853,-0.00100799,0.00006615,0.00023495,0.00004637,-0.00004732,0.000099
 71,0.00007296,-0.00003049,-0.00021197,0.00003169,0.00039573,0.00011173
 ,-0.00004792,0.00000984,0.00005418,0.00000144,0.00002741,0.00005396,-0
 .00000781,0.00000860,0.00002080,0.00002416,-0.01823806,-0.00898475,0.0
 3229124,-0.00047932,0.00341160,-0.00052788,-0.02618658,-0.05971607,0.0
 5018172,0.00713596,0.00295150,-0.01090874,0.03248302,0.06723811,0.0001
 6434,-0.00033038,0.00046975,0.00014694,-0.00032100,0.00015507,0.000018
 76,-0.00018895,0.00008191,-0.00003178,0.00007383,0.00004274,-0.0000401
 6,0.00009802,0.00000261,-0.00016677,-0.00032303,0.00007971,-0.00010117
 ,0.00027416,0.00000528,-0.00002180,0.00010667,-0.00002207,0.00003444,0
 .00009671,-0.00006130,-0.00014084,-0.00005749,0.00004913,0.00000653,-0
 .00001540,0.00001866,0.00001941,0.00001919,0.00000100,0.00000104,-0.00
 000360,0.00001251,0.00107961,0.00063793,-0.00328216,-0.00034888,-0.001
 84808,0.00029103,0.10990531,0.05635771,-0.24863882,0.01134606,0.005627
 98,-0.01940546,-0.12013747,-0.05899962,0.26770455,-0.01513245,0.035929
 71,0.03297870,-0.17579220,0.02786098,0.13978046,-0.01192271,-0.0201243
 9,0.00962230,0.00870415,0.00058584,-0.00535386,-0.00257305,0.00735650,
 0.00286361,0.00140346,-0.00136202,-0.00178576,-0.00011548,0.00008030,0
 .00077900,0.00040213,0.00104794,0.00113573,-0.00014180,-0.00017307,0.0
 0020545,0.00001608,-0.00003234,-0.00003587,-0.00006888,0.00010056,-0.0
 0018771,-0.00003683,-0.00002715,-0.00000138,0.00008272,0.00002771,-0.0
 0009312,0.01270979,0.01025563,-0.00497731,-0.09473302,-0.03841600,0.03
 329210,0.00408295,0.00175517,0.00441411,-0.00077448,0.00063162,0.00013
 640,-0.00019767,-0.00001304,-0.00012853,0.36783948,0.00735869,-0.03436
 426,-0.00445895,0.03710096,-0.07888217,-0.04532755,-0.02312178,-0.0094
 7741,0.03039414,0.00089209,-0.00412147,0.00037185,-0.00261707,0.004118
 90,0.00334694,-0.00264026,-0.00788150,0.00228243,0.00120000,-0.0007517
 5,-0.00117599,-0.00012239,0.00114049,0.00094972,0.00001148,-0.00018126
 ,-0.00034715,-0.00015108,-0.00001042,0.00025355,-0.00007113,0.00004658
 ,-0.00003382,0.00009356,-0.00004789,-0.00003174,0.00007303,0.00004179,
 0.00006810,0.04378118,-0.09698591,-0.04629185,-0.03735600,-0.28011897,
 0.06735898,0.00253355,0.00075360,-0.00191989,-0.00033616,-0.00128208,0
 .00010917,0.00004994,-0.00040251,0.00013690,-0.12459357,0.75775826,0.0
 3548787,-0.04284982,-0.03025563,0.13659744,-0.03451617,-0.24276026,0.0
 1070747,0.02716603,-0.02347520,-0.00486928,0.00046784,0.01159072,0.003
 79917,-0.01039858,-0.00409189,-0.00009320,0.00298181,0.00341625,0.0001
 3166,-0.00004995,-0.00045739,-0.00022790,-0.00204584,-0.00177697,0.000
 16385,0.00025820,-0.00004293,0.00016604,0.00008381,-0.00013723,0.00014
 170,-0.00010291,0.00015258,-0.00003656,0.00007889,0.00000727,-0.000142
 75,-0.00011323,-0.00003501,-0.00916420,-0.00371485,0.01933417,0.033822
 14,0.07064768,-0.12007175,0.00540616,-0.00151691,0.00106703,0.00013004
 ,0.00168999,0.00011629,-0.00040381,0.00007905,0.00017178,-0.27816895,0
 .09968252,0.49628616,0.00012514,-0.00020058,0.00395355,-0.00034095,0.0
 1351149,0.00416579,-0.00182696,0.00223380,-0.00063800,0.00000211,-0.00
 060621,-0.00039288,0.00052634,-0.00122331,-0.00076669,0.00143476,0.000
 85045,0.00026072,-0.00027157,0.00010936,0.00036540,0.00013489,-0.00014
 889,-0.00012333,-0.00002450,0.00000818,0.00000973,-0.00000370,-0.00001
 198,-0.00001868,-0.00001229,0.00000818,-0.00000800,-0.00000829,0.00000
 226,0.00000162,0.00001051,0.00000115,-0.00000059,0.00366792,-0.0017937
 0,0.00354855,0.00300784,-0.00699799,-0.00793058,0.00084631,-0.00019138
 ,0.00011253,0.00002425,0.00011766,-0.00001299,-0.00002766,0.00002331,-
 0.00003118,-0.09204314,0.09956168,0.06454393,0.08481033,-0.00104082,0.
 00075367,0.00165303,-0.00235339,0.00443120,0.00290485,0.00058130,0.000
 13048,-0.00100012,0.00010754,-0.00007255,-0.00018516,-0.00083194,-0.00
 098402,0.00119079,0.00016593,0.00041033,-0.00014486,-0.00009136,0.0000
 9983,0.00012959,0.00003213,0.00001585,0.00000168,-0.00000703,-0.000082
 72,0.00001106,0.00006204,0.00007057,-0.00002841,0.00000064,0.00001398,
 -0.00000552,-0.00001804,-0.00000335,0.00000010,-0.00000565,-0.00000047
 ,0.00000585,-0.00115611,-0.00430551,0.00241811,0.00997217,-0.01958172,
 -0.01126352,0.00070622,-0.00008039,-0.00069591,0.00003738,-0.00015052,
 -0.00002200,-0.00001801,0.00009324,-0.00000403,0.09888064,-0.24918954,
 -0.10592945,-0.10499426,0.26869747,0.00420755,0.00075905,-0.00211550,0
 .00589815,-0.01748663,-0.00178008,-0.00059634,-0.00326583,-0.00104497,
 -0.00047591,0.00079767,0.00020302,-0.00081932,0.00168617,0.00074432,0.
 00020937,-0.00056923,0.00116241,0.00016355,-0.00009621,-0.00014968,0.0
 0003343,-0.00018471,-0.00017480,-0.00000251,0.00002847,-0.00001404,-0.
 00002668,-0.00000627,0.00000972,0.00000233,-0.00000832,0.00000824,0.00
 000870,0.00000486,0.00000382,0.00000403,-0.00000222,0.00000461,0.00324
 347,0.00350618,0.00189561,-0.00966344,0.00979979,0.00775410,-0.0000027
 6,0.00016822,0.00084722,0.00002095,0.00025301,0.00000250,-0.00001051,-
 0.00006655,-0.00002386,0.06487236,-0.10640364,-0.10757818,-0.06712868,
 0.11100416,0.10013406,0.00008593,0.00007769,0.00078816,-0.00024082,-0.
 00064030,0.00000315,0.00030263,0.00050343,-0.00060641,-0.00027218,0.00
 002429,0.00030112,0.00005303,-0.00031659,0.00004432,0.00043027,0.00014
 195,0.00020153,0.00016607,-0.00061228,0.00032254,0.00003166,-0.0001023
 1,0.00023955,-0.00035093,-0.00296047,0.00034285,-0.00155870,0.00120828
 ,-0.00052707,0.00023263,0.00067742,-0.00000534,-0.00073396,0.00050228,
 -0.00029539,-0.00006534,0.00042142,0.00009220,0.00506242,0.00170214,0.
 00065525,-0.00003037,-0.00114887,-0.00084117,-0.27388470,0.09452202,0.
 00092147,-0.01457987,0.00555056,0.00068943,-0.01015723,0.00388183,-0.0
 0167176,-0.00006041,-0.00026457,-0.00018446,-0.00001290,-0.00005740,0.
 00001405,0.29586918,-0.00038004,0.00256674,-0.00092774,0.00025853,-0.0
 0237672,-0.00050104,0.00031557,0.00079630,-0.00117097,-0.00039561,0.00
 008479,0.00054732,0.00004207,-0.00028996,0.00023620,0.00014693,-0.0003
 4236,0.00018282,-0.00002965,-0.00001951,0.00102768,-0.00009057,-0.0000
 8738,0.00025687,-0.00137554,-0.00086623,0.00044288,0.00171110,-0.00114
 275,-0.00050860,0.00008065,-0.00001738,-0.00008171,0.00025970,0.000394
 91,-0.00005115,-0.00009803,-0.00009777,-0.00018091,0.03199315,-0.01371
 060,-0.00159606,0.00011173,-0.00351713,0.00185164,0.09280188,-0.086440
 77,0.00215988,-0.01264037,0.00533648,0.00057030,-0.00836841,0.00286694
 ,-0.00136638,-0.00101128,-0.00130445,-0.00066923,-0.00028828,-0.000277
 65,0.00002512,-0.10302257,0.09821958,0.00051535,-0.00053945,0.00012878
 ,-0.00002328,0.00137920,-0.00008328,-0.00035599,-0.00060089,0.00095051
 ,0.00029256,-0.00017458,-0.00042877,-0.00005101,0.00030164,-0.00006998
 ,-0.00011474,0.00085273,0.00025474,-0.00016381,0.00076566,-0.00149291,
 0.00030728,-0.00002451,-0.00016197,-0.00022546,0.00078268,0.00007113,0
 .00040590,-0.00014360,-0.00124748,-0.00006053,-0.00027869,-0.00003093,
 -0.00098097,-0.00015361,0.00030398,-0.00003523,-0.00027995,0.00000752,
 -0.00263514,-0.00059673,-0.00183004,0.00023289,-0.00094186,0.00043653,
 0.00238981,0.00211749,-0.04688701,-0.02388572,0.00990402,-0.00038438,0
 .02490294,-0.01174963,0.00229035,-0.00008612,-0.00014410,-0.00026036,0
 .00004530,-0.00001143,0.00001573,-0.00034460,-0.00023103,0.04852981,-0
 .00791389,-0.00125898,0.00012452,0.00023733,-0.00121205,-0.00065689,-0
 .00048503,-0.00061058,0.00060809,0.00032724,0.00018052,-0.00043835,0.0
 0009319,0.00028553,-0.00011753,-0.01554538,0.01449608,0.02423937,0.001
 10835,-0.00056288,0.00040519,-0.11041957,0.05395481,0.09566612,0.00536
 236,-0.00528050,-0.00978821,-0.00007887,-0.00026615,0.00096029,0.00082
 549,-0.00071028,0.00026348,-0.00004283,-0.00028728,-0.00008985,0.00005
 841,0.00178265,-0.00233834,0.00047788,0.00148778,-0.00178210,-0.000349
 72,0.00123275,0.00115952,-0.00003948,-0.00001353,-0.00003408,-0.000022
 04,-0.00008742,0.00000948,0.00000219,-0.00005648,0.00001279,-0.0006814
 7,-0.00048523,0.00099651,0.00003386,-0.00001234,0.00007144,-0.00007354
 ,-0.00004546,0.00001881,0.12265450,-0.00142007,0.00106863,0.00008545,-
 0.00028079,-0.00009992,0.00013357,-0.00043974,0.00038676,0.00038390,0.
 00061084,-0.00042028,0.00022565,-0.00000976,-0.00016536,-0.00013964,-0
 .00284701,0.00067956,0.00309194,0.00032185,0.00035020,0.00035328,0.055
 25363,-0.09478931,-0.08562756,-0.00677153,0.00463303,0.01226110,-0.000
 13034,0.00174733,-0.00089120,-0.00045073,0.00021833,-0.00089835,0.0000
 6009,0.00026854,-0.00015232,0.00050701,-0.00055231,0.00276425,0.000167
 33,0.00005467,0.00007132,-0.00006347,0.00021490,0.00002330,0.00001321,
 -0.00000034,-0.00002394,-0.00001985,-0.00000138,-0.00000320,0.00000723
 ,-0.00000428,-0.00000810,-0.00013096,-0.00002725,0.00024142,0.00000880
 ,-0.00000289,0.00003258,-0.00003543,0.00003744,0.00001575,-0.06041091,
 0.09817862,-0.00219905,-0.00018747,0.00110064,-0.00009171,-0.00001798,
 0.00003330,0.00001293,-0.00005427,-0.00012176,0.00002148,0.00007694,-0
 .00000037,0.00000408,0.00004186,0.00004060,-0.00243667,0.00232312,0.00
 294076,0.00043754,0.00008662,0.00017475,0.09627052,-0.08381054,-0.1946
 9394,0.01414560,-0.01371557,-0.02690642,-0.00011260,-0.00035171,0.0034
 1520,-0.00018051,-0.00019141,0.00124175,-0.00011028,-0.00035506,0.0004
 4253,-0.00243052,0.00320962,-0.00419302,-0.00024026,0.00026414,-0.0000
 0978,-0.00003627,0.00002591,0.00029864,-0.00003331,-0.00000459,0.00002
 625,0.00003332,-0.00001530,0.00001316,-0.00000658,-0.00000877,0.000007
 60,-0.00003332,0.00005001,0.00004489,-0.00000140,0.00000259,0.00001841
 ,0.00000347,-0.00005835,-0.00004590,-0.10276438,0.09208462,0.21520612,
 0.00233046,-0.00025874,-0.00037887,0.00043117,0.00033060,-0.00012922,-
 0.00275878,0.00070980,0.00327462,0.00190731,0.00028718,-0.00147227,0.0
 0031383,-0.00066349,-0.00101335,-0.01102366,-0.03442059,-0.00149014,-0
 .00633047,-0.00009799,-0.00143097,-0.05808297,-0.05581985,0.00083728,0
 .00109883,0.00920873,0.00214977,-0.00026788,0.00156841,-0.00278605,0.0
 0012946,0.00004173,0.00057415,0.00056181,0.00069540,-0.00041587,0.0002
 7138,-0.00040896,0.00010495,0.00041604,-0.00025047,-0.00037008,-0.0001
 5429,0.00087116,0.00002340,-0.00005979,0.00006110,0.00019283,0.0001715
 8,0.00015171,-0.00004451,-0.00002031,0.00004964,0.00006126,-0.00054296
 ,-0.00016067,0.00068476,-0.00004422,0.00000204,0.00002479,-0.00007411,
 0.00007099,-0.00010827,0.00341634,0.01554919,-0.00073678,0.06694587,-0
 .00004900,0.00081044,0.00007507,-0.00046610,-0.00013530,0.00043479,0.0
 0091897,0.00004780,-0.00029268,0.00159569,-0.00170241,0.00095376,-0.00
 007067,-0.00027598,-0.00013902,-0.00148041,-0.00337036,-0.00088541,-0.
 00009311,0.00115280,0.00003834,-0.05794149,-0.30090265,0.00078562,-0.0
 0295798,-0.01208447,-0.00241554,0.00135795,0.00021647,0.00286646,0.000
 59908,0.00040195,0.00002031,-0.00041122,-0.00045139,0.00001886,-0.0001
 7958,0.00055912,0.00028854,-0.00010809,-0.00006656,0.00009406,0.000019
 06,-0.00000344,0.00001625,0.00006011,0.00002843,0.00002216,0.00002081,
 0.00000717,-0.00003254,-0.00002125,0.00001728,-0.00000230,0.00002380,0
 .00008869,0.00000594,-0.00002835,-0.00000661,-0.00000961,0.00003159,0.
 00000366,-0.00002348,-0.00275430,-0.01189908,0.00040742,0.06212140,0.3
 2738091,-0.00017644,0.00090798,0.00033647,0.00040287,-0.00016032,-0.00
 020864,-0.00050292,-0.00054550,0.00177859,0.00036199,0.00055303,-0.001
 35049,0.00025592,-0.00021866,-0.00053431,-0.00042081,-0.00644569,-0.00
 095029,-0.00164010,0.00047493,0.00060316,0.00005234,0.00083359,-0.0499
 7106,0.00791585,0.02719762,0.00271523,-0.00266945,0.00325750,-0.006177
 38,-0.00022372,-0.00056719,0.00106850,0.00022560,0.00203597,0.00007204
 ,0.00071356,-0.00102571,0.00061197,0.00033208,0.00016974,-0.00046569,-
 0.00013705,0.00036599,0.00013351,-0.00005110,-0.00002026,0.00001938,0.
 00005537,0.00001108,0.00001804,0.00000975,0.00000393,0.00002454,-0.000
 21800,-0.00003319,0.00024045,-0.00001419,-0.00000714,0.00003221,-0.000
 12395,-0.00002092,-0.00001192,-0.00631992,-0.02404765,0.00031898,0.002
 10258,-0.00220038,0.05162129,-0.00024485,-0.00919868,0.02592274,0.0009
 2667,-0.00059698,-0.00072953,0.00041644,0.00015737,0.00006816,-0.00032
 791,0.00021057,0.00015595,-0.00028091,0.00046237,0.00021915,-0.0605079
 1,0.02857046,-0.05834558,0.00162606,-0.00319415,0.00714183,-0.00980861
 ,0.01399024,-0.02977866,-0.00643866,-0.00251807,0.00103151,0.00068175,
 0.00013823,0.00031866,-0.00070264,0.00093283,-0.00172459,0.00000995,-0
 .00013623,0.00010277,0.00015411,-0.00016764,0.00002297,0.00130865,0.00
 292099,0.00114745,-0.00190975,0.00059470,0.00060714,-0.00005242,0.0000
 5889,0.00004135,0.00001289,-0.00010272,0.00008734,-0.00001590,-0.00003
 596,0.00002387,-0.00042421,-0.00073624,0.00051237,-0.00000808,0.000038
 33,-0.00004805,-0.00013878,-0.00004651,-0.00003997,0.00105468,0.000511
 42,0.00048469,0.00136537,-0.00018691,0.00006976,0.07330407,0.00005556,
 0.00781434,-0.01957294,-0.00177932,0.00013190,0.00107999,0.00272358,0.
 00016020,-0.00408686,-0.00165505,-0.00335852,0.00218765,-0.00065246,0.
 00055331,0.00096983,0.02723876,-0.09794330,0.10878271,0.00707427,-0.01
 046303,0.02635139,-0.00239318,0.00255173,-0.00520605,-0.00157014,-0.00
 048496,-0.00019866,0.00035560,0.00023654,0.00023877,-0.00017002,0.0001
 9645,-0.00028789,0.00014368,0.00009280,0.00003488,0.00004822,-0.000023
 06,0.00008375,-0.00160283,-0.00208514,0.00060128,0.00164166,-0.0019960
 1,-0.00061316,-0.00014799,-0.00017567,0.00035291,0.00015030,0.00001548
 ,0.00014448,-0.00010224,0.00012091,0.00003925,0.00134744,0.00108052,-0
 .00147626,0.00004862,0.00002133,0.00003392,-0.00008409,0.00018382,-0.0
 0022560,0.00063425,0.00012437,0.00019814,0.00036168,0.00018352,-0.0005
 1876,-0.03166633,0.10306247,0.00495867,0.00785300,-0.02770485,-0.00083
 196,0.00127073,0.00176511,0.00216840,-0.00018376,-0.00331977,-0.000537
 08,0.00275590,0.00243418,-0.00082478,0.00020970,0.00066011,-0.05451536
 ,0.09881365,-0.25602690,0.00035547,-0.00045170,0.00367021,-0.00296479,
 0.00315910,-0.00481178,-0.00106053,-0.00027731,0.00141160,0.00007696,-
 0.00004321,0.00006645,-0.00001805,0.00022239,-0.00029394,0.00006375,0.
 00002157,0.00001108,0.00019501,-0.00008167,0.00023022,-0.00295387,-0.0
 0388288,0.00056622,0.00202438,-0.00171723,-0.00091491,-0.00003385,-0.0
 0010633,0.00004835,0.00004974,0.00006909,-0.00001557,-0.00003163,0.000
 08190,0.00002548,0.00098971,0.00116357,-0.00148479,0.00006008,-0.00002
 429,0.00004512,-0.00001894,0.00006340,-0.00005414,-0.00020596,0.000023
 80,0.00064759,0.00034597,-0.00002665,0.00007544,0.05270868,-0.10891277
 ,0.28296948\\0.00000601,0.00000332,0.00000252,-0.00000085,0.00000192,-
 0.00000119,-0.00000181,-0.00000050,0.00000062,-0.00000158,-0.00000103,
 -0.00000378,-0.00000040,0.00000041,-0.00000161,0.00000464,0.00001610,0
 .00001271,-0.00001198,-0.00002979,0.00000094,-0.00000826,-0.00003025,0
 .00000064,-0.00000800,0.00002017,0.00001929,-0.00000388,-0.00000311,-0
 .00000461,-0.00000238,-0.00000103,-0.00000680,0.00000682,-0.00000126,0
 .00000312,0.00001314,-0.00001292,-0.00002343,-0.00000059,0.00000121,0.
 00000500,0.00000514,0.00000391,0.00000490,0.00000241,-0.00001440,-0.00
 003070,0.00002023,0.00001482,0.00003239,-0.00000251,-0.00000153,0.0000
 1268,-0.00000946,0.00002127,0.00001274,0.00001316,-0.00001810,-0.00000
 881,-0.00001292,0.00000065,0.00000083,-0.00000570,-0.00000136,-0.00000
 367,0.00000441,0.00002506,-0.00000584,-0.00000566,0.00000646,-0.000017
 94\\\@
 Job cpu time:       1 days  5 hours 40 minutes 52.6 seconds.
 File lengths (MBytes):  RWF= 165429 Int=      0 D2E=      0 Chk=    146 Scr=      1
 Normal termination of Gaussian 09 at Wed Aug 25 23:35:23 2021.
