 Entering Gaussian System, Link 0=g09
 Input=G4.CIJYIE.gjf
 Output=G4.CIJYIE.log
 Initial command:
 /public/home/users/caep010/software/Gaussian09/g09/l1.exe "/public/home/users/caep010/.cache/gau_scr/Gau-55971.inp" -scrdir="/public/home/users/caep010/.cache/gau_scr/"
 Entering Link 1 = /public/home/users/caep010/software/Gaussian09/g09/l1.exe PID=     55972.
  
 Copyright (c) 1988,1990,1992,1993,1995,1998,2003,2009,2015,
            Gaussian, Inc.  All Rights Reserved.
  
 This is part of the Gaussian(R) 09 program.  It is based on
 the Gaussian(R) 03 system (copyright 2003, Gaussian, Inc.),
 the Gaussian(R) 98 system (copyright 1998, Gaussian, Inc.),
 the Gaussian(R) 94 system (copyright 1995, Gaussian, Inc.),
 the Gaussian 92(TM) system (copyright 1992, Gaussian, Inc.),
 the Gaussian 90(TM) system (copyright 1990, Gaussian, Inc.),
 the Gaussian 88(TM) system (copyright 1988, Gaussian, Inc.),
 the Gaussian 86(TM) system (copyright 1986, Carnegie Mellon
 University), and the Gaussian 82(TM) system (copyright 1983,
 Carnegie Mellon University). Gaussian is a federally registered
 trademark of Gaussian, Inc.
  
 This software contains proprietary and confidential information,
 including trade secrets, belonging to Gaussian, Inc.
  
 This software is provided under written license and may be
 used, copied, transmitted, or stored only in accord with that
 written license.
  
 The following legend is applicable only to US Government
 contracts under FAR:
  
                    RESTRICTED RIGHTS LEGEND
  
 Use, reproduction and disclosure by the US Government is
 subject to restrictions as set forth in subparagraphs (a)
 and (c) of the Commercial Computer Software - Restricted
 Rights clause in FAR 52.227-19.
  
 Gaussian, Inc.
 340 Quinnipiac St., Bldg. 40, Wallingford CT 06492
  
  
 ---------------------------------------------------------------
 Warning -- This program may not be used in any manner that
 competes with the business of Gaussian, Inc. or will provide
 assistance to any competitor of Gaussian, Inc.  The licensee
 of this program is prohibited from giving any competitor of
 Gaussian, Inc. access to this program.  By using this program,
 the user acknowledges that Gaussian, Inc. is engaged in the
 business of creating and licensing software in the field of
 computational chemistry and represents and warrants to the
 licensee that it is not a competitor of Gaussian, Inc. and that
 it will not use this program in any manner prohibited above.
 ---------------------------------------------------------------
  

 Cite this work as:
 Gaussian 09, Revision E.01,
 M. J. Frisch, G. W. Trucks, H. B. Schlegel, G. E. Scuseria, 
 M. A. Robb, J. R. Cheeseman, G. Scalmani, V. Barone, B. Mennucci, 
 G. A. Petersson, H. Nakatsuji, M. Caricato, X. Li, H. P. Hratchian, 
 A. F. Izmaylov, J. Bloino, G. Zheng, J. L. Sonnenberg, M. Hada, 
 M. Ehara, K. Toyota, R. Fukuda, J. Hasegawa, M. Ishida, T. Nakajima, 
 Y. Honda, O. Kitao, H. Nakai, T. Vreven, J. A. Montgomery, Jr., 
 J. E. Peralta, F. Ogliaro, M. Bearpark, J. J. Heyd, E. Brothers, 
 K. N. Kudin, V. N. Staroverov, T. Keith, R. Kobayashi, J. Normand, 
 K. Raghavachari, A. Rendell, J. C. Burant, S. S. Iyengar, J. Tomasi, 
 M. Cossi, N. Rega, J. M. Millam, M. Klene, J. E. Knox, J. B. Cross, 
 V. Bakken, C. Adamo, J. Jaramillo, R. Gomperts, R. E. Stratmann, 
 O. Yazyev, A. J. Austin, R. Cammi, C. Pomelli, J. W. Ochterski, 
 R. L. Martin, K. Morokuma, V. G. Zakrzewski, G. A. Voth, 
 P. Salvador, J. J. Dannenberg, S. Dapprich, A. D. Daniels, 
 O. Farkas, J. B. Foresman, J. V. Ortiz, J. Cioslowski, 
 and D. J. Fox, Gaussian, Inc., Wallingford CT, 2013.
 
 ******************************************
 Gaussian 09:  ES64L-G09RevE.01 30-Nov-2015
                26-Aug-2021 
 ******************************************
 %nproc=32
 Will use up to   32 processors via shared memory.
 %mem=180GB
 ----------------
 #P G4 OPT=calcfc
 ----------------
 1/10=4,14=-1,18=20,19=15,26=3,38=1/1,3;
 2/9=110,12=2,17=6,18=5,40=1/2;
 3/5=35,7=104,11=2,16=1,25=1,30=1,71=2,74=-5,140=1/1,2,3;
 4//1;
 5/5=2,38=5/2;
 8/6=4,10=90,11=11/1;
 11/6=1,8=1,9=11,15=111,16=1/1,2,10;
 10/6=1,13=1/2;
 6/7=2,8=2,9=2,10=2,28=1/1;
 7/10=1,18=20,25=1/1,2,3,16;
 1/10=4,14=-1,18=20,19=15,26=3/3(2);
 2/9=110/2;
 99//99;
 2/9=110/2;
 3/5=35,7=104,11=2,16=1,25=1,30=1,71=1,74=-5/1,2,3;
 4/5=5,16=3,69=1/1;
 5/5=2,38=5/2;
 7//1,2,3,16;
 1/14=-1,18=20,19=15,26=3/3(-5);
 2/9=110/2;
 6/7=2,8=2,9=2,10=2,19=2,28=1/1;
 99/9=1/99;
 Leave Link    1 at Thu Aug 26 09:26:29 2021, MaxMem= 24159191040 cpu:         3.4
 (Enter /public/home/users/caep010/software/Gaussian09/g09/l101.exe)
 ------
 CIJYIE
 ------
 Symbolic Z-matrix:
 Charge =  0 Multiplicity = 1
 N                     6.3134    2.602     4.4618 
 H                     6.7832    1.8807    4.7121 
 C                     6.4047    3.3355    3.3131 
 C                     5.29      3.0889    5.1855 
 C                     4.8811    2.5357    6.502 
 H                     5.6566    2.2163    6.969 
 H                     4.4558    3.2232    7.0192 
 N                     4.7081    4.1112    4.5701 
 H                     4.2681    1.8094    6.3674 
 C                     7.3888    3.1067    2.3081 
 N                     8.191     2.9266    1.5174 
 C                     5.405     4.2522    3.4265 
 N                     5.0748    5.2681    2.471 
 O                     5.8184    5.3906    1.5055 
 O                     4.084     5.9614    2.6668 
 
 NAtoms=     15 NQM=       15 NQMF=       0 NMMI=      0 NMMIF=      0
                NMic=       0 NMicF=      0.
                    Isotopes and Nuclear Properties:
 (Nuclear quadrupole moments (NQMom) in fm**2, nuclear magnetic moments (NMagM)
  in nuclear magnetons)

  Atom         1           2           3           4           5           6           7           8           9          10
 IAtWgt=          14           1          12          12          12           1           1          14           1          12
 AtmWgt=  14.0030740   1.0078250  12.0000000  12.0000000  12.0000000   1.0078250   1.0078250  14.0030740   1.0078250  12.0000000
 NucSpn=           2           1           0           0           0           1           1           2           1           0
 AtZEff=   0.0000000   0.0000000   0.0000000   0.0000000   0.0000000   0.0000000   0.0000000   0.0000000   0.0000000   0.0000000
 NQMom=    2.0440000   0.0000000   0.0000000   0.0000000   0.0000000   0.0000000   0.0000000   2.0440000   0.0000000   0.0000000
 NMagM=    0.4037610   2.7928460   0.0000000   0.0000000   0.0000000   2.7928460   2.7928460   0.4037610   2.7928460   0.0000000
 AtZNuc=   7.0000000   1.0000000   6.0000000   6.0000000   6.0000000   1.0000000   1.0000000   7.0000000   1.0000000   6.0000000

  Atom        11          12          13          14          15
 IAtWgt=          14          12          14          16          16
 AtmWgt=  14.0030740  12.0000000  14.0030740  15.9949146  15.9949146
 NucSpn=           2           0           2           0           0
 AtZEff=   0.0000000   0.0000000   0.0000000   0.0000000   0.0000000
 NQMom=    2.0440000   0.0000000   2.0440000   0.0000000   0.0000000
 NMagM=    0.4037610   0.0000000   0.4037610   0.0000000   0.0000000
 AtZNuc=   7.0000000   6.0000000   7.0000000   8.0000000   8.0000000
 Leave Link  101 at Thu Aug 26 09:26:29 2021, MaxMem= 24159191040 cpu:        10.1
 (Enter /public/home/users/caep010/software/Gaussian09/g09/l103.exe)

 GradGradGradGradGradGradGradGradGradGradGradGradGradGradGradGradGradGrad
 Berny optimization.
 Initialization pass.
                           ----------------------------
                           !    Initial Parameters    !
                           ! (Angstroms and Degrees)  !
 --------------------------                            --------------------------
 ! Name  Definition              Value          Derivative Info.                !
 --------------------------------------------------------------------------------
 ! R1    R(1,2)                  0.8965         calculate D2E/DX2 analytically  !
 ! R2    R(1,3)                  1.366          calculate D2E/DX2 analytically  !
 ! R3    R(1,4)                  1.3447         calculate D2E/DX2 analytically  !
 ! R4    R(3,10)                 1.4251         calculate D2E/DX2 analytically  !
 ! R5    R(3,12)                 1.3611         calculate D2E/DX2 analytically  !
 ! R6    R(4,5)                  1.4854         calculate D2E/DX2 analytically  !
 ! R7    R(4,8)                  1.3276         calculate D2E/DX2 analytically  !
 ! R8    R(5,6)                  0.96           calculate D2E/DX2 analytically  !
 ! R9    R(5,7)                  0.9597         calculate D2E/DX2 analytically  !
 ! R10   R(5,9)                  0.9599         calculate D2E/DX2 analytically  !
 ! R11   R(8,12)                 1.3466         calculate D2E/DX2 analytically  !
 ! R12   R(10,11)                1.1407         calculate D2E/DX2 analytically  !
 ! R13   R(12,13)                1.4332         calculate D2E/DX2 analytically  !
 ! R14   R(13,14)                1.2248         calculate D2E/DX2 analytically  !
 ! R15   R(13,15)                1.225          calculate D2E/DX2 analytically  !
 ! A1    A(2,1,3)              129.1855         calculate D2E/DX2 analytically  !
 ! A2    A(2,1,4)              122.6786         calculate D2E/DX2 analytically  !
 ! A3    A(3,1,4)              108.0003         calculate D2E/DX2 analytically  !
 ! A4    A(1,3,10)             123.5729         calculate D2E/DX2 analytically  !
 ! A5    A(1,3,12)             104.0342         calculate D2E/DX2 analytically  !
 ! A6    A(10,3,12)            132.3836         calculate D2E/DX2 analytically  !
 ! A7    A(1,4,5)              123.4807         calculate D2E/DX2 analytically  !
 ! A8    A(1,4,8)              111.2812         calculate D2E/DX2 analytically  !
 ! A9    A(5,4,8)              125.2381         calculate D2E/DX2 analytically  !
 ! A10   A(4,5,6)              109.4326         calculate D2E/DX2 analytically  !
 ! A11   A(4,5,7)              109.4411         calculate D2E/DX2 analytically  !
 ! A12   A(4,5,9)              109.4699         calculate D2E/DX2 analytically  !
 ! A13   A(6,5,7)              109.5231         calculate D2E/DX2 analytically  !
 ! A14   A(6,5,9)              109.4125         calculate D2E/DX2 analytically  !
 ! A15   A(7,5,9)              109.5481         calculate D2E/DX2 analytically  !
 ! A16   A(4,8,12)             104.3273         calculate D2E/DX2 analytically  !
 ! A17   A(3,12,8)             112.3548         calculate D2E/DX2 analytically  !
 ! A18   A(3,12,13)            126.2331         calculate D2E/DX2 analytically  !
 ! A19   A(8,12,13)            121.4105         calculate D2E/DX2 analytically  !
 ! A20   A(12,13,14)           117.1656         calculate D2E/DX2 analytically  !
 ! A21   A(12,13,15)           118.7471         calculate D2E/DX2 analytically  !
 ! A22   A(14,13,15)           124.0855         calculate D2E/DX2 analytically  !
 ! A23   L(3,10,11,14,-1)      180.4914         calculate D2E/DX2 analytically  !
 ! A24   L(3,10,11,14,-2)      179.0661         calculate D2E/DX2 analytically  !
 ! D1    D(2,1,3,10)            -4.7591         calculate D2E/DX2 analytically  !
 ! D2    D(2,1,3,12)           176.2226         calculate D2E/DX2 analytically  !
 ! D3    D(4,1,3,10)           179.4515         calculate D2E/DX2 analytically  !
 ! D4    D(4,1,3,12)             0.4332         calculate D2E/DX2 analytically  !
 ! D5    D(2,1,4,5)              3.539          calculate D2E/DX2 analytically  !
 ! D6    D(2,1,4,8)           -176.4037         calculate D2E/DX2 analytically  !
 ! D7    D(3,1,4,5)            179.6621         calculate D2E/DX2 analytically  !
 ! D8    D(3,1,4,8)             -0.2806         calculate D2E/DX2 analytically  !
 ! D9    D(1,3,12,8)            -0.4586         calculate D2E/DX2 analytically  !
 ! D10   D(1,3,12,13)          179.9916         calculate D2E/DX2 analytically  !
 ! D11   D(10,3,12,8)         -179.3512         calculate D2E/DX2 analytically  !
 ! D12   D(10,3,12,13)           1.0989         calculate D2E/DX2 analytically  !
 ! D13   D(1,4,5,6)             33.3511         calculate D2E/DX2 analytically  !
 ! D14   D(1,4,5,7)            153.3725         calculate D2E/DX2 analytically  !
 ! D15   D(1,4,5,9)            -86.5526         calculate D2E/DX2 analytically  !
 ! D16   D(8,4,5,6)           -146.7143         calculate D2E/DX2 analytically  !
 ! D17   D(8,4,5,7)            -26.6929         calculate D2E/DX2 analytically  !
 ! D18   D(8,4,5,9)             93.3821         calculate D2E/DX2 analytically  !
 ! D19   D(1,4,8,12)            -0.0038         calculate D2E/DX2 analytically  !
 ! D20   D(5,4,8,12)          -179.9453         calculate D2E/DX2 analytically  !
 ! D21   D(4,8,12,3)             0.296          calculate D2E/DX2 analytically  !
 ! D22   D(4,8,12,13)          179.8706         calculate D2E/DX2 analytically  !
 ! D23   D(3,12,13,14)          -5.6996         calculate D2E/DX2 analytically  !
 ! D24   D(3,12,13,15)         174.7651         calculate D2E/DX2 analytically  !
 ! D25   D(8,12,13,14)         174.7882         calculate D2E/DX2 analytically  !
 ! D26   D(8,12,13,15)          -4.7471         calculate D2E/DX2 analytically  !
 --------------------------------------------------------------------------------
 Trust Radius=3.00D-01 FncErr=1.00D-07 GrdErr=1.00D-06
 Number of steps in this run=     75 maximum allowed number of steps=    100.
 GradGradGradGradGradGradGradGradGradGradGradGradGradGradGradGradGradGrad

 Leave Link  103 at Thu Aug 26 09:26:30 2021, MaxMem= 24159191040 cpu:         0.6
 (Enter /public/home/users/caep010/software/Gaussian09/g09/l202.exe)
                          Input orientation:                          
 ---------------------------------------------------------------------
 Center     Atomic      Atomic             Coordinates (Angstroms)
 Number     Number       Type             X           Y           Z
 ---------------------------------------------------------------------
      1          7           0        6.313400    2.602000    4.461800
      2          1           0        6.783200    1.880700    4.712100
      3          6           0        6.404700    3.335500    3.313100
      4          6           0        5.290000    3.088900    5.185500
      5          6           0        4.881100    2.535700    6.502000
      6          1           0        5.656600    2.216300    6.969000
      7          1           0        4.455800    3.223200    7.019200
      8          7           0        4.708100    4.111200    4.570100
      9          1           0        4.268100    1.809400    6.367400
     10          6           0        7.388800    3.106700    2.308100
     11          7           0        8.191000    2.926600    1.517400
     12          6           0        5.405000    4.252200    3.426500
     13          7           0        5.074800    5.268100    2.471000
     14          8           0        5.818400    5.390600    1.505500
     15          8           0        4.084000    5.961400    2.666800
 ---------------------------------------------------------------------
                    Distance matrix (angstroms):
                    1          2          3          4          5
     1  N    0.000000
     2  H    0.896457   0.000000
     3  C    1.365968   2.053511   0.000000
     4  C    1.344679   1.978257   2.193000   0.000000
     5  C    2.493651   2.692722   3.623551   1.485396   0.000000
     6  H    2.620344   2.544691   3.895878   2.019084   0.959951
     7  H    3.221314   3.541441   4.188795   2.019005   0.959704
     8  N    2.205992   3.049809   2.249491   1.327562   2.498873
     9  H    2.905646   3.011782   4.027752   2.019477   0.959895
    10  C    2.459600   2.765690   1.425071   3.561560   4.919695
    11  N    3.507170   3.644436   2.565659   4.679434   5.996205
    12  C    2.149464   3.029227   1.361102   2.112007   3.560835
    13  N    3.550423   4.406318   2.492531   3.487655   4.873653
    14  O    4.094023   4.851033   2.799036   4.372577   5.830437
    15  O    4.413368   5.302928   3.563524   4.006188   5.203801
                    6          7          8          9         10
     6  H    0.000000
     7  H    1.567893   0.000000
     8  N    3.200784   2.617306   0.000000
     9  H    1.566979   1.568090   2.953332   0.000000
    10  C    5.051467   5.550723   3.648536   5.282014   0.000000
    11  N    6.053730   6.656538   4.780465   6.337174   1.140687
    12  C    4.093592   3.855816   1.346615   3.988572   2.549206
    13  N    5.466624   5.025027   2.424687   5.272125   3.170612
    14  O    6.320775   6.079078   3.501629   6.234300   2.885571
    15  O    5.916736   5.155517   2.726773   5.564839   4.381744
                   11         12         13         14         15
    11  N    0.000000
    12  C    3.628178   0.000000
    13  N    4.012814   1.433201   0.000000
    14  O    3.420624   2.270924   1.224801   0.000000
    15  O    5.234365   2.289880   1.225025   2.163926   0.000000
 Stoichiometry    C5H4N4O2
 Framework group  C1[X(C5H4N4O2)]
 Deg. of freedom    39
 Full point group                 C1      NOp   1
 Largest Abelian subgroup         C1      NOp   1
 Largest concise Abelian subgroup C1      NOp   1
                         Standard orientation:                         
 ---------------------------------------------------------------------
 Center     Atomic      Atomic             Coordinates (Angstroms)
 Number     Number       Type             X           Y           Z
 ---------------------------------------------------------------------
      1          7           0       -1.270262    1.118761    0.007434
      2          1           0       -1.710944    1.897569    0.061226
      3          6           0        0.075716    0.886178    0.018318
      4          6           0       -1.897358   -0.070621   -0.009334
      5          6           0       -3.375440   -0.217612   -0.017607
      6          1           0       -3.765911    0.509059   -0.508512
      7          1           0       -3.611394   -1.049425   -0.434073
      8          7           0       -1.027801   -1.073741   -0.016047
      9          1           0       -3.703196   -0.205749    0.884520
     10          6           0        1.054411    1.922000    0.025726
     11          7           0        1.830087    2.758281    0.014417
     12          6           0        0.176335   -0.471034   -0.002929
     13          7           0        1.391775   -1.230488   -0.002317
     14          8           0        2.441633   -0.605644   -0.088954
     15          8           0        1.323725   -2.451183    0.074877
 ---------------------------------------------------------------------
 Rotational constants (GHZ):      1.5458013      1.0681434      0.6340157
 Leave Link  202 at Thu Aug 26 09:26:30 2021, MaxMem= 24159191040 cpu:         0.4
 (Enter /public/home/users/caep010/software/Gaussian09/g09/l301.exe)
 Standard basis: GTBas3 (6D, 7F)
 Ernie: Thresh=  0.10000D-02 Tol=  0.10000D-05 Strict=F.
 There are   361 symmetry adapted cartesian basis functions of A   symmetry.
 There are   328 symmetry adapted basis functions of A   symmetry.
   328 basis functions,   512 primitive gaussians,   361 cartesian basis functions
    39 alpha electrons       39 beta electrons
       nuclear repulsion energy       578.6604812453 Hartrees.
 IExCor=  402 DFT=T Ex+Corr=B3LYP ExCW=0 ScaHFX=  0.200000
 ScaDFX=  0.800000  0.720000  1.000000  0.810000 ScalE2=  1.000000  1.000000
 IRadAn=      0 IRanWt=     -1 IRanGd=            0 ICorTp=0 IEmpDi=  4
 NAtoms=   15 NActive=   15 NUniq=   15 SFac= 1.00D+00 NAtFMM=   60 NAOKFM=F Big=F
 Integral buffers will be    131072 words long.
 Raffenetti 2 integral format.
 Two-electron integral symmetry is turned on.
 Leave Link  301 at Thu Aug 26 09:26:30 2021, MaxMem= 24159191040 cpu:         2.3
 (Enter /public/home/users/caep010/software/Gaussian09/g09/l302.exe)
 NPDir=0 NMtPBC=     1 NCelOv=     1 NCel=       1 NClECP=     1 NCelD=      1
         NCelK=      1 NCelE2=     1 NClLst=     1 CellRange=     0.0.
 One-electron integrals computed using PRISM.
 NBasis=   328 RedAO= T EigKep=  8.60D-05  NBF=   328
 NBsUse=   328 1.00D-06 EigRej= -1.00D+00 NBFU=   328
 Precomputing XC quadrature grid using
 IXCGrd= 4 IRadAn=           0 IRanWt=          -1 IRanGd=           0 AccXCQ= 0.00D+00.
 Generated NRdTot=       0 NPtTot=           0 NUsed=           0 NTot=          32
 NSgBfM=   360   360   360   360   360 MxSgAt=    15 MxSgA2=    15.
 Leave Link  302 at Thu Aug 26 09:26:30 2021, MaxMem= 24159191040 cpu:        16.4
 (Enter /public/home/users/caep010/software/Gaussian09/g09/l303.exe)
 DipDrv:  MaxL=1.
 Leave Link  303 at Thu Aug 26 09:26:30 2021, MaxMem= 24159191040 cpu:         1.0
 (Enter /public/home/users/caep010/software/Gaussian09/g09/l401.exe)
 ExpMin= 1.61D-01 ExpMax= 5.48D+03 ExpMxC= 8.25D+02 IAcc=1 IRadAn=         1 AccDes= 0.00D+00
 Harris functional with IExCor=  402 and IRadAn=       1 diagonalized for initial guess.
 HarFok:  IExCor=  402 AccDes= 0.00D+00 IRadAn=         1 IDoV= 1 UseB2=F ITyADJ=14
 ICtDFT=  3500011 ScaDFX=  1.000000  1.000000  1.000000  1.000000
 FoFCou: FMM=F IPFlag=           0 FMFlag=      100000 FMFlg1=           0
         NFxFlg=           0 DoJE=T BraDBF=F KetDBF=T FulRan=T
         wScrn=  0.000000 ICntrl=     500 IOpCl=  0 I1Cent=   200000004 NGrid=           0
         NMat0=    1 NMatS0=      1 NMatT0=    0 NMatD0=    1 NMtDS0=    0 NMtDT0=    0
 Petite list used in FoFCou.
 Harris En= -562.303208364842    
 JPrj=0 DoOrth=F DoCkMO=F.
 Leave Link  401 at Thu Aug 26 09:26:31 2021, MaxMem= 24159191040 cpu:        16.5
 (Enter /public/home/users/caep010/software/Gaussian09/g09/l502.exe)
 Closed shell SCF:
 Using DIIS extrapolation, IDIIS=  1040.
 Integral symmetry usage will be decided dynamically.
 Keep R1 ints in memory in canonical form, NReq=1479794396.
 IVT=      423667 IEndB=      423667 NGot= 24159191040 MDV= 22703115428
 LenX= 22703115428 LenY= 22702984666
 Requested convergence on RMS density matrix=1.00D-08 within 128 cycles.
 Requested convergence on MAX density matrix=1.00D-06.
 Requested convergence on             energy=1.00D-06.
 No special actions if energy rises.
 FoFCou: FMM=F IPFlag=           0 FMFlag=           0 FMFlg1=           0
         NFxFlg=           0 DoJE=F BraDBF=F KetDBF=F FulRan=T
         wScrn=  0.000000 ICntrl=     600 IOpCl=  0 I1Cent=           0 NGrid=           0
         NMat0=    1 NMatS0=  53956 NMatT0=    0 NMatD0=    1 NMtDS0=    0 NMtDT0=    0
 Symmetry not used in FoFCou.
 Integral accuracy reduced to 1.0D-05 until final iterations.

 Cycle   1  Pass 0  IDiag  1:
 E= -561.913279027420    
 DIIS: error= 3.67D-02 at cycle   1 NSaved=   1.
 NSaved= 1 IEnMin= 1 EnMin= -561.913279027420     IErMin= 1 ErrMin= 3.67D-02
 ErrMax= 3.67D-02  0.00D+00 EMaxC= 1.00D-01 BMatC= 4.31D-01 BMatP= 4.31D-01
 IDIUse=3 WtCom= 6.33D-01 WtEn= 3.67D-01
 Coeff-Com:  0.100D+01
 Coeff-En:   0.100D+01
 Coeff:      0.100D+01
 Gap=     0.169 Goal=   None    Shift=    0.000
 GapD=    0.169 DampG=1.000 DampE=0.500 DampFc=0.5000 IDamp=-1.
 Damping current iteration by 5.00D-01
 RMSDP=4.31D-03 MaxDP=2.47D-01              OVMax= 3.33D-01

 Cycle   2  Pass 0  IDiag  1:
 E= -561.974213610253     Delta-E=       -0.060934582832 Rises=F Damp=T
 DIIS: error= 1.61D-02 at cycle   2 NSaved=   2.
 NSaved= 2 IEnMin= 2 EnMin= -561.974213610253     IErMin= 2 ErrMin= 1.61D-02
 ErrMax= 1.61D-02  0.00D+00 EMaxC= 1.00D-01 BMatC= 9.68D-02 BMatP= 4.31D-01
 IDIUse=3 WtCom= 8.39D-01 WtEn= 1.61D-01
 Coeff-Com:  0.273D+00 0.727D+00
 Coeff-En:   0.415D+00 0.585D+00
 Coeff:      0.296D+00 0.704D+00
 Gap=     0.184 Goal=   None    Shift=    0.000
 RMSDP=1.40D-03 MaxDP=6.53D-02 DE=-6.09D-02 OVMax= 2.17D-01

 Cycle   3  Pass 0  IDiag  1:
 E= -562.208956324863     Delta-E=       -0.234742714611 Rises=F Damp=F
 DIIS: error= 1.51D-02 at cycle   3 NSaved=   3.
 NSaved= 3 IEnMin= 3 EnMin= -562.208956324863     IErMin= 3 ErrMin= 1.51D-02
 ErrMax= 1.51D-02  0.00D+00 EMaxC= 1.00D-01 BMatC= 4.79D-02 BMatP= 9.68D-02
 IDIUse=3 WtCom= 8.49D-01 WtEn= 1.51D-01
 Coeff-Com:  0.100D+00 0.405D+00 0.495D+00
 Coeff-En:   0.000D+00 0.000D+00 0.100D+01
 Coeff:      0.849D-01 0.344D+00 0.571D+00
 Gap=     0.183 Goal=   None    Shift=    0.000
 RMSDP=9.42D-04 MaxDP=5.06D-02 DE=-2.35D-01 OVMax= 9.07D-02

 Cycle   4  Pass 0  IDiag  1:
 E= -562.227814991721     Delta-E=       -0.018858666858 Rises=F Damp=F
 DIIS: error= 9.96D-03 at cycle   4 NSaved=   4.
 NSaved= 4 IEnMin= 4 EnMin= -562.227814991721     IErMin= 4 ErrMin= 9.96D-03
 ErrMax= 9.96D-03  0.00D+00 EMaxC= 1.00D-01 BMatC= 2.89D-02 BMatP= 4.79D-02
 IDIUse=3 WtCom= 9.00D-01 WtEn= 9.96D-02
 Coeff-Com:  0.422D-01 0.150D+00 0.416D+00 0.392D+00
 Coeff-En:   0.000D+00 0.000D+00 0.390D+00 0.610D+00
 Coeff:      0.380D-01 0.136D+00 0.413D+00 0.413D+00
 Gap=     0.181 Goal=   None    Shift=    0.000
 RMSDP=5.22D-04 MaxDP=3.18D-02 DE=-1.89D-02 OVMax= 6.47D-02

 Cycle   5  Pass 0  IDiag  1:
 E= -562.249841245033     Delta-E=       -0.022026253312 Rises=F Damp=F
 DIIS: error= 3.46D-03 at cycle   5 NSaved=   5.
 NSaved= 5 IEnMin= 5 EnMin= -562.249841245033     IErMin= 5 ErrMin= 3.46D-03
 ErrMax= 3.46D-03  0.00D+00 EMaxC= 1.00D-01 BMatC= 3.24D-03 BMatP= 2.89D-02
 IDIUse=3 WtCom= 9.65D-01 WtEn= 3.46D-02
 Coeff-Com:  0.118D-01 0.168D-01 0.199D+00 0.306D+00 0.466D+00
 Coeff-En:   0.000D+00 0.000D+00 0.000D+00 0.870D-01 0.913D+00
 Coeff:      0.114D-01 0.162D-01 0.192D+00 0.299D+00 0.481D+00
 Gap=     0.180 Goal=   None    Shift=    0.000
 RMSDP=1.79D-04 MaxDP=1.67D-02 DE=-2.20D-02 OVMax= 3.26D-02

 Cycle   6  Pass 0  IDiag  1:
 E= -562.251839157374     Delta-E=       -0.001997912341 Rises=F Damp=F
 DIIS: error= 1.74D-03 at cycle   6 NSaved=   6.
 NSaved= 6 IEnMin= 6 EnMin= -562.251839157374     IErMin= 6 ErrMin= 1.74D-03
 ErrMax= 1.74D-03  0.00D+00 EMaxC= 1.00D-01 BMatC= 6.95D-04 BMatP= 3.24D-03
 IDIUse=3 WtCom= 9.83D-01 WtEn= 1.74D-02
 Coeff-Com:  0.441D-02-0.259D-02 0.106D+00 0.188D+00 0.367D+00 0.337D+00
 Coeff-En:   0.000D+00 0.000D+00 0.000D+00 0.000D+00 0.196D+00 0.804D+00
 Coeff:      0.434D-02-0.255D-02 0.104D+00 0.184D+00 0.364D+00 0.345D+00
 Gap=     0.179 Goal=   None    Shift=    0.000
 RMSDP=7.50D-05 MaxDP=5.91D-03 DE=-2.00D-03 OVMax= 1.28D-02

 Cycle   7  Pass 0  IDiag  1:
 E= -562.252376896338     Delta-E=       -0.000537738964 Rises=F Damp=F
 DIIS: error= 3.08D-04 at cycle   7 NSaved=   7.
 NSaved= 7 IEnMin= 7 EnMin= -562.252376896338     IErMin= 7 ErrMin= 3.08D-04
 ErrMax= 3.08D-04  0.00D+00 EMaxC= 1.00D-01 BMatC= 3.08D-05 BMatP= 6.95D-04
 IDIUse=3 WtCom= 9.97D-01 WtEn= 3.08D-03
 Coeff-Com:  0.105D-02-0.354D-02 0.369D-01 0.696D-01 0.157D+00 0.217D+00
 Coeff-Com:  0.522D+00
 Coeff-En:   0.000D+00 0.000D+00 0.000D+00 0.000D+00 0.000D+00 0.160D-01
 Coeff-En:   0.984D+00
 Coeff:      0.105D-02-0.353D-02 0.368D-01 0.694D-01 0.157D+00 0.216D+00
 Coeff:      0.523D+00
 Gap=     0.180 Goal=   None    Shift=    0.000
 RMSDP=1.62D-05 MaxDP=1.18D-03 DE=-5.38D-04 OVMax= 1.84D-03

 Cycle   8  Pass 0  IDiag  1:
 E= -562.252400088712     Delta-E=       -0.000023192374 Rises=F Damp=F
 DIIS: error= 5.70D-05 at cycle   8 NSaved=   8.
 NSaved= 8 IEnMin= 8 EnMin= -562.252400088712     IErMin= 8 ErrMin= 5.70D-05
 ErrMax= 5.70D-05  0.00D+00 EMaxC= 1.00D-01 BMatC= 2.19D-06 BMatP= 3.08D-05
 IDIUse=1 WtCom= 1.00D+00 WtEn= 0.00D+00
 Coeff-Com:  0.161D-03-0.153D-02 0.107D-01 0.210D-01 0.528D-01 0.881D-01
 Coeff-Com:  0.292D+00 0.536D+00
 Coeff:      0.161D-03-0.153D-02 0.107D-01 0.210D-01 0.528D-01 0.881D-01
 Coeff:      0.292D+00 0.536D+00
 Gap=     0.180 Goal=   None    Shift=    0.000
 RMSDP=5.08D-06 MaxDP=3.08D-04 DE=-2.32D-05 OVMax= 6.38D-04

 Initial convergence to 1.0D-05 achieved.  Increase integral accuracy.
 Cycle   9  Pass 1  IDiag  1:
 E= -562.252375348507     Delta-E=        0.000024740205 Rises=F Damp=F
 DIIS: error= 2.41D-05 at cycle   1 NSaved=   1.
 NSaved= 1 IEnMin= 1 EnMin= -562.252375348507     IErMin= 1 ErrMin= 2.41D-05
 ErrMax= 2.41D-05  0.00D+00 EMaxC= 1.00D-01 BMatC= 4.93D-07 BMatP= 4.93D-07
 IDIUse=1 WtCom= 1.00D+00 WtEn= 0.00D+00
 Coeff-Com:  0.100D+01
 Coeff:      0.100D+01
 Gap=     0.180 Goal=   None    Shift=    0.000
 RMSDP=5.08D-06 MaxDP=3.08D-04 DE= 2.47D-05 OVMax= 6.17D-04

 Cycle  10  Pass 1  IDiag  1:
 E= -562.252374449059     Delta-E=        0.000000899448 Rises=F Damp=F
 DIIS: error= 5.17D-05 at cycle   2 NSaved=   2.
 NSaved= 2 IEnMin= 1 EnMin= -562.252375348507     IErMin= 1 ErrMin= 2.41D-05
 ErrMax= 5.17D-05  0.00D+00 EMaxC= 1.00D-01 BMatC= 1.44D-06 BMatP= 4.93D-07
 IDIUse=1 WtCom= 1.00D+00 WtEn= 0.00D+00
 Coeff-Com:  0.642D+00 0.358D+00
 Coeff:      0.642D+00 0.358D+00
 Gap=     0.180 Goal=   None    Shift=    0.000
 RMSDP=3.65D-06 MaxDP=2.42D-04 DE= 8.99D-07 OVMax= 4.49D-04

 Cycle  11  Pass 1  IDiag  1:
 E= -562.252375758963     Delta-E=       -0.000001309905 Rises=F Damp=F
 DIIS: error= 7.78D-06 at cycle   3 NSaved=   3.
 NSaved= 3 IEnMin= 3 EnMin= -562.252375758963     IErMin= 3 ErrMin= 7.78D-06
 ErrMax= 7.78D-06  0.00D+00 EMaxC= 1.00D-01 BMatC= 3.29D-08 BMatP= 4.93D-07
 IDIUse=1 WtCom= 1.00D+00 WtEn= 0.00D+00
 Coeff-Com:  0.126D+00 0.150D+00 0.724D+00
 Coeff:      0.126D+00 0.150D+00 0.724D+00
 Gap=     0.180 Goal=   None    Shift=    0.000
 RMSDP=6.98D-07 MaxDP=3.53D-05 DE=-1.31D-06 OVMax= 7.32D-05

 Cycle  12  Pass 1  IDiag  1:
 E= -562.252375775477     Delta-E=       -0.000000016514 Rises=F Damp=F
 DIIS: error= 6.63D-06 at cycle   4 NSaved=   4.
 NSaved= 4 IEnMin= 4 EnMin= -562.252375775477     IErMin= 4 ErrMin= 6.63D-06
 ErrMax= 6.63D-06  0.00D+00 EMaxC= 1.00D-01 BMatC= 1.38D-08 BMatP= 3.29D-08
 IDIUse=1 WtCom= 1.00D+00 WtEn= 0.00D+00
 Coeff-Com:  0.636D-02 0.575D-01 0.473D+00 0.464D+00
 Coeff:      0.636D-02 0.575D-01 0.473D+00 0.464D+00
 Gap=     0.180 Goal=   None    Shift=    0.000
 RMSDP=3.51D-07 MaxDP=1.75D-05 DE=-1.65D-08 OVMax= 3.78D-05

 Cycle  13  Pass 1  IDiag  1:
 E= -562.252375786237     Delta-E=       -0.000000010760 Rises=F Damp=F
 DIIS: error= 2.32D-06 at cycle   5 NSaved=   5.
 NSaved= 5 IEnMin= 5 EnMin= -562.252375786237     IErMin= 5 ErrMin= 2.32D-06
 ErrMax= 2.32D-06  0.00D+00 EMaxC= 1.00D-01 BMatC= 2.00D-09 BMatP= 1.38D-08
 IDIUse=1 WtCom= 1.00D+00 WtEn= 0.00D+00
 Coeff-Com: -0.838D-02 0.264D-01 0.263D+00 0.322D+00 0.397D+00
 Coeff:     -0.838D-02 0.264D-01 0.263D+00 0.322D+00 0.397D+00
 Gap=     0.180 Goal=   None    Shift=    0.000
 RMSDP=1.40D-07 MaxDP=9.20D-06 DE=-1.08D-08 OVMax= 1.34D-05

 Cycle  14  Pass 1  IDiag  1:
 E= -562.252375787813     Delta-E=       -0.000000001575 Rises=F Damp=F
 DIIS: error= 6.05D-07 at cycle   6 NSaved=   6.
 NSaved= 6 IEnMin= 6 EnMin= -562.252375787813     IErMin= 6 ErrMin= 6.05D-07
 ErrMax= 6.05D-07  0.00D+00 EMaxC= 1.00D-01 BMatC= 1.44D-10 BMatP= 2.00D-09
 IDIUse=1 WtCom= 1.00D+00 WtEn= 0.00D+00
 Coeff-Com: -0.579D-02 0.145D-01 0.147D+00 0.185D+00 0.273D+00 0.385D+00
 Coeff:     -0.579D-02 0.145D-01 0.147D+00 0.185D+00 0.273D+00 0.385D+00
 Gap=     0.180 Goal=   None    Shift=    0.000
 RMSDP=3.56D-08 MaxDP=2.67D-06 DE=-1.58D-09 OVMax= 5.12D-06

 Cycle  15  Pass 1  IDiag  1:
 E= -562.252375787936     Delta-E=       -0.000000000123 Rises=F Damp=F
 DIIS: error= 2.15D-07 at cycle   7 NSaved=   7.
 NSaved= 7 IEnMin= 7 EnMin= -562.252375787936     IErMin= 7 ErrMin= 2.15D-07
 ErrMax= 2.15D-07  0.00D+00 EMaxC= 1.00D-01 BMatC= 1.23D-11 BMatP= 1.44D-10
 IDIUse=1 WtCom= 1.00D+00 WtEn= 0.00D+00
 Coeff-Com: -0.260D-02 0.570D-02 0.581D-01 0.737D-01 0.124D+00 0.249D+00
 Coeff-Com:  0.492D+00
 Coeff:     -0.260D-02 0.570D-02 0.581D-01 0.737D-01 0.124D+00 0.249D+00
 Coeff:      0.492D+00
 Gap=     0.180 Goal=   None    Shift=    0.000
 RMSDP=1.30D-08 MaxDP=1.00D-06 DE=-1.23D-10 OVMax= 2.20D-06

 Cycle  16  Pass 1  IDiag  1:
 E= -562.252375787941     Delta-E=       -0.000000000005 Rises=F Damp=F
 DIIS: error= 1.37D-07 at cycle   8 NSaved=   8.
 NSaved= 8 IEnMin= 8 EnMin= -562.252375787941     IErMin= 8 ErrMin= 1.37D-07
 ErrMax= 1.37D-07  0.00D+00 EMaxC= 1.00D-01 BMatC= 5.50D-12 BMatP= 1.23D-11
 IDIUse=1 WtCom= 1.00D+00 WtEn= 0.00D+00
 Coeff-Com: -0.733D-03 0.125D-02 0.123D-01 0.156D-01 0.369D-01 0.116D+00
 Coeff-Com:  0.409D+00 0.410D+00
 Coeff:     -0.733D-03 0.125D-02 0.123D-01 0.156D-01 0.369D-01 0.116D+00
 Coeff:      0.409D+00 0.410D+00
 Gap=     0.180 Goal=   None    Shift=    0.000
 RMSDP=6.46D-09 MaxDP=4.90D-07 DE=-4.77D-12 OVMax= 9.74D-07

 SCF Done:  E(RB3LYP) =  -562.252375788     A.U. after   16 cycles
            NFock= 16  Conv=0.65D-08     -V/T= 2.0045
 KE= 5.597402751145D+02 PE=-2.470713828524D+03 EE= 7.700606963761D+02
 Leave Link  502 at Thu Aug 26 09:27:17 2021, MaxMem= 24159191040 cpu:       266.3
 (Enter /public/home/users/caep010/software/Gaussian09/g09/l801.exe)
 DoSCS=F DFT=T ScalE2(SS,OS)=  1.000000  1.000000
 Range of M.O.s used for correlation:     1   328
 NBasis=   328 NAE=    39 NBE=    39 NFC=     0 NFV=     0
 NROrb=    328 NOA=    39 NOB=    39 NVA=   289 NVB=   289

 **** Warning!!: The largest alpha MO coefficient is  0.60005819D+02

 Leave Link  801 at Thu Aug 26 09:27:17 2021, MaxMem= 24159191040 cpu:         0.6
 (Enter /public/home/users/caep010/software/Gaussian09/g09/l1101.exe)
 Using compressed storage, NAtomX=    15.
 Will process     16 centers per pass.
 Leave Link 1101 at Thu Aug 26 09:27:18 2021, MaxMem= 24159191040 cpu:        20.6
 (Enter /public/home/users/caep010/software/Gaussian09/g09/l1102.exe)
 Symmetrizing basis deriv contribution to polar:
 IMax=3 JMax=2 DiffMx= 0.00D+00
 Leave Link 1102 at Thu Aug 26 09:27:19 2021, MaxMem= 24159191040 cpu:         1.0
 (Enter /public/home/users/caep010/software/Gaussian09/g09/l1110.exe)
 Forming Gx(P) for the SCF density, NAtomX=    15.
 Integral derivatives from FoFJK, PRISM(SPDF).
 Do as many integral derivatives as possible in FoFJK.
 G2DrvN: MDV=   24159190816.
 G2DrvN: will do    16 centers at a time, making    1 passes.
 Calling FoFCou, ICntrl=  3107 FMM=F I1Cent=   0 AccDes= 0.00D+00.
 FoFJK:  IHMeth= 1 ICntrl=    3107 DoSepK=F KAlg= 0 I1Cent=   0 FoldK=F
 IRaf=         0 NMat=   1 IRICut=       1 DoRegI=T DoRafI=F ISym2E= 0.
 FoFCou: FMM=F IPFlag=           0 FMFlag=      100000 FMFlg1=           0
         NFxFlg=           0 DoJE=F BraDBF=F KetDBF=F FulRan=T
         wScrn=  0.000000 ICntrl=    3107 IOpCl=  0 I1Cent=           0 NGrid=           0
         NMat0=    1 NMatS0=      1 NMatT0=    0 NMatD0=    1 NMtDS0=    0 NMtDT0=    0
 Symmetry not used in FoFCou.
 End of G2Drv F.D. properties file   721 does not exist.
 End of G2Drv F.D. properties file   722 does not exist.
 End of G2Drv F.D. properties file   788 does not exist.
 Leave Link 1110 at Thu Aug 26 09:27:35 2021, MaxMem= 24159191040 cpu:       509.3
 (Enter /public/home/users/caep010/software/Gaussian09/g09/l1002.exe)
 Minotr:  Closed shell wavefunction.
          IDoAtm=111111111111111
          Direct CPHF calculation.
          Differentiating once with respect to nuclear coordinates.
          Requested convergence is 1.0D-08 RMS, and 1.0D-07 maximum.
          Secondary convergence is 1.0D-12 RMS, and 1.0D-12 maximum.
          NewPWx=T KeepS1=F KeepF1=F KeepIn=T MapXYZ=F SortEE=F KeepMc=T.
          MDV=   24159190558 using IRadAn=       2.
 Generate precomputed XC quadrature information.
 Keep R1 ints in memory in canonical form, NReq=1479376456.
 FoFCou: FMM=F IPFlag=           0 FMFlag=           0 FMFlg1=           0
         NFxFlg=           0 DoJE=F BraDBF=F KetDBF=F FulRan=T
         wScrn=  0.000000 ICntrl=     600 IOpCl=  0 I1Cent=           0 NGrid=           0
         NMat0=    1 NMatS0=  53956 NMatT0=    0 NMatD0=    1 NMtDS0=    0 NMtDT0=    0
 Symmetry not used in FoFCou.
          Solving linear equations simultaneously, MaxMat=       0.
          There are    48 degrees of freedom in the 1st order CPHF.  IDoFFX=6 NUNeed=     0.
     42 vectors produced by pass  0 Test12= 2.35D-14 2.08D-09 XBig12= 1.96D-01 1.73D-01.
 AX will form    42 AO Fock derivatives at one time.
     42 vectors produced by pass  1 Test12= 2.35D-14 2.08D-09 XBig12= 2.53D-02 5.74D-02.
     42 vectors produced by pass  2 Test12= 2.35D-14 2.08D-09 XBig12= 5.65D-04 4.98D-03.
     42 vectors produced by pass  3 Test12= 2.35D-14 2.08D-09 XBig12= 5.74D-06 3.81D-04.
     42 vectors produced by pass  4 Test12= 2.35D-14 2.08D-09 XBig12= 2.59D-08 2.01D-05.
     42 vectors produced by pass  5 Test12= 2.35D-14 2.08D-09 XBig12= 6.42D-11 9.22D-07.
     26 vectors produced by pass  6 Test12= 2.35D-14 2.08D-09 XBig12= 9.31D-14 2.52D-08.
 InvSVY:  IOpt=1 It=  1 EMax= 2.11D-15
 Solved reduced A of dimension   278 with    42 vectors.
 End of Minotr F.D. properties file   721 does not exist.
 End of Minotr F.D. properties file   722 does not exist.
 End of Minotr F.D. properties file   788 does not exist.
 Leave Link 1002 at Thu Aug 26 09:27:59 2021, MaxMem= 24159191040 cpu:       768.0
 (Enter /public/home/users/caep010/software/Gaussian09/g09/l601.exe)
 Copying SCF densities to generalized density rwf, IOpCl= 0 IROHF=0.

 **********************************************************************

            Population analysis using the SCF density.

 **********************************************************************

 Orbital symmetries:
       Occupied  (A) (A) (A) (A) (A) (A) (A) (A) (A) (A) (A) (A)
                 (A) (A) (A) (A) (A) (A) (A) (A) (A) (A) (A) (A)
                 (A) (A) (A) (A) (A) (A) (A) (A) (A) (A) (A) (A)
                 (A) (A) (A)
       Virtual   (A) (A) (A) (A) (A) (A) (A) (A) (A) (A) (A) (A)
                 (A) (A) (A) (A) (A) (A) (A) (A) (A) (A) (A) (A)
                 (A) (A) (A) (A) (A) (A) (A) (A) (A) (A) (A) (A)
                 (A) (A) (A) (A) (A) (A) (A) (A) (A) (A) (A) (A)
                 (A) (A) (A) (A) (A) (A) (A) (A) (A) (A) (A) (A)
                 (A) (A) (A) (A) (A) (A) (A) (A) (A) (A) (A) (A)
                 (A) (A) (A) (A) (A) (A) (A) (A) (A) (A) (A) (A)
                 (A) (A) (A) (A) (A) (A) (A) (A) (A) (A) (A) (A)
                 (A) (A) (A) (A) (A) (A) (A) (A) (A) (A) (A) (A)
                 (A) (A) (A) (A) (A) (A) (A) (A) (A) (A) (A) (A)
                 (A) (A) (A) (A) (A) (A) (A) (A) (A) (A) (A) (A)
                 (A) (A) (A) (A) (A) (A) (A) (A) (A) (A) (A) (A)
                 (A) (A) (A) (A) (A) (A) (A) (A) (A) (A) (A) (A)
                 (A) (A) (A) (A) (A) (A) (A) (A) (A) (A) (A) (A)
                 (A) (A) (A) (A) (A) (A) (A) (A) (A) (A) (A) (A)
                 (A) (A) (A) (A) (A) (A) (A) (A) (A) (A) (A) (A)
                 (A) (A) (A) (A) (A) (A) (A) (A) (A) (A) (A) (A)
                 (A) (A) (A) (A) (A) (A) (A) (A) (A) (A) (A) (A)
                 (A) (A) (A) (A) (A) (A) (A) (A) (A) (A) (A) (A)
                 (A) (A) (A) (A) (A) (A) (A) (A) (A) (A) (A) (A)
                 (A) (A) (A) (A) (A) (A) (A) (A) (A) (A) (A) (A)
                 (A) (A) (A) (A) (A) (A) (A) (A) (A) (A) (A) (A)
                 (A) (A) (A) (A) (A) (A) (A) (A) (A) (A) (A) (A)
                 (A) (A) (A) (A) (A) (A) (A) (A) (A) (A) (A) (A)
                 (A)
 The electronic state is 1-A.
 Alpha  occ. eigenvalues --  -19.17370 -19.17316 -14.57116 -14.43617 -14.35910
 Alpha  occ. eigenvalues --  -14.35085 -10.29667 -10.29473 -10.28568 -10.24474
 Alpha  occ. eigenvalues --  -10.19498  -1.23221  -1.09128  -1.05392  -0.94762
 Alpha  occ. eigenvalues --   -0.93082  -0.85908  -0.79829  -0.76348  -0.68308
 Alpha  occ. eigenvalues --   -0.64015  -0.60220  -0.55124  -0.54624  -0.54544
 Alpha  occ. eigenvalues --   -0.51508  -0.50175  -0.47053  -0.46868  -0.45808
 Alpha  occ. eigenvalues --   -0.38206  -0.38100  -0.36828  -0.34184  -0.32439
 Alpha  occ. eigenvalues --   -0.31164  -0.30949  -0.29042  -0.27688
 Alpha virt. eigenvalues --   -0.09723  -0.03052   0.00431   0.02477   0.06473
 Alpha virt. eigenvalues --    0.11214   0.12440   0.14182   0.15264   0.16022
 Alpha virt. eigenvalues --    0.18020   0.19283   0.21161   0.22406   0.26499
 Alpha virt. eigenvalues --    0.28365   0.31514   0.34853   0.35859   0.38487
 Alpha virt. eigenvalues --    0.40521   0.42684   0.43716   0.45259   0.46850
 Alpha virt. eigenvalues --    0.47726   0.48188   0.51836   0.52540   0.52908
 Alpha virt. eigenvalues --    0.54548   0.56022   0.57291   0.59744   0.60839
 Alpha virt. eigenvalues --    0.62010   0.62742   0.64217   0.66133   0.67233
 Alpha virt. eigenvalues --    0.69550   0.70421   0.71813   0.73766   0.74569
 Alpha virt. eigenvalues --    0.75696   0.76449   0.77222   0.77725   0.78951
 Alpha virt. eigenvalues --    0.79273   0.79876   0.80917   0.81491   0.84194
 Alpha virt. eigenvalues --    0.86820   0.88541   0.90164   0.92803   0.93418
 Alpha virt. eigenvalues --    0.94087   0.95233   0.97106   0.97847   0.98636
 Alpha virt. eigenvalues --    1.00031   1.01841   1.04619   1.06058   1.07978
 Alpha virt. eigenvalues --    1.10680   1.11081   1.11889   1.14423   1.17868
 Alpha virt. eigenvalues --    1.20156   1.21308   1.23391   1.25260   1.27205
 Alpha virt. eigenvalues --    1.29383   1.30768   1.31736   1.34671   1.35844
 Alpha virt. eigenvalues --    1.37369   1.39554   1.40919   1.42555   1.43228
 Alpha virt. eigenvalues --    1.50323   1.51673   1.51995   1.55467   1.55944
 Alpha virt. eigenvalues --    1.56915   1.58758   1.62208   1.63414   1.64529
 Alpha virt. eigenvalues --    1.66613   1.69009   1.69599   1.71027   1.79008
 Alpha virt. eigenvalues --    1.83984   1.85241   1.86153   1.89038   1.92332
 Alpha virt. eigenvalues --    1.93831   1.98189   1.99689   2.01619   2.03329
 Alpha virt. eigenvalues --    2.09158   2.16602   2.19732   2.22956   2.24968
 Alpha virt. eigenvalues --    2.32611   2.36987   2.37435   2.38981   2.45734
 Alpha virt. eigenvalues --    2.49103   2.53442   2.55491   2.57492   2.64811
 Alpha virt. eigenvalues --    2.70029   2.72039   2.74247   2.76137   2.78788
 Alpha virt. eigenvalues --    2.82420   2.86852   2.92865   2.94582   2.97743
 Alpha virt. eigenvalues --    3.00078   3.00829   3.04889   3.05103   3.08075
 Alpha virt. eigenvalues --    3.11333   3.12512   3.14153   3.16930   3.20956
 Alpha virt. eigenvalues --    3.25809   3.25871   3.29915   3.35094   3.38832
 Alpha virt. eigenvalues --    3.42563   3.42719   3.44932   3.47209   3.47881
 Alpha virt. eigenvalues --    3.50102   3.52938   3.55249   3.56312   3.59131
 Alpha virt. eigenvalues --    3.60579   3.63135   3.65811   3.66480   3.67131
 Alpha virt. eigenvalues --    3.68713   3.72855   3.73743   3.74612   3.76743
 Alpha virt. eigenvalues --    3.78358   3.79574   3.84145   3.88338   3.92658
 Alpha virt. eigenvalues --    3.94001   3.96089   3.99155   4.00819   4.03008
 Alpha virt. eigenvalues --    4.05760   4.06372   4.07640   4.08794   4.09823
 Alpha virt. eigenvalues --    4.11048   4.12823   4.14728   4.14929   4.16364
 Alpha virt. eigenvalues --    4.20048   4.20783   4.23118   4.24582   4.26181
 Alpha virt. eigenvalues --    4.28173   4.29525   4.32736   4.33773   4.35032
 Alpha virt. eigenvalues --    4.36340   4.37241   4.41214   4.43011   4.44559
 Alpha virt. eigenvalues --    4.45387   4.47466   4.49044   4.50210   4.50903
 Alpha virt. eigenvalues --    4.52817   4.54533   4.57686   4.58262   4.59829
 Alpha virt. eigenvalues --    4.60489   4.63864   4.66588   4.69511   4.72098
 Alpha virt. eigenvalues --    4.73986   4.75886   4.79440   4.81566   4.83590
 Alpha virt. eigenvalues --    4.84916   4.92748   4.97346   4.98105   4.99837
 Alpha virt. eigenvalues --    5.02557   5.03111   5.03501   5.05096   5.08599
 Alpha virt. eigenvalues --    5.10237   5.12906   5.13269   5.14894   5.21641
 Alpha virt. eigenvalues --    5.24085   5.29194   5.32488   5.37503   5.37802
 Alpha virt. eigenvalues --    5.41898   5.42560   5.44927   5.49300   5.59738
 Alpha virt. eigenvalues --    5.60439   5.61357   5.67406   5.78207   5.87053
 Alpha virt. eigenvalues --    5.93528   6.00318   6.03865   6.06179   6.13171
 Alpha virt. eigenvalues --    6.24997   6.36050   6.37979   6.48159   6.66878
 Alpha virt. eigenvalues --    6.75889   6.89671   7.07726   7.10088  10.05217
 Alpha virt. eigenvalues --   10.74807  11.00795  11.23788  11.30557  11.36535
 Alpha virt. eigenvalues --   11.42109  11.81334  11.93633  12.96608  13.23380
 Alpha virt. eigenvalues --   18.35622  19.98956  20.28117  26.52560
          Condensed to atoms (all electrons):
               1          2          3          4          5          6
     1  N    6.151868   0.368636   0.428810   0.481152  -0.040588  -0.002437
     2  H    0.368636   0.423285  -0.032659  -0.034425  -0.001231   0.001414
     3  C    0.428810  -0.032659   4.857988  -0.043955   0.003504   0.000643
     4  C    0.481152  -0.034425  -0.043955   4.535782   0.405099  -0.018784
     5  C   -0.040588  -0.001231   0.003504   0.405099   4.912102   0.382015
     6  H   -0.002437   0.001414   0.000643  -0.018784   0.382015   0.573649
     7  H    0.002080  -0.000338  -0.000192  -0.010686   0.392123  -0.030484
     8  N   -0.055280   0.006704  -0.090961   0.555635  -0.039425   0.002311
     9  H   -0.000755   0.000042   0.000179  -0.017531   0.388906  -0.038516
    10  C   -0.048684  -0.001644   0.330093   0.005689  -0.000301   0.000008
    11  N   -0.004704  -0.000215   0.008308   0.000248   0.000001   0.000000
    12  C    0.015105   0.009727   0.398694  -0.141513   0.005086  -0.000387
    13  N   -0.000855   0.000067  -0.027878  -0.002624  -0.000111   0.000001
    14  O    0.000257   0.000006  -0.011736   0.000045   0.000001  -0.000000
    15  O    0.000014   0.000002   0.002140   0.000757   0.000006   0.000000
               7          8          9         10         11         12
     1  N    0.002080  -0.055280  -0.000755  -0.048684  -0.004704   0.015105
     2  H   -0.000338   0.006704   0.000042  -0.001644  -0.000215   0.009727
     3  C   -0.000192  -0.090961   0.000179   0.330093   0.008308   0.398694
     4  C   -0.010686   0.555635  -0.017531   0.005689   0.000248  -0.141513
     5  C    0.392123  -0.039425   0.388906  -0.000301   0.000001   0.005086
     6  H   -0.030484   0.002311  -0.038516   0.000008   0.000000  -0.000387
     7  H    0.515861  -0.000851  -0.031058   0.000001   0.000000   0.000554
     8  N   -0.000851   6.430282  -0.001183   0.006656  -0.000060   0.513598
     9  H   -0.031058  -0.001183   0.546194   0.000008  -0.000000  -0.000050
    10  C    0.000001   0.006656   0.000008   4.580036   0.929684  -0.061808
    11  N    0.000000  -0.000060  -0.000000   0.929684   6.412864  -0.015316
    12  C    0.000554   0.513598  -0.000050  -0.061808  -0.015316   4.886592
    13  N   -0.000008  -0.015415   0.000002  -0.007257   0.001663   0.276560
    14  O   -0.000000   0.001641  -0.000000   0.009651  -0.005490  -0.074563
    15  O    0.000000  -0.001093  -0.000000  -0.000068  -0.000008  -0.084575
              13         14         15
     1  N   -0.000855   0.000257   0.000014
     2  H    0.000067   0.000006   0.000002
     3  C   -0.027878  -0.011736   0.002140
     4  C   -0.002624   0.000045   0.000757
     5  C   -0.000111   0.000001   0.000006
     6  H    0.000001  -0.000000   0.000000
     7  H   -0.000008  -0.000000   0.000000
     8  N   -0.015415   0.001641  -0.001093
     9  H    0.000002  -0.000000  -0.000000
    10  C   -0.007257   0.009651  -0.000068
    11  N    0.001663  -0.005490  -0.000008
    12  C    0.276560  -0.074563  -0.084575
    13  N    5.423242   0.501673   0.505829
    14  O    0.501673   8.023399  -0.075948
    15  O    0.505829  -0.075948   7.988104
 Mulliken charges:
               1
     1  N   -0.294618
     2  H    0.260630
     3  C    0.177023
     4  C    0.285112
     5  C   -0.407186
     6  H    0.130569
     7  H    0.162998
     8  N   -0.312559
     9  H    0.153762
    10  C    0.257935
    11  N   -0.326975
    12  C    0.272295
    13  N    0.345111
    14  O   -0.368937
    15  O   -0.335160
 Sum of Mulliken charges =  -0.00000
 Mulliken charges with hydrogens summed into heavy atoms:
               1
     1  N   -0.033987
     3  C    0.177023
     4  C    0.285112
     5  C    0.040143
     8  N   -0.312559
    10  C    0.257935
    11  N   -0.326975
    12  C    0.272295
    13  N    0.345111
    14  O   -0.368937
    15  O   -0.335160
 APT charges:
               1
     1  N   -0.651052
     2  H    0.740047
     3  C   -0.343637
     4  C   -0.047626
     5  C   -0.808184
     6  H    0.418488
     7  H    0.432513
     8  N   -0.082250
     9  H    0.430064
    10  C   -1.775190
    11  N    2.166234
    12  C   -0.292799
    13  N   -1.078756
    14  O    0.343660
    15  O    0.548487
 Sum of APT charges =  -0.00000
 APT charges with hydrogens summed into heavy atoms:
               1
     1  N    0.088996
     3  C   -0.343637
     4  C   -0.047626
     5  C    0.472881
     8  N   -0.082250
    10  C   -1.775190
    11  N    2.166234
    12  C   -0.292799
    13  N   -1.078756
    14  O    0.343660
    15  O    0.548487
 Electronic spatial extent (au):  <R**2>=           1657.0667
 Charge=             -0.0000 electrons
 Dipole moment (field-independent basis, Debye):
    X=             -7.5655    Y=              2.4166    Z=              0.1272  Tot=              7.9431
 Quadrupole moment (field-independent basis, Debye-Ang):
   XX=            -58.5592   YY=            -72.0234   ZZ=            -58.3610
   XY=             -8.0284   XZ=             -0.0083   YZ=              0.4165
 Traceless Quadrupole moment (field-independent basis, Debye-Ang):
   XX=              4.4220   YY=             -9.0422   ZZ=              4.6202
   XY=             -8.0284   XZ=             -0.0083   YZ=              0.4165
 Octapole moment (field-independent basis, Debye-Ang**2):
  XXX=            -57.8491  YYY=            -11.6537  ZZZ=              0.3630  XYY=            -31.9474
  XXY=             -6.6796  XXZ=              0.8239  XZZ=              2.9860  YZZ=             -5.2440
  YYZ=             -0.8056  XYZ=             -0.2944
 Hexadecapole moment (field-independent basis, Debye-Ang**3):
 XXXX=          -1146.3634 YYYY=           -920.5426 ZZZZ=            -55.3760 XXXY=            -41.7571
 XXXZ=              0.8742 YYYX=            -92.6541 YYYZ=              2.0768 ZZZX=             -2.0848
 ZZZY=             -0.4307 XXYY=           -373.5059 XXZZ=           -201.8717 YYZZ=           -139.7428
 XXYZ=              0.5291 YYXZ=             -0.5357 ZZXY=             -9.5558
 N-N= 5.786604812453D+02 E-N=-2.470713819730D+03  KE= 5.597402751145D+02
  Exact polarizability:   0.000   0.000   0.000   0.000   0.000   0.000
 Approx polarizability: 165.143  35.276 193.266  -1.814  -2.090  64.795
 No NMR shielding tensors so no spin-rotation constants.
 Leave Link  601 at Thu Aug 26 09:28:03 2021, MaxMem= 24159191040 cpu:        55.3
 (Enter /public/home/users/caep010/software/Gaussian09/g09/l701.exe)
 Compute integral second derivatives.
 ... and contract with generalized density number  0.
 Leave Link  701 at Thu Aug 26 09:28:03 2021, MaxMem= 24159191040 cpu:        20.4
 (Enter /public/home/users/caep010/software/Gaussian09/g09/l702.exe)
 L702 exits ... SP integral derivatives will be done elsewhere.
 Leave Link  702 at Thu Aug 26 09:28:04 2021, MaxMem= 24159191040 cpu:         0.8
 (Enter /public/home/users/caep010/software/Gaussian09/g09/l703.exe)
 Compute integral second derivatives, UseDBF=F ICtDFT=           0.
 Integral derivatives from FoFJK, PRISM(SPDF).
 Calling FoFJK, ICntrl=    100147 FMM=F ISym2X=0 I1Cent= 0 IOpClX= 0 NMat=1 NMatS=1 NMatT=0.
 FoFJK:  IHMeth= 1 ICntrl=  100147 DoSepK=F KAlg= 0 I1Cent=   0 FoldK=F
 IRaf=         0 NMat=   1 IRICut=       1 DoRegI=T DoRafI=F ISym2E= 0.
 FoFCou: FMM=F IPFlag=           0 FMFlag=      100000 FMFlg1=         800
         NFxFlg=           0 DoJE=F BraDBF=F KetDBF=F FulRan=T
         wScrn=  0.000000 ICntrl=  100147 IOpCl=  0 I1Cent=           0 NGrid=           0
         NMat0=    1 NMatS0=      1 NMatT0=    0 NMatD0=    1 NMtDS0=    0 NMtDT0=    0
 Symmetry not used in FoFCou.
 Leave Link  703 at Thu Aug 26 09:28:36 2021, MaxMem= 24159191040 cpu:      1023.3
 (Enter /public/home/users/caep010/software/Gaussian09/g09/l716.exe)
 Dipole        =-2.97650457D+00 9.50782702D-01 5.00472447D-02
 Polarizability= 0.00000000D+00 0.00000000D+00 0.00000000D+00
                 0.00000000D+00 0.00000000D+00 0.00000000D+00
 ***** Axes restored to original set *****
 -------------------------------------------------------------------
 Center     Atomic                   Forces (Hartrees/Bohr)
 Number     Number              X              Y              Z
 -------------------------------------------------------------------
      1        7          -0.070252616    0.101375288   -0.032925322
      2        1           0.082512400   -0.115251624    0.033351632
      3        6           0.025476308   -0.008914383   -0.021360880
      4        6          -0.019315679    0.019997069    0.002412688
      5        6           0.036711854    0.043786635   -0.107793679
      6        1           0.102737236   -0.043902032    0.064422982
      7        1          -0.057051484    0.091820404    0.066882971
      8        7           0.002130644   -0.006893970    0.008232857
      9        1          -0.083346823   -0.098092899   -0.016326793
     10        6          -0.034950032    0.009804586    0.034378233
     11        7           0.029289732   -0.008851004   -0.027555131
     12        6          -0.013731227    0.009061133    0.002824074
     13        7          -0.009828353    0.018925337   -0.009975517
     14        8           0.007010722   -0.005702842   -0.002163699
     15        8           0.002607318   -0.007161698    0.005595584
 -------------------------------------------------------------------
 Cartesian Forces:  Max     0.115251624 RMS     0.049283522
 FormGI is forming the generalized inverse of G from B-inverse, IUseBI=4.
 Leave Link  716 at Thu Aug 26 09:28:37 2021, MaxMem= 24159191040 cpu:         1.2
 (Enter /public/home/users/caep010/software/Gaussian09/g09/l103.exe)

 GradGradGradGradGradGradGradGradGradGradGradGradGradGradGradGradGradGrad
 Berny optimization.
 Red2BG is reusing G-inverse.
 Internal  Forces:  Max     0.145286611 RMS     0.033798075
 Search for a local minimum.
 Step number   1 out of a maximum of   75
 All quantities printed in internal units (Hartrees-Bohrs-Radians)
 RMS Force = .33798D-01 SwitMx=.10000D-02 MixMth= 1
 Mixed Optimization -- RFO/linear search
 Second derivative matrix not updated -- analytic derivatives used.
 ITU=  0
     Eigenvalues ---   -0.00005   0.00308   0.00814   0.01307   0.01705
     Eigenvalues ---    0.02182   0.04922   0.05413   0.06179   0.06225
     Eigenvalues ---    0.08095   0.08929   0.10843   0.11469   0.12463
     Eigenvalues ---    0.13663   0.14590   0.15827   0.19386   0.20645
     Eigenvalues ---    0.22441   0.24823   0.27269   0.28621   0.34341
     Eigenvalues ---    0.36969   0.37438   0.41840   0.45259   0.46890
     Eigenvalues ---    0.50747   0.58862   0.61082   0.71899   0.71977
     Eigenvalues ---    0.72435   0.78716   0.95017   1.37832
 Eigenvalue     1 is  -4.71D-05 should be greater than     0.000000 Eigenvector:
                          D18       D16       D15       D13       D17
   1                   -0.41493  -0.41489  -0.40695  -0.40691  -0.40648
                          D14       A11       A12       D5        D20
   1                   -0.39850   0.01049  -0.00976  -0.00852   0.00745
 RFO step:  Lambda=-8.72633257D-02 EMin=-4.70914609D-05
 Linear search not attempted -- first point.
 Maximum step size (   0.300) exceeded in Quadratic search.
    -- Step size scaled by   0.910
 Iteration  1 RMS(Cart)=  0.04082072 RMS(Int)=  0.00058878
 Iteration  2 RMS(Cart)=  0.00074795 RMS(Int)=  0.00003752
 Iteration  3 RMS(Cart)=  0.00000089 RMS(Int)=  0.00003751
 ITry= 1 IFail=0 DXMaxC= 1.21D-01 DCOld= 1.00D+10 DXMaxT= 3.00D-01 DXLimC= 3.00D+00 Rises=F
 Variable       Old X    -DE/DX   Delta X   Delta X   Delta X     New X
                                 (Linear)    (Quad)   (Total)
    R1        1.69406   0.14529   0.00000   0.12749   0.12749   1.82155
    R2        2.58131   0.01044   0.00000   0.01808   0.01809   2.59940
    R3        2.54107   0.02111   0.00000   0.03065   0.03064   2.57171
    R4        2.69299  -0.00887   0.00000  -0.02142  -0.02142   2.67158
    R5        2.57211   0.01983   0.00000   0.02990   0.02992   2.60203
    R6        2.80699   0.00901   0.00000   0.01324   0.01324   2.82023
    R7        2.50873  -0.00423   0.00000  -0.01141  -0.01143   2.49730
    R8        1.81404   0.12895   0.00000   0.14559   0.14559   1.95963
    R9        1.81358   0.12710   0.00000   0.14334   0.14334   1.95692
   R10        1.81394   0.12973   0.00000   0.14668   0.14668   1.96062
   R11        2.54473   0.00854   0.00000   0.00797   0.00797   2.55270
   R12        2.15559   0.04110   0.00000   0.02609   0.02609   2.18168
   R13        2.70836   0.00871   0.00000   0.02042   0.02042   2.72878
   R14        2.31454   0.00539   0.00000   0.00469   0.00469   2.31923
   R15        2.31496  -0.00527   0.00000  -0.00976  -0.00976   2.30520
    A1        2.25471  -0.00810   0.00000  -0.03752  -0.03753   2.21718
    A2        2.14115   0.00811   0.00000   0.03593   0.03594   2.17709
    A3        1.88496   0.00002   0.00000   0.00184   0.00183   1.88680
    A4        2.15675  -0.00182   0.00000  -0.01017  -0.01019   2.14656
    A5        1.81574  -0.00383   0.00000  -0.00866  -0.00863   1.80711
    A6        2.31053   0.00565   0.00000   0.01886   0.01884   2.32937
    A7        2.15514  -0.00077   0.00000  -0.00239  -0.00238   2.15277
    A8        1.94222  -0.00061   0.00000  -0.00392  -0.00395   1.93827
    A9        2.18582   0.00139   0.00000   0.00631   0.00632   2.19214
   A10        1.90996   0.00349   0.00000   0.01696   0.01690   1.92686
   A11        1.91011  -0.00324   0.00000  -0.00722  -0.00720   1.90290
   A12        1.91061   0.00217   0.00000   0.01263   0.01257   1.92318
   A13        1.91154   0.00003   0.00000  -0.00312  -0.00310   1.90844
   A14        1.90961  -0.00177   0.00000  -0.01013  -0.01027   1.89934
   A15        1.91198  -0.00067   0.00000  -0.00908  -0.00906   1.90292
   A16        1.82086   0.00571   0.00000   0.01317   0.01315   1.83400
   A17        1.96096  -0.00128   0.00000  -0.00241  -0.00239   1.95857
   A18        2.20318  -0.00147   0.00000  -0.00701  -0.00702   2.19616
   A19        2.11901   0.00275   0.00000   0.00944   0.00943   2.12844
   A20        2.04493  -0.00553   0.00000  -0.01480  -0.01480   2.03012
   A21        2.07253  -0.00631   0.00000  -0.01221  -0.01221   2.06032
   A22        2.16570   0.01184   0.00000   0.02705   0.02705   2.19275
   A23        3.15017   0.00531   0.00000   0.02857   0.02857   3.17874
   A24        3.12529   0.00149   0.00000   0.00746   0.00746   3.13275
    D1       -0.08306   0.00097   0.00000   0.00690   0.00681  -0.07625
    D2        3.07566   0.00081   0.00000   0.00550   0.00541   3.08107
    D3        3.13202   0.00008   0.00000   0.00104   0.00104   3.13306
    D4        0.00756  -0.00008   0.00000  -0.00036  -0.00036   0.00720
    D5        0.06177  -0.00042   0.00000  -0.00474  -0.00482   0.05694
    D6       -3.07883  -0.00020   0.00000  -0.00296  -0.00307  -3.08189
    D7        3.13570  -0.00040   0.00000  -0.00298  -0.00294   3.13276
    D8       -0.00490  -0.00017   0.00000  -0.00120  -0.00119  -0.00608
    D9       -0.00800   0.00028   0.00000   0.00177   0.00175  -0.00626
   D10        3.14145  -0.00004   0.00000  -0.00028  -0.00027   3.14117
   D11       -3.13027   0.00022   0.00000   0.00066   0.00060  -3.12967
   D12        0.01918  -0.00010   0.00000  -0.00139  -0.00142   0.01776
   D13        0.58209   0.00055   0.00000   0.00320   0.00325   0.58534
   D14        2.67685   0.00075   0.00000   0.00534   0.00534   2.68219
   D15       -1.51063  -0.00074   0.00000  -0.00247  -0.00254  -1.51317
   D16       -2.56065   0.00030   0.00000   0.00117   0.00123  -2.55941
   D17       -0.46588   0.00049   0.00000   0.00331   0.00332  -0.46256
   D18        1.62982  -0.00099   0.00000  -0.00450  -0.00456   1.62527
   D19       -0.00007   0.00031   0.00000   0.00215   0.00214   0.00208
   D20       -3.14064   0.00054   0.00000   0.00397   0.00395  -3.13669
   D21        0.00517  -0.00036   0.00000  -0.00241  -0.00241   0.00276
   D22        3.13933  -0.00008   0.00000  -0.00056  -0.00056   3.13877
   D23       -0.09948   0.00111   0.00000   0.00747   0.00746  -0.09201
   D24        3.05023  -0.00021   0.00000   0.00115   0.00115   3.05137
   D25        3.05063   0.00079   0.00000   0.00531   0.00532   3.05595
   D26       -0.08285  -0.00054   0.00000  -0.00101  -0.00100  -0.08385
         Item               Value     Threshold  Converged?
 Maximum Force            0.145287     0.000450     NO 
 RMS     Force            0.033798     0.000300     NO 
 Maximum Displacement     0.121023     0.001800     NO 
 RMS     Displacement     0.040945     0.001200     NO 
 Predicted change in Energy=-4.722060D-02
 Lowest energy point so far.  Saving SCF results.
 GradGradGradGradGradGradGradGradGradGradGradGradGradGradGradGradGradGrad

 Leave Link  103 at Thu Aug 26 09:28:37 2021, MaxMem= 24159191040 cpu:         3.6
 (Enter /public/home/users/caep010/software/Gaussian09/g09/l202.exe)
                          Input orientation:                          
 ---------------------------------------------------------------------
 Center     Atomic      Atomic             Coordinates (Angstroms)
 Number     Number       Type             X           Y           Z
 ---------------------------------------------------------------------
      1          7           0        6.320165    2.609447    4.449288
      2          1           0        6.847243    1.838796    4.688936
      3          6           0        6.411413    3.348480    3.292731
      4          6           0        5.284440    3.099383    5.183637
      5          6           0        4.876456    2.536275    6.504137
      6          1           0        5.705618    2.187656    7.020191
      7          1           0        4.413906    3.278144    7.059168
      8          7           0        4.706982    4.117342    4.569882
      9          1           0        4.211947    1.751089    6.368695
     10          6           0        7.392517    3.111053    2.302924
     11          7           0        8.213948    2.889802    1.522439
     12          6           0        5.395985    4.269978    3.418046
     13          7           0        5.060703    5.294302    2.457053
     14          8           0        5.810689    5.400930    1.491456
     15          8           0        4.070987    5.975825    2.666917
 ---------------------------------------------------------------------
                    Distance matrix (angstroms):
                    1          2          3          4          5
     1  N    0.000000
     2  H    0.963922   0.000000
     3  C    1.375544   2.102018   0.000000
     4  C    1.360893   2.067888   2.215320   0.000000
     5  C    2.512380   2.768652   3.650877   1.492402   0.000000
     6  H    2.676774   2.619115   3.967319   2.093220   1.036994
     7  H    3.300371   3.689288   4.263922   2.075429   1.035558
     8  N    2.211480   3.128363   2.264365   1.321512   2.503965
     9  H    2.977496   3.126350   4.104981   2.091053   1.037514
    10  C    2.451209   2.758444   1.413737   3.569682   4.930631
    11  N    3.497351   3.605440   2.567771   4.693646   6.006759
    12  C    2.162159   3.103539   1.376937   2.121331   3.577652
    13  N    3.572631   4.484813   2.511772   3.507419   4.900975
    14  O    4.098867   4.897665   2.796071   4.382494   5.848591
    15  O    4.423590   5.376910   3.573819   4.010020   5.215701
                    6          7          8          9         10
     6  H    0.000000
     7  H    1.690917   0.000000
     8  N    3.274901   2.643236   0.000000
     9  H    1.687036   1.688028   3.013295   0.000000
    10  C    5.094202   5.614437   3.655654   5.338166   0.000000
    11  N    6.083585   6.726552   4.805473   6.387400   1.154495
    12  C    4.172216   3.899485   1.350832   4.056239   2.563736
    13  N    5.557823   5.065837   2.444258   5.345624   3.198075
    14  O    6.395552   6.120183   3.513185   6.297998   2.898999
    15  O    5.997769   5.165940   2.734908   5.618845   4.401360
                   11         12         13         14         15
    11  N    0.000000
    12  C    3.665941   0.000000
    13  N    4.074073   1.444009   0.000000
    14  O    3.475971   2.272176   1.227284   0.000000
    15  O    5.291266   2.286860   1.219859   2.176874   0.000000
 Stoichiometry    C5H4N4O2
 Framework group  C1[X(C5H4N4O2)]
 Deg. of freedom    39
 Full point group                 C1      NOp   1
 RotChk:  IX=0 Diff= 4.73D-03
 Largest Abelian subgroup         C1      NOp   1
 Largest concise Abelian subgroup C1      NOp   1
                         Standard orientation:                         
 ---------------------------------------------------------------------
 Center     Atomic      Atomic             Coordinates (Angstroms)
 Number     Number       Type             X           Y           Z
 ---------------------------------------------------------------------
      1          7           0       -1.264837    1.120594    0.004601
      2          1           0       -1.708981    1.974350    0.059211
      3          6           0        0.091195    0.889962    0.015035
      4          6           0       -1.898546   -0.083657   -0.010314
      5          6           0       -3.383845   -0.229043   -0.013770
      6          1           0       -3.821914    0.548295   -0.542161
      7          1           0       -3.633859   -1.130063   -0.458783
      8          7           0       -1.028222   -1.078080   -0.017597
      9          1           0       -3.746830   -0.219548    0.958129
     10          6           0        1.048847    1.929920    0.021489
     11          7           0        1.798556    2.807865    0.018796
     12          6           0        0.184723   -0.483660   -0.004275
     13          7           0        1.410111   -1.247586   -0.003533
     14          8           0        2.452247   -0.604509   -0.084960
     15          8           0        1.328763   -2.462206    0.074802
 ---------------------------------------------------------------------
 Rotational constants (GHZ):      1.5139753      1.0642803      0.6275373
 Leave Link  202 at Thu Aug 26 09:28:37 2021, MaxMem= 24159191040 cpu:         0.3
 (Enter /public/home/users/caep010/software/Gaussian09/g09/l301.exe)
 Standard basis: GTBas3 (6D, 7F)
 Ernie: Thresh=  0.10000D-02 Tol=  0.10000D-05 Strict=F.
 There are   361 symmetry adapted cartesian basis functions of A   symmetry.
 There are   328 symmetry adapted basis functions of A   symmetry.
   328 basis functions,   512 primitive gaussians,   361 cartesian basis functions
    39 alpha electrons       39 beta electrons
       nuclear repulsion energy       574.6747477631 Hartrees.
 IExCor=  402 DFT=T Ex+Corr=B3LYP ExCW=0 ScaHFX=  0.200000
 ScaDFX=  0.800000  0.720000  1.000000  0.810000 ScalE2=  1.000000  1.000000
 IRadAn=      0 IRanWt=     -1 IRanGd=            0 ICorTp=0 IEmpDi=  4
 NAtoms=   15 NActive=   15 NUniq=   15 SFac= 1.00D+00 NAtFMM=   60 NAOKFM=F Big=F
 Integral buffers will be    131072 words long.
 Raffenetti 2 integral format.
 Two-electron integral symmetry is turned on.
 Leave Link  301 at Thu Aug 26 09:28:37 2021, MaxMem= 24159191040 cpu:         1.7
 (Enter /public/home/users/caep010/software/Gaussian09/g09/l302.exe)
 NPDir=0 NMtPBC=     1 NCelOv=     1 NCel=       1 NClECP=     1 NCelD=      1
         NCelK=      1 NCelE2=     1 NClLst=     1 CellRange=     0.0.
 One-electron integrals computed using PRISM.
 NBasis=   328 RedAO= T EigKep=  8.72D-05  NBF=   328
 NBsUse=   328 1.00D-06 EigRej= -1.00D+00 NBFU=   328
 Precomputing XC quadrature grid using
 IXCGrd= 4 IRadAn=           0 IRanWt=          -1 IRanGd=           0 AccXCQ= 0.00D+00.
 Generated NRdTot=       0 NPtTot=           0 NUsed=           0 NTot=          32
 NSgBfM=   360   360   360   360   360 MxSgAt=    15 MxSgA2=    15.
 Leave Link  302 at Thu Aug 26 09:28:38 2021, MaxMem= 24159191040 cpu:        17.0
 (Enter /public/home/users/caep010/software/Gaussian09/g09/l303.exe)
 DipDrv:  MaxL=1.
 Leave Link  303 at Thu Aug 26 09:28:38 2021, MaxMem= 24159191040 cpu:         0.9
 (Enter /public/home/users/caep010/software/Gaussian09/g09/l401.exe)
 Initial guess from the checkpoint file:  "/public/home/users/caep010/.cache/gau_scr/Gau-55972.chk"
 B after Tr=     0.000000   -0.000000    0.000000
         Rot=    0.999998    0.000061    0.000028   -0.002030 Ang=   0.23 deg.
 Guess basis will be translated and rotated to current coordinates.
 JPrj=2 DoOrth=T DoCkMO=T.
 Generating alternative initial guess.
 ExpMin= 1.61D-01 ExpMax= 5.48D+03 ExpMxC= 8.25D+02 IAcc=1 IRadAn=         1 AccDes= 0.00D+00
 Harris functional with IExCor=  402 and IRadAn=       1 diagonalized for initial guess.
 HarFok:  IExCor=  402 AccDes= 0.00D+00 IRadAn=         1 IDoV= 1 UseB2=F ITyADJ=14
 ICtDFT=  3500011 ScaDFX=  1.000000  1.000000  1.000000  1.000000
 FoFCou: FMM=F IPFlag=           0 FMFlag=      100000 FMFlg1=           0
         NFxFlg=           0 DoJE=T BraDBF=F KetDBF=T FulRan=T
         wScrn=  0.000000 ICntrl=     500 IOpCl=  0 I1Cent=   200000004 NGrid=           0
         NMat0=    1 NMatS0=      1 NMatT0=    0 NMatD0=    1 NMtDS0=    0 NMtDT0=    0
 Petite list used in FoFCou.
 Harris En= -562.319860905189    
 Leave Link  401 at Thu Aug 26 09:28:38 2021, MaxMem= 24159191040 cpu:        25.1
 (Enter /public/home/users/caep010/software/Gaussian09/g09/l502.exe)
 Closed shell SCF:
 Using DIIS extrapolation, IDIIS=  1040.
 Integral symmetry usage will be decided dynamically.
 Keep R1 ints in memory in canonical form, NReq=1479794396.
 IVT=      423667 IEndB=      423667 NGot= 24159191040 MDV= 22703115428
 LenX= 22703115428 LenY= 22702984666
 Requested convergence on RMS density matrix=1.00D-08 within 128 cycles.
 Requested convergence on MAX density matrix=1.00D-06.
 Requested convergence on             energy=1.00D-06.
 No special actions if energy rises.
 FoFCou: FMM=F IPFlag=           0 FMFlag=           0 FMFlg1=           0
         NFxFlg=           0 DoJE=F BraDBF=F KetDBF=F FulRan=T
         wScrn=  0.000000 ICntrl=     600 IOpCl=  0 I1Cent=           0 NGrid=           0
         NMat0=    1 NMatS0=  53956 NMatT0=    0 NMatD0=    1 NMtDS0=    0 NMtDT0=    0
 Symmetry not used in FoFCou.
 Integral accuracy reduced to 1.0D-05 until final iterations.

 Cycle   1  Pass 0  IDiag  1:
 E= -562.296934271062    
 DIIS: error= 4.66D-03 at cycle   1 NSaved=   1.
 NSaved= 1 IEnMin= 1 EnMin= -562.296934271062     IErMin= 1 ErrMin= 4.66D-03
 ErrMax= 4.66D-03  0.00D+00 EMaxC= 1.00D-01 BMatC= 7.84D-03 BMatP= 7.84D-03
 IDIUse=3 WtCom= 9.53D-01 WtEn= 4.66D-02
 Coeff-Com:  0.100D+01
 Coeff-En:   0.100D+01
 Coeff:      0.100D+01
 Gap=     1.013 Goal=   None    Shift=    0.000
 GapD=    1.013 DampG=2.000 DampE=1.000 DampFc=2.0000 IDamp=-1.
 RMSDP=4.04D-04 MaxDP=2.10D-02              OVMax= 2.46D-02

 Cycle   2  Pass 0  IDiag  1:
 E= -562.301799637275     Delta-E=       -0.004865366213 Rises=F Damp=F
 DIIS: error= 2.77D-03 at cycle   2 NSaved=   2.
 NSaved= 2 IEnMin= 2 EnMin= -562.301799637275     IErMin= 2 ErrMin= 2.77D-03
 ErrMax= 2.77D-03  0.00D+00 EMaxC= 1.00D-01 BMatC= 1.81D-03 BMatP= 7.84D-03
 IDIUse=3 WtCom= 9.72D-01 WtEn= 2.77D-02
 Coeff-Com:  0.253D+00 0.747D+00
 Coeff-En:   0.000D+00 0.100D+01
 Coeff:      0.246D+00 0.754D+00
 Gap=     0.178 Goal=   None    Shift=    0.000
 RMSDP=2.03D-04 MaxDP=1.41D-02 DE=-4.87D-03 OVMax= 1.88D-02

 Cycle   3  Pass 0  IDiag  1:
 E= -562.302269260438     Delta-E=       -0.000469623163 Rises=F Damp=F
 DIIS: error= 1.52D-03 at cycle   3 NSaved=   3.
 NSaved= 3 IEnMin= 3 EnMin= -562.302269260438     IErMin= 3 ErrMin= 1.52D-03
 ErrMax= 1.52D-03  0.00D+00 EMaxC= 1.00D-01 BMatC= 1.39D-03 BMatP= 1.81D-03
 IDIUse=3 WtCom= 9.85D-01 WtEn= 1.52D-02
 Coeff-Com:  0.238D-01 0.463D+00 0.513D+00
 Coeff-En:   0.000D+00 0.427D+00 0.573D+00
 Coeff:      0.235D-01 0.462D+00 0.514D+00
 Gap=     0.177 Goal=   None    Shift=    0.000
 RMSDP=1.22D-04 MaxDP=7.80D-03 DE=-4.70D-04 OVMax= 1.31D-02

 Cycle   4  Pass 0  IDiag  1:
 E= -562.303289922948     Delta-E=       -0.001020662510 Rises=F Damp=F
 DIIS: error= 6.14D-04 at cycle   4 NSaved=   4.
 NSaved= 4 IEnMin= 4 EnMin= -562.303289922948     IErMin= 4 ErrMin= 6.14D-04
 ErrMax= 6.14D-04  0.00D+00 EMaxC= 1.00D-01 BMatC= 2.28D-04 BMatP= 1.39D-03
 IDIUse=3 WtCom= 9.94D-01 WtEn= 6.14D-03
 Coeff-Com:  0.572D-03 0.264D+00 0.354D+00 0.382D+00
 Coeff-En:   0.000D+00 0.000D+00 0.104D+00 0.896D+00
 Coeff:      0.568D-03 0.262D+00 0.352D+00 0.385D+00
 Gap=     0.177 Goal=   None    Shift=    0.000
 RMSDP=4.71D-05 MaxDP=2.60D-03 DE=-1.02D-03 OVMax= 5.78D-03

 Cycle   5  Pass 0  IDiag  1:
 E= -562.303477857277     Delta-E=       -0.000187934329 Rises=F Damp=F
 DIIS: error= 2.96D-04 at cycle   5 NSaved=   5.
 NSaved= 5 IEnMin= 5 EnMin= -562.303477857277     IErMin= 5 ErrMin= 2.96D-04
 ErrMax= 2.96D-04  0.00D+00 EMaxC= 1.00D-01 BMatC= 2.11D-05 BMatP= 2.28D-04
 IDIUse=3 WtCom= 9.97D-01 WtEn= 2.96D-03
 Coeff-Com: -0.204D-02 0.139D+00 0.195D+00 0.262D+00 0.405D+00
 Coeff-En:   0.000D+00 0.000D+00 0.000D+00 0.236D-01 0.976D+00
 Coeff:     -0.204D-02 0.139D+00 0.195D+00 0.261D+00 0.407D+00
 Gap=     0.177 Goal=   None    Shift=    0.000
 RMSDP=1.54D-05 MaxDP=1.42D-03 DE=-1.88D-04 OVMax= 2.79D-03

 Cycle   6  Pass 0  IDiag  1:
 E= -562.303491223334     Delta-E=       -0.000013366057 Rises=F Damp=F
 DIIS: error= 1.34D-04 at cycle   6 NSaved=   6.
 NSaved= 6 IEnMin= 6 EnMin= -562.303491223334     IErMin= 6 ErrMin= 1.34D-04
 ErrMax= 1.34D-04  0.00D+00 EMaxC= 1.00D-01 BMatC= 4.19D-06 BMatP= 2.11D-05
 IDIUse=3 WtCom= 9.99D-01 WtEn= 1.34D-03
 Coeff-Com: -0.177D-02 0.320D-01 0.489D-01 0.888D-01 0.314D+00 0.518D+00
 Coeff-En:   0.000D+00 0.000D+00 0.000D+00 0.000D+00 0.219D+00 0.781D+00
 Coeff:     -0.176D-02 0.320D-01 0.489D-01 0.887D-01 0.314D+00 0.519D+00
 Gap=     0.177 Goal=   None    Shift=    0.000
 RMSDP=6.30D-06 MaxDP=4.84D-04 DE=-1.34D-05 OVMax= 1.04D-03

 Initial convergence to 1.0D-05 achieved.  Increase integral accuracy.
 Cycle   7  Pass 1  IDiag  1:
 E= -562.303458478161     Delta-E=        0.000032745173 Rises=F Damp=F
 DIIS: error= 3.44D-05 at cycle   1 NSaved=   1.
 NSaved= 1 IEnMin= 1 EnMin= -562.303458478161     IErMin= 1 ErrMin= 3.44D-05
 ErrMax= 3.44D-05  0.00D+00 EMaxC= 1.00D-01 BMatC= 6.28D-07 BMatP= 6.28D-07
 IDIUse=1 WtCom= 1.00D+00 WtEn= 0.00D+00
 Coeff-Com:  0.100D+01
 Coeff:      0.100D+01
 Gap=     0.177 Goal=   None    Shift=    0.000
 RMSDP=6.30D-06 MaxDP=4.84D-04 DE= 3.27D-05 OVMax= 7.00D-04

 Cycle   8  Pass 1  IDiag  1:
 E= -562.303456260128     Delta-E=        0.000002218033 Rises=F Damp=F
 DIIS: error= 8.12D-05 at cycle   2 NSaved=   2.
 NSaved= 2 IEnMin= 1 EnMin= -562.303458478161     IErMin= 1 ErrMin= 3.44D-05
 ErrMax= 8.12D-05  0.00D+00 EMaxC= 1.00D-01 BMatC= 3.32D-06 BMatP= 6.28D-07
 IDIUse=1 WtCom= 1.00D+00 WtEn= 0.00D+00
 Coeff-Com:  0.709D+00 0.291D+00
 Coeff:      0.709D+00 0.291D+00
 Gap=     0.177 Goal=   None    Shift=    0.000
 RMSDP=5.06D-06 MaxDP=3.49D-04 DE= 2.22D-06 OVMax= 6.29D-04

 Cycle   9  Pass 1  IDiag  1:
 E= -562.303458925261     Delta-E=       -0.000002665132 Rises=F Damp=F
 DIIS: error= 1.79D-05 at cycle   3 NSaved=   3.
 NSaved= 3 IEnMin= 3 EnMin= -562.303458925261     IErMin= 3 ErrMin= 1.79D-05
 ErrMax= 1.79D-05  0.00D+00 EMaxC= 1.00D-01 BMatC= 8.87D-08 BMatP= 6.28D-07
 IDIUse=1 WtCom= 1.00D+00 WtEn= 0.00D+00
 Coeff-Com:  0.294D+00 0.167D+00 0.539D+00
 Coeff:      0.294D+00 0.167D+00 0.539D+00
 Gap=     0.177 Goal=   None    Shift=    0.000
 RMSDP=1.19D-06 MaxDP=9.46D-05 DE=-2.67D-06 OVMax= 1.86D-04

 Cycle  10  Pass 1  IDiag  1:
 E= -562.303458960235     Delta-E=       -0.000000034975 Rises=F Damp=F
 DIIS: error= 1.23D-05 at cycle   4 NSaved=   4.
 NSaved= 4 IEnMin= 4 EnMin= -562.303458960235     IErMin= 4 ErrMin= 1.23D-05
 ErrMax= 1.23D-05  0.00D+00 EMaxC= 1.00D-01 BMatC= 4.65D-08 BMatP= 8.87D-08
 IDIUse=1 WtCom= 1.00D+00 WtEn= 0.00D+00
 Coeff-Com:  0.245D-01 0.471D-01 0.443D+00 0.486D+00
 Coeff:      0.245D-01 0.471D-01 0.443D+00 0.486D+00
 Gap=     0.177 Goal=   None    Shift=    0.000
 RMSDP=6.57D-07 MaxDP=5.08D-05 DE=-3.50D-08 OVMax= 9.68D-05

 Cycle  11  Pass 1  IDiag  1:
 E= -562.303458994587     Delta-E=       -0.000000034352 Rises=F Damp=F
 DIIS: error= 4.43D-06 at cycle   5 NSaved=   5.
 NSaved= 5 IEnMin= 5 EnMin= -562.303458994587     IErMin= 5 ErrMin= 4.43D-06
 ErrMax= 4.43D-06  0.00D+00 EMaxC= 1.00D-01 BMatC= 6.19D-09 BMatP= 4.65D-08
 IDIUse=1 WtCom= 1.00D+00 WtEn= 0.00D+00
 Coeff-Com: -0.750D-02 0.201D-01 0.278D+00 0.354D+00 0.355D+00
 Coeff:     -0.750D-02 0.201D-01 0.278D+00 0.354D+00 0.355D+00
 Gap=     0.177 Goal=   None    Shift=    0.000
 RMSDP=2.01D-07 MaxDP=1.14D-05 DE=-3.44D-08 OVMax= 2.47D-05

 Cycle  12  Pass 1  IDiag  1:
 E= -562.303458999646     Delta-E=       -0.000000005059 Rises=F Damp=F
 DIIS: error= 5.81D-07 at cycle   6 NSaved=   6.
 NSaved= 6 IEnMin= 6 EnMin= -562.303458999646     IErMin= 6 ErrMin= 5.81D-07
 ErrMax= 5.81D-07  0.00D+00 EMaxC= 1.00D-01 BMatC= 2.13D-10 BMatP= 6.19D-09
 IDIUse=1 WtCom= 1.00D+00 WtEn= 0.00D+00
 Coeff-Com: -0.697D-02 0.872D-02 0.138D+00 0.181D+00 0.212D+00 0.468D+00
 Coeff:     -0.697D-02 0.872D-02 0.138D+00 0.181D+00 0.212D+00 0.468D+00
 Gap=     0.177 Goal=   None    Shift=    0.000
 RMSDP=4.97D-08 MaxDP=2.85D-06 DE=-5.06D-09 OVMax= 3.68D-06

 Cycle  13  Pass 1  IDiag  1:
 E= -562.303458999778     Delta-E=       -0.000000000133 Rises=F Damp=F
 DIIS: error= 2.16D-07 at cycle   7 NSaved=   7.
 NSaved= 7 IEnMin= 7 EnMin= -562.303458999778     IErMin= 7 ErrMin= 2.16D-07
 ErrMax= 2.16D-07  0.00D+00 EMaxC= 1.00D-01 BMatC= 2.89D-11 BMatP= 2.13D-10
 IDIUse=1 WtCom= 1.00D+00 WtEn= 0.00D+00
 Coeff-Com: -0.356D-02 0.361D-02 0.592D-01 0.785D-01 0.945D-01 0.303D+00
 Coeff-Com:  0.464D+00
 Coeff:     -0.356D-02 0.361D-02 0.592D-01 0.785D-01 0.945D-01 0.303D+00
 Coeff:      0.464D+00
 Gap=     0.177 Goal=   None    Shift=    0.000
 RMSDP=1.39D-08 MaxDP=1.22D-06 DE=-1.33D-10 OVMax= 1.73D-06

 Cycle  14  Pass 1  IDiag  1:
 E= -562.303458999813     Delta-E=       -0.000000000035 Rises=F Damp=F
 DIIS: error= 4.28D-08 at cycle   8 NSaved=   8.
 NSaved= 8 IEnMin= 8 EnMin= -562.303458999813     IErMin= 8 ErrMin= 4.28D-08
 ErrMax= 4.28D-08  0.00D+00 EMaxC= 1.00D-01 BMatC= 1.37D-12 BMatP= 2.89D-11
 IDIUse=1 WtCom= 1.00D+00 WtEn= 0.00D+00
 Coeff-Com: -0.383D-03 0.177D-03 0.265D-02 0.360D-02 0.382D-02 0.606D-01
 Coeff-Com:  0.205D+00 0.724D+00
 Coeff:     -0.383D-03 0.177D-03 0.265D-02 0.360D-02 0.382D-02 0.606D-01
 Coeff:      0.205D+00 0.724D+00
 Gap=     0.177 Goal=   None    Shift=    0.000
 RMSDP=4.56D-09 MaxDP=2.48D-07 DE=-3.46D-11 OVMax= 5.02D-07

 SCF Done:  E(RB3LYP) =  -562.303459000     A.U. after   14 cycles
            NFock= 14  Conv=0.46D-08     -V/T= 2.0059
 KE= 5.590193770347D+02 PE=-2.462378277845D+03 EE= 7.663806940479D+02
 Leave Link  502 at Thu Aug 26 09:29:21 2021, MaxMem= 24159191040 cpu:       243.8
 (Enter /public/home/users/caep010/software/Gaussian09/g09/l701.exe)
 Compute integral first derivatives.
 ... and contract with generalized density number  0.
 Leave Link  701 at Thu Aug 26 09:29:21 2021, MaxMem= 24159191040 cpu:        14.9
 (Enter /public/home/users/caep010/software/Gaussian09/g09/l702.exe)
 L702 exits ... SP integral derivatives will be done elsewhere.
 Leave Link  702 at Thu Aug 26 09:29:21 2021, MaxMem= 24159191040 cpu:         0.5
 (Enter /public/home/users/caep010/software/Gaussian09/g09/l703.exe)
 Compute integral first derivatives, UseDBF=F ICtDFT=           0.
[...]
    13  N    0.000525  -0.030583  -0.000102  -0.003607   0.003244   0.333211
    14  O   -0.000013   0.009223  -0.000002   0.022503  -0.004092  -0.064092
    15  O   -0.000138  -0.013658   0.000013  -0.001653   0.000076  -0.066653
              13         14         15
     1  N   -0.001300  -0.002673   0.000226
     2  H   -0.000150   0.000176   0.000094
     3  C   -0.046814  -0.049214   0.006698
     4  C    0.012987   0.002246   0.000272
     5  C    0.000624  -0.000255   0.000169
     6  H   -0.000097  -0.000002   0.000012
     7  H    0.000525  -0.000013  -0.000138
     8  N   -0.030583   0.009223  -0.013658
     9  H   -0.000102  -0.000002   0.000013
    10  C   -0.003607   0.022503  -0.001653
    11  N    0.003244  -0.004092   0.000076
    12  C    0.333211  -0.064092  -0.066653
    13  N    5.545777   0.337969   0.389216
    14  O    0.337969   8.261303  -0.092696
    15  O    0.389216  -0.092696   8.159210
 Mulliken charges:
               1
     1  N   -0.428678
     2  H    0.393046
     3  C    0.376602
     4  C    0.428589
     5  C   -0.613371
     6  H    0.210330
     7  H    0.230691
     8  N   -0.471185
     9  H    0.210272
    10  C    0.169632
    11  N   -0.397665
    12  C    0.234202
    13  N    0.459102
    14  O   -0.420380
    15  O   -0.381188
 Sum of Mulliken charges =  -0.00000
 Mulliken charges with hydrogens summed into heavy atoms:
               1
     1  N   -0.035632
     3  C    0.376602
     4  C    0.428589
     5  C    0.037922
     8  N   -0.471185
    10  C    0.169632
    11  N   -0.397665
    12  C    0.234202
    13  N    0.459102
    14  O   -0.420380
    15  O   -0.381188
 Electronic spatial extent (au):  <R**2>=           1690.1483
 Charge=              0.0000 electrons
 Dipole moment (field-independent basis, Debye):
    X=             -8.1291    Y=              2.4422    Z=             -0.0000  Tot=              8.4880
 Quadrupole moment (field-independent basis, Debye-Ang):
   XX=            -60.4591   YY=            -75.7045   ZZ=            -61.1100
   XY=             -7.8361   XZ=              0.0014   YZ=              0.0019
 Traceless Quadrupole moment (field-independent basis, Debye-Ang):
   XX=              5.2988   YY=             -9.9466   ZZ=              4.6478
   XY=             -7.8361   XZ=              0.0014   YZ=              0.0019
 Octapole moment (field-independent basis, Debye-Ang**2):
  XXX=            -64.2169  YYY=            -14.9232  ZZZ=             -0.0045  XYY=            -35.2015
  XXY=             -4.6615  XXZ=              0.0018  XZZ=              2.8733  YZZ=             -5.4643
  YYZ=             -0.0032  XYZ=             -0.0019
 Hexadecapole moment (field-independent basis, Debye-Ang**3):
 XXXX=          -1196.7800 YYYY=          -1010.1819 ZZZZ=            -65.1017 XXXY=            -34.0371
 XXXZ=              0.0182 YYYX=            -97.8662 YYYZ=              0.0024 ZZZX=              0.0126
 ZZZY=             -0.0020 XXYY=           -390.7594 XXZZ=           -212.7779 YYZZ=           -155.7007
 XXYZ=              0.0029 YYXZ=             -0.0272 ZZXY=            -13.1065
 N-N= 5.727747992888D+02 E-N=-2.456025241572D+03  KE= 5.583695747966D+02
 No NMR shielding tensors so no spin-rotation constants.
 Leave Link  601 at Thu Aug 26 12:10:31 2021, MaxMem= 24159191040 cpu:        39.9
 (Enter /public/home/users/caep010/software/Gaussian09/g09/l9999.exe)
 1\1\GINC-B1035\SP\RHF\GFHFB2\C5H4N4O2\ROOT\26-Aug-2021\0\\#P Geom=AllC
 heck Guess=TCheck SCRF=Check HF/GFHFB2 SCF=Tight\\CIJYIE\\0,1\N,0,6.28
 74006016,2.5858127543,4.4149712206\H,0,6.8666134384,1.7885979355,4.631
 7401514\C,0,6.3927094212,3.345623738,3.2688725824\C,0,5.2783653315,3.1
 028567424,5.1793498721\C,0,4.8767428086,2.5358408081,6.4967863662\H,0,
 5.7046865174,2.5614468376,7.21306751\H,0,4.0528592764,3.1288871064,6.8
 937230985\N,0,4.7324492865,4.1487025957,4.5889669034\H,0,4.5468579928,
 1.495863477,6.4014827967\C,0,7.3457876332,3.0706774203,2.2672160157\N,
 0,8.1561667683,2.7768577988,1.4941184373\C,0,5.4058961393,4.3006627339
 ,3.4275373231\N,0,5.0972499241,5.3569760881,2.4842779165\O,0,5.7845145
 884,5.3846202299,1.467253465\O,0,4.1947002722,6.125073734,2.766136341\
 \Version=ES64L-G09RevE.01\State=1-A\HF=-559.2888744\RMSD=6.119e-09\Dip
 ole=0.0721297,-2.0746525,2.6158138\Quadrupole=-3.9749139,2.2841608,1.6
 907531,4.1155511,5.2214585,-4.3447138\PG=C01 [X(C5H4N4O2)]\\@


 THE POLHOLDE ROLLS WITHOUT SLIPPING ON THE HERPOLHOLDE LYING IN
 THE INVARIABLE PLANE.
 H.GOLDSTEIN, "CLASSICAL MECHANICS", PG 161
 Diagonal vibrational polarizability:
        0.0000000       0.0000000       0.0000000

 Temperature=              298.150000 Pressure=                      1.000000
 E(ZPE)=                     0.098502 E(Thermal)=                    0.108281
 E(CCSD(T))=              -560.789636 E(Empiric)=                   -0.194516
 DE(Plus)=                  -0.037467 DE(2DF)=                      -0.378508
 E(Delta-G3XP)=             -0.704241 DE(HF)=                       -0.053194
 G4(0 K)=                 -562.059060 G4 Energy=                  -562.049280
 G4 Enthalpy=             -562.048336 G4 Free Energy=             -562.095456
 1\1\GINC-B1035\Mixed\G4\G4\C5H4N4O2\ROOT\26-Aug-2021\0\\#P Geom=AllChe
 ck Guess=TCheck SCRF=Check HF/GFHFB2 SCF=Tight\\CIJYIE\\0,1\N,0,6.2874
 006016,2.5858127543,4.4149712206\H,0,6.8666134384,1.7885979355,4.63174
 01514\C,0,6.3927094212,3.345623738,3.2688725824\C,0,5.2783653315,3.102
 8567424,5.1793498721\C,0,4.8767428086,2.5358408081,6.4967863662\H,0,5.
 7046865174,2.5614468376,7.21306751\H,0,4.0528592764,3.1288871064,6.893
 7230985\N,0,4.7324492865,4.1487025957,4.5889669034\H,0,4.5468579928,1.
 495863477,6.4014827967\C,0,7.3457876332,3.0706774203,2.2672160157\N,0,
 8.1561667683,2.7768577988,1.4941184373\C,0,5.4058961393,4.3006627339,3
 .4275373231\N,0,5.0972499241,5.3569760881,2.4842779165\O,0,5.784514588
 4,5.3846202299,1.467253465\O,0,4.1947002722,6.125073734,2.766136341\\V
 ersion=ES64L-G09RevE.01\State=1-A\MP2/GTBas1=-560.7054212\MP4/GTBas1=-
 560.8097197\CCSD(T)/G3Bas1=-560.7896355\MP2/GTBas2=-560.7403452\MP4/GT
 Bas2=-560.847187\MP2/GTBas3=-561.0630069\MP4/GTBas3=-561.1882278\HF/GT
 LargeXP=-559.2377038\MP2/GTLargeXP=-561.8021714\HF/GFHFB1=-559.2805689
 \HF/GFHFB2=-559.2888744\G4=-562.0590599\FreqCoord=11.8814652247,4.8864
 779366,8.3430864915,12.976018859,3.37996026,8.7527204048,12.0804700532
 ,6.3223126085,6.1772739441,9.9746649059,5.8635494726,9.7875528047,9.21
 57083287,4.7920446438,12.277146976,10.7802951919,4.8404330271,13.63072
 21719,7.6587940876,5.9127397317,13.0272486922,8.9430330893,7.839911712
 7,8.6718906802,8.5923163715,2.8267723037,12.0970493301,13.8815268571,5
 .8027393668,4.2844173538,15.4129214863,5.2475007497,2.8234746566,10.21
 5663206,8.127074757,6.4771068509,9.6324063875,10.1232177069,4.69460490
 01,10.9311483838,10.1754575641,2.7727072164,7.926834724,11.5747119011,
 5.2272401307\PG=C01 [X(C5H4N4O2)]\NImag=0\\0.49748165,-0.36278220,0.64
 146805,-0.11225838,-0.20898587,0.52055730,-0.17123995,0.19923041,-0.02
 891049,0.17368383,0.19730921,-0.28843787,0.08439846,-0.20392454,0.2994
 2607,-0.02638441,0.08164265,-0.07807232,0.03773462,-0.08368695,0.06884
 769,-0.08329227,0.01661868,0.01838515,0.00386647,0.00493836,-0.0202171
 9,0.52060592,0.01701456,-0.15211349,0.10267869,-0.00955746,-0.00828761
 ,0.01698250,-0.23146510,0.43598774,0.01786106,0.10324967,-0.21601002,-
 0.00122350,-0.00373517,0.00088741,-0.25151802,-0.06711946,0.57970422,-
 0.18163308,0.06077318,0.08616985,-0.00686867,-0.00152255,0.00144257,-0
 .02177664,-0.00860173,0.06469657,0.42262288,0.05453756,-0.11494403,-0.
 01330131,0.01094742,-0.00669294,-0.01636813,0.01660885,0.00795409,-0.0
 1370162,-0.14937610,0.51585917,0.09434108,-0.02219723,-0.17134927,-0.0
 1488720,0.00144426,0.01213437,0.03166201,0.02230320,-0.05886521,-0.141
 01134,-0.21753469,0.67365692,-0.00654485,-0.01297574,0.02870336,0.0004
 1195,-0.00040054,-0.00086243,-0.00221920,0.00537907,-0.00153933,-0.089
 62647,-0.00812345,0.04115785,0.56034627,0.00343335,0.01133853,-0.01762
 908,-0.00072413,0.00012240,0.00015246,0.00313854,-0.00294914,0.0015080
 6,-0.00834497,-0.09897000,0.05214690,-0.02877683,0.55477969,0.00718329
 ,0.00580372,-0.01624056,-0.00043083,-0.00031391,0.00046747,0.00138769,
 -0.00166292,0.00183181,0.04144538,0.05182470,-0.19548363,0.00526623,0.
 01831491,0.50611283,0.00002882,0.00045842,-0.00052888,0.00001148,-0.00
 000727,-0.00000955,0.00022313,-0.00043500,0.00031319,0.00978836,0.0017
 3669,0.00758701,-0.19935858,-0.00530991,-0.12854248,0.21392850,0.00047
 803,0.00037404,-0.00090947,0.00006147,0.00021068,-0.00018047,-0.000092
 15,-0.00026901,0.00019872,0.01142866,-0.00184591,0.00952806,-0.0058698
 5,-0.04321426,-0.00565313,0.00720126,0.04555643,-0.00007116,-0.0003552
 2,0.00323909,-0.00007433,-0.00038285,-0.00084935,0.00002699,0.00182318
 ,-0.00180510,-0.02176902,0.00176089,-0.02111391,-0.12930434,-0.0055467
 0,-0.15566792,0.14190630,0.00235184,0.17141466,0.00080752,-0.00068036,
 0.00146464,-0.00008902,-0.00019945,-0.00027527,0.00019077,0.00055267,-
 0.00020362,-0.00863871,0.00468955,0.00319505,-0.20529505,0.11432876,0.
 07805687,-0.01677267,0.01257871,0.00943408,0.21995926,-0.00029695,-0.0
 0106044,0.00340551,-0.00017159,-0.00033421,0.00007205,-0.00035902,0.00
 057829,0.00048486,-0.01186802,0.00751551,0.00432611,0.11761698,-0.1299
 9956,-0.05672610,-0.00280756,0.00068680,0.00127585,-0.12510668,0.13708
 965,0.00097033,0.00395897,-0.00535591,-0.00031405,0.00011326,-0.000163
 67,0.00099407,-0.00082331,0.00021135,0.02493460,-0.01929560,-0.0123442
 6,0.07374367,-0.05204090,-0.08226214,-0.01588943,0.01252374,0.00895754
 ,-0.08490465,0.05802405,0.09029833,-0.03556086,0.04584170,0.02074664,-
 0.00082566,0.00339044,0.00729485,-0.02586321,0.02918818,0.02101025,-0.
 13803669,0.09625067,-0.04178560,0.00594928,-0.00732552,0.00001636,0.00
 009105,-0.00049046,0.00040868,0.00060681,-0.00001625,-0.00111178,0.333
 73129,0.07721149,-0.05132391,-0.01556687,0.00541006,0.00364945,-0.0028
 3001,-0.00205130,0.00714170,0.01402386,0.10058884,-0.26847814,0.104545
 98,0.00290595,-0.01165050,0.01012686,-0.00051807,-0.00029437,-0.001212
 35,0.00050803,0.00030510,-0.00137272,-0.17805283,0.41413040,-0.0203515
 7,0.02925556,0.01173773,0.00465017,0.00005476,0.00067382,0.06194648,-0
 .03061890,-0.03278857,-0.04748740,0.11073585,-0.15630077,-0.01338247,0
 .02476523,-0.01405568,0.00012983,0.00255847,-0.00160272,-0.00180111,-0
 .00061921,0.00319131,-0.09669679,-0.15356588,0.44221265,0.00074947,0.0
 0097563,-0.00055490,-0.00043929,-0.00033768,0.00034628,0.00016871,-0.0
 0086861,0.00103069,-0.00346972,-0.00757722,-0.00002343,-0.06857812,-0.
 07550159,-0.00621594,-0.00749582,-0.02437492,-0.00252484,0.00925860,0.
 02334664,0.00155945,-0.00005247,0.00069128,-0.00116949,0.07029823,0.00
 104150,0.00076478,-0.00099536,-0.00046800,-0.00019730,0.00006776,0.000
 06693,-0.00047600,0.00100306,-0.00165385,-0.01124466,0.00189375,-0.074
 69466,-0.28184877,-0.02573629,0.00029136,-0.00030179,-0.00049969,-0.00
 628388,-0.01462762,-0.00141726,-0.00174403,-0.00020808,0.00058104,0.08
 342543,0.30741877,-0.00112545,-0.00142586,0.00213694,0.00048449,0.0001
 8574,0.00000933,-0.00035545,0.00119956,-0.00154067,0.00883868,0.031951
 65,0.00154778,-0.00578737,-0.02550533,-0.04766959,-0.00529741,-0.02033
 920,-0.00205662,-0.00505337,-0.01050049,-0.00174838,0.00170477,0.00091
 914,-0.00156354,0.00708603,0.02439918,0.05302272,-0.00765065,-0.006376
 09,0.01551734,0.00042012,-0.00047795,-0.00141600,-0.17743896,0.0395886
 6,0.12641237,0.00545153,-0.00297488,-0.00049861,0.00012889,0.00126997,
 0.00043970,0.00002307,0.00001627,-0.00016548,0.00006384,0.00004303,0.0
 0005587,-0.00035724,0.01043857,-0.00217379,0.00040801,-0.00000329,-0.0
 0049520,0.81371330,-0.01771798,0.00823428,0.01107347,-0.00063449,-0.00
 016698,-0.00019625,0.04652653,-0.07998778,-0.03069117,0.00173263,-0.00
 287383,0.00439616,-0.00003866,0.00111980,0.00069460,-0.00023395,0.0000
 7994,0.00022742,-0.00003228,-0.00013585,0.00040969,0.00824055,-0.00163
 511,0.00044944,0.00005797,0.00000651,-0.00011858,-0.25188077,0.1829730
 1,0.03038142,-0.00513384,-0.03932493,-0.00121083,-0.00042002,0.0012721
 9,0.11732538,-0.02078205,-0.19309483,-0.00667239,0.01112148,-0.0026739
 3,0.00216630,-0.00117906,0.00006509,-0.00028637,-0.00002125,0.00054656
 ,0.00015301,0.00030459,-0.00047761,0.00070581,-0.00269009,0.01020923,-
 0.00013147,-0.00013900,0.00023582,-0.70837921,0.23427447,0.79239899,0.
 00264996,0.00362406,-0.00610219,-0.00059979,-0.00008571,0.00068708,-0.
 00923602,0.01057856,0.02292942,-0.00314139,0.00297375,0.00029129,0.000
 12417,-0.00037203,-0.00009756,-0.00004389,-0.00002826,0.00017121,0.000
 01181,-0.00004812,-0.00001335,-0.00067371,-0.00362225,0.00341935,-0.00
 015089,-0.00003879,0.00020618,-0.61017892,0.20416131,0.54872522,0.6129
 7775,0.00139605,-0.00117197,0.00177065,0.00031457,-0.00008619,-0.00059
 549,0.00731672,0.01418165,-0.00740819,0.00089158,-0.00054877,-0.000827
 65,-0.00011199,-0.00011174,-0.00007166,0.00006813,-0.00001313,-0.00011
 473,-0.00002298,0.00003298,-0.00006468,-0.00150095,0.00112443,-0.00142
 842,0.00003065,0.00003276,-0.00003987,0.20500630,-0.10952818,-0.200565
 94,-0.21308984,0.09583496,-0.00318384,-0.00141277,0.00810271,0.0001626
 2,-0.00002350,-0.00039932,0.02720111,-0.01206767,-0.00655078,0.0030220
 7,-0.00380362,0.00045899,-0.00044258,0.00030168,-0.00005373,0.00009241
 ,0.00002083,-0.00019466,-0.00004584,-0.00002936,0.00006283,0.00064025,
 0.00160267,-0.00461664,0.00006950,0.00006090,-0.00013359,0.54762059,-0
 .19935962,-0.56037463,-0.56726558,0.20600337,0.56138251,-0.01248157,0.
 05041123,-0.02715442,0.00055003,0.00052738,0.00212379,-0.20330778,0.13
 154718,0.02010601,0.01372807,-0.01937276,0.01388077,0.00343032,0.00463
 046,0.00100760,-0.00022458,-0.00074977,0.00154224,-0.00009073,-0.00030
 727,0.00006585,-0.14699658,0.00298433,0.10942963,-0.00068300,0.0001186
 1,-0.00028306,-0.02309462,0.01041464,0.01805208,0.00863291,-0.00163377
 ,-0.00753827,0.45560098,0.02016838,-0.05317966,0.06019463,-0.00102472,
 0.00058257,0.00400298,0.13383407,-0.19973326,-0.01944143,0.00858637,-0
 .03368692,0.03933552,0.00475739,0.00064843,0.00331797,-0.00045673,-0.0
 0089375,0.00066326,-0.00031056,-0.00009124,0.00013582,0.01227608,-0.08
 154678,0.00063788,-0.00005295,0.00066056,-0.00042289,0.00680189,0.0028
 1780,-0.01460304,-0.00497857,0.00116321,0.00802699,-0.23452826,0.51790
 626,0.01247798,0.01697456,-0.02532012,0.00415738,0.00178419,-0.0057608
 0,0.01709479,-0.01615717,-0.07186974,-0.02273038,0.07928322,-0.0656988
 8,0.00081765,0.00351561,0.00259428,0.00058364,-0.00021787,-0.00081505,
 0.00007531,0.00012818,-0.00059758,0.09725279,0.01391278,-0.22488486,0.
 00051537,0.00062472,-0.00190480,0.02278914,-0.01977010,-0.00757035,-0.
 00315492,0.00324781,0.00211253,-0.13918758,-0.15606186,0.54644335,-0.0
 0385606,0.00582503,0.00490086,0.00117056,0.00139246,0.00024402,-0.0057
 6435,0.01546605,-0.01694680,0.00278250,-0.00141208,0.00744188,0.001699
 02,0.00000650,0.00067794,-0.00033846,-0.00026214,0.00070902,-0.0000623
 8,-0.00015382,0.00014691,0.00256040,-0.01396626,0.00007741,-0.00003405
 ,-0.00010657,0.00010709,-0.00076155,0.00082275,-0.00306941,-0.00043507
 ,-0.00048419,0.00165677,-0.08601888,0.01611594,-0.00919584,0.64919340,
 0.00884517,0.00317323,-0.01035837,0.00160119,0.00038742,0.00063540,0.0
 0847298,-0.02457136,0.01558963,-0.00471624,0.01144751,0.00052318,0.000
 34616,0.00148001,0.00041439,0.00005924,0.00006032,-0.00029192,0.000032
 48,0.00011437,-0.00032619,-0.00988969,-0.01237972,0.01699757,0.0003499
 1,0.00021346,-0.00083452,-0.00153578,0.00039877,-0.00115326,0.00005169
 ,-0.00021739,0.00057861,0.01620511,-0.11996282,0.03223341,-0.25553811,
 0.55109188,0.00094190,-0.00603812,0.01148355,-0.00002945,0.00093294,0.
 00143746,-0.00778075,0.00558471,0.00035504,0.01177802,-0.00421341,-0.0
 0461640,0.00022981,0.00090808,0.00066431,-0.00018217,-0.00003874,0.000
 31492,-0.00009663,-0.00006078,0.00011693,-0.00526912,0.02283583,-0.032
 58383,-0.00002020,0.00002227,-0.00014430,0.00001922,-0.00451988,0.0037
 3765,0.00095479,0.00134260,-0.00284215,-0.00930735,0.03236225,-0.10680
 785,-0.25907711,-0.05182749,0.67078168,-0.00019237,-0.00088957,0.00202
 414,-0.00008847,-0.00019145,-0.00004678,-0.00181896,0.00313517,-0.0013
 1333,0.00112788,-0.00145442,-0.00078304,-0.00034827,-0.00045706,-0.000
 14628,0.00002777,0.00006694,-0.00011713,0.00001574,0.00005187,-0.00005
 460,0.00325605,0.00132480,-0.00052942,-0.00003160,0.00000568,0.0001060
 8,-0.00000141,-0.00092438,0.00035812,-0.00023164,0.00143742,-0.0009777
 4,0.01124348,-0.00655463,0.02004709,-0.21935010,0.00970232,0.18908735,
 0.25125753,-0.00052788,-0.00008620,0.00140075,-0.00030496,0.00009408,-
 0.00007610,-0.00025288,-0.00011462,0.00069027,-0.00065387,-0.00099822,
 0.00125206,-0.00000692,-0.00066357,-0.00025837,-0.00000470,-0.00005791
 ,0.00013668,0.00000087,-0.00000599,0.00003928,0.00350188,-0.00167599,0
 .00256187,-0.00008584,-0.00013843,0.00032232,-0.00033938,-0.00130516,0
 .00141044,0.00086853,-0.00052693,-0.00002462,-0.01236190,0.00617424,0.
 03480953,0.00064726,-0.11338234,0.04548833,-0.02938703,0.09132422,0.00
 154963,0.00191763,-0.00431959,0.00010234,-0.00023852,-0.00013029,0.003
 12456,-0.00414416,0.00110545,-0.00183668,0.00239964,-0.00127640,-0.000
 73510,0.00038132,-0.00032185,0.00013373,0.00014497,-0.00033525,0.00001
 222,-0.00003331,0.00005180,-0.00337695,0.00566832,0.00150192,0.0000687
 9,0.00008118,-0.00019518,-0.00040673,0.00224534,-0.00295841,-0.0002328
 1,-0.00083720,0.00183097,0.02765193,0.02652189,-0.05493369,0.20094990,
 0.03256028,-0.40739308,-0.27855803,-0.03957628,0.47848020,0.00073427,-
 0.00005439,-0.00240272,0.00003642,-0.00041069,-0.00066157,0.00566241,-
 0.00152220,-0.00161496,-0.00230984,0.00254640,-0.00056772,-0.00011934,
 0.00000445,-0.00004796,0.00011184,0.00003621,-0.00017222,0.00003420,0.
 00007676,-0.00018289,0.00217155,-0.00385264,0.00393915,0.00005195,0.00
 004357,-0.00013601,-0.00072540,-0.00049386,0.00188233,0.00029471,0.000
 38231,-0.00101147,-0.02028805,0.04536629,-0.00154242,-0.34078497,0.226
 01357,0.07875168,-0.04486563,0.03890681,0.05155319,0.39999588,-0.00011
 029,-0.00303534,0.00282417,-0.00075523,-0.00026958,0.00037762,-0.00330
 122,0.00265878,0.00534893,0.00273608,-0.00249286,-0.00113561,-0.000006
 92,-0.00008130,-0.00007478,-0.00004191,-0.00007807,0.00016434,-0.00005
 489,-0.00006780,0.00013586,0.00033022,0.00284152,-0.00236526,-0.000078
 70,-0.00005419,0.00020912,0.00042345,0.00000278,-0.00042342,0.00000567
 ,-0.00016569,0.00012610,0.05211479,-0.04085863,0.00569300,0.23164719,-
 0.29785335,-0.04277860,0.02413435,0.02136282,-0.02709109,-0.30704258,0
 .31809091,-0.00233190,0.00274616,-0.00126460,-0.00021094,-0.00011268,-
 0.00035397,0.00072317,0.00280379,-0.00157037,-0.00082053,-0.00085905,0
 .00192461,-0.00003127,-0.00009318,0.00001931,-0.00000981,0.00003350,-0
 .00003219,-0.00001068,-0.00005196,0.00005946,-0.00154017,0.00360248,-0
 .00113003,-0.00003583,0.00005374,0.00000409,0.00068078,0.00088501,-0.0
 0199082,-0.00051813,-0.00041059,0.00121496,-0.01038922,0.01533005,0.01
 501357,0.07137735,-0.03474073,-0.13450394,0.07090357,-0.04817615,-0.01
 110660,-0.12778640,0.05898963,0.13371652\\0.00001407,-0.00002014,0.000
 00915,-0.00000132,0.00000297,-0.00000623,0.00000040,-0.00000204,-0.000
 00557,-0.00002499,0.00000900,0.00000830,0.00007075,0.00001433,0.000023
 03,-0.00004402,-0.00000300,-0.00002964,-0.00001305,0.00001494,0.000007
 21,0.00000068,-0.00000191,0.00000489,-0.00000429,-0.00002528,-0.000001
 92,-0.00000521,0.00000617,0.00000741,0.00001054,-0.00000628,-0.0000097
 4,-0.00000251,0.00000575,0.00000099,-0.00000157,0.00000642,-0.00001171
 ,0.00000442,-0.00000017,-0.00000030,-0.00000390,-0.00000077,0.00000413
 \\\@
 Job cpu time:       0 days 14 hours 24 minutes 35.0 seconds.
 File lengths (MBytes):  RWF=  49963 Int=      0 D2E=      0 Chk=     82 Scr=      1
 Normal termination of Gaussian 09 at Thu Aug 26 12:10:32 2021.
