 Entering Gaussian System, Link 0=g09
 Input=G4.DNCOOC.gjf
 Output=G4.DNCOOC.log
 Initial command:
 /public/home/users/caep010/software/Gaussian09/g09/l1.exe "/public/home/users/caep010/.cache/gau_scr/Gau-173076.inp" -scrdir="/public/home/users/caep010/.cache/gau_scr/"
 Entering Link 1 = /public/home/users/caep010/software/Gaussian09/g09/l1.exe PID=    173077.
  
 Copyright (c) 1988,1990,1992,1993,1995,1998,2003,2009,2015,
            Gaussian, Inc.  All Rights Reserved.
  
 This is part of the Gaussian(R) 09 program.  It is based on
 the Gaussian(R) 03 system (copyright 2003, Gaussian, Inc.),
 the Gaussian(R) 98 system (copyright 1998, Gaussian, Inc.),
 the Gaussian(R) 94 system (copyright 1995, Gaussian, Inc.),
 the Gaussian 92(TM) system (copyright 1992, Gaussian, Inc.),
 the Gaussian 90(TM) system (copyright 1990, Gaussian, Inc.),
 the Gaussian 88(TM) system (copyright 1988, Gaussian, Inc.),
 the Gaussian 86(TM) system (copyright 1986, Carnegie Mellon
 University), and the Gaussian 82(TM) system (copyright 1983,
 Carnegie Mellon University). Gaussian is a federally registered
 trademark of Gaussian, Inc.
  
 This software contains proprietary and confidential information,
 including trade secrets, belonging to Gaussian, Inc.
  
 This software is provided under written license and may be
 used, copied, transmitted, or stored only in accord with that
 written license.
  
 The following legend is applicable only to US Government
 contracts under FAR:
  
                    RESTRICTED RIGHTS LEGEND
  
 Use, reproduction and disclosure by the US Government is
 subject to restrictions as set forth in subparagraphs (a)
 and (c) of the Commercial Computer Software - Restricted
 Rights clause in FAR 52.227-19.
  
 Gaussian, Inc.
 340 Quinnipiac St., Bldg. 40, Wallingford CT 06492
  
  
 ---------------------------------------------------------------
 Warning -- This program may not be used in any manner that
 competes with the business of Gaussian, Inc. or will provide
 assistance to any competitor of Gaussian, Inc.  The licensee
 of this program is prohibited from giving any competitor of
 Gaussian, Inc. access to this program.  By using this program,
 the user acknowledges that Gaussian, Inc. is engaged in the
 business of creating and licensing software in the field of
 computational chemistry and represents and warrants to the
 licensee that it is not a competitor of Gaussian, Inc. and that
 it will not use this program in any manner prohibited above.
 ---------------------------------------------------------------
  

 Cite this work as:
 Gaussian 09, Revision E.01,
 M. J. Frisch, G. W. Trucks, H. B. Schlegel, G. E. Scuseria, 
 M. A. Robb, J. R. Cheeseman, G. Scalmani, V. Barone, B. Mennucci, 
 G. A. Petersson, H. Nakatsuji, M. Caricato, X. Li, H. P. Hratchian, 
 A. F. Izmaylov, J. Bloino, G. Zheng, J. L. Sonnenberg, M. Hada, 
 M. Ehara, K. Toyota, R. Fukuda, J. Hasegawa, M. Ishida, T. Nakajima, 
 Y. Honda, O. Kitao, H. Nakai, T. Vreven, J. A. Montgomery, Jr., 
 J. E. Peralta, F. Ogliaro, M. Bearpark, J. J. Heyd, E. Brothers, 
 K. N. Kudin, V. N. Staroverov, T. Keith, R. Kobayashi, J. Normand, 
 K. Raghavachari, A. Rendell, J. C. Burant, S. S. Iyengar, J. Tomasi, 
 M. Cossi, N. Rega, J. M. Millam, M. Klene, J. E. Knox, J. B. Cross, 
 V. Bakken, C. Adamo, J. Jaramillo, R. Gomperts, R. E. Stratmann, 
 O. Yazyev, A. J. Austin, R. Cammi, C. Pomelli, J. W. Ochterski, 
 R. L. Martin, K. Morokuma, V. G. Zakrzewski, G. A. Voth, 
 P. Salvador, J. J. Dannenberg, S. Dapprich, A. D. Daniels, 
 O. Farkas, J. B. Foresman, J. V. Ortiz, J. Cioslowski, 
 and D. J. Fox, Gaussian, Inc., Wallingford CT, 2013.
 
 ******************************************
 Gaussian 09:  ES64L-G09RevE.01 30-Nov-2015
                26-Aug-2021 
 ******************************************
 %nproc=32
 Will use up to   32 processors via shared memory.
 %mem=180GB
 ----------------
 #P G4 OPT=calcfc
 ----------------
 1/10=4,14=-1,18=20,19=15,26=3,38=1/1,3;
 2/9=110,12=2,17=6,18=5,40=1/2;
 3/5=35,7=104,11=2,16=1,25=1,30=1,71=2,74=-5,140=1/1,2,3;
 4//1;
 5/5=2,38=5/2;
 8/6=4,10=90,11=11/1;
 11/6=1,8=1,9=11,15=111,16=1/1,2,10;
 10/6=1,13=1/2;
 6/7=2,8=2,9=2,10=2,28=1/1;
 7/10=1,18=20,25=1/1,2,3,16;
 1/10=4,14=-1,18=20,19=15,26=3/3(2);
 2/9=110/2;
 99//99;
 2/9=110/2;
 3/5=35,7=104,11=2,16=1,25=1,30=1,71=1,74=-5/1,2,3;
 4/5=5,16=3,69=1/1;
 5/5=2,38=5/2;
 7//1,2,3,16;
 1/14=-1,18=20,19=15,26=3/3(-5);
 2/9=110/2;
 6/7=2,8=2,9=2,10=2,19=2,28=1/1;
 99/9=1/99;
 Leave Link    1 at Thu Aug 26 12:10:33 2021, MaxMem= 24159191040 cpu:         2.8
 (Enter /public/home/users/caep010/software/Gaussian09/g09/l101.exe)
 ------
 DNCOOC
 ------
 Symbolic Z-matrix:
 Charge =  0 Multiplicity = 1
 C                     1.5294    0.3019    2.9449 
 C                     1.0982    0.8491    1.63 
 C                     1.8429    0.8443    0.5535 
 C                     3.1661    0.2217    0.4783 
 C                     4.2749    0.5094    1.1501 
 C                     4.3797    1.4811    2.217 
 C                     3.6315    1.5       3.3288 
 C                     2.5687    0.5943    3.6823 
 N                     0.5408   -0.6509    3.5095 
 H                     0.2769    1.3019    1.67 
 H                     5.1704    2.1227    2.2218 
 N                     3.2863   -0.7453   -0.6286 
 O                     2.3059   -0.9245   -1.3149 
 O                     4.3326   -1.3585   -0.8094 
 O                     0.7541   -1.1651    4.5765 
 H                     1.3833    1.1038   -0.4559 
 O                    -0.4631   -0.8632    2.8425 
 H                     5.0066   -0.0566    0.8142 
 H                     3.9909    2.1038    4.135 
 H                     2.7172    0.1274    4.6644 
 
 NAtoms=     20 NQM=       20 NQMF=       0 NMMI=      0 NMMIF=      0
                NMic=       0 NMicF=      0.
                    Isotopes and Nuclear Properties:
 (Nuclear quadrupole moments (NQMom) in fm**2, nuclear magnetic moments (NMagM)
  in nuclear magnetons)

  Atom         1           2           3           4           5           6           7           8           9          10
 IAtWgt=          12          12          12          12          12          12          12          12          14           1
 AtmWgt=  12.0000000  12.0000000  12.0000000  12.0000000  12.0000000  12.0000000  12.0000000  12.0000000  14.0030740   1.0078250
 NucSpn=           0           0           0           0           0           0           0           0           2           1
 AtZEff=   0.0000000   0.0000000   0.0000000   0.0000000   0.0000000   0.0000000   0.0000000   0.0000000   0.0000000   0.0000000
 NQMom=    0.0000000   0.0000000   0.0000000   0.0000000   0.0000000   0.0000000   0.0000000   0.0000000   2.0440000   0.0000000
 NMagM=    0.0000000   0.0000000   0.0000000   0.0000000   0.0000000   0.0000000   0.0000000   0.0000000   0.4037610   2.7928460
 AtZNuc=   6.0000000   6.0000000   6.0000000   6.0000000   6.0000000   6.0000000   6.0000000   6.0000000   7.0000000   1.0000000

  Atom        11          12          13          14          15          16          17          18          19          20
 IAtWgt=           1          14          16          16          16           1          16           1           1           1
 AtmWgt=   1.0078250  14.0030740  15.9949146  15.9949146  15.9949146   1.0078250  15.9949146   1.0078250   1.0078250   1.0078250
 NucSpn=           1           2           0           0           0           1           0           1           1           1
 AtZEff=   0.0000000   0.0000000   0.0000000   0.0000000   0.0000000   0.0000000   0.0000000   0.0000000   0.0000000   0.0000000
 NQMom=    0.0000000   2.0440000   0.0000000   0.0000000   0.0000000   0.0000000   0.0000000   0.0000000   0.0000000   0.0000000
 NMagM=    2.7928460   0.4037610   0.0000000   0.0000000   0.0000000   2.7928460   0.0000000   2.7928460   2.7928460   2.7928460
 AtZNuc=   1.0000000   7.0000000   8.0000000   8.0000000   8.0000000   1.0000000   8.0000000   1.0000000   1.0000000   1.0000000
 Leave Link  101 at Thu Aug 26 12:10:33 2021, MaxMem= 24159191040 cpu:        10.6
 (Enter /public/home/users/caep010/software/Gaussian09/g09/l103.exe)

 GradGradGradGradGradGradGradGradGradGradGradGradGradGradGradGradGradGrad
 Berny optimization.
 Initialization pass.
                           ----------------------------
                           !    Initial Parameters    !
                           ! (Angstroms and Degrees)  !
 --------------------------                            --------------------------
 ! Name  Definition              Value          Derivative Info.                !
 --------------------------------------------------------------------------------
 ! R1    R(1,2)                  1.4881         calculate D2E/DX2 analytically  !
 ! R2    R(1,8)                  1.3074         calculate D2E/DX2 analytically  !
 ! R3    R(1,9)                  1.4846         calculate D2E/DX2 analytically  !
 ! R4    R(2,3)                  1.309          calculate D2E/DX2 analytically  !
 ! R5    R(2,10)                 0.9387         calculate D2E/DX2 analytically  !
 ! R6    R(3,4)                  1.4643         calculate D2E/DX2 analytically  !
 ! R7    R(3,16)                 1.1391         calculate D2E/DX2 analytically  !
 ! R8    R(4,5)                  1.328          calculate D2E/DX2 analytically  !
 ! R9    R(4,12)                 1.4747         calculate D2E/DX2 analytically  !
 ! R10   R(5,6)                  1.4469         calculate D2E/DX2 analytically  !
 ! R11   R(5,18)                 0.9842         calculate D2E/DX2 analytically  !
 ! R12   R(6,7)                  1.3402         calculate D2E/DX2 analytically  !
 ! R13   R(6,11)                 1.0183         calculate D2E/DX2 analytically  !
 ! R14   R(7,8)                  1.4404         calculate D2E/DX2 analytically  !
 ! R15   R(7,19)                 1.0694         calculate D2E/DX2 analytically  !
 ! R16   R(8,20)                 1.0975         calculate D2E/DX2 analytically  !
 ! R17   R(9,15)                 1.2035         calculate D2E/DX2 analytically  !
 ! R18   R(9,17)                 1.2238         calculate D2E/DX2 analytically  !
 ! R19   R(12,13)                1.2101         calculate D2E/DX2 analytically  !
 ! R20   R(12,14)                1.2262         calculate D2E/DX2 analytically  !
 ! A1    A(2,1,8)              130.2764         calculate D2E/DX2 analytically  !
 ! A2    A(2,1,9)              112.278          calculate D2E/DX2 analytically  !
 ! A3    A(8,1,9)              117.2829         calculate D2E/DX2 analytically  !
 ! A4    A(1,2,3)              124.0895         calculate D2E/DX2 analytically  !
 ! A5    A(1,2,10)             113.1574         calculate D2E/DX2 analytically  !
 ! A6    A(3,2,10)             122.3149         calculate D2E/DX2 analytically  !
 ! A7    A(2,3,4)              123.9099         calculate D2E/DX2 analytically  !
 ! A8    A(2,3,16)             119.8936         calculate D2E/DX2 analytically  !
 ! A9    A(4,3,16)             114.5803         calculate D2E/DX2 analytically  !
 ! A10   A(3,4,5)              129.5245         calculate D2E/DX2 analytically  !
 ! A11   A(3,4,12)             113.0172         calculate D2E/DX2 analytically  !
 ! A12   A(5,4,12)             116.9822         calculate D2E/DX2 analytically  !
 ! A13   A(4,5,6)              125.3802         calculate D2E/DX2 analytically  !
 ! A14   A(4,5,18)             108.8755         calculate D2E/DX2 analytically  !
 ! A15   A(6,5,18)             125.7363         calculate D2E/DX2 analytically  !
 ! A16   A(5,6,7)              125.5018         calculate D2E/DX2 analytically  !
 ! A17   A(5,6,11)             118.8734         calculate D2E/DX2 analytically  !
 ! A18   A(7,6,11)             114.8785         calculate D2E/DX2 analytically  !
 ! A19   A(6,7,8)              127.3456         calculate D2E/DX2 analytically  !
 ! A20   A(6,7,19)             116.4688         calculate D2E/DX2 analytically  !
 ! A21   A(8,7,19)             114.7058         calculate D2E/DX2 analytically  !
 ! A22   A(1,8,7)              126.0667         calculate D2E/DX2 analytically  !
 ! A23   A(1,8,20)             121.138          calculate D2E/DX2 analytically  !
 ! A24   A(7,8,20)             112.7841         calculate D2E/DX2 analytically  !
 ! A25   A(1,9,15)             119.5626         calculate D2E/DX2 analytically  !
 ! A26   A(1,9,17)             116.7634         calculate D2E/DX2 analytically  !
 ! A27   A(15,9,17)            123.6738         calculate D2E/DX2 analytically  !
 ! A28   A(4,12,13)            117.1786         calculate D2E/DX2 analytically  !
 ! A29   A(4,12,14)            120.5411         calculate D2E/DX2 analytically  !
 ! A30   A(13,12,14)           122.2534         calculate D2E/DX2 analytically  !
 ! D1    D(8,1,2,3)             56.37           calculate D2E/DX2 analytically  !
 ! D2    D(8,1,2,10)          -116.1681         calculate D2E/DX2 analytically  !
 ! D3    D(9,1,2,3)           -128.4732         calculate D2E/DX2 analytically  !
 ! D4    D(9,1,2,10)            58.9886         calculate D2E/DX2 analytically  !
 ! D5    D(2,1,8,7)             -4.4253         calculate D2E/DX2 analytically  !
 ! D6    D(2,1,8,20)           176.8863         calculate D2E/DX2 analytically  !
 ! D7    D(9,1,8,7)           -179.382          calculate D2E/DX2 analytically  !
 ! D8    D(9,1,8,20)             1.9295         calculate D2E/DX2 analytically  !
 ! D9    D(2,1,9,15)          -179.4471         calculate D2E/DX2 analytically  !
 ! D10   D(2,1,9,17)             0.3833         calculate D2E/DX2 analytically  !
 ! D11   D(8,1,9,15)            -3.6034         calculate D2E/DX2 analytically  !
 ! D12   D(8,1,9,17)           176.227          calculate D2E/DX2 analytically  !
 ! D13   D(1,2,3,4)              4.1348         calculate D2E/DX2 analytically  !
 ! D14   D(1,2,3,16)           168.8404         calculate D2E/DX2 analytically  !
 ! D15   D(10,2,3,4)           176.0127         calculate D2E/DX2 analytically  !
 ! D16   D(10,2,3,16)          -19.2818         calculate D2E/DX2 analytically  !
 ! D17   D(2,3,4,5)            -62.3723         calculate D2E/DX2 analytically  !
 ! D18   D(2,3,4,12)           125.9015         calculate D2E/DX2 analytically  !
 ! D19   D(16,3,4,5)           132.1924         calculate D2E/DX2 analytically  !
 ! D20   D(16,3,4,12)          -39.5338         calculate D2E/DX2 analytically  !
 ! D21   D(3,4,5,6)              5.0683         calculate D2E/DX2 analytically  !
 ! D22   D(3,4,5,18)          -175.9092         calculate D2E/DX2 analytically  !
 ! D23   D(12,4,5,6)           176.521          calculate D2E/DX2 analytically  !
 ! D24   D(12,4,5,18)           -4.4565         calculate D2E/DX2 analytically  !
 ! D25   D(3,4,12,13)           -1.0289         calculate D2E/DX2 analytically  !
 ! D26   D(3,4,12,14)         -179.1867         calculate D2E/DX2 analytically  !
 ! D27   D(5,4,12,13)         -173.8735         calculate D2E/DX2 analytically  !
 ! D28   D(5,4,12,14)            7.9687         calculate D2E/DX2 analytically  !
 ! D29   D(4,5,6,7)             55.1121         calculate D2E/DX2 analytically  !
 ! D30   D(4,5,6,11)          -135.3187         calculate D2E/DX2 analytically  !
 ! D31   D(18,5,6,7)          -123.7484         calculate D2E/DX2 analytically  !
 ! D32   D(18,5,6,11)           45.8208         calculate D2E/DX2 analytically  !
 ! D33   D(5,6,7,8)             -1.2849         calculate D2E/DX2 analytically  !
 ! D34   D(5,6,7,19)           164.0066         calculate D2E/DX2 analytically  !
 ! D35   D(11,6,7,8)          -171.2203         calculate D2E/DX2 analytically  !
 ! D36   D(11,6,7,19)           -5.9288         calculate D2E/DX2 analytically  !
 ! D37   D(6,7,8,1)            -53.2613         calculate D2E/DX2 analytically  !
 ! D38   D(6,7,8,20)           125.5211         calculate D2E/DX2 analytically  !
 ! D39   D(19,7,8,1)           141.2273         calculate D2E/DX2 analytically  !
 ! D40   D(19,7,8,20)          -39.9902         calculate D2E/DX2 analytically  !
 --------------------------------------------------------------------------------
 Trust Radius=3.00D-01 FncErr=1.00D-07 GrdErr=1.00D-06
 Number of steps in this run=    100 maximum allowed number of steps=    120.
 GradGradGradGradGradGradGradGradGradGradGradGradGradGradGradGradGradGrad

 Leave Link  103 at Thu Aug 26 12:10:33 2021, MaxMem= 24159191040 cpu:         0.6
 (Enter /public/home/users/caep010/software/Gaussian09/g09/l202.exe)
                          Input orientation:                          
 ---------------------------------------------------------------------
 Center     Atomic      Atomic             Coordinates (Angstroms)
 Number     Number       Type             X           Y           Z
 ---------------------------------------------------------------------
      1          6           0        1.529400    0.301900    2.944900
      2          6           0        1.098200    0.849100    1.630000
      3          6           0        1.842900    0.844300    0.553500
      4          6           0        3.166100    0.221700    0.478300
      5          6           0        4.274900    0.509400    1.150100
      6          6           0        4.379700    1.481100    2.217000
      7          6           0        3.631500    1.500000    3.328800
      8          6           0        2.568700    0.594300    3.682300
      9          7           0        0.540800   -0.650900    3.509500
     10          1           0        0.276900    1.301900    1.670000
     11          1           0        5.170400    2.122700    2.221800
     12          7           0        3.286300   -0.745300   -0.628600
     13          8           0        2.305900   -0.924500   -1.314900
     14          8           0        4.332600   -1.358500   -0.809400
     15          8           0        0.754100   -1.165100    4.576500
     16          1           0        1.383300    1.103800   -0.455900
     17          8           0       -0.463100   -0.863200    2.842500
     18          1           0        5.006600   -0.056600    0.814200
     19          1           0        3.990900    2.103800    4.135000
     20          1           0        2.717200    0.127400    4.664400
 ---------------------------------------------------------------------
                    Distance matrix (angstroms):
                    1          2          3          4          5
     1  C    0.000000
     2  C    1.488060   0.000000
     3  C    2.472099   1.308989   0.000000
     4  C    2.961306   2.448725   1.464290   0.000000
     5  C    3.286660   3.230654   2.526403   1.327977   0.000000
     6  C    3.169316   3.392969   3.099694   2.466169   1.446879
     7  C    2.449826   3.118846   3.366203   3.158480   2.478303
     8  C    1.307441   2.537564   3.221595   3.280447   3.054564
     9  N    1.484564   2.468444   3.559357   4.103877   4.566899
    10  H    2.047957   0.938702   1.976949   3.306729   4.108814
    11  H    4.134618   4.307563   3.935707   3.266621   2.133822
    12  N    4.117430   3.525786   2.451039   1.474708   2.390685
    13  O    4.500323   3.643711   2.614181   2.295492   3.465437
    14  O    4.970878   4.613623   3.592830   2.348601   2.707770
    15  O    2.327079   3.585703   4.626846   4.953403   5.190395
    16  H    3.497117   2.120644   1.139061   2.197545   3.360640
    17  O    2.310411   2.615298   3.670519   4.465148   5.215064
    18  H    4.093815   4.094070   3.299785   1.891486   0.984159
    19  H    3.274472   4.027035   4.362039   4.194526   3.395938
    20  H    2.097141   3.514199   4.263548   4.211156   3.862986
                    6          7          8          9         10
     6  C    0.000000
     7  C    1.340246   0.000000
     8  C    2.492637   1.440416   0.000000
     9  N    4.577459   3.769808   2.385951   0.000000
    10  H    4.142981   3.747560   3.130878   2.695706   0.000000
    11  H    1.018273   1.995349   3.352299   5.548353   4.992448
    12  N    3.774893   4.563064   4.570923   4.966946   4.304774
    13  O    4.749934   5.403644   5.229515   5.144441   4.240675
    14  O    4.150258   5.078116   5.205779   5.790625   5.447371
    15  O    5.070956   4.115695   2.681018   1.203490   3.842076
    16  H    4.033009   4.419879   4.334681   4.417372   2.404749
    17  O    5.416614   4.752573   3.467186   1.223836   2.570995
    18  H    2.173792   3.261459   3.820082   5.249877   4.994795
    19  H    2.053691   1.069440   2.122777   4.459015   4.529135
    20  H    3.253641   2.122216   1.097528   2.583846   4.037443
                   11         12         13         14         15
    11  H    0.000000
    12  N    4.460946   0.000000
    13  O    5.477137   1.210084   0.000000
    14  O    4.691358   1.226151   2.133401   0.000000
    15  O    5.988151   5.803562   6.097095   6.469234   0.000000
    16  H    4.748722   2.659023   2.388111   3.858271   5.555974
    17  O    6.406028   5.110816   4.995507   6.048176   2.139971
    18  H    2.599522   2.348491   3.546843   2.187532   5.785104
    19  H    2.247646   5.595151   6.458424   6.045773   4.621418
    20  H    3.995711   5.394565   6.085038   5.897449   2.352030
                   16         17         18         19         20
    16  H    0.000000
    17  O    4.261188   0.000000
    18  H    4.010983   5.889161   0.000000
    19  H    5.373634   5.505612   4.089827   0.000000
    20  H    5.380531   3.796698   4.483219   2.410131   0.000000
 Stoichiometry    C8H6N2O4
 Framework group  C1[X(C8H6N2O4)]
 Deg. of freedom    54
 Full point group                 C1      NOp   1
 Largest Abelian subgroup         C1      NOp   1
 Largest concise Abelian subgroup C1      NOp   1
                         Standard orientation:                         
 ---------------------------------------------------------------------
 Center     Atomic      Atomic             Coordinates (Angstroms)
 Number     Number       Type             X           Y           Z
 ---------------------------------------------------------------------
      1          6           0        1.489613    0.121785    0.232768
      2          6           0        0.639253   -0.495562    1.286378
      3          6           0       -0.668992   -0.451825    1.292328
      4          6           0       -1.471622    0.135468    0.217612
      5          6           0       -1.509054    1.388249   -0.221322
      6          6           0       -0.649333    2.460473    0.231088
      7          6           0        0.690715    2.437683    0.227779
      8          6           0        1.545213    1.356909   -0.192411
      9          7           0        2.478937   -0.834797   -0.324119
     10          1           0        1.133525   -0.828093    2.011829
     11          1           0       -1.061826    3.369040    0.434157
     12          7           0       -2.487807   -0.790875   -0.315325
     13          8           0       -2.530034   -1.900772    0.164935
     14          8           0       -3.227033   -0.445345   -1.230531
     15          8           0        3.241960   -0.468958   -1.179891
     16          1           0       -1.255465   -1.102816    2.020147
     17          8           0        2.464882   -1.970282    0.132227
     18          1           0       -2.204706    1.462441   -0.913516
     19          1           0        1.183749    3.380230    0.338340
     20          1           0        2.273855    1.662669   -0.954094
 ---------------------------------------------------------------------
 Rotational constants (GHZ):      1.0679153      0.5287565      0.4136444
 Leave Link  202 at Thu Aug 26 12:10:33 2021, MaxMem= 24159191040 cpu:         0.4
 (Enter /public/home/users/caep010/software/Gaussian09/g09/l301.exe)
 Standard basis: GTBas3 (6D, 7F)
 Ernie: Thresh=  0.10000D-02 Tol=  0.10000D-05 Strict=F.
 There are   464 symmetry adapted cartesian basis functions of A   symmetry.
 There are   422 symmetry adapted basis functions of A   symmetry.
   422 basis functions,   658 primitive gaussians,   464 cartesian basis functions
    50 alpha electrons       50 beta electrons
       nuclear repulsion energy       863.1064766760 Hartrees.
 IExCor=  402 DFT=T Ex+Corr=B3LYP ExCW=0 ScaHFX=  0.200000
 ScaDFX=  0.800000  0.720000  1.000000  0.810000 ScalE2=  1.000000  1.000000
 IRadAn=      0 IRanWt=     -1 IRanGd=            0 ICorTp=0 IEmpDi=  4
 NAtoms=   20 NActive=   20 NUniq=   20 SFac= 1.00D+00 NAtFMM=   60 NAOKFM=F Big=F
 Integral buffers will be    131072 words long.
 Raffenetti 2 integral format.
 Two-electron integral symmetry is turned on.
 Leave Link  301 at Thu Aug 26 12:10:33 2021, MaxMem= 24159191040 cpu:         2.3
 (Enter /public/home/users/caep010/software/Gaussian09/g09/l302.exe)
 NPDir=0 NMtPBC=     1 NCelOv=     1 NCel=       1 NClECP=     1 NCelD=      1
         NCelK=      1 NCelE2=     1 NClLst=     1 CellRange=     0.0.
 One-electron integrals computed using PRISM.
 NBasis=   422 RedAO= T EigKep=  2.05D-04  NBF=   422
 NBsUse=   422 1.00D-06 EigRej= -1.00D+00 NBFU=   422
 Precomputing XC quadrature grid using
 IXCGrd= 4 IRadAn=           0 IRanWt=          -1 IRanGd=           0 AccXCQ= 0.00D+00.
 Generated NRdTot=       0 NPtTot=           0 NUsed=           0 NTot=          32
 NSgBfM=   462   462   462   462   462 MxSgAt=    20 MxSgA2=    20.
 Leave Link  302 at Thu Aug 26 12:10:34 2021, MaxMem= 24159191040 cpu:        19.9
 (Enter /public/home/users/caep010/software/Gaussian09/g09/l303.exe)
 DipDrv:  MaxL=1.
 Leave Link  303 at Thu Aug 26 12:10:34 2021, MaxMem= 24159191040 cpu:         1.2
 (Enter /public/home/users/caep010/software/Gaussian09/g09/l401.exe)
 ExpMin= 1.61D-01 ExpMax= 5.48D+03 ExpMxC= 8.25D+02 IAcc=1 IRadAn=         1 AccDes= 0.00D+00
 Harris functional with IExCor=  402 and IRadAn=       1 diagonalized for initial guess.
 HarFok:  IExCor=  402 AccDes= 0.00D+00 IRadAn=         1 IDoV= 1 UseB2=F ITyADJ=14
 ICtDFT=  3500011 ScaDFX=  1.000000  1.000000  1.000000  1.000000
 FoFCou: FMM=F IPFlag=           0 FMFlag=      100000 FMFlg1=           0
         NFxFlg=           0 DoJE=T BraDBF=F KetDBF=T FulRan=T
         wScrn=  0.000000 ICntrl=     500 IOpCl=  0 I1Cent=   200000004 NGrid=           0
         NMat0=    1 NMatS0=      1 NMatT0=    0 NMatD0=    1 NMtDS0=    0 NMtDT0=    0
 Petite list used in FoFCou.
 Harris En= -718.681061528923    
 JPrj=0 DoOrth=F DoCkMO=F.
 Leave Link  401 at Thu Aug 26 12:10:35 2021, MaxMem= 24159191040 cpu:        18.8
 (Enter /public/home/users/caep010/software/Gaussian09/g09/l502.exe)
 Closed shell SCF:
 Using DIIS extrapolation, IDIIS=  1040.
 Integral symmetry usage will be decided dynamically.
 Keep R1 ints in memory in canonical form, NReq=4034048345.
 IVT=      682634 IEndB=      682634 NGot= 24159191040 MDV= 20175414776
 LenX= 20175414776 LenY= 20175199016
 Requested convergence on RMS density matrix=1.00D-08 within 128 cycles.
 Requested convergence on MAX density matrix=1.00D-06.
 Requested convergence on             energy=1.00D-06.
 No special actions if energy rises.
 FoFCou: FMM=F IPFlag=           0 FMFlag=           0 FMFlg1=           0
         NFxFlg=           0 DoJE=F BraDBF=F KetDBF=F FulRan=T
         wScrn=  0.000000 ICntrl=     600 IOpCl=  0 I1Cent=           0 NGrid=           0
         NMat0=    1 NMatS0=  89253 NMatT0=    0 NMatD0=    1 NMtDS0=    0 NMtDT0=    0
 Symmetry not used in FoFCou.
 Integral accuracy reduced to 1.0D-05 until final iterations.

 Cycle   1  Pass 0  IDiag  1:
 E= -718.125242749139    
 DIIS: error= 2.59D-02 at cycle   1 NSaved=   1.
 NSaved= 1 IEnMin= 1 EnMin= -718.125242749139     IErMin= 1 ErrMin= 2.59D-02
 ErrMax= 2.59D-02  0.00D+00 EMaxC= 1.00D-01 BMatC= 6.03D-01 BMatP= 6.03D-01
 IDIUse=3 WtCom= 7.41D-01 WtEn= 2.59D-01
 Coeff-Com:  0.100D+01
 Coeff-En:   0.100D+01
 Coeff:      0.100D+01
 Gap=     0.135 Goal=   None    Shift=    0.000
 GapD=    0.135 DampG=1.000 DampE=0.500 DampFc=0.5000 IDamp=-1.
 Damping current iteration by 5.00D-01
 RMSDP=3.39D-03 MaxDP=2.04D-01              OVMax= 3.42D-01

 Cycle   2  Pass 0  IDiag  1:
 E= -718.208924537567     Delta-E=       -0.083681788428 Rises=F Damp=T
 DIIS: error= 1.44D-02 at cycle   2 NSaved=   2.
 NSaved= 2 IEnMin= 2 EnMin= -718.208924537567     IErMin= 2 ErrMin= 1.44D-02
 ErrMax= 1.44D-02  0.00D+00 EMaxC= 1.00D-01 BMatC= 1.28D-01 BMatP= 6.03D-01
 IDIUse=3 WtCom= 8.56D-01 WtEn= 1.44D-01
 Coeff-Com:  0.277D+00 0.723D+00
 Coeff-En:   0.418D+00 0.582D+00
 Coeff:      0.297D+00 0.703D+00
 Gap=     0.167 Goal=   None    Shift=    0.000
 RMSDP=1.00D-03 MaxDP=6.02D-02 DE=-8.37D-02 OVMax= 2.30D-01

 Cycle   3  Pass 0  IDiag  1:
 E= -718.569012776536     Delta-E=       -0.360088238969 Rises=F Damp=F
 DIIS: error= 5.41D-03 at cycle   3 NSaved=   3.
 NSaved= 3 IEnMin= 3 EnMin= -718.569012776536     IErMin= 3 ErrMin= 5.41D-03
 ErrMax= 5.41D-03  0.00D+00 EMaxC= 1.00D-01 BMatC= 2.50D-02 BMatP= 1.28D-01
 IDIUse=3 WtCom= 9.46D-01 WtEn= 5.41D-02
 Coeff-Com:  0.893D-01 0.311D+00 0.600D+00
 Coeff-En:   0.000D+00 0.000D+00 0.100D+01
 Coeff:      0.844D-01 0.294D+00 0.622D+00
 Gap=     0.152 Goal=   None    Shift=    0.000
 RMSDP=6.57D-04 MaxDP=2.60D-02 DE=-3.60D-01 OVMax= 7.02D-02

 Cycle   4  Pass 0  IDiag  1:
 E= -718.579769843892     Delta-E=       -0.010757067356 Rises=F Damp=F
 DIIS: error= 3.36D-03 at cycle   4 NSaved=   4.
 NSaved= 4 IEnMin= 4 EnMin= -718.579769843892     IErMin= 4 ErrMin= 3.36D-03
 ErrMax= 3.36D-03  0.00D+00 EMaxC= 1.00D-01 BMatC= 1.59D-02 BMatP= 2.50D-02
 IDIUse=3 WtCom= 9.66D-01 WtEn= 3.36D-02
 Coeff-Com:  0.362D-01 0.123D+00 0.435D+00 0.407D+00
 Coeff-En:   0.000D+00 0.000D+00 0.378D+00 0.622D+00
 Coeff:      0.350D-01 0.118D+00 0.433D+00 0.414D+00
 Gap=     0.149 Goal=   None    Shift=    0.000
 RMSDP=3.40D-04 MaxDP=2.20D-02 DE=-1.08D-02 OVMax= 4.55D-02

 Cycle   5  Pass 0  IDiag  1:
 E= -718.591155299698     Delta-E=       -0.011385455806 Rises=F Damp=F
 DIIS: error= 1.52D-03 at cycle   5 NSaved=   5.
 NSaved= 5 IEnMin= 5 EnMin= -718.591155299698     IErMin= 5 ErrMin= 1.52D-03
 ErrMax= 1.52D-03  0.00D+00 EMaxC= 1.00D-01 BMatC= 3.26D-03 BMatP= 1.59D-02
 IDIUse=3 WtCom= 9.85D-01 WtEn= 1.52D-02
 Coeff-Com:  0.105D-01 0.225D-01 0.203D+00 0.322D+00 0.442D+00
 Coeff-En:   0.000D+00 0.000D+00 0.000D+00 0.175D+00 0.825D+00
 Coeff:      0.103D-01 0.222D-01 0.200D+00 0.319D+00 0.448D+00
 Gap=     0.146 Goal=   None    Shift=    0.000
 RMSDP=1.47D-04 MaxDP=1.02D-02 DE=-1.14D-02 OVMax= 2.17D-02

 Cycle   6  Pass 0  IDiag  1:
 E= -718.593453433921     Delta-E=       -0.002298134223 Rises=F Damp=F
 DIIS: error= 4.59D-04 at cycle   6 NSaved=   6.
 NSaved= 6 IEnMin= 6 EnMin= -718.593453433921     IErMin= 6 ErrMin= 4.59D-04
 ErrMax= 4.59D-04  0.00D+00 EMaxC= 1.00D-01 BMatC= 3.43D-04 BMatP= 3.26D-03
 IDIUse=3 WtCom= 9.95D-01 WtEn= 4.59D-03
 Coeff-Com:  0.215D-02-0.706D-03 0.763D-01 0.157D+00 0.303D+00 0.462D+00
 Coeff-En:   0.000D+00 0.000D+00 0.000D+00 0.000D+00 0.104D+00 0.896D+00
 Coeff:      0.214D-02-0.703D-03 0.759D-01 0.156D+00 0.303D+00 0.464D+00
 Gap=     0.147 Goal=   None    Shift=    0.000
 RMSDP=4.39D-05 MaxDP=2.46D-03 DE=-2.30D-03 OVMax= 5.46D-03

 Cycle   7  Pass 0  IDiag  1:
 E= -718.593743911384     Delta-E=       -0.000290477463 Rises=F Damp=F
 DIIS: error= 1.11D-04 at cycle   7 NSaved=   7.
 NSaved= 7 IEnMin= 7 EnMin= -718.593743911384     IErMin= 7 ErrMin= 1.11D-04
 ErrMax= 1.11D-04  0.00D+00 EMaxC= 1.00D-01 BMatC= 1.33D-05 BMatP= 3.43D-04
 IDIUse=3 WtCom= 9.99D-01 WtEn= 1.11D-03
 Coeff-Com:  0.543D-03-0.162D-02 0.299D-01 0.660D-01 0.141D+00 0.255D+00
 Coeff-Com:  0.509D+00
 Coeff-En:   0.000D+00 0.000D+00 0.000D+00 0.000D+00 0.000D+00 0.000D+00
 Coeff-En:   0.100D+01
 Coeff:      0.543D-03-0.162D-02 0.299D-01 0.660D-01 0.141D+00 0.255D+00
 Coeff:      0.510D+00
 Gap=     0.147 Goal=   None    Shift=    0.000
 RMSDP=1.11D-05 MaxDP=6.56D-04 DE=-2.90D-04 OVMax= 1.68D-03

 Cycle   8  Pass 0  IDiag  1:
 E= -718.593753238562     Delta-E=       -0.000009327177 Rises=F Damp=F
 DIIS: error= 6.97D-05 at cycle   8 NSaved=   8.
 NSaved= 8 IEnMin= 8 EnMin= -718.593753238562     IErMin= 8 ErrMin= 6.97D-05
 ErrMax= 6.97D-05  0.00D+00 EMaxC= 1.00D-01 BMatC= 3.50D-06 BMatP= 1.33D-05
 IDIUse=1 WtCom= 1.00D+00 WtEn= 0.00D+00
 Coeff-Com:  0.423D-04-0.122D-02 0.100D-01 0.243D-01 0.570D-01 0.113D+00
 Coeff-Com:  0.349D+00 0.448D+00
 Coeff:      0.423D-04-0.122D-02 0.100D-01 0.243D-01 0.570D-01 0.113D+00
 Coeff:      0.349D+00 0.448D+00
 Gap=     0.147 Goal=   None    Shift=    0.000
 RMSDP=5.57D-06 MaxDP=3.80D-04 DE=-9.33D-06 OVMax= 1.07D-03

 Initial convergence to 1.0D-05 achieved.  Increase integral accuracy.
 Cycle   9  Pass 1  IDiag  1:
 E= -718.593799137209     Delta-E=       -0.000045898648 Rises=F Damp=F
 DIIS: error= 2.80D-05 at cycle   1 NSaved=   1.
 NSaved= 1 IEnMin= 1 EnMin= -718.593799137209     IErMin= 1 ErrMin= 2.80D-05
 ErrMax= 2.80D-05  0.00D+00 EMaxC= 1.00D-01 BMatC= 9.57D-07 BMatP= 9.57D-07
 IDIUse=1 WtCom= 1.00D+00 WtEn= 0.00D+00
 Coeff-Com:  0.100D+01
 Coeff:      0.100D+01
 Gap=     0.147 Goal=   None    Shift=    0.000
 RMSDP=5.57D-06 MaxDP=3.80D-04 DE=-4.59D-05 OVMax= 1.46D-03

 Cycle  10  Pass 1  IDiag  1:
 E= -718.593794212807     Delta-E=        0.000004924402 Rises=F Damp=F
 DIIS: error= 8.53D-05 at cycle   2 NSaved=   2.
 NSaved= 2 IEnMin= 1 EnMin= -718.593799137209     IErMin= 1 ErrMin= 2.80D-05
 ErrMax= 8.53D-05  0.00D+00 EMaxC= 1.00D-01 BMatC= 7.15D-06 BMatP= 9.57D-07
 IDIUse=1 WtCom= 1.00D+00 WtEn= 0.00D+00
 Coeff-Com:  0.742D+00 0.258D+00
 Coeff:      0.742D+00 0.258D+00
 Gap=     0.147 Goal=   None    Shift=    0.000
 RMSDP=5.58D-06 MaxDP=4.35D-04 DE= 4.92D-06 OVMax= 1.17D-03

 Cycle  11  Pass 1  IDiag  1:
 E= -718.593799902724     Delta-E=       -0.000005689917 Rises=F Damp=F
 DIIS: error= 6.89D-06 at cycle   3 NSaved=   3.
 NSaved= 3 IEnMin= 3 EnMin= -718.593799902724     IErMin= 3 ErrMin= 6.89D-06
 ErrMax= 6.89D-06  0.00D+00 EMaxC= 1.00D-01 BMatC= 4.61D-08 BMatP= 9.57D-07
 IDIUse=1 WtCom= 1.00D+00 WtEn= 0.00D+00
 Coeff-Com:  0.203D+00 0.102D+00 0.695D+00
 Coeff:      0.203D+00 0.102D+00 0.695D+00
 Gap=     0.147 Goal=   None    Shift=    0.000
 RMSDP=7.50D-07 MaxDP=4.38D-05 DE=-5.69D-06 OVMax= 1.05D-04

 Cycle  12  Pass 1  IDiag  1:
 E= -718.593799915231     Delta-E=       -0.000000012508 Rises=F Damp=F
 DIIS: error= 4.98D-06 at cycle   4 NSaved=   4.
 NSaved= 4 IEnMin= 4 EnMin= -718.593799915231     IErMin= 4 ErrMin= 4.98D-06
 ErrMax= 4.98D-06  0.00D+00 EMaxC= 1.00D-01 BMatC= 2.79D-08 BMatP= 4.61D-08
 IDIUse=1 WtCom= 1.00D+00 WtEn= 0.00D+00
 Coeff-Com:  0.799D-02 0.238D-01 0.477D+00 0.491D+00
 Coeff:      0.799D-02 0.238D-01 0.477D+00 0.491D+00
 Gap=     0.147 Goal=   None    Shift=    0.000
 RMSDP=4.50D-07 MaxDP=2.09D-05 DE=-1.25D-08 OVMax= 5.42D-05

 Cycle  13  Pass 1  IDiag  1:
 E= -718.593799938464     Delta-E=       -0.000000023233 Rises=F Damp=F
 DIIS: error= 1.44D-06 at cycle   5 NSaved=   5.
 NSaved= 5 IEnMin= 5 EnMin= -718.593799938464     IErMin= 5 ErrMin= 1.44D-06
 ErrMax= 1.44D-06  0.00D+00 EMaxC= 1.00D-01 BMatC= 2.80D-09 BMatP= 2.79D-08
 IDIUse=1 WtCom= 1.00D+00 WtEn= 0.00D+00
 Coeff-Com: -0.894D-02 0.795D-02 0.262D+00 0.326D+00 0.414D+00
 Coeff:     -0.894D-02 0.795D-02 0.262D+00 0.326D+00 0.414D+00
 Gap=     0.147 Goal=   None    Shift=    0.000
 RMSDP=1.45D-07 MaxDP=8.94D-06 DE=-2.32D-08 OVMax= 2.26D-05

 Cycle  14  Pass 1  IDiag  1:
 E= -718.593799940507     Delta-E=       -0.000000002043 Rises=F Damp=F
 DIIS: error= 5.58D-07 at cycle   6 NSaved=   6.
 NSaved= 6 IEnMin= 6 EnMin= -718.593799940507     IErMin= 6 ErrMin= 5.58D-07
 ErrMax= 5.58D-07  0.00D+00 EMaxC= 1.00D-01 BMatC= 4.88D-10 BMatP= 2.80D-09
 IDIUse=1 WtCom= 1.00D+00 WtEn= 0.00D+00
 Coeff-Com: -0.724D-02 0.375D-02 0.153D+00 0.200D+00 0.312D+00 0.339D+00
 Coeff:     -0.724D-02 0.375D-02 0.153D+00 0.200D+00 0.312D+00 0.339D+00
 Gap=     0.147 Goal=   None    Shift=    0.000
 RMSDP=5.15D-08 MaxDP=3.63D-06 DE=-2.04D-09 OVMax= 7.48D-06

 Cycle  15  Pass 1  IDiag  1:
 E= -718.593799940853     Delta-E=       -0.000000000345 Rises=F Damp=F
 DIIS: error= 1.08D-07 at cycle   7 NSaved=   7.
 NSaved= 7 IEnMin= 7 EnMin= -718.593799940853     IErMin= 7 ErrMin= 1.08D-07
 ErrMax= 1.08D-07  0.00D+00 EMaxC= 1.00D-01 BMatC= 1.12D-11 BMatP= 4.88D-10
 IDIUse=1 WtCom= 1.00D+00 WtEn= 0.00D+00
 Coeff-Com: -0.269D-02 0.971D-03 0.486D-01 0.659D-01 0.111D+00 0.173D+00
 Coeff-Com:  0.603D+00
 Coeff:     -0.269D-02 0.971D-03 0.486D-01 0.659D-01 0.111D+00 0.173D+00
 Coeff:      0.603D+00
 Gap=     0.147 Goal=   None    Shift=    0.000
 RMSDP=1.02D-08 MaxDP=4.79D-07 DE=-3.45D-10 OVMax= 1.22D-06

 Cycle  16  Pass 1  IDiag  1:
 E= -718.593799940879     Delta-E=       -0.000000000026 Rises=F Damp=F
 DIIS: error= 6.12D-08 at cycle   8 NSaved=   8.
 NSaved= 8 IEnMin= 8 EnMin= -718.593799940879     IErMin= 8 ErrMin= 6.12D-08
 ErrMax= 6.12D-08  0.00D+00 EMaxC= 1.00D-01 BMatC= 3.78D-12 BMatP= 1.12D-11
 IDIUse=1 WtCom= 1.00D+00 WtEn= 0.00D+00
 Coeff-Com: -0.625D-03-0.254D-04 0.694D-02 0.105D-01 0.232D-01 0.615D-01
 Coeff-Com:  0.405D+00 0.493D+00
 Coeff:     -0.625D-03-0.254D-04 0.694D-02 0.105D-01 0.232D-01 0.615D-01
 Coeff:      0.405D+00 0.493D+00
 Gap=     0.147 Goal=   None    Shift=    0.000
 RMSDP=4.34D-09 MaxDP=1.93D-07 DE=-2.61D-11 OVMax= 5.90D-07

 SCF Done:  E(RB3LYP) =  -718.593799941     A.U. after   16 cycles
            NFock= 16  Conv=0.43D-08     -V/T= 2.0054
 KE= 7.147064691171D+02 PE=-3.406036866195D+03 EE= 1.109630120461D+03
 Leave Link  502 at Thu Aug 26 12:12:39 2021, MaxMem= 24159191040 cpu:       586.4
 (Enter /public/home/users/caep010/software/Gaussian09/g09/l801.exe)
 DoSCS=F DFT=T ScalE2(SS,OS)=  1.000000  1.000000
 Range of M.O.s used for correlation:     1   422
 NBasis=   422 NAE=    50 NBE=    50 NFC=     0 NFV=     0
 NROrb=    422 NOA=    50 NOB=    50 NVA=   372 NVB=   372

 **** Warning!!: The largest alpha MO coefficient is  0.26319239D+02

 Leave Link  801 at Thu Aug 26 12:12:39 2021, MaxMem= 24159191040 cpu:         0.6
 (Enter /public/home/users/caep010/software/Gaussian09/g09/l1101.exe)
 Using compressed storage, NAtomX=    20.
 Will process     21 centers per pass.
 Leave Link 1101 at Thu Aug 26 12:12:40 2021, MaxMem= 24159191040 cpu:        23.5
 (Enter /public/home/users/caep010/software/Gaussian09/g09/l1102.exe)
 Symmetrizing basis deriv contribution to polar:
 IMax=3 JMax=2 DiffMx= 0.00D+00
 Leave Link 1102 at Thu Aug 26 12:12:41 2021, MaxMem= 24159191040 cpu:         1.3
 (Enter /public/home/users/caep010/software/Gaussian09/g09/l1110.exe)
 Forming Gx(P) for the SCF density, NAtomX=    20.
 Integral derivatives from FoFJK, PRISM(SPDF).
 Do as many integral derivatives as possible in FoFJK.
 G2DrvN: MDV=   24159190776.
 G2DrvN: will do    21 centers at a time, making    1 passes.
 Calling FoFCou, ICntrl=  3107 FMM=F I1Cent=   0 AccDes= 0.00D+00.
 FoFJK:  IHMeth= 1 ICntrl=    3107 DoSepK=F KAlg= 0 I1Cent=   0 FoldK=F
 IRaf=         0 NMat=   1 IRICut=       1 DoRegI=T DoRafI=F ISym2E= 0.
 FoFCou: FMM=F IPFlag=           0 FMFlag=      100000 FMFlg1=           0
         NFxFlg=           0 DoJE=F BraDBF=F KetDBF=F FulRan=T
         wScrn=  0.000000 ICntrl=    3107 IOpCl=  0 I1Cent=           0 NGrid=           0
         NMat0=    1 NMatS0=      1 NMatT0=    0 NMatD0=    1 NMtDS0=    0 NMtDT0=    0
 Symmetry not used in FoFCou.
 End of G2Drv F.D. properties file   721 does not exist.
 End of G2Drv F.D. properties file   722 does not exist.
 End of G2Drv F.D. properties file   788 does not exist.
 Leave Link 1110 at Thu Aug 26 12:13:16 2021, MaxMem= 24159191040 cpu:      1115.5
 (Enter /public/home/users/caep010/software/Gaussian09/g09/l1002.exe)
 Minotr:  Closed shell wavefunction.
          IDoAtm=11111111111111111111
          Direct CPHF calculation.
          Differentiating once with respect to nuclear coordinates.
          Requested convergence is 1.0D-08 RMS, and 1.0D-07 maximum.
          Secondary convergence is 1.0D-12 RMS, and 1.0D-12 maximum.
          NewPWx=T KeepS1=F KeepF1=F KeepIn=T MapXYZ=F SortEE=F KeepMc=T.
          MDV=   24159190414 using IRadAn=       2.
 Generate precomputed XC quadrature information.
 Keep R1 ints in memory in canonical form, NReq=4033373179.
 FoFCou: FMM=F IPFlag=           0 FMFlag=           0 FMFlg1=           0
         NFxFlg=           0 DoJE=F BraDBF=F KetDBF=F FulRan=T
         wScrn=  0.000000 ICntrl=     600 IOpCl=  0 I1Cent=           0 NGrid=           0
         NMat0=    1 NMatS0=  89253 NMatT0=    0 NMatD0=    1 NMtDS0=    0 NMtDT0=    0
 Symmetry not used in FoFCou.
          Solving linear equations simultaneously, MaxMat=       0.
          There are    63 degrees of freedom in the 1st order CPHF.  IDoFFX=6 NUNeed=     0.
     57 vectors produced by pass  0 Test12= 2.95D-14 1.59D-09 XBig12= 2.36D-01 1.20D-01.
 AX will form    57 AO Fock derivatives at one time.
     57 vectors produced by pass  1 Test12= 2.95D-14 1.59D-09 XBig12= 6.78D-02 6.60D-02.
     57 vectors produced by pass  2 Test12= 2.95D-14 1.59D-09 XBig12= 7.89D-04 3.88D-03.
     57 vectors produced by pass  3 Test12= 2.95D-14 1.59D-09 XBig12= 5.75D-06 2.45D-04.
     57 vectors produced by pass  4 Test12= 2.95D-14 1.59D-09 XBig12= 2.91D-08 1.70D-05.
     57 vectors produced by pass  5 Test12= 2.95D-14 1.59D-09 XBig12= 6.52D-11 9.21D-07.
     34 vectors produced by pass  6 Test12= 2.95D-14 1.59D-09 XBig12= 1.04D-13 2.53D-08.
 InvSVY:  IOpt=1 It=  1 EMax= 5.31D-16
 Solved reduced A of dimension   376 with    63 vectors.
 End of Minotr F.D. properties file   721 does not exist.
 End of Minotr F.D. properties file   722 does not exist.
 End of Minotr F.D. properties file   788 does not exist.
 Leave Link 1002 at Thu Aug 26 12:14:23 2021, MaxMem= 24159191040 cpu:      2114.3
 (Enter /public/home/users/caep010/software/Gaussian09/g09/l601.exe)
 Copying SCF densities to generalized density rwf, IOpCl= 0 IROHF=0.

 **********************************************************************

            Population analysis using the SCF density.

 **********************************************************************

 Orbital symmetries:
       Occupied  (A) (A) (A) (A) (A) (A) (A) (A) (A) (A) (A) (A)
                 (A) (A) (A) (A) (A) (A) (A) (A) (A) (A) (A) (A)
                 (A) (A) (A) (A) (A) (A) (A) (A) (A) (A) (A) (A)
                 (A) (A) (A) (A) (A) (A) (A) (A) (A) (A) (A) (A)
                 (A) (A)
       Virtual   (A) (A) (A) (A) (A) (A) (A) (A) (A) (A) (A) (A)
                 (A) (A) (A) (A) (A) (A) (A) (A) (A) (A) (A) (A)
                 (A) (A) (A) (A) (A) (A) (A) (A) (A) (A) (A) (A)
                 (A) (A) (A) (A) (A) (A) (A) (A) (A) (A) (A) (A)
                 (A) (A) (A) (A) (A) (A) (A) (A) (A) (A) (A) (A)
                 (A) (A) (A) (A) (A) (A) (A) (A) (A) (A) (A) (A)
                 (A) (A) (A) (A) (A) (A) (A) (A) (A) (A) (A) (A)
                 (A) (A) (A) (A) (A) (A) (A) (A) (A) (A) (A) (A)
                 (A) (A) (A) (A) (A) (A) (A) (A) (A) (A) (A) (A)
                 (A) (A) (A) (A) (A) (A) (A) (A) (A) (A) (A) (A)
                 (A) (A) (A) (A) (A) (A) (A) (A) (A) (A) (A) (A)
                 (A) (A) (A) (A) (A) (A) (A) (A) (A) (A) (A) (A)
                 (A) (A) (A) (A) (A) (A) (A) (A) (A) (A) (A) (A)
                 (A) (A) (A) (A) (A) (A) (A) (A) (A) (A) (A) (A)
                 (A) (A) (A) (A) (A) (A) (A) (A) (A) (A) (A) (A)
                 (A) (A) (A) (A) (A) (A) (A) (A) (A) (A) (A) (A)
                 (A) (A) (A) (A) (A) (A) (A) (A) (A) (A) (A) (A)
                 (A) (A) (A) (A) (A) (A) (A) (A) (A) (A) (A) (A)
                 (A) (A) (A) (A) (A) (A) (A) (A) (A) (A) (A) (A)
                 (A) (A) (A) (A) (A) (A) (A) (A) (A) (A) (A) (A)
                 (A) (A) (A) (A) (A) (A) (A) (A) (A) (A) (A) (A)
                 (A) (A) (A) (A) (A) (A) (A) (A) (A) (A) (A) (A)
                 (A) (A) (A) (A) (A) (A) (A) (A) (A) (A) (A) (A)
                 (A) (A) (A) (A) (A) (A) (A) (A) (A) (A) (A) (A)
                 (A) (A) (A) (A) (A) (A) (A) (A) (A) (A) (A) (A)
                 (A) (A) (A) (A) (A) (A) (A) (A) (A) (A) (A) (A)
                 (A) (A) (A) (A) (A) (A) (A) (A) (A) (A) (A) (A)
                 (A) (A) (A) (A) (A) (A) (A) (A) (A) (A) (A) (A)
                 (A) (A) (A) (A) (A) (A) (A) (A) (A) (A) (A) (A)
                 (A) (A) (A) (A) (A) (A) (A) (A) (A) (A) (A) (A)
                 (A) (A) (A) (A) (A) (A) (A) (A) (A) (A) (A) (A)
 The electronic state is 1-A.
 Alpha  occ. eigenvalues --  -19.18001 -19.17881 -19.17641 -19.17497 -14.57047
 Alpha  occ. eigenvalues --  -14.57033 -10.26547 -10.26533 -10.23793 -10.23455
 Alpha  occ. eigenvalues --  -10.23220 -10.23120 -10.22771 -10.21474  -1.24270
 Alpha  occ. eigenvalues --   -1.24104  -1.06388  -1.06001  -0.90626  -0.86869
 Alpha  occ. eigenvalues --   -0.83983  -0.78370  -0.75192  -0.70258  -0.65813
 Alpha  occ. eigenvalues --   -0.62155  -0.58468  -0.57398  -0.55929  -0.54892
 Alpha  occ. eigenvalues --   -0.54435  -0.52968  -0.51892  -0.51346  -0.50992
 Alpha  occ. eigenvalues --   -0.49229  -0.48201  -0.43865  -0.42044  -0.39783
 Alpha  occ. eigenvalues --   -0.36835  -0.32849  -0.32284  -0.31955  -0.31632
 Alpha  occ. eigenvalues --   -0.31438  -0.31303  -0.29729  -0.29127  -0.26247
 Alpha virt. eigenvalues --   -0.11500  -0.08631  -0.04583  -0.01514   0.01711
 Alpha virt. eigenvalues --    0.05865   0.07817   0.10734   0.12235   0.14607
 Alpha virt. eigenvalues --    0.16641   0.17226   0.17847   0.18776   0.20184
 Alpha virt. eigenvalues --    0.24596   0.26242   0.28592   0.29124   0.31193
 Alpha virt. eigenvalues --    0.32994   0.33684   0.34621   0.36519   0.38543
 Alpha virt. eigenvalues --    0.39231   0.40867   0.41530   0.43027   0.43858
 Alpha virt. eigenvalues --    0.44538   0.45205   0.46010   0.46713   0.48413
 Alpha virt. eigenvalues --    0.50300   0.51168   0.51378   0.53846   0.54851
 Alpha virt. eigenvalues --    0.55365   0.56170   0.59304   0.59717   0.60283
 Alpha virt. eigenvalues --    0.62060   0.64927   0.65500   0.65749   0.66877
 Alpha virt. eigenvalues --    0.67856   0.69304   0.69892   0.70712   0.71720
 Alpha virt. eigenvalues --    0.72192   0.74609   0.74843   0.75272   0.77154
 Alpha virt. eigenvalues --    0.78304   0.79175   0.79669   0.80996   0.81599
 Alpha virt. eigenvalues --    0.82172   0.82788   0.84982   0.85962   0.86798
 Alpha virt. eigenvalues --    0.87406   0.88107   0.89737   0.91135   0.92193
 Alpha virt. eigenvalues --    0.93039   0.93694   0.94911   0.96056   0.97109
 Alpha virt. eigenvalues --    0.98195   0.98630   0.99095   1.00175   1.00440
 Alpha virt. eigenvalues --    1.01362   1.02879   1.03735   1.05594   1.06474
 Alpha virt. eigenvalues --    1.09035   1.09978   1.10649   1.12407   1.13567
 Alpha virt. eigenvalues --    1.14315   1.18566   1.20624   1.22414   1.23032
 Alpha virt. eigenvalues --    1.24886   1.25952   1.28368   1.30542   1.31740
 Alpha virt. eigenvalues --    1.33994   1.34906   1.35925   1.36096   1.37142
 Alpha virt. eigenvalues --    1.38900   1.40259   1.42677   1.44748   1.45258
 Alpha virt. eigenvalues --    1.48644   1.49687   1.49810   1.51379   1.52518
 Alpha virt. eigenvalues --    1.53411   1.55329   1.57282   1.59213   1.60799
 Alpha virt. eigenvalues --    1.61609   1.63191   1.64466   1.66283   1.68461
 Alpha virt. eigenvalues --    1.71591   1.71922   1.74319   1.75364   1.77924
 Alpha virt. eigenvalues --    1.78772   1.81841   1.83652   1.84930   1.85785
 Alpha virt. eigenvalues --    1.86035   1.87232   1.90420   1.94828   1.95227
 Alpha virt. eigenvalues --    1.96005   1.98580   2.00873   2.05286   2.07799
 Alpha virt. eigenvalues --    2.11184   2.14999   2.16831   2.19061   2.21375
 Alpha virt. eigenvalues --    2.23887   2.25348   2.27212   2.29358   2.31880
 Alpha virt. eigenvalues --    2.34795   2.36325   2.38766   2.41927   2.49659
 Alpha virt. eigenvalues --    2.53888   2.56234   2.59188   2.61590   2.66418
 Alpha virt. eigenvalues --    2.71620   2.76477   2.79410   2.79994   2.82465
 Alpha virt. eigenvalues --    2.85699   2.87814   2.89311   2.92885   2.94875
 Alpha virt. eigenvalues --    2.96398   2.99341   3.01726   3.02150   3.05653
 Alpha virt. eigenvalues --    3.08364   3.10818   3.11158   3.12551   3.15868
 Alpha virt. eigenvalues --    3.16992   3.17757   3.19007   3.22328   3.23174
 Alpha virt. eigenvalues --    3.24076   3.24917   3.26907   3.27457   3.29856
 Alpha virt. eigenvalues --    3.30998   3.32404   3.33602   3.34246   3.35530
 Alpha virt. eigenvalues --    3.38378   3.39684   3.42443   3.43624   3.44879
 Alpha virt. eigenvalues --    3.47054   3.47757   3.50062   3.51059   3.51889
 Alpha virt. eigenvalues --    3.52288   3.55173   3.57562   3.59666   3.61691
 Alpha virt. eigenvalues --    3.62421   3.63317   3.64256   3.67804   3.69638
 Alpha virt. eigenvalues --    3.70565   3.71908   3.73687   3.76829   3.78963
 Alpha virt. eigenvalues --    3.81220   3.82564   3.87910   3.89160   3.90441
 Alpha virt. eigenvalues --    3.93020   3.97214   4.00025   4.01806   4.02309
 Alpha virt. eigenvalues --    4.03450   4.04543   4.06354   4.10433   4.11092
 Alpha virt. eigenvalues --    4.12209   4.14647   4.15960   4.18101   4.19538
 Alpha virt. eigenvalues --    4.22776   4.23375   4.24355   4.25357   4.26582
 Alpha virt. eigenvalues --    4.27184   4.27815   4.29507   4.31039   4.32791
 Alpha virt. eigenvalues --    4.34153   4.34583   4.35632   4.36645   4.39621
 Alpha virt. eigenvalues --    4.39982   4.42618   4.43544   4.44566   4.45539
 Alpha virt. eigenvalues --    4.49588   4.52158   4.55277   4.55665   4.58214
 Alpha virt. eigenvalues --    4.58479   4.59085   4.59368   4.60395   4.63464
 Alpha virt. eigenvalues --    4.64368   4.64994   4.66388   4.69251   4.70753
 Alpha virt. eigenvalues --    4.72378   4.73249   4.73958   4.77831   4.81475
 Alpha virt. eigenvalues --    4.83502   4.85408   4.85987   4.89857   4.93456
 Alpha virt. eigenvalues --    4.95129   4.97814   5.00275   5.00701   5.01487
 Alpha virt. eigenvalues --    5.02422   5.02690   5.05744   5.06510   5.07321
 Alpha virt. eigenvalues --    5.07672   5.08139   5.08441   5.10762   5.14456
 Alpha virt. eigenvalues --    5.16202   5.19905   5.23092   5.26358   5.27179
 Alpha virt. eigenvalues --    5.30024   5.33711   5.35080   5.36496   5.37665
 Alpha virt. eigenvalues --    5.40864   5.42927   5.44492   5.46500   5.50768
 Alpha virt. eigenvalues --    5.51661   5.61381   5.62158   5.64708   5.65332
 Alpha virt. eigenvalues --    5.68328   5.70076   5.74940   5.81547   5.87047
 Alpha virt. eigenvalues --    5.93302   5.94117   5.96659   6.01490   6.02501
 Alpha virt. eigenvalues --    6.03292   6.10869   6.22890   6.26133   6.26799
 Alpha virt. eigenvalues --    6.27959   6.32966   6.35216   6.40041   6.72833
 Alpha virt. eigenvalues --    6.75855   6.87001   6.88713   7.01092   7.04861
 Alpha virt. eigenvalues --    7.81112   9.80191  10.40881  10.51805  10.89128
 Alpha virt. eigenvalues --   11.28857  11.31681  11.74656  11.82900  11.87195
 Alpha virt. eigenvalues --   12.35751  12.79082  12.99832  13.15983  13.23802
 Alpha virt. eigenvalues --   14.48570  17.09382
          Condensed to atoms (all electrons):
               1          2          3          4          5          6
     1  C    4.913189   0.390772   0.001995  -0.008228   0.003700  -0.013705
     2  C    0.390772   4.826363   0.587936  -0.001793  -0.017899   0.006949
     3  C    0.001995   0.587936   5.023649   0.362317  -0.056807  -0.011795
     4  C   -0.008228  -0.001793   0.362317   4.812725   0.557114  -0.019128
     5  C    0.003700  -0.017899  -0.056807   0.557114   4.943132   0.420191
     6  C   -0.013705   0.006949  -0.011795  -0.019128   0.420191   4.786691
     7  C   -0.029452  -0.016177   0.003157  -0.012742  -0.006466   0.651188
     8  C    0.498915  -0.064887  -0.008080   0.000280  -0.009178  -0.014165
     9  N    0.360361  -0.038197  -0.000793  -0.000192  -0.000084   0.000079
    10  H   -0.034936   0.355686  -0.031370   0.003261   0.000056  -0.000203
    11  H    0.000631  -0.000072   0.000489   0.000370  -0.037037   0.364595
    12  N   -0.000690   0.001741  -0.049381   0.361783   0.000303   0.002380
    13  O   -0.000029  -0.000726   0.012474  -0.136671   0.006374  -0.000041
    14  O   -0.000007   0.000003   0.007108  -0.111563  -0.020134   0.000395
    15  O   -0.135747   0.005830   0.000043  -0.000021  -0.000002  -0.000005
    16  H    0.003001  -0.027200   0.349033  -0.031849   0.002838   0.000349
    17  O   -0.139068   0.015627   0.000223  -0.000133   0.000012  -0.000006
    18  H   -0.000148   0.000255   0.007440  -0.010714   0.314459  -0.033996
    19  H    0.000716   0.000564  -0.000196   0.000431   0.003920  -0.034926
    20  H   -0.019497   0.005379   0.000041  -0.000089   0.000697   0.001853
               7          8          9         10         11         12
     1  C   -0.029452   0.498915   0.360361  -0.034936   0.000631  -0.000690
     2  C   -0.016177  -0.064887  -0.038197   0.355686  -0.000072   0.001741
     3  C    0.003157  -0.008080  -0.000793  -0.031370   0.000489  -0.049381
     4  C   -0.012742   0.000280  -0.000192   0.003261   0.000370   0.361783
     5  C   -0.006466  -0.009178  -0.000084   0.000056  -0.037037   0.000303
     6  C    0.651188  -0.014165   0.000079  -0.000203   0.364595   0.002380
     7  C    4.802810   0.412575   0.001820   0.000697  -0.035084   0.000063
     8  C    0.412575   5.029081  -0.007366   0.000916   0.004876  -0.000071
     9  N    0.001820  -0.007366   5.136884  -0.004015   0.000001  -0.000006
    10  H    0.000697   0.000916  -0.004015   0.580561   0.000002  -0.000004
    11  H   -0.035084   0.004876   0.000001   0.000002   0.587374  -0.000068
    12  N    0.000063  -0.000071  -0.000006  -0.000004  -0.000068   5.197884
    13  O   -0.000002   0.000005  -0.000000  -0.000065   0.000001   0.565756
    14  O    0.000009  -0.000007  -0.000000   0.000001   0.000004   0.529264
    15  O    0.001099   0.004146   0.573047   0.000097   0.000000  -0.000000
    16  H   -0.000088   0.000104  -0.000023  -0.005051   0.000016  -0.006766
    17  O    0.000004   0.009453   0.557880   0.007856  -0.000000  -0.000001
    18  H    0.000779   0.000659   0.000001   0.000020  -0.000930  -0.030239
    19  H    0.363757  -0.037912  -0.000070   0.000033  -0.009995   0.000001
    20  H   -0.045006   0.345152  -0.015824  -0.000177  -0.000253   0.000001
              13         14         15         16         17         18
     1  C   -0.000029  -0.000007  -0.135747   0.003001  -0.139068  -0.000148
     2  C   -0.000726   0.000003   0.005830  -0.027200   0.015627   0.000255
     3  C    0.012474   0.007108   0.000043   0.349033   0.000223   0.007440
     4  C   -0.136671  -0.111563  -0.000021  -0.031849  -0.000133  -0.010714
     5  C    0.006374  -0.020134  -0.000002   0.002838   0.000012   0.314459
     6  C   -0.000041   0.000395  -0.000005   0.000349  -0.000006  -0.033996
     7  C   -0.000002   0.000009   0.001099  -0.000088   0.000004   0.000779
     8  C    0.000005  -0.000007   0.004146   0.000104   0.009453   0.000659
     9  N   -0.000000  -0.000000   0.573047  -0.000023   0.557880   0.000001
    10  H   -0.000065   0.000001   0.000097  -0.005051   0.007856   0.000020
    11  H    0.000001   0.000004   0.000000   0.000016  -0.000000  -0.000930
    12  N    0.565756   0.529264  -0.000000  -0.006766  -0.000001  -0.030239
    13  O    7.989676  -0.107039  -0.000000   0.013207   0.000001   0.001405
    14  O   -0.107039   8.030366   0.000000   0.000127   0.000000   0.045965
    15  O   -0.000000   0.000000   7.982129   0.000001  -0.103368  -0.000000
    16  H    0.013207   0.000127   0.000001   0.554575  -0.000002  -0.000223
    17  O    0.000001   0.000000  -0.103368  -0.000002   8.012665   0.000000
    18  H    0.001405   0.045965  -0.000000  -0.000223   0.000000   0.566279
    19  H   -0.000000   0.000000   0.000010   0.000001   0.000001  -0.000184
    20  H   -0.000000  -0.000000   0.023370   0.000005   0.000625   0.000024
              19         20
     1  C    0.000716  -0.019497
     2  C    0.000564   0.005379
     3  C   -0.000196   0.000041
     4  C    0.000431  -0.000089
     5  C    0.003920   0.000697
     6  C   -0.034926   0.001853
     7  C    0.363757  -0.045006
     8  C   -0.037912   0.345152
     9  N   -0.000070  -0.015824
    10  H    0.000033  -0.000177
    11  H   -0.009995  -0.000253
    12  N    0.000001   0.000001
    13  O   -0.000000  -0.000000
    14  O    0.000000  -0.000000
    15  O    0.000010   0.023370
    16  H    0.000001   0.000005
    17  O    0.000001   0.000625
    18  H   -0.000184   0.000024
    19  H    0.590553  -0.001728
    20  H   -0.001728   0.548697
 Mulliken charges:
               1
     1  C    0.208227
     2  C   -0.030156
     3  C   -0.197483
     4  C    0.234843
     5  C   -0.105190
     6  C   -0.106699
     7  C   -0.092939
     8  C   -0.164497
     9  N    0.436498
    10  H    0.126636
    11  H    0.125079
    12  N    0.428049
    13  O   -0.344326
    14  O   -0.374493
    15  O   -0.350627
    16  H    0.147945
    17  O   -0.361768
    18  H    0.139148
    19  H    0.125024
    20  H    0.156730
 Sum of Mulliken charges =  -0.00000
 Mulliken charges with hydrogens summed into heavy atoms:
               1
     1  C    0.208227
     2  C    0.096480
     3  C   -0.049538
     4  C    0.234843
     5  C    0.033958
     6  C    0.018379
     7  C    0.032085
     8  C   -0.007767
     9  N    0.436498
    12  N    0.428049
    13  O   -0.344326
    14  O   -0.374493
    15  O   -0.350627
    17  O   -0.361768
 APT charges:
               1
     1  C   -0.368314
     2  C   -0.327574
     3  C   -0.522786
     4  C   -0.422337
     5  C   -0.114111
     6  C   -0.474900
     7  C   -0.513872
     8  C   -0.342871
     9  N   -1.212492
    10  H    0.476311
    11  H    0.671368
    12  N   -1.159331
    13  O    0.415683
    14  O    0.627268
    15  O    0.700902
    16  H    0.547272
    17  O    0.375442
    18  H    0.403513
    19  H    0.681617
    20  H    0.559212
 Sum of APT charges =  -0.00000
 APT charges with hydrogens summed into heavy atoms:
               1
     1  C   -0.368314
     2  C    0.148737
     3  C    0.024486
     4  C   -0.422337
     5  C    0.289402
     6  C    0.196468
     7  C    0.167746
     8  C    0.216341
     9  N   -1.212492
    12  N   -1.159331
    13  O    0.415683
    14  O    0.627268
    15  O    0.700902
    17  O    0.375442
 Electronic spatial extent (au):  <R**2>=           2647.0912
 Charge=             -0.0000 electrons
 Dipole moment (field-independent basis, Debye):
    X=              0.2018    Y=              5.6269    Z=              2.2811  Tot=              6.0750
 Quadrupole moment (field-independent basis, Debye-Ang):
   XX=            -92.2883   YY=            -75.3662   ZZ=            -76.9042
   XY=              0.7923   XZ=             -0.4610   YZ=             -1.8363
 Traceless Quadrupole moment (field-independent basis, Debye-Ang):
   XX=            -10.7687   YY=              6.1534   ZZ=              4.6153
   XY=              0.7923   XZ=             -0.4610   YZ=             -1.8363
 Octapole moment (field-independent basis, Debye-Ang**2):
  XXX=              2.3052  YYY=             23.8493  ZZZ=             -2.5157  XYY=              0.1559
  XXY=             29.4334  XXZ=             24.6787  XZZ=              1.2406  YZZ=            -11.6015
  YYZ=             -3.7147  XYZ=             -0.4695
 Hexadecapole moment (field-independent basis, Debye-Ang**3):
 XXXX=          -2117.3722 YYYY=           -913.9933 ZZZZ=           -313.4500 XXXY=              0.7825
 XXXZ=             -3.1825 YYYX=              6.1765 YYYZ=             14.3609 ZZZX=             -0.0860
 ZZZY=            -12.4034 XXYY=           -509.8433 XXZZ=           -397.0606 YYZZ=           -213.3589
 XXYZ=            -18.1927 YYXZ=             -3.2743 ZZXY=              1.0004
 N-N= 8.631064766760D+02 E-N=-3.406036859054D+03  KE= 7.147064691171D+02
  Exact polarizability:   0.000   0.000   0.000   0.000   0.000   0.000
 Approx polarizability: 213.488  -0.517 245.381  -1.855 -44.249 138.679
 No NMR shielding tensors so no spin-rotation constants.
 Leave Link  601 at Thu Aug 26 12:14:23 2021, MaxMem= 24159191040 cpu:        16.8
 (Enter /public/home/users/caep010/software/Gaussian09/g09/l701.exe)
 Compute integral second derivatives.
 ... and contract with generalized density number  0.
 Leave Link  701 at Thu Aug 26 12:14:24 2021, MaxMem= 24159191040 cpu:        20.5
 (Enter /public/home/users/caep010/software/Gaussian09/g09/l702.exe)
 L702 exits ... SP integral derivatives will be done elsewhere.
 Leave Link  702 at Thu Aug 26 12:14:25 2021, MaxMem= 24159191040 cpu:         0.7
 (Enter /public/home/users/caep010/software/Gaussian09/g09/l703.exe)
 Compute integral second derivatives, UseDBF=F ICtDFT=           0.
 Integral derivatives from FoFJK, PRISM(SPDF).
 Calling FoFJK, ICntrl=    100147 FMM=F ISym2X=0 I1Cent= 0 IOpClX= 0 NMat=1 NMatS=1 NMatT=0.
 FoFJK:  IHMeth= 1 ICntrl=  100147 DoSepK=F KAlg= 0 I1Cent=   0 FoldK=F
 IRaf=         0 NMat=   1 IRICut=       1 DoRegI=T DoRafI=F ISym2E= 0.
 FoFCou: FMM=F IPFlag=           0 FMFlag=      100000 FMFlg1=         800
         NFxFlg=           0 DoJE=F BraDBF=F KetDBF=F FulRan=T
         wScrn=  0.000000 ICntrl=  100147 IOpCl=  0 I1Cent=           0 NGrid=           0
         NMat0=    1 NMatS0=      1 NMatT0=    0 NMatD0=    1 NMtDS0=    0 NMtDT0=    0
 Symmetry not used in FoFCou.
 Leave Link  703 at Thu Aug 26 12:15:27 2021, MaxMem= 24159191040 cpu:      1994.2
 (Enter /public/home/users/caep010/software/Gaussian09/g09/l716.exe)
 Dipole        = 7.93872262D-02 2.21378724D+00 8.97440345D-01
 Polarizability= 0.00000000D+00 0.00000000D+00 0.00000000D+00
                 0.00000000D+00 0.00000000D+00 0.00000000D+00
 ***** Axes restored to original set *****
 -------------------------------------------------------------------
 Center     Atomic                   Forces (Hartrees/Bohr)
 Number     Number              X              Y              Z
 -------------------------------------------------------------------
      1        6          -0.027123340   -0.008865270   -0.019618110
      2        6           0.123282809   -0.058224753    0.031179652
      3        6          -0.002583673   -0.007672933   -0.051023215
      4        6          -0.014596913    0.007676798   -0.007493196
      5        6          -0.072413336    0.039795817    0.018666830
      6        6          -0.034752916   -0.030651590    0.009509472
      7        6           0.006676174   -0.003098009   -0.008768532
      8        6           0.025017519   -0.002223499    0.023809163
      9        7          -0.008140893    0.002878759   -0.012323833
     10        1          -0.139231872    0.067057893   -0.001028523
     11        1           0.046706741    0.032594966   -0.005366851
     12        7           0.014086483   -0.016796033   -0.001533506
     13        8          -0.022081310    0.004140151   -0.009260417
     14        8           0.008574402    0.006391168    0.008499537
     15        8           0.010220780   -0.008727537    0.024469144
     16        1           0.013851183    0.001603352    0.029190475
     17        8          -0.002638533    0.004293393   -0.009043585
     18        1           0.084480754   -0.043533117   -0.022911591
     19        1           0.000830221    0.012595305    0.008506102
     20        1          -0.010164281    0.000765140   -0.005459015
 -------------------------------------------------------------------
 Cartesian Forces:  Max     0.139231872 RMS     0.035354747
 FormGI is forming the generalized inverse of G from B-inverse, IUseBI=4.
 Leave Link  716 at Thu Aug 26 12:15:28 2021, MaxMem= 24159191040 cpu:         1.2
 (Enter /public/home/users/caep010/software/Gaussian09/g09/l103.exe)

 GradGradGradGradGradGradGradGradGradGradGradGradGradGradGradGradGradGrad
 Berny optimization.
 Red2BG is reusing G-inverse.
 Internal  Forces:  Max     0.154121085 RMS     0.021947401
 Search for a local minimum.
 Step number   1 out of a maximum of  100
 All quantities printed in internal units (Hartrees-Bohrs-Radians)
 RMS Force = .21947D-01 SwitMx=.10000D-02 MixMth= 1
 Mixed Optimization -- RFO/linear search
 Second derivative matrix not updated -- analytic derivatives used.
 ITU=  0
     Eigenvalues ---    0.00409   0.00442   0.00763   0.00919   0.00937
     Eigenvalues ---    0.01253   0.01666   0.02230   0.02249   0.02345
     Eigenvalues ---    0.02704   0.02940   0.03131   0.03355   0.04340
     Eigenvalues ---    0.10786   0.11204   0.11313   0.11409   0.11499
     Eigenvalues ---    0.11841   0.12408   0.12817   0.13679   0.14931
     Eigenvalues ---    0.15014   0.15870   0.16323   0.22065   0.23090
     Eigenvalues ---    0.23513   0.24236   0.26602   0.29730   0.31466
     Eigenvalues ---    0.31973   0.34126   0.34704   0.35896   0.38650
     Eigenvalues ---    0.39306   0.42525   0.44287   0.52234   0.56662
     Eigenvalues ---    0.59830   0.62536   0.63515   0.64748   0.68290
     Eigenvalues ---    0.69722   0.81467   0.84278   0.86048
 RFO step:  Lambda=-6.36863142D-02 EMin= 4.08767874D-03
 Linear search not attempted -- first point.
 Maximum step size (   0.300) exceeded in Quadratic search.
    -- Step size scaled by   0.907
 Iteration  1 RMS(Cart)=  0.04571594 RMS(Int)=  0.00144401
 Iteration  2 RMS(Cart)=  0.00165172 RMS(Int)=  0.00024692
 Iteration  3 RMS(Cart)=  0.00000514 RMS(Int)=  0.00024687
 Iteration  4 RMS(Cart)=  0.00000000 RMS(Int)=  0.00024687
 ITry= 1 IFail=0 DXMaxC= 2.04D-01 DCOld= 1.00D+10 DXMaxT= 3.00D-01 DXLimC= 3.00D+00 Rises=F
 Variable       Old X    -DE/DX   Delta X   Delta X   Delta X     New X
                                 (Linear)    (Quad)   (Total)
    R1        2.81203  -0.00309   0.00000  -0.01770  -0.01777   2.79425
    R2        2.47070   0.03059   0.00000   0.03964   0.03948   2.51019
    R3        2.80542   0.00255   0.00000   0.00409   0.00409   2.80951
    R4        2.47363   0.03047   0.00000   0.03752   0.03755   2.51118
    R5        1.77389   0.15412   0.00000   0.15920   0.15920   1.93309
    R6        2.76711   0.00490   0.00000   0.00625   0.00635   2.77345
    R7        2.15251  -0.03109   0.00000  -0.08752  -0.08752   2.06499
    R8        2.50951   0.01825   0.00000   0.01608   0.01624   2.52575
    R9        2.78679   0.00588   0.00000   0.01720   0.01720   2.80399
   R10        2.73421   0.00899   0.00000   0.01999   0.02008   2.75429
   R11        1.85979   0.09566   0.00000   0.12244   0.12244   1.98223
   R12        2.53270   0.00773   0.00000   0.00367   0.00364   2.53634
   R13        1.92426   0.05678   0.00000   0.08821   0.08821   2.01246
   R14        2.72199   0.01698   0.00000   0.03001   0.02989   2.75188
   R15        2.02095   0.01380   0.00000   0.02673   0.02673   2.04768
   R16        2.07403  -0.00659   0.00000  -0.01595  -0.01595   2.05808
   R17        2.27427   0.02724   0.00000   0.02745   0.02745   2.30171
   R18        2.31272   0.00635   0.00000   0.00234   0.00234   2.31506
   R19        2.28673   0.02253   0.00000   0.02144   0.02144   2.30817
   R20        2.31709   0.00287   0.00000  -0.00413  -0.00413   2.31296
    A1        2.27375  -0.00298   0.00000  -0.00838  -0.00824   2.26551
    A2        1.95962   0.00221   0.00000   0.01263   0.01255   1.97217
    A3        2.04697   0.00074   0.00000  -0.00461  -0.00467   2.04231
    A4        2.16577  -0.00103   0.00000   0.01094   0.01083   2.17660
    A5        1.97497   0.00519   0.00000   0.02552   0.02533   2.00030
    A6        2.13480  -0.00376   0.00000  -0.03222  -0.03251   2.10228
    A7        2.16264   0.00404   0.00000   0.01399   0.01384   2.17647
    A8        2.09254  -0.00293   0.00000  -0.01022  -0.01086   2.08168
    A9        1.99980   0.00025   0.00000   0.00813   0.00764   2.00744
   A10        2.26063  -0.00201   0.00000  -0.01052  -0.01057   2.25006
   A11        1.97252   0.00753   0.00000   0.01746   0.01748   1.99000
   A12        2.04172  -0.00542   0.00000  -0.00613  -0.00613   2.03560
   A13        2.18830   0.00145   0.00000   0.01157   0.01150   2.19980
   A14        1.90024   0.01748   0.00000   0.07760   0.07755   1.97779
   A15        2.19451  -0.01891   0.00000  -0.08887  -0.08892   2.10559
   A16        2.19042   0.00372   0.00000   0.01724   0.01721   2.20763
   A17        2.07473  -0.00829   0.00000  -0.04168  -0.04176   2.03297
   A18        2.00501   0.00490   0.00000   0.02746   0.02738   2.03239
   A19        2.22260   0.00030   0.00000  -0.00276  -0.00314   2.21946
   A20        2.03276   0.00037   0.00000   0.00959   0.00952   2.04229
   A21        2.00199   0.00014   0.00000   0.00088   0.00073   2.00272
   A22        2.20028   0.00046   0.00000   0.00349   0.00348   2.20376
   A23        2.11426  -0.00941   0.00000  -0.04777  -0.04786   2.06640
   A24        1.96845   0.00898   0.00000   0.04465   0.04457   2.01302
   A25        2.08676  -0.00300   0.00000  -0.00606  -0.00606   2.08070
   A26        2.03791  -0.00795   0.00000  -0.01323  -0.01323   2.02468
   A27        2.15852   0.01095   0.00000   0.01930   0.01930   2.17781
   A28        2.04515  -0.00327   0.00000  -0.01192  -0.01198   2.03317
   A29        2.10384  -0.01355   0.00000  -0.02269  -0.02275   2.08109
   A30        2.13373   0.01693   0.00000   0.03520   0.03514   2.16887
    D1        0.98384  -0.00030   0.00000   0.00387   0.00403   0.98787
    D2       -2.02752  -0.00336   0.00000  -0.02960  -0.03015  -2.05767
    D3       -2.24228  -0.00065   0.00000  -0.00143  -0.00121  -2.24349
    D4        1.02955  -0.00371   0.00000  -0.03491  -0.03539   0.99415
    D5       -0.07724  -0.00102   0.00000  -0.00056  -0.00088  -0.07811
    D6        3.08725  -0.00282   0.00000  -0.02223  -0.02190   3.06535
    D7       -3.13081  -0.00071   0.00000   0.00430   0.00386  -3.12694
    D8        0.03368  -0.00250   0.00000  -0.01737  -0.01716   0.01652
    D9       -3.13194   0.00010   0.00000   0.00019   0.00016  -3.13178
   D10        0.00669  -0.00008   0.00000   0.00045   0.00043   0.00712
   D11       -0.06289  -0.00042   0.00000  -0.00471  -0.00468  -0.06757
   D12        3.07574  -0.00059   0.00000  -0.00444  -0.00442   3.07133
   D13        0.07217  -0.00277   0.00000  -0.01826  -0.01816   0.05401
   D14        2.94682   0.00351   0.00000   0.03804   0.03800   2.98482
   D15        3.07200   0.00122   0.00000   0.02268   0.02228   3.09428
   D16       -0.33653   0.00750   0.00000   0.07899   0.07844  -0.25809
   D17       -1.08860   0.00278   0.00000   0.02979   0.02979  -1.05882
   D18        2.19740   0.00219   0.00000   0.02291   0.02302   2.22042
   D19        2.30719  -0.00271   0.00000  -0.02121  -0.02163   2.28557
   D20       -0.68999  -0.00330   0.00000  -0.02809  -0.02839  -0.71838
   D21        0.08846  -0.00092   0.00000  -0.00872  -0.00916   0.07930
   D22       -3.07019   0.00059   0.00000   0.00914   0.00979  -3.06040
   D23        3.08087   0.00059   0.00000  -0.00003  -0.00065   3.08022
   D24       -0.07778   0.00210   0.00000   0.01783   0.01831  -0.05947
   D25       -0.01796   0.00235   0.00000   0.01461   0.01458  -0.00338
   D26       -3.12740  -0.00175   0.00000  -0.00677  -0.00680  -3.13420
   D27       -3.03467   0.00170   0.00000   0.00937   0.00940  -3.02527
   D28        0.13908  -0.00239   0.00000  -0.01201  -0.01198   0.12710
   D29        0.96189  -0.00156   0.00000  -0.01326  -0.01326   0.94863
   D30       -2.36176   0.00113   0.00000   0.00994   0.00956  -2.35220
   D31       -2.15982  -0.00371   0.00000  -0.03589  -0.03517  -2.19499
   D32        0.79972  -0.00102   0.00000  -0.01269  -0.01235   0.78737
   D33       -0.02243   0.00014   0.00000   0.00471   0.00514  -0.01728
   D34        2.86245   0.00416   0.00000   0.04268   0.04310   2.90555
   D35       -2.98836  -0.00124   0.00000  -0.01131  -0.01133  -2.99969
   D36       -0.10348   0.00278   0.00000   0.02665   0.02662  -0.07685
   D37       -0.92959   0.00087   0.00000   0.01032   0.01019  -0.91939
   D38        2.19076   0.00234   0.00000   0.02942   0.02963   2.22038
   D39        2.46488  -0.00311   0.00000  -0.02818  -0.02815   2.43673
   D40       -0.69796  -0.00165   0.00000  -0.00907  -0.00872  -0.70668
         Item               Value     Threshold  Converged?
 Maximum Force            0.154121     0.000450     NO 
 RMS     Force            0.021947     0.000300     NO 
 Maximum Displacement     0.204118     0.001800     NO 
 RMS     Displacement     0.045685     0.001200     NO 
 Predicted change in Energy=-3.510423D-02
 Lowest energy point so far.  Saving SCF results.
 GradGradGradGradGradGradGradGradGradGradGradGradGradGradGradGradGradGrad

 Leave Link  103 at Thu Aug 26 12:15:28 2021, MaxMem= 24159191040 cpu:         6.1
 (Enter /public/home/users/caep010/software/Gaussian09/g09/l202.exe)
                          Input orientation:                          
 ---------------------------------------------------------------------
 Center     Atomic      Atomic             Coordinates (Angstroms)
 Number     Number       Type             X           Y           Z
 ---------------------------------------------------------------------
      1          6           0        1.506603    0.291435    2.957322
      2          6           0        1.087382    0.834006    1.647249
      3          6           0        1.834409    0.819958    0.548331
      4          6           0        3.164027    0.206470    0.449630
      5          6           0        4.276374    0.499019    1.130452
      6          6           0        4.387722    1.463458    2.217549
      7          6           0        3.647910    1.493189    3.337023
      8          6           0        2.566346    0.588577    3.701044
      9          7           0        0.513336   -0.647831    3.541753
     10          1           0        0.185675    1.316998    1.655035
     11          1           0        5.223083    2.123098    2.183428
     12          7           0        3.304566   -0.753114   -0.673375
     13          8           0        2.316971   -0.922981   -1.371723
     14          8           0        4.373030   -1.326576   -0.839550
     15          8           0        0.740272   -1.154155    4.626048
     16          1           0        1.386784    1.108853   -0.405746
     17          8           0       -0.493281   -0.849503    2.873273
     18          1           0        5.114614   -0.043640    0.809249
     19          1           0        3.998791    2.127872    4.142140
     20          1           0        2.658686    0.122170    4.680867
 ---------------------------------------------------------------------
                    Distance matrix (angstroms):
                    1          2          3          4          5
     1  C    0.000000
     2  C    1.478654   0.000000
     3  C    2.487977   1.328860   0.000000
     4  C    3.007124   2.478014   1.467649   0.000000
     5  C    3.324482   3.247918   2.530822   1.336570   0.000000
     6  C    3.197147   3.407887   3.117657   2.490580   1.457505
     7  C    2.484670   3.137860   3.393940   3.197941   2.500459
     8  C    1.328334   2.542763   3.244822   3.327901   3.088715
     9  N    1.486728   2.472754   3.586114   4.161396   4.614119
    10  H    2.119571   1.022945   2.046990   3.399538   4.204533
    11  H    4.214989   4.365006   3.981812   3.304426   2.154681
    12  N    4.183982   3.580523   2.475576   1.483809   2.401258
    13  O    4.568603   3.703118   2.637671   2.304450   3.481699
    14  O    5.024997   4.652716   3.602556   2.339637   2.687572
    15  O    2.337015   3.598126   4.660690   5.016807   5.239865
    16  H    3.463055   2.092839   1.092745   2.168999   3.328894
    17  O    2.303983   2.614542   3.689255   4.512763   5.254098
    18  H    4.212391   4.206080   3.402003   1.999167   1.048950
    19  H    3.314709   4.046587   4.394388   4.245379   3.435182
    20  H    2.080037   3.489777   4.271322   4.262140   3.919741
                    6          7          8          9         10
     6  C    0.000000
     7  C    1.342172   0.000000
     8  C    2.506708   1.456234   0.000000
     9  N    4.606726   3.801505   2.401860   0.000000
    10  H    4.242059   3.853206   3.222475   2.743651   0.000000
    11  H    1.064950   2.051520   3.422889   5.630703   5.128789
    12  N    3.800508   4.609452   4.634721   5.056614   4.408439
    13  O    4.781838   5.457249   5.299053   5.241283   4.326799
    14  O    4.138884   5.091231   5.248705   5.878243   5.544851
    15  O    5.094767   4.138161   2.688362   1.218015   3.903985
    16  H    4.001631   4.389616   4.304391   4.408128   2.394328
    17  O    5.440951   4.780454   3.480603   1.225077   2.576590
    18  H    2.187013   3.301924   3.905874   5.385479   5.182773
    19  H    2.072863   1.083583   2.148463   4.495931   4.624182
    20  H    3.294928   2.159670   1.089089   2.548139   4.086448
                   11         12         13         14         15
    11  H    0.000000
    12  N    4.484933   0.000000
    13  O    5.510280   1.221429   0.000000
    14  O    4.664894   1.223964   2.161822   0.000000
    15  O    6.066496   5.900874   6.205858   6.565014   0.000000
    16  H    4.738113   2.686342   2.434483   3.877778   5.555010
    17  O    6.479897   5.197273   5.091454   6.139514   2.164876
    18  H    2.568051   2.444954   3.654681   2.216847   5.910674
    19  H    2.309862   5.654308   6.522185   6.073754   4.650141
    20  H    4.100859   5.463623   6.151663   5.959265   2.304848
                   16         17         18         19         20
    16  H    0.000000
    17  O    4.256967   0.000000
    18  H    4.086707   6.029768   0.000000
    19  H    5.342681   5.536560   4.131426   0.000000
    20  H    5.335252   3.761176   4.587864   2.471628   0.000000
 Stoichiometry    C8H6N2O4
 Framework group  C1[X(C8H6N2O4)]
 Deg. of freedom    54
 Full point group                 C1      NOp   1
 RotChk:  IX=0 Diff= 1.91D-02
 Largest Abelian subgroup         C1      NOp   1
 Largest concise Abelian subgroup C1      NOp   1
                         Standard orientation:                         
 ---------------------------------------------------------------------
 Center     Atomic      Atomic             Coordinates (Angstroms)
 Number     Number       Type             X           Y           Z
 ---------------------------------------------------------------------
      1          6           0        1.512473    0.105940    0.231552
      2          6           0        0.660276   -0.517890    1.266449
      3          6           0       -0.668261   -0.488910    1.271062
      4          6           0       -1.494610    0.110568    0.216659
      5          6           0       -1.527642    1.378313   -0.205420
      6          6           0       -0.655781    2.455452    0.246191
      7          6           0        0.686376    2.449217    0.245783
      8          6           0        1.560974    1.366863   -0.183410
      9          7           0        2.522116   -0.829367   -0.330750
     10          1           0        1.172884   -0.916997    2.056616
     11          1           0       -1.125705    3.384557    0.469920
     12          7           0       -2.534401   -0.798373   -0.325882
     13          8           0       -2.581341   -1.920585    0.154040
     14          8           0       -3.273067   -0.398032   -1.215932
     15          8           0        3.291803   -0.429423   -1.185844
     16          1           0       -1.213531   -1.101009    1.993632
     17          8           0        2.509785   -1.968060    0.120957
     18          1           0       -2.269009    1.556968   -0.925666
     19          1           0        1.183026    3.399969    0.399281
[...]
 0111117,0.01147767,-0.00845506,-0.02445515,0.21374591,-0.02454606,-0.3
 7651296,-0.20020728,0.13094496,0.69638577,-0.33907633,-0.07153623,-0.1
 8323187,-0.00049783,0.00099970,-0.01338853,0.00305133,-0.00617616,0.00
 124294,-0.00653227,0.00078652,-0.00239692,-0.00159428,0.00746955,0.001
 26102,-0.01323607,-0.01813966,0.01740949,-0.16344218,-0.08275054,0.021
 82857,0.61881251,-0.07899746,-0.07792562,-0.02993031,0.00944693,0.0073
 4883,0.01195004,0.00742449,-0.00353384,-0.00293126,-0.00497457,0.00153
 919,-0.00251577,0.00371479,0.00119400,0.00639053,-0.00376661,-0.001471
 90,0.00951552,-0.08294583,-0.13693811,0.01527346,0.21209080,0.31518812
 ,-0.19737722,-0.02995355,-0.23047982,-0.02531076,-0.00531856,-0.013789
 21,-0.00164089,0.00029231,0.00115600,-0.00103289,0.00093118,-0.0003525
 8,-0.00153477,0.00083856,-0.00183635,0.02287952,0.01890371,-0.00048317
 ,0.03590077,0.03009432,-0.10672509,0.17117852,-0.09964687,0.62495671,-
 0.08327021,0.00264115,0.00419935,0.01290264,-0.00324203,0.01140485,-0.
 00335019,0.00163082,-0.00555603,0.00261290,-0.00140073,-0.00058801,-0.
 00066996,0.00011574,-0.00012194,0.00031855,0.00263837,0.00414905,0.007
 74483,-0.00385170,-0.00944058,-0.04060813,-0.02741218,0.00512679,0.669
 75415,0.00820561,-0.08802719,0.01423780,-0.00734753,-0.00863416,0.0117
 7719,-0.00042690,-0.00128017,-0.00204719,-0.00125155,-0.00078191,-0.00
 029990,0.00013576,0.00206856,0.00146470,-0.00076888,-0.00220733,0.0001
 4441,-0.00259087,0.01089415,0.00694333,-0.02886244,-0.01110595,-0.0083
 8260,0.09920941,0.37868475,-0.00397446,0.00500239,-0.10135858,0.027126
 46,0.02067904,-0.02214043,-0.00555284,0.00254282,-0.00147779,0.0004320
 8,0.00137887,0.00083464,-0.00028286,0.00002976,-0.00013055,0.00016982,
 -0.00065498,-0.00204656,-0.00942819,0.00454256,-0.00128439,0.00188692,
 -0.00521078,0.01872777,0.23357887,-0.17949923,0.78566170,-0.00724586,0
 .00362533,-0.00462474,-0.29361518,0.10472149,-0.00947975,-0.01324980,0
 .00792080,-0.00206847,0.00263045,0.00276267,0.00279358,0.00031473,-0.0
 0043386,-0.00046419,-0.00011284,0.00020423,0.00002324,-0.00002462,-0.0
 0007526,-0.00007409,0.00153339,0.00130116,0.00045982,-0.00234781,-0.00
 038785,-0.00145996,0.31262148,0.00698987,0.00070750,-0.00233035,0.1032
 6832,-0.07982741,0.01246658,0.00159595,0.00543538,-0.00103481,0.006414
 17,0.00960570,0.00192750,0.00027595,-0.00210208,-0.00164962,-0.0002985
 9,0.00113135,0.00129847,0.00085707,0.00012091,-0.00057081,0.00094107,-
 0.00141970,0.00179600,0.00189187,0.00164930,0.00085134,-0.11458356,0.0
 7116764,-0.02766681,0.01173397,-0.00343783,-0.01596561,0.01106400,-0.0
 5134229,0.02702534,-0.01013992,0.00094916,0.00305112,0.00274623,-0.002
 46870,0.00022563,-0.00109587,-0.00098633,-0.00033536,0.00001783,0.0002
 2504,-0.00001979,0.00094944,0.00036492,0.00162164,0.00261642,-0.003241
 31,-0.00339206,-0.00115746,-0.00090176,0.01202294,-0.01289041,0.059431
 16,0.00033315,0.00078859,-0.00077278,-0.00008523,-0.00044914,0.0006305
 2,0.00015275,-0.00015437,0.00012965,0.00252571,0.00042941,0.00179908,-
 0.00179840,-0.00397601,-0.00300243,-0.21957629,-0.13550975,0.02128299,
 -0.01128795,-0.01437190,-0.00137494,0.00514891,-0.00293943,0.00546546,
 -0.00024267,0.00048116,0.00069198,-0.00002978,-0.00010210,-0.00006630,
 0.22768473,0.00005992,-0.00105883,0.00119981,-0.00009910,0.00078600,-0
 .00144774,-0.00075307,-0.00014872,0.00038332,0.00044401,-0.00346452,-0
 .00245170,-0.01567178,-0.00740856,0.00127829,-0.13652763,-0.15346878,0
 .00014362,-0.00101844,0.00514285,0.00080362,-0.00566176,0.00584484,-0.
 00429050,0.00049211,-0.00075403,-0.00092480,0.00005883,0.00028184,0.00
 010982,0.15416671,0.15431055,-0.00004810,0.00117651,-0.00176438,-0.000
 06509,-0.00030764,0.00052947,0.00042033,-0.00038875,0.00019862,0.00249
 788,-0.00187349,-0.00162199,-0.02123313,-0.01853432,-0.00125802,0.0118
 7525,0.00090794,-0.04464334,0.02486915,0.01565935,-0.00360287,0.005380
 63,-0.00422552,-0.00028693,-0.00081579,0.00049566,0.00068684,-0.000033
 04,-0.00014656,0.00012302,-0.02137165,0.00272015,0.05320835,0.00104905
 ,0.00071292,0.00104036,-0.00574179,0.00291178,-0.00463359,-0.00217254,
 0.01894940,0.03276770,-0.09789381,0.00601041,0.00231829,0.01118732,-0.
 01700438,-0.02052014,-0.00646896,0.00300046,-0.00354069,-0.00012042,0.
 00038843,0.00032266,-0.00031745,0.00012008,-0.00043270,0.00051789,-0.0
 0005956,0.00087369,-0.00136231,-0.00125654,0.00095152,0.00012650,-0.00
 089675,-0.00046822,0.92902573,-0.00081410,-0.00089347,-0.00092681,-0.0
 0211325,-0.00125704,0.00062331,0.00850875,-0.01031176,-0.01213344,0.01
 702254,-0.08854867,0.00199585,-0.02036069,-0.01206038,-0.02360396,0.00
 570130,0.01024292,-0.00489156,-0.00004259,-0.00213778,-0.00075175,0.00
 145405,0.00200818,-0.00053895,0.00177264,0.00184887,-0.00089821,-0.000
 31939,0.00045954,0.00029440,-0.00073221,0.00206047,0.00188531,-0.13593
 579,0.39924753,0.00006106,-0.00169469,0.00250989,-0.00442548,0.0007177
 0,0.00089104,0.01747614,-0.01141294,-0.00539236,0.01000616,0.00027043,
 -0.08622634,-0.01714585,-0.02360309,-0.03211430,-0.00366910,-0.0051117
 7,0.01357954,0.00441569,0.00258660,-0.00167670,-0.00031189,0.00000045,
 -0.00042303,0.00420106,0.00172219,-0.00169109,-0.00021200,0.00071524,0
 .00059174,-0.00068942,0.00085151,-0.00122256,0.13010096,0.16326736,0.5
 0583200,-0.00041295,0.00063786,-0.00192678,0.00239498,-0.00036017,0.00
 123097,-0.00359459,0.00390852,0.00037583,-0.00829012,-0.01280490,-0.02
 989213,0.00460029,0.00072806,0.00145280,0.00059172,-0.00135717,-0.0014
 3383,-0.00147920,-0.00090436,0.00075379,0.00023004,-0.00012075,0.00058
 023,-0.00151146,-0.00038656,-0.00018976,0.00027276,-0.00013701,-0.0001
 9832,0.00022226,-0.00037351,-0.00020823,-0.37747900,-0.04406419,-0.195
 98945,0.48616375,0.00075521,0.00029293,0.00071765,-0.00060944,0.000479
 37,-0.00084817,0.00081019,-0.00417857,-0.00148492,-0.02297700,0.007798
 38,-0.02921247,0.00384662,-0.00183570,-0.00344099,-0.00229302,-0.00134
 000,0.00175701,0.00042128,0.00046786,-0.00026036,-0.00051896,-0.000474
 91,-0.00010086,-0.00077326,-0.00065383,0.00015676,-0.00002236,-0.00013
 196,-0.00007433,0.00009683,-0.00057104,-0.00067580,-0.05001815,-0.1121
 0556,-0.07234554,0.04130914,0.08207396,0.00052902,0.00076804,-0.000016
 36,0.00057481,-0.00072793,0.00017114,-0.00236344,0.00036838,-0.0018479
 3,-0.04583016,-0.02537532,-0.03117414,0.00649721,-0.00483839,-0.002673
 29,-0.00092975,0.00118236,-0.00254708,-0.00096611,-0.00069080,0.000130
 12,-0.00055955,-0.00039779,0.00000973,-0.00164106,-0.00089638,0.000620
 66,0.00000173,-0.00028723,-0.00019082,0.00004543,-0.00059963,-0.000303
 20,-0.20440541,-0.06878011,-0.26309637,0.26652587,0.09066870,0.2696267
 0,-0.00003487,0.00048929,-0.00068303,-0.00005656,0.00074580,0.00049888
 ,0.00111587,0.00129240,0.00058056,-0.01203440,0.02818308,0.02116932,-0
 .00833324,-0.00563909,-0.00904812,0.00281692,0.00020772,0.00300399,0.0
 0085206,-0.00052288,-0.00124095,-0.00046815,-0.00048669,0.00044153,-0.
 00009211,0.00030758,-0.00090427,-0.00005248,-0.00043553,0.00001252,-0.
 00032869,0.00054623,0.00002517,-0.44313864,0.17064133,0.06185632,-0.10
 691277,0.03024071,-0.02093780,0.56248081,0.00023238,-0.00020561,0.0006
 1348,0.00168866,-0.00135359,0.00073788,-0.00116904,-0.00006577,-0.0063
 1046,0.03079581,-0.01065065,-0.02345535,0.00514860,-0.00068328,-0.0008
 2476,0.00005295,-0.00088627,-0.00006704,-0.00030688,-0.00005651,0.0001
 2811,-0.00013459,-0.00012250,-0.00017616,-0.00056210,-0.00071883,0.000
 84823,0.00035242,0.00032595,-0.00038781,0.00012034,-0.00046246,-0.0002
 8655,0.17417374,-0.18279112,-0.06036373,0.01223297,0.03014651,0.010974
 84,-0.22394524,0.16917161,-0.00007133,-0.00020190,-0.00026092,0.001423
 01,-0.00123131,0.00094624,-0.00284457,-0.00332451,-0.00476101,0.028378
 08,-0.02664325,-0.00260852,0.00188780,-0.00487079,-0.00309033,0.001952
 09,0.00111707,-0.00103528,-0.00065729,-0.00088250,-0.00019863,0.000208
 21,0.00010200,-0.00024315,-0.00111006,-0.00062512,0.00082111,0.0003231
 9,0.00046699,-0.00026367,-0.00000707,-0.00017729,-0.00001341,0.0693564
 8,-0.06296050,-0.12919714,-0.04520798,0.01950818,0.03228439,-0.0572282
 8,0.08268187,0.11169315,0.01316330,-0.01334858,0.01895444,-0.00491192,
 -0.00243150,-0.00023986,0.00149669,-0.00088465,0.00083782,-0.00047989,
 0.00001863,0.00012458,-0.00005198,-0.00009771,0.00002980,-0.00074894,-
 0.00099668,0.00004516,0.00137007,0.00115338,0.00253483,-0.00661955,-0.
 00647183,0.00150236,-0.12955837,0.00507591,-0.05922243,0.00050131,-0.0
 0052011,0.00081980,-0.00024860,0.00015657,0.00015600,-0.00004302,-0.00
 052019,-0.00113211,0.00030514,0.00029802,0.00050704,-0.00007484,0.0002
 2878,0.00036298,0.13905486,-0.00969073,-0.00702877,0.03615666,-0.00599
 839,0.00032953,0.00143555,0.00125660,-0.00126438,0.00127084,0.00064314
 ,-0.00020215,-0.00001334,-0.00020636,-0.00013752,-0.00007734,-0.000007
 19,-0.00004538,-0.00027405,0.00004699,-0.00092537,0.00006098,0.0010111
 3,-0.00046392,0.00484147,0.00853392,-0.16860379,0.17432145,0.00013781,
 -0.00006105,0.00014758,-0.00011860,0.00004423,0.00002223,0.00050378,-0
 .00072953,-0.00075627,-0.00018607,0.00039849,0.00040712,-0.00052014,0.
 00054384,0.00043542,-0.00609322,0.15052902,0.01155669,0.03519863,-0.03
 143132,0.00336494,0.00243697,0.00087091,-0.00017799,0.00120035,-0.0006
 9638,-0.00049773,0.00055889,0.00018040,0.00025576,-0.00051661,-0.00064
 430,-0.00057413,-0.00006061,0.00139146,0.00362426,-0.00028948,0.000449
 56,-0.00997204,-0.00319436,-0.00502079,-0.06692925,0.17229612,-0.45700
 051,0.00028852,-0.00084833,0.00038853,-0.00031885,0.00044182,-0.000142
 80,-0.00093096,0.00061491,0.00078294,0.00051645,-0.00041790,-0.0004294
 5,0.00088034,-0.00072005,-0.00059295,0.11669963,-0.22590369,0.55379605
 ,0.00064340,0.00402067,0.00396803,0.00758559,-0.00553092,0.01836470,-0
 .09490098,0.04758905,-0.09899244,-0.01530338,0.01165637,-0.02437459,-0
 .00162290,0.00304480,0.00290340,0.00028889,0.00083364,-0.00015270,0.00
 009337,0.00010692,-0.00043511,-0.00094385,-0.00117750,0.00080503,0.000
 56675,0.00014660,0.00008830,0.00023190,-0.00292608,-0.00023916,0.00004
 481,-0.00007790,-0.00011484,-0.00286155,-0.00122263,-0.00308105,0.0023
 2726,-0.00090571,0.00114592,0.00078304,0.00019501,0.00067848,-0.000108
 80,-0.00020584,0.00002972,0.10386735,0.00468402,0.00963111,0.00462601,
 -0.00082843,0.00610608,0.00030034,0.04857972,-0.07519457,0.08569872,0.
 00098581,0.00063373,0.00817864,0.00210277,-0.00154326,0.00014551,-0.00
 020255,0.00012677,0.00101298,0.00110282,0.00107245,-0.00081402,-0.0014
 3787,-0.00198914,0.00097072,0.00011918,0.00037273,-0.00150982,-0.00220
 319,-0.00593025,-0.00204619,-0.00012606,0.00023273,-0.00007600,0.00159
 509,0.00170109,0.00140689,-0.00037554,-0.00159010,-0.00234182,-0.00099
 960,-0.00004277,-0.00015956,0.00028559,0.00031895,-0.00060620,-0.05361
 162,0.06609988,0.00358219,0.00095333,-0.00050774,-0.01068355,0.0104744
 8,-0.02055655,-0.09249237,0.08741237,-0.25474527,-0.00111402,-0.001054
 97,0.00469400,0.00178029,0.00018710,0.00003876,-0.00020385,-0.00043806
 ,0.00004498,-0.00009145,0.00013993,0.00007778,0.00010187,0.00011981,0.
 00015950,-0.00104676,-0.00045126,-0.00125043,-0.00059193,-0.00093589,0
 .00074495,-0.00000279,0.00000549,0.00001578,-0.00129990,0.00004424,-0.
 00043939,0.00190253,-0.00274753,-0.00155453,0.00020252,0.00006989,0.00
 008803,0.00034911,0.00044482,-0.00020009,0.09916884,-0.09483430,0.2733
 0875,-0.05666679,-0.02765175,-0.02508336,-0.00281108,0.00172251,-0.002
 72393,0.00111326,-0.00078229,0.00112607,-0.00052834,0.00100340,0.00057
 099,0.00003130,-0.00044724,-0.00047702,-0.00022198,-0.00103206,-0.0014
 5830,-0.00288059,0.00061664,0.00046214,0.00114775,-0.00391292,0.008198
 00,-0.42936077,-0.07939639,-0.18142460,-0.00000241,-0.00225712,0.00217
 823,-0.00004405,-0.00003260,0.00041821,-0.00039811,-0.00107113,-0.0021
 0645,0.00080268,0.00046901,0.00092863,0.00005365,0.00033667,0.00061307
 ,-0.01169883,0.01353750,-0.06100435,-0.00020128,-0.00030744,0.00021217
 ,0.50023068,-0.03449695,0.00908670,-0.00871026,-0.00107879,-0.00399710
 ,0.00145795,-0.00096332,0.00051676,-0.00022177,0.00090153,0.00027014,0
 .00039217,-0.00028255,-0.00047058,-0.00039734,-0.00004776,0.00049220,0
 .00046282,0.00076053,-0.00155895,-0.00270845,-0.00161796,-0.00137496,0
 .00475079,-0.08465552,-0.10884159,-0.01700834,-0.00280593,-0.00141489,
 0.00027098,-0.00016160,0.00015723,-0.00004280,-0.00019352,-0.00065124,
 -0.00070910,0.00012608,0.00042014,0.00042525,-0.00023265,0.00039926,0.
 00039719,0.02741959,0.03001812,0.01805690,-0.00007521,-0.00012085,0.00
 001939,0.09888985,0.07685424,-0.00863985,-0.00129610,0.01592153,0.0001
 8897,0.00350572,-0.00281194,0.00179475,-0.00005747,0.00141547,-0.00188
 503,0.00033122,0.00012177,0.00066951,0.00005408,0.00020402,0.00019297,
 -0.00063457,-0.00115100,-0.00001726,-0.00160897,0.00114413,0.00299327,
 0.00256955,0.00031742,-0.17267578,-0.01315890,-0.21445809,0.00296685,0
 .00057875,0.00060020,-0.00012421,0.00016991,0.00007232,-0.00066979,0.0
 0001917,-0.00049513,0.00073905,-0.00008456,0.00007499,0.00062501,-0.00
 037131,-0.00017876,-0.08621922,0.00550336,-0.06279888,0.00000175,0.000
 00292,0.00027220,0.25881947,0.00284871,0.26075029,0.00003442,0.0000531
 3,0.00002285,0.00006303,0.00014365,-0.00013106,-0.00051197,-0.00079353
 ,-0.00380402,-0.02377579,0.01327724,0.00797348,-0.25632307,0.09536231,
 0.07088731,0.00666584,-0.00122273,-0.00039976,0.00044947,-0.00025750,-
 0.00202694,-0.00030271,-0.00017273,-0.00000721,-0.00004970,-0.00000025
 ,0.00005659,0.00001275,0.00008218,0.00015386,0.00049513,0.00013597,0.0
 0061301,-0.00441487,0.00178684,0.00194696,0.00145862,-0.00005861,0.000
 43881,0.00345327,0.00060757,0.00186578,0.00000311,-0.00002117,0.000044
 07,-0.00105663,0.00012102,0.00028459,0.00006427,-0.00002561,0.00003464
 ,0.27384461,-0.00054964,0.00035222,-0.00056018,0.00083102,-0.00094209,
 0.00160537,0.00170976,0.00506754,-0.00790075,-0.00249100,0.01209293,0.
 00248011,0.09764928,-0.09772176,-0.04307944,0.01395445,-0.00140979,-0.
 00510001,0.00053302,-0.00207776,-0.00184872,0.00037464,0.00016229,-0.0
 0034017,-0.00005307,0.00026540,0.00000236,-0.00015813,-0.00059668,-0.0
 0022905,-0.00019754,0.00107653,0.00033784,-0.00231517,-0.00565012,0.00
 364215,0.00193512,0.00074381,0.00027316,-0.00030148,-0.00255101,-0.003
 63822,0.00003088,-0.00002568,-0.00003996,-0.00168036,0.00045198,0.0006
 2254,0.00001045,-0.00008151,0.00006557,-0.10937404,0.09030191,0.000482
 42,0.00009124,-0.00017851,-0.00072504,0.00107529,-0.00145381,-0.003375
 13,-0.00592233,0.00290726,-0.01606225,0.00275394,0.00896726,0.07895252
 ,-0.04031905,-0.07112645,0.02077703,-0.01234589,-0.01030089,-0.0029193
 4,-0.00291793,0.00024073,-0.00012657,-0.00087272,0.00077077,-0.0001493
 3,-0.00027703,0.00006631,0.00024262,0.00074443,0.00041144,-0.00075974,
 0.00000614,0.00041397,-0.00127362,0.00637961,-0.00211082,0.00119347,-0
 .00094447,0.00103161,0.00113037,-0.00296473,-0.00323344,0.00000670,-0.
 00001983,0.00018839,0.00039221,0.00028117,-0.00016284,0.00014266,0.000
 03317,0.00008618,-0.07749428,0.05424001,0.07471564,0.00046212,-0.00152
 203,0.00343553,0.00037968,-0.00042015,0.00031386,0.00058918,-0.0004679
 9,-0.00034144,-0.00166906,0.00144091,0.00076384,0.00415328,-0.00475912
 ,0.00577811,0.00393659,0.00956315,0.01807318,-0.06250012,-0.05718269,-
 0.05740085,-0.01071951,-0.01925226,-0.01732742,-0.00137899,0.00154695,
 0.00010050,-0.00002597,-0.00011586,-0.00008359,-0.00164119,0.00388112,
 -0.00178143,0.00049821,0.00056391,-0.00113359,0.00016163,-0.00008913,0
 .00033237,-0.00020557,-0.00001333,0.00014264,-0.00006013,-0.00023032,-
 0.00006623,0.00006253,-0.00017169,-0.00006549,-0.00031670,-0.00059018,
 0.00002759,-0.00019556,0.00016647,-0.00062087,0.06808743,-0.00207704,-
 0.00325982,0.00142670,0.00004431,-0.00017302,-0.00084598,-0.00135144,0
 .00084167,0.00044344,0.00114797,-0.00113294,-0.00037821,-0.00587841,0.
 00593871,-0.00391001,0.00003123,0.00399187,-0.00268832,-0.05789454,-0.
 16085582,-0.12593516,-0.00484471,-0.00719047,-0.01384434,0.00052271,0.
 00189744,-0.00122813,-0.00001740,0.00022971,-0.00007751,0.00317365,-0.
 00295531,0.00298220,-0.00067594,-0.00070673,0.00087280,0.00013442,0.00
 014603,-0.00011714,0.00046056,0.00002582,-0.00004115,0.00003511,-0.000
 42431,0.00057993,0.00012554,0.00028178,0.00000263,-0.00069339,-0.00052
 479,-0.00007879,0.00033679,0.00036355,0.00107949,0.06737219,0.16244716
 ,0.00275219,0.00120584,0.00023679,0.00002706,0.00001503,-0.00000382,0.
 00037015,-0.00034414,-0.00020059,0.00006927,0.00032099,0.00031189,0.00
 597708,-0.00143471,0.00061475,-0.00828738,-0.02007293,-0.01767693,-0.0
 4794007,-0.12555582,-0.19439881,0.00082456,0.00417744,0.00744696,-0.00
 008526,-0.00147570,0.00044568,0.00002410,-0.00009296,0.00008954,-0.001
 66660,0.00190734,-0.00040567,0.00041092,0.00026496,-0.00010132,-0.0002
 2059,-0.00013757,-0.00012206,-0.00035450,-0.00011700,-0.00016749,-0.00
 011895,0.00023197,-0.00032004,-0.00011236,-0.00004400,0.00003078,0.000
 29840,0.00037667,0.00018916,-0.00044524,-0.00058347,-0.00124703,0.0491
 9646,0.14167465,0.20473391,0.00127562,0.00692176,-0.02701838,-0.000538
 45,-0.00574175,-0.00314309,-0.00145149,0.00105693,-0.00008682,0.000019
 39,0.00013329,0.00046865,0.00052919,-0.00089976,-0.00044292,-0.0016281
 1,-0.00288063,-0.00193361,-0.00065268,-0.01085537,0.02463752,-0.045565
 63,-0.00146749,-0.00787418,-0.00197732,0.00636981,-0.00256584,-0.00004
 970,0.00031605,-0.00009560,-0.00145109,0.00117107,-0.00011610,0.000007
 74,-0.00025519,-0.00016797,0.00014895,0.00001863,0.00010643,0.00017669
 ,-0.00003471,-0.00006524,-0.00128961,-0.00239284,0.00321115,0.00050446
 ,0.00068798,0.00000799,0.00168734,-0.00087004,0.00117732,0.00008577,-0
 .00007466,0.00018618,0.00038215,0.00004838,-0.00071924,0.04978679,0.00
 150266,0.01215157,-0.00369786,-0.00660204,0.00566347,0.00463744,0.0018
 3752,-0.00102518,0.00018477,-0.00072015,0.00035638,-0.00032145,-0.0001
 9120,0.00021846,0.00047833,-0.00155212,-0.00186259,0.00143959,0.000865
 06,-0.00037556,0.01406735,-0.00344659,-0.08927444,0.09917350,0.0023826
 7,-0.00607241,-0.00342130,-0.00007780,0.00036920,-0.00185209,-0.000417
 98,0.00035497,0.00037026,-0.00001030,0.00027479,-0.00005618,0.00005806
 ,-0.00008581,-0.00001531,-0.00003140,-0.00002264,0.00004739,-0.0033379
 7,-0.00227034,0.00121269,-0.00030482,-0.00061835,-0.00003401,0.0009983
 2,0.00082167,0.00164172,0.00001949,0.00017826,-0.00010050,0.00028004,0
 .00105946,-0.00031658,0.00874855,0.08015910,-0.00234393,0.01004679,-0.
 01613570,-0.00361992,0.00157140,0.00233992,0.00046390,-0.00025605,0.00
 014367,0.00005217,-0.00000967,-0.00016765,-0.00036090,0.00018050,-0.00
 011739,-0.00110374,0.00110589,0.00210206,0.00265322,0.00351997,-0.0040
 1512,-0.01595027,0.09621017,-0.29066341,0.00089195,-0.00081062,-0.0041
 2454,-0.00013842,-0.00005834,-0.00108700,0.00011167,-0.00012920,0.0000
 1680,0.00003245,0.00009616,-0.00000061,-0.00000390,-0.00003281,0.00000
 589,-0.00002960,-0.00000934,0.00001180,0.00400233,0.00176505,0.0012292
 7,-0.00004411,-0.00019198,-0.00005866,0.00030998,0.00030608,0.00072410
 ,-0.00001344,0.00005087,0.00001424,0.00065681,0.00008292,0.00054429,0.
 01443374,-0.11343777,0.30923802\\0.00001309,0.00000437,0.00001563,0.00
 001670,-0.00000308,-0.00001447,-0.00000882,0.00001115,-0.00000092,0.00
 001253,0.00000046,-0.00000324,-0.00012892,0.00006807,0.00005906,-0.000
 01455,-0.00002190,0.00000068,0.00000005,-0.00000546,-0.00000056,-0.000
 00930,-0.00000454,-0.00001422,0.00000133,-0.00000118,0.00000663,-0.000
 00514,0.00000951,0.00000155,0.00001989,0.00000683,0.00000091,-0.000006
 91,0.00000409,0.00000228,0.00000812,0.00000571,0.00000298,-0.00000914,
 0.00000080,-0.00000535,-0.00000757,0.00000464,-0.00001531,0.00000761,-
 0.00000419,0.00001238,-0.00000134,0.00000369,0.00000324,0.00010955,-0.
 00006537,-0.00004774,0.00000271,-0.00001060,-0.00000287,0.00000011,-0.
 00000301,-0.00000066\\\@
 Job cpu time:       1 days  5 hours 58 minutes 11.6 seconds.
 File lengths (MBytes):  RWF= 173528 Int=      0 D2E=      0 Chk=    142 Scr=      1
 Normal termination of Gaussian 09 at Thu Aug 26 21:45:30 2021.
