 Entering Gaussian System, Link 0=g09
 Input=G4.DELPEQ.gjf
 Output=G4.DELPEQ.log
 Initial command:
 /public/home/users/caep010/software/Gaussian09/g09/l1.exe "/public/home/users/caep010/.cache/gau_scr/Gau-71331.inp" -scrdir="/public/home/users/caep010/.cache/gau_scr/"
 Entering Link 1 = /public/home/users/caep010/software/Gaussian09/g09/l1.exe PID=     71332.
  
 Copyright (c) 1988,1990,1992,1993,1995,1998,2003,2009,2015,
            Gaussian, Inc.  All Rights Reserved.
  
 This is part of the Gaussian(R) 09 program.  It is based on
 the Gaussian(R) 03 system (copyright 2003, Gaussian, Inc.),
 the Gaussian(R) 98 system (copyright 1998, Gaussian, Inc.),
 the Gaussian(R) 94 system (copyright 1995, Gaussian, Inc.),
 the Gaussian 92(TM) system (copyright 1992, Gaussian, Inc.),
 the Gaussian 90(TM) system (copyright 1990, Gaussian, Inc.),
 the Gaussian 88(TM) system (copyright 1988, Gaussian, Inc.),
 the Gaussian 86(TM) system (copyright 1986, Carnegie Mellon
 University), and the Gaussian 82(TM) system (copyright 1983,
 Carnegie Mellon University). Gaussian is a federally registered
 trademark of Gaussian, Inc.
  
 This software contains proprietary and confidential information,
 including trade secrets, belonging to Gaussian, Inc.
  
 This software is provided under written license and may be
 used, copied, transmitted, or stored only in accord with that
 written license.
  
 The following legend is applicable only to US Government
 contracts under FAR:
  
                    RESTRICTED RIGHTS LEGEND
  
 Use, reproduction and disclosure by the US Government is
 subject to restrictions as set forth in subparagraphs (a)
 and (c) of the Commercial Computer Software - Restricted
 Rights clause in FAR 52.227-19.
  
 Gaussian, Inc.
 340 Quinnipiac St., Bldg. 40, Wallingford CT 06492
  
  
 ---------------------------------------------------------------
 Warning -- This program may not be used in any manner that
 competes with the business of Gaussian, Inc. or will provide
 assistance to any competitor of Gaussian, Inc.  The licensee
 of this program is prohibited from giving any competitor of
 Gaussian, Inc. access to this program.  By using this program,
 the user acknowledges that Gaussian, Inc. is engaged in the
 business of creating and licensing software in the field of
 computational chemistry and represents and warrants to the
 licensee that it is not a competitor of Gaussian, Inc. and that
 it will not use this program in any manner prohibited above.
 ---------------------------------------------------------------
  

 Cite this work as:
 Gaussian 09, Revision E.01,
 M. J. Frisch, G. W. Trucks, H. B. Schlegel, G. E. Scuseria, 
 M. A. Robb, J. R. Cheeseman, G. Scalmani, V. Barone, B. Mennucci, 
 G. A. Petersson, H. Nakatsuji, M. Caricato, X. Li, H. P. Hratchian, 
 A. F. Izmaylov, J. Bloino, G. Zheng, J. L. Sonnenberg, M. Hada, 
 M. Ehara, K. Toyota, R. Fukuda, J. Hasegawa, M. Ishida, T. Nakajima, 
 Y. Honda, O. Kitao, H. Nakai, T. Vreven, J. A. Montgomery, Jr., 
 J. E. Peralta, F. Ogliaro, M. Bearpark, J. J. Heyd, E. Brothers, 
 K. N. Kudin, V. N. Staroverov, T. Keith, R. Kobayashi, J. Normand, 
 K. Raghavachari, A. Rendell, J. C. Burant, S. S. Iyengar, J. Tomasi, 
 M. Cossi, N. Rega, J. M. Millam, M. Klene, J. E. Knox, J. B. Cross, 
 V. Bakken, C. Adamo, J. Jaramillo, R. Gomperts, R. E. Stratmann, 
 O. Yazyev, A. J. Austin, R. Cammi, C. Pomelli, J. W. Ochterski, 
 R. L. Martin, K. Morokuma, V. G. Zakrzewski, G. A. Voth, 
 P. Salvador, J. J. Dannenberg, S. Dapprich, A. D. Daniels, 
 O. Farkas, J. B. Foresman, J. V. Ortiz, J. Cioslowski, 
 and D. J. Fox, Gaussian, Inc., Wallingford CT, 2013.
 
 ******************************************
 Gaussian 09:  ES64L-G09RevE.01 30-Nov-2015
                26-Aug-2021 
 ******************************************
 %nproc=32
 Will use up to   32 processors via shared memory.
 %mem=180GB
 ----------------
 #P G4 OPT=calcfc
 ----------------
 1/10=4,14=-1,18=20,19=15,26=3,38=1/1,3;
 2/9=110,12=2,17=6,18=5,40=1/2;
 3/5=35,7=104,11=2,16=1,25=1,30=1,71=2,74=-5,140=1/1,2,3;
 4//1;
 5/5=2,38=5/2;
 8/6=4,10=90,11=11/1;
 11/6=1,8=1,9=11,15=111,16=1/1,2,10;
 10/6=1,13=1/2;
 6/7=2,8=2,9=2,10=2,28=1/1;
 7/10=1,18=20,25=1/1,2,3,16;
 1/10=4,14=-1,18=20,19=15,26=3/3(2);
 2/9=110/2;
 99//99;
 2/9=110/2;
 3/5=35,7=104,11=2,16=1,25=1,30=1,71=1,74=-5/1,2,3;
 4/5=5,16=3,69=1/1;
 5/5=2,38=5/2;
 7//1,2,3,16;
 1/14=-1,18=20,19=15,26=3/3(-5);
 2/9=110/2;
 6/7=2,8=2,9=2,10=2,19=2,28=1/1;
 99/9=1/99;
 Leave Link    1 at Thu Aug 26 19:12:57 2021, MaxMem= 24159191040 cpu:         2.6
 (Enter /public/home/users/caep010/software/Gaussian09/g09/l101.exe)
 ------
 DELPEQ
 ------
 Symbolic Z-matrix:
 Charge =  0 Multiplicity = 1
 O                     3.0153    2.7551    0.0204 
 N                     3.9632    1.9609    0.0316 
 O                     4.3322    1.3991    1.0754 
 C                     4.6495    1.6785   -1.2117 
 C                     5.6138    0.647    -1.3084 
 N                     5.9961   -0.1299   -0.2548 
 H                     5.6937    0.0341    0.5336 
 N                     6.8735   -1.1857   -0.4572 
 C                     6.1724    0.4319   -2.5889 
 C                     7.0843   -1.9592    0.5421 
 H                     6.7944   -0.2492   -2.7083 
 C                     5.8128    1.2114   -3.6578 
 H                     6.2053    1.0541   -4.4861 
 C                     4.879     2.2276   -3.535 
 H                     4.6542    2.7522   -4.2702 
 C                     4.2946    2.45     -2.325 
 H                     3.6545    3.119    -2.2379 
 C                     6.4701   -1.823     1.8983 
 H                     6.5617   -2.65      2.3756 
 H                     5.5386   -1.6067    1.8076 
 H                     6.915    -1.1238    2.3823 
 C                     8.0345   -3.0987    0.3415 
 H                     7.5856   -3.927     0.526 
 H                     8.7827   -2.9998    0.9348 
 H                     8.3463   -3.1004   -0.5674 
 
 NAtoms=     25 NQM=       25 NQMF=       0 NMMI=      0 NMMIF=      0
                NMic=       0 NMicF=      0.
                    Isotopes and Nuclear Properties:
 (Nuclear quadrupole moments (NQMom) in fm**2, nuclear magnetic moments (NMagM)
  in nuclear magnetons)

  Atom         1           2           3           4           5           6           7           8           9          10
 IAtWgt=          16          14          16          12          12          14           1          14          12          12
 AtmWgt=  15.9949146  14.0030740  15.9949146  12.0000000  12.0000000  14.0030740   1.0078250  14.0030740  12.0000000  12.0000000
 NucSpn=           0           2           0           0           0           2           1           2           0           0
 AtZEff=   0.0000000   0.0000000   0.0000000   0.0000000   0.0000000   0.0000000   0.0000000   0.0000000   0.0000000   0.0000000
 NQMom=    0.0000000   2.0440000   0.0000000   0.0000000   0.0000000   2.0440000   0.0000000   2.0440000   0.0000000   0.0000000
 NMagM=    0.0000000   0.4037610   0.0000000   0.0000000   0.0000000   0.4037610   2.7928460   0.4037610   0.0000000   0.0000000
 AtZNuc=   8.0000000   7.0000000   8.0000000   6.0000000   6.0000000   7.0000000   1.0000000   7.0000000   6.0000000   6.0000000

  Atom        11          12          13          14          15          16          17          18          19          20
 IAtWgt=           1          12           1          12           1          12           1          12           1           1
 AtmWgt=   1.0078250  12.0000000   1.0078250  12.0000000   1.0078250  12.0000000   1.0078250  12.0000000   1.0078250   1.0078250
 NucSpn=           1           0           1           0           1           0           1           0           1           1
 AtZEff=   0.0000000   0.0000000   0.0000000   0.0000000   0.0000000   0.0000000   0.0000000   0.0000000   0.0000000   0.0000000
 NQMom=    0.0000000   0.0000000   0.0000000   0.0000000   0.0000000   0.0000000   0.0000000   0.0000000   0.0000000   0.0000000
 NMagM=    2.7928460   0.0000000   2.7928460   0.0000000   2.7928460   0.0000000   2.7928460   0.0000000   2.7928460   2.7928460
 AtZNuc=   1.0000000   6.0000000   1.0000000   6.0000000   1.0000000   6.0000000   1.0000000   6.0000000   1.0000000   1.0000000

  Atom        21          22          23          24          25
 IAtWgt=           1          12           1           1           1
 AtmWgt=   1.0078250  12.0000000   1.0078250   1.0078250   1.0078250
 NucSpn=           1           0           1           1           1
 AtZEff=   0.0000000   0.0000000   0.0000000   0.0000000   0.0000000
 NQMom=    0.0000000   0.0000000   0.0000000   0.0000000   0.0000000
 NMagM=    2.7928460   0.0000000   2.7928460   2.7928460   2.7928460
 AtZNuc=   1.0000000   6.0000000   1.0000000   1.0000000   1.0000000
 Leave Link  101 at Thu Aug 26 19:12:57 2021, MaxMem= 24159191040 cpu:        10.1
 (Enter /public/home/users/caep010/software/Gaussian09/g09/l103.exe)

 GradGradGradGradGradGradGradGradGradGradGradGradGradGradGradGradGradGrad
 Berny optimization.
 Initialization pass.
                           ----------------------------
                           !    Initial Parameters    !
                           ! (Angstroms and Degrees)  !
 --------------------------                            --------------------------
 ! Name  Definition              Value          Derivative Info.                !
 --------------------------------------------------------------------------------
 ! R1    R(1,2)                  1.2367         calculate D2E/DX2 analytically  !
 ! R2    R(2,3)                  1.2415         calculate D2E/DX2 analytically  !
 ! R3    R(2,4)                  1.4479         calculate D2E/DX2 analytically  !
 ! R4    R(4,5)                  1.4154         calculate D2E/DX2 analytically  !
 ! R5    R(4,16)                 1.4002         calculate D2E/DX2 analytically  !
 ! R6    R(5,6)                  1.3637         calculate D2E/DX2 analytically  !
 ! R7    R(5,9)                  1.4135         calculate D2E/DX2 analytically  !
 ! R8    R(6,7)                  0.8602         calculate D2E/DX2 analytically  !
 ! R9    R(6,8)                  1.3876         calculate D2E/DX2 analytically  !
 ! R10   R(8,10)                 1.2811         calculate D2E/DX2 analytically  !
 ! R11   R(9,11)                 0.9301         calculate D2E/DX2 analytically  !
 ! R12   R(9,12)                 1.3709         calculate D2E/DX2 analytically  !
 ! R13   R(10,18)                1.495          calculate D2E/DX2 analytically  !
 ! R14   R(10,22)                1.4972         calculate D2E/DX2 analytically  !
 ! R15   R(12,13)                0.93           calculate D2E/DX2 analytically  !
 ! R16   R(12,14)                1.3855         calculate D2E/DX2 analytically  !
 ! R17   R(14,15)                0.9307         calculate D2E/DX2 analytically  !
 ! R18   R(14,16)                1.362          calculate D2E/DX2 analytically  !
 ! R19   R(16,17)                0.93           calculate D2E/DX2 analytically  !
 ! R20   R(18,19)                0.9592         calculate D2E/DX2 analytically  !
 ! R21   R(18,20)                0.9606         calculate D2E/DX2 analytically  !
 ! R22   R(18,21)                0.9597         calculate D2E/DX2 analytically  !
 ! R23   R(22,23)                0.96           calculate D2E/DX2 analytically  !
 ! R24   R(22,24)                0.96           calculate D2E/DX2 analytically  !
 ! R25   R(22,25)                0.9609         calculate D2E/DX2 analytically  !
 ! A1    A(1,2,3)              121.7383         calculate D2E/DX2 analytically  !
 ! A2    A(1,2,4)              118.7359         calculate D2E/DX2 analytically  !
 ! A3    A(3,2,4)              119.5246         calculate D2E/DX2 analytically  !
 ! A4    A(2,4,5)              121.5832         calculate D2E/DX2 analytically  !
 ! A5    A(2,4,16)             117.0726         calculate D2E/DX2 analytically  !
 ! A6    A(5,4,16)             121.3269         calculate D2E/DX2 analytically  !
 ! A7    A(4,5,6)              123.5999         calculate D2E/DX2 analytically  !
 ! A8    A(4,5,9)              116.2345         calculate D2E/DX2 analytically  !
 ! A9    A(6,5,9)              120.1595         calculate D2E/DX2 analytically  !
 ! A10   A(5,6,7)              120.0623         calculate D2E/DX2 analytically  !
 ! A11   A(5,6,8)              119.8689         calculate D2E/DX2 analytically  !
 ! A12   A(7,6,8)              120.0688         calculate D2E/DX2 analytically  !
 ! A13   A(6,8,10)             116.7209         calculate D2E/DX2 analytically  !
 ! A14   A(5,9,11)             119.4738         calculate D2E/DX2 analytically  !
 ! A15   A(5,9,12)             121.0735         calculate D2E/DX2 analytically  !
 ! A16   A(11,9,12)            119.4527         calculate D2E/DX2 analytically  !
 ! A17   A(8,10,18)            125.8013         calculate D2E/DX2 analytically  !
 ! A18   A(8,10,22)            117.3504         calculate D2E/DX2 analytically  !
 ! A19   A(18,10,22)           116.8475         calculate D2E/DX2 analytically  !
 ! A20   A(9,12,13)            119.1799         calculate D2E/DX2 analytically  !
 ! A21   A(9,12,14)            121.6479         calculate D2E/DX2 analytically  !
 ! A22   A(13,12,14)           119.1722         calculate D2E/DX2 analytically  !
 ! A23   A(12,14,15)           120.4088         calculate D2E/DX2 analytically  !
 ! A24   A(12,14,16)           119.1878         calculate D2E/DX2 analytically  !
 ! A25   A(15,14,16)           120.4034         calculate D2E/DX2 analytically  !
 ! A26   A(4,16,14)            120.5061         calculate D2E/DX2 analytically  !
 ! A27   A(4,16,17)            119.7587         calculate D2E/DX2 analytically  !
 ! A28   A(14,16,17)           119.7352         calculate D2E/DX2 analytically  !
 ! A29   A(10,18,19)           109.4878         calculate D2E/DX2 analytically  !
 ! A30   A(10,18,20)           109.4665         calculate D2E/DX2 analytically  !
 ! A31   A(10,18,21)           109.4757         calculate D2E/DX2 analytically  !
 ! A32   A(19,18,20)           109.4948         calculate D2E/DX2 analytically  !
 ! A33   A(19,18,21)           109.4451         calculate D2E/DX2 analytically  !
 ! A34   A(20,18,21)           109.4574         calculate D2E/DX2 analytically  !
 ! A35   A(10,22,23)           109.5212         calculate D2E/DX2 analytically  !
 ! A36   A(10,22,24)           109.4767         calculate D2E/DX2 analytically  !
 ! A37   A(10,22,25)           109.5129         calculate D2E/DX2 analytically  !
 ! A38   A(23,22,24)           109.545          calculate D2E/DX2 analytically  !
 ! A39   A(23,22,25)           109.3895         calculate D2E/DX2 analytically  !
 ! A40   A(24,22,25)           109.382          calculate D2E/DX2 analytically  !
 ! D1    D(1,2,4,5)           -171.03           calculate D2E/DX2 analytically  !
 ! D2    D(1,2,4,16)             7.4787         calculate D2E/DX2 analytically  !
 ! D3    D(3,2,4,5)              8.5862         calculate D2E/DX2 analytically  !
 ! D4    D(3,2,4,16)          -172.9051         calculate D2E/DX2 analytically  !
 ! D5    D(2,4,5,6)             -1.7025         calculate D2E/DX2 analytically  !
 ! D6    D(2,4,5,9)            177.4037         calculate D2E/DX2 analytically  !
 ! D7    D(16,4,5,6)           179.852          calculate D2E/DX2 analytically  !
 ! D8    D(16,4,5,9)            -1.0418         calculate D2E/DX2 analytically  !
 ! D9    D(2,4,16,14)         -178.8324         calculate D2E/DX2 analytically  !
 ! D10   D(2,4,16,17)            1.1206         calculate D2E/DX2 analytically  !
 ! D11   D(5,4,16,14)           -0.3196         calculate D2E/DX2 analytically  !
 ! D12   D(5,4,16,17)          179.6334         calculate D2E/DX2 analytically  !
 ! D13   D(4,5,6,7)             -4.8438         calculate D2E/DX2 analytically  !
 ! D14   D(4,5,6,8)            175.1351         calculate D2E/DX2 analytically  !
 ! D15   D(9,5,6,7)            176.0834         calculate D2E/DX2 analytically  !
 ! D16   D(9,5,6,8)             -3.9377         calculate D2E/DX2 analytically  !
 ! D17   D(4,5,9,11)          -178.4371         calculate D2E/DX2 analytically  !
 ! D18   D(4,5,9,12)             1.5972         calculate D2E/DX2 analytically  !
 ! D19   D(6,5,9,11)             0.702          calculate D2E/DX2 analytically  !
 ! D20   D(6,5,9,12)          -179.2637         calculate D2E/DX2 analytically  !
 ! D21   D(5,6,8,10)          -172.9821         calculate D2E/DX2 analytically  !
 ! D22   D(7,6,8,10)             6.9967         calculate D2E/DX2 analytically  !
 ! D23   D(6,8,10,18)            0.0112         calculate D2E/DX2 analytically  !
 ! D24   D(6,8,10,22)         -179.6725         calculate D2E/DX2 analytically  !
 ! D25   D(5,9,12,13)          179.1893         calculate D2E/DX2 analytically  !
 ! D26   D(5,9,12,14)           -0.8228         calculate D2E/DX2 analytically  !
 ! D27   D(11,9,12,13)          -0.7764         calculate D2E/DX2 analytically  !
 ! D28   D(11,9,12,14)         179.2115         calculate D2E/DX2 analytically  !
 ! D29   D(8,10,18,19)         162.5004         calculate D2E/DX2 analytically  !
 ! D30   D(8,10,18,20)          42.4643         calculate D2E/DX2 analytically  !
 ! D31   D(8,10,18,21)         -77.5186         calculate D2E/DX2 analytically  !
 ! D32   D(22,10,18,19)        -17.8145         calculate D2E/DX2 analytically  !
 ! D33   D(22,10,18,20)       -137.8506         calculate D2E/DX2 analytically  !
 ! D34   D(22,10,18,21)        102.1665         calculate D2E/DX2 analytically  !
 ! D35   D(8,10,22,23)        -121.7371         calculate D2E/DX2 analytically  !
 ! D36   D(8,10,22,24)         118.1385         calculate D2E/DX2 analytically  !
 ! D37   D(8,10,22,25)          -1.781          calculate D2E/DX2 analytically  !
 ! D38   D(18,10,22,23)         58.5505         calculate D2E/DX2 analytically  !
 ! D39   D(18,10,22,24)        -61.574          calculate D2E/DX2 analytically  !
 ! D40   D(18,10,22,25)        178.5065         calculate D2E/DX2 analytically  !
 ! D41   D(9,12,14,15)         179.3555         calculate D2E/DX2 analytically  !
 ! D42   D(9,12,14,16)          -0.6057         calculate D2E/DX2 analytically  !
 ! D43   D(13,12,14,15)         -0.6566         calculate D2E/DX2 analytically  !
 ! D44   D(13,12,14,16)        179.3821         calculate D2E/DX2 analytically  !
 ! D45   D(12,14,16,4)           1.1615         calculate D2E/DX2 analytically  !
 ! D46   D(12,14,16,17)       -178.7916         calculate D2E/DX2 analytically  !
 ! D47   D(15,14,16,4)        -178.7997         calculate D2E/DX2 analytically  !
 ! D48   D(15,14,16,17)          1.2472         calculate D2E/DX2 analytically  !
 --------------------------------------------------------------------------------
 Trust Radius=3.00D-01 FncErr=1.00D-07 GrdErr=1.00D-06
 Number of steps in this run=    123 maximum allowed number of steps=    150.
 GradGradGradGradGradGradGradGradGradGradGradGradGradGradGradGradGradGrad

 Leave Link  103 at Thu Aug 26 19:12:57 2021, MaxMem= 24159191040 cpu:         0.8
 (Enter /public/home/users/caep010/software/Gaussian09/g09/l202.exe)
                          Input orientation:                          
 ---------------------------------------------------------------------
 Center     Atomic      Atomic             Coordinates (Angstroms)
 Number     Number       Type             X           Y           Z
 ---------------------------------------------------------------------
      1          8           0        3.015300    2.755100    0.020400
      2          7           0        3.963200    1.960900    0.031600
      3          8           0        4.332200    1.399100    1.075400
      4          6           0        4.649500    1.678500   -1.211700
      5          6           0        5.613800    0.647000   -1.308400
      6          7           0        5.996100   -0.129900   -0.254800
      7          1           0        5.693700    0.034100    0.533600
      8          7           0        6.873500   -1.185700   -0.457200
      9          6           0        6.172400    0.431900   -2.588900
     10          6           0        7.084300   -1.959200    0.542100
     11          1           0        6.794400   -0.249200   -2.708300
     12          6           0        5.812800    1.211400   -3.657800
     13          1           0        6.205300    1.054100   -4.486100
     14          6           0        4.879000    2.227600   -3.535000
     15          1           0        4.654200    2.752200   -4.270200
     16          6           0        4.294600    2.450000   -2.325000
     17          1           0        3.654500    3.119000   -2.237900
     18          6           0        6.470100   -1.823000    1.898300
     19          1           0        6.561700   -2.650000    2.375600
     20          1           0        5.538600   -1.606700    1.807600
     21          1           0        6.915000   -1.123800    2.382300
     22          6           0        8.034500   -3.098700    0.341500
     23          1           0        7.585600   -3.927000    0.526000
     24          1           0        8.782700   -2.999800    0.934800
     25          1           0        8.346300   -3.100400   -0.567400
 ---------------------------------------------------------------------
                    Distance matrix (angstroms):
                    1          2          3          4          5
     1  O    0.000000
     2  N    1.236686   0.000000
     3  O    2.164714   1.241491   0.000000
     4  C    2.312520   1.447948   2.325848   0.000000
     5  C    3.600277   2.499283   2.809031   1.415351   0.000000
     6  N    4.157419   2.930214   2.622182   2.449347   1.363745
     7  H    3.852407   2.638028   2.002612   2.615431   1.942934
     8  N    5.535676   4.313915   3.935513   3.703929   2.381213
     9  C    4.708820   3.753056   4.212945   2.402065   1.413500
    10  C    6.249284   5.036771   4.374545   4.715605   3.518380
    11  H    5.545558   4.517443   4.805799   3.249067   2.038801
    12  C    4.872183   4.194573   4.962922   2.748610   2.424423
    13  H    5.777373   5.124345   5.878589   3.678598   3.257818
    14  C    4.048766   3.691944   4.716057   2.398313   2.827716
    15  H    4.592957   4.428219   5.523586   3.241493   3.758319
    16  C    2.688977   2.429528   3.559287   1.400215   2.454501
    17  H    2.375062   2.566539   3.794113   2.029323   3.288406
    18  C    6.034994   4.907852   3.953443   5.024658   4.137279
    19  H    6.880336   5.788518   4.801708   5.938109   5.033943
    20  H    5.346628   4.285304   3.320595   4.549638   3.846333
    21  H    5.985992   4.873837   3.839774   5.089422   4.295360
    22  C    7.717671   6.501621   5.871613   6.057417   4.755232
    23  H    8.111334   6.930626   6.265285   6.562158   5.307965
    24  H    8.198653   6.975091   6.259156   6.601310   5.326633
    25  H    7.940526   6.722137   6.249583   6.076129   4.696663
                    6          7          8          9         10
     6  N    0.000000
     7  H    0.860184   0.000000
     8  N    1.387628   1.965076   0.000000
     9  C    2.407223   3.183929   2.766282   0.000000
    10  C    2.272788   2.430450   1.281148   4.043771   0.000000
    11  H    2.582862   3.435362   2.439414   0.930074   3.684188
    12  C    3.662389   4.355233   4.137030   1.370941   5.413740
    13  H    4.398809   5.147769   4.657814   1.996893   5.927513
    14  C    4.191113   4.693473   5.010140   2.406767   6.246230
    15  H    5.121585   5.616504   5.913655   3.242760   7.159672
    16  C    3.719773   3.995704   4.832982   2.769206   5.953464
    17  H    4.468907   4.621272   5.662446   3.699125   6.729045
    18  C    2.779767   2.431877   2.473310   5.030722   1.495015
    19  H    3.686436   3.369092   3.204083   5.856272   2.027816
    20  H    2.577545   2.083112   2.662427   4.887413   2.028530
    21  H    2.964205   2.500000   2.840478   5.261605   2.028027
    22  C    3.650263   3.915442   2.376008   4.951747   1.497191
    23  H    4.189765   4.389722   2.998082   5.540735   2.030714
    24  H    4.173322   4.348268   2.978870   5.568365   2.030178
    25  H    3.800662   4.251303   2.418132   4.614049   2.031249
                   11         12         13         14         15
    11  H    0.000000
    12  C    1.999610   0.000000
    13  H    2.281710   0.929989   0.000000
    14  C    3.238322   1.385541   2.010165   0.000000
    15  H    4.003547   2.022734   2.309993   0.930730   0.000000
    16  C    3.698865   2.369687   3.204632   1.362015   2.001110
    17  H    4.628717   3.211435   3.978039   1.994107   2.294381
    18  C    4.878809   6.364737   7.007738   6.961301   7.891789
    19  H    5.627080   7.202304   7.805787   7.845869   8.774336
    20  H    4.879876   6.155280   6.865494   6.609108   7.531389
    21  H    5.166592   6.568928   7.240293   7.098705   8.024360
    22  C    4.354168   6.285484   6.625514   7.304376   8.180907
    23  H    4.961140   6.859312   7.199842   7.854712   8.729740
    24  H    4.979088   6.902643   7.243152   7.908457   8.787607
    25  H    3.888597   5.878845   6.099177   7.015440   7.848265
                   16         17         18         19         20
    16  C    0.000000
    17  H    0.929987   0.000000
    18  C    6.389647   7.032718   0.000000
    19  H    7.296943   7.938360   0.959237   0.000000
    20  H    5.923068   6.499857   0.960575   1.567748   0.000000
    21  H    6.465077   7.069545   0.959725   1.566573   1.567785
    22  C    7.203134   8.031033   2.549193   2.551085   3.256537
    23  H    7.721723   8.528705   2.748520   2.469842   3.349104
    24  H    7.776224   8.590936   2.767907   2.670413   3.636852
    25  H    7.093121   7.967716   3.351351   3.471153   3.969250
                   21         22         23         24         25
    21  H    0.000000
    22  C    3.052601   0.000000
    23  H    3.428335   0.960017   0.000000
    24  H    3.017107   0.959994   1.568396   0.000000
    25  H    3.828354   0.960896   1.567627   1.567536   0.000000
 Stoichiometry    C9H11N3O2
 Framework group  C1[X(C9H11N3O2)]
 Deg. of freedom    69
 Full point group                 C1      NOp   1
 Largest Abelian subgroup         C1      NOp   1
 Largest concise Abelian subgroup C1      NOp   1
                         Standard orientation:                         
 ---------------------------------------------------------------------
 Center     Atomic      Atomic             Coordinates (Angstroms)
 Number     Number       Type             X           Y           Z
 ---------------------------------------------------------------------
      1          8           0       -2.710493    2.267724    0.198715
      2          7           0       -1.639492    1.683890   -0.004968
      3          8           0       -0.579895    2.306110   -0.182160
      4          6           0       -1.629121    0.236152   -0.027331
      5          6           0       -0.418478   -0.495934   -0.067478
      6          7           0        0.813778    0.085778   -0.121833
      7          1           0        0.884199    0.939843   -0.196201
      8          7           0        1.953710   -0.702763   -0.056494
      9          6           0       -0.538072   -1.903831   -0.028667
     10          6           0        3.074971   -0.088644    0.026999
     11          1           0        0.229845   -2.428556   -0.030595
     12          6           0       -1.767724   -2.508692    0.011078
     13          1           0       -1.816013   -3.437328    0.024584
     14          6           0       -2.940412   -1.771064    0.031879
     15          1           0       -3.766348   -2.199742    0.049833
     16          6           0       -2.869764   -0.410900    0.024926
     17          1           0       -3.651593    0.091760    0.055784
     18          6           0        3.259394    1.394583    0.060087
     19          1           0        4.134664    1.600855    0.393988
     20          1           0        2.596630    1.786845    0.634176
     21          1           0        3.164119    1.748737   -0.826801
     22          6           0        4.314646   -0.925738    0.090721
     23          1           0        4.796162   -0.725060    0.896639
     24          1           0        4.868520   -0.735892   -0.670050
     25          1           0        4.074305   -1.856079    0.085975
 ---------------------------------------------------------------------
 Rotational constants (GHZ):      1.1210503      0.4601411      0.3280249
 Leave Link  202 at Thu Aug 26 19:12:57 2021, MaxMem= 24159191040 cpu:         0.4
 (Enter /public/home/users/caep010/software/Gaussian09/g09/l301.exe)
 Standard basis: GTBas3 (6D, 7F)
 Ernie: Thresh=  0.10000D-02 Tol=  0.10000D-05 Strict=F.
 There are   489 symmetry adapted cartesian basis functions of A   symmetry.
 There are   447 symmetry adapted basis functions of A   symmetry.
   447 basis functions,   693 primitive gaussians,   489 cartesian basis functions
    51 alpha electrons       51 beta electrons
       nuclear repulsion energy       877.0327444633 Hartrees.
 IExCor=  402 DFT=T Ex+Corr=B3LYP ExCW=0 ScaHFX=  0.200000
 ScaDFX=  0.800000  0.720000  1.000000  0.810000 ScalE2=  1.000000  1.000000
 IRadAn=      0 IRanWt=     -1 IRanGd=            0 ICorTp=0 IEmpDi=  4
 NAtoms=   25 NActive=   25 NUniq=   25 SFac= 1.00D+00 NAtFMM=   60 NAOKFM=F Big=F
 Integral buffers will be    131072 words long.
 Raffenetti 2 integral format.
 Two-electron integral symmetry is turned on.
 Leave Link  301 at Thu Aug 26 19:12:58 2021, MaxMem= 24159191040 cpu:         2.1
 (Enter /public/home/users/caep010/software/Gaussian09/g09/l302.exe)
 NPDir=0 NMtPBC=     1 NCelOv=     1 NCel=       1 NClECP=     1 NCelD=      1
         NCelK=      1 NCelE2=     1 NClLst=     1 CellRange=     0.0.
 One-electron integrals computed using PRISM.
 NBasis=   447 RedAO= T EigKep=  8.52D-05  NBF=   447
 NBsUse=   447 1.00D-06 EigRej= -1.00D+00 NBFU=   447
 Precomputing XC quadrature grid using
 IXCGrd= 4 IRadAn=           0 IRanWt=          -1 IRanGd=           0 AccXCQ= 0.00D+00.
 Generated NRdTot=       0 NPtTot=           0 NUsed=           0 NTot=          32
 NSgBfM=   487   487   487   488   488 MxSgAt=    25 MxSgA2=    25.
 Leave Link  302 at Thu Aug 26 19:12:58 2021, MaxMem= 24159191040 cpu:        23.8
 (Enter /public/home/users/caep010/software/Gaussian09/g09/l303.exe)
 DipDrv:  MaxL=1.
 Leave Link  303 at Thu Aug 26 19:12:59 2021, MaxMem= 24159191040 cpu:         1.2
 (Enter /public/home/users/caep010/software/Gaussian09/g09/l401.exe)
 ExpMin= 1.61D-01 ExpMax= 5.48D+03 ExpMxC= 8.25D+02 IAcc=1 IRadAn=         1 AccDes= 0.00D+00
 Harris functional with IExCor=  402 and IRadAn=       1 diagonalized for initial guess.
 HarFok:  IExCor=  402 AccDes= 0.00D+00 IRadAn=         1 IDoV= 1 UseB2=F ITyADJ=14
 ICtDFT=  3500011 ScaDFX=  1.000000  1.000000  1.000000  1.000000
 FoFCou: FMM=F IPFlag=           0 FMFlag=      100000 FMFlg1=           0
         NFxFlg=           0 DoJE=T BraDBF=F KetDBF=T FulRan=T
         wScrn=  0.000000 ICntrl=     500 IOpCl=  0 I1Cent=   200000004 NGrid=           0
         NMat0=    1 NMatS0=      1 NMatT0=    0 NMatD0=    1 NMtDS0=    0 NMtDT0=    0
 Petite list used in FoFCou.
 Harris En= -664.202004221107    
 JPrj=0 DoOrth=F DoCkMO=F.
 Leave Link  401 at Thu Aug 26 19:12:59 2021, MaxMem= 24159191040 cpu:        20.7
 (Enter /public/home/users/caep010/software/Gaussian09/g09/l502.exe)
 Closed shell SCF:
 Using DIIS extrapolation, IDIIS=  1040.
 Integral symmetry usage will be decided dynamically.
 Keep R1 ints in memory in canonical form, NReq=5072437620.
 IVT=      755109 IEndB=      755109 NGot= 24159191040 MDV= 19145577676
 LenX= 19145577676 LenY= 19145338066
 Requested convergence on RMS density matrix=1.00D-08 within 128 cycles.
 Requested convergence on MAX density matrix=1.00D-06.
 Requested convergence on             energy=1.00D-06.
 No special actions if energy rises.
 FoFCou: FMM=F IPFlag=           0 FMFlag=           0 FMFlg1=           0
         NFxFlg=           0 DoJE=F BraDBF=F KetDBF=F FulRan=T
         wScrn=  0.000000 ICntrl=     600 IOpCl=  0 I1Cent=           0 NGrid=           0
         NMat0=    1 NMatS0= 100128 NMatT0=    0 NMatD0=    1 NMtDS0=    0 NMtDT0=    0
 Symmetry not used in FoFCou.
 Integral accuracy reduced to 1.0D-05 until final iterations.

 Cycle   1  Pass 0  IDiag  1:
 E= -663.464419524365    
 DIIS: error= 4.00D-02 at cycle   1 NSaved=   1.
 NSaved= 1 IEnMin= 1 EnMin= -663.464419524365     IErMin= 1 ErrMin= 4.00D-02
 ErrMax= 4.00D-02  0.00D+00 EMaxC= 1.00D-01 BMatC= 6.17D-01 BMatP= 6.17D-01
 IDIUse=3 WtCom= 6.00D-01 WtEn= 4.00D-01
 Coeff-Com:  0.100D+01
 Coeff-En:   0.100D+01
 Coeff:      0.100D+01
 Gap=     0.160 Goal=   None    Shift=    0.000
 GapD=    0.160 DampG=1.000 DampE=0.500 DampFc=0.5000 IDamp=-1.
 Damping current iteration by 5.00D-01
 RMSDP=3.58D-03 MaxDP=2.67D-01              OVMax= 3.40D-01

 Cycle   2  Pass 0  IDiag  1:
 E= -663.608500393811     Delta-E=       -0.144080869446 Rises=F Damp=T
 DIIS: error= 1.49D-02 at cycle   2 NSaved=   2.
 NSaved= 2 IEnMin= 2 EnMin= -663.608500393811     IErMin= 2 ErrMin= 1.49D-02
 ErrMax= 1.49D-02  0.00D+00 EMaxC= 1.00D-01 BMatC= 1.07D-01 BMatP= 6.17D-01
 IDIUse=3 WtCom= 8.51D-01 WtEn= 1.49D-01
 Coeff-Com:  0.221D+00 0.779D+00
 Coeff-En:   0.352D+00 0.648D+00
 Coeff:      0.240D+00 0.760D+00
 Gap=     0.138 Goal=   None    Shift=    0.000
 RMSDP=1.32D-03 MaxDP=9.63D-02 DE=-1.44D-01 OVMax= 3.12D-01

 Cycle   3  Pass 0  IDiag  1:
 E= -663.939743511787     Delta-E=       -0.331243117976 Rises=F Damp=F
 DIIS: error= 1.29D-02 at cycle   3 NSaved=   3.
 NSaved= 3 IEnMin= 3 EnMin= -663.939743511787     IErMin= 3 ErrMin= 1.29D-02
 ErrMax= 1.29D-02  0.00D+00 EMaxC= 1.00D-01 BMatC= 8.33D-02 BMatP= 1.07D-01
 IDIUse=3 WtCom= 8.71D-01 WtEn= 1.29D-01
 Coeff-Com:  0.636D-01 0.458D+00 0.478D+00
 Coeff-En:   0.000D+00 0.000D+00 0.100D+01
 Coeff:      0.554D-01 0.399D+00 0.545D+00
 Gap=     0.138 Goal=   None    Shift=    0.000
 RMSDP=9.35D-04 MaxDP=7.37D-02 DE=-3.31D-01 OVMax= 1.32D-01

 Cycle   4  Pass 0  IDiag  1:
 E= -663.987069398585     Delta-E=       -0.047325886798 Rises=F Damp=F
 DIIS: error= 9.19D-03 at cycle   4 NSaved=   4.
 NSaved= 4 IEnMin= 4 EnMin= -663.987069398585     IErMin= 4 ErrMin= 9.19D-03
 ErrMax= 9.19D-03  0.00D+00 EMaxC= 1.00D-01 BMatC= 3.58D-02 BMatP= 8.33D-02
 IDIUse=3 WtCom= 9.08D-01 WtEn= 9.19D-02
 Coeff-Com:  0.271D-01 0.190D+00 0.388D+00 0.395D+00
 Coeff-En:   0.000D+00 0.000D+00 0.315D+00 0.685D+00
 Coeff:      0.246D-01 0.173D+00 0.381D+00 0.422D+00
 Gap=     0.129 Goal=   None    Shift=    0.000
 RMSDP=4.95D-04 MaxDP=5.41D-02 DE=-4.73D-02 OVMax= 1.04D-01

 Cycle   5  Pass 0  IDiag  1:
 E= -664.011319961667     Delta-E=       -0.024250563082 Rises=F Damp=F
 DIIS: error= 4.24D-03 at cycle   5 NSaved=   5.
 NSaved= 5 IEnMin= 5 EnMin= -664.011319961667     IErMin= 5 ErrMin= 4.24D-03
 ErrMax= 4.24D-03  0.00D+00 EMaxC= 1.00D-01 BMatC= 7.22D-03 BMatP= 3.58D-02
 IDIUse=3 WtCom= 9.58D-01 WtEn= 4.24D-02
 Coeff-Com:  0.827D-02 0.278D-01 0.185D+00 0.346D+00 0.434D+00
 Coeff-En:   0.000D+00 0.000D+00 0.000D+00 0.191D+00 0.809D+00
 Coeff:      0.792D-02 0.266D-01 0.177D+00 0.339D+00 0.450D+00
 Gap=     0.133 Goal=   None    Shift=    0.000
 RMSDP=1.93D-04 MaxDP=1.99D-02 DE=-2.43D-02 OVMax= 4.00D-02

 Cycle   6  Pass 0  IDiag  1:
 E= -664.016769305329     Delta-E=       -0.005449343662 Rises=F Damp=F
 DIIS: error= 8.92D-04 at cycle   6 NSaved=   6.
 NSaved= 6 IEnMin= 6 EnMin= -664.016769305329     IErMin= 6 ErrMin= 8.92D-04
 ErrMax= 8.92D-04  0.00D+00 EMaxC= 1.00D-01 BMatC= 4.30D-04 BMatP= 7.22D-03
 IDIUse=3 WtCom= 9.91D-01 WtEn= 8.92D-03
 Coeff-Com:  0.187D-02-0.100D-02 0.668D-01 0.158D+00 0.278D+00 0.496D+00
 Coeff-En:   0.000D+00 0.000D+00 0.000D+00 0.000D+00 0.406D-01 0.959D+00
 Coeff:      0.185D-02-0.992D-03 0.662D-01 0.156D+00 0.276D+00 0.500D+00
 Gap=     0.135 Goal=   None    Shift=    0.000
 RMSDP=5.02D-05 MaxDP=4.00D-03 DE=-5.45D-03 OVMax= 6.15D-03

 Cycle   7  Pass 0  IDiag  1:
 E= -664.017130052637     Delta-E=       -0.000360747308 Rises=F Damp=F
 DIIS: error= 2.00D-04 at cycle   7 NSaved=   7.
 NSaved= 7 IEnMin= 7 EnMin= -664.017130052637     IErMin= 7 ErrMin= 2.00D-04
 ErrMax= 2.00D-04  0.00D+00 EMaxC= 1.00D-01 BMatC= 2.79D-05 BMatP= 4.30D-04
 IDIUse=3 WtCom= 9.98D-01 WtEn= 2.00D-03
 Coeff-Com:  0.166D-03-0.323D-02 0.146D-01 0.420D-01 0.962D-01 0.271D+00
 Coeff-Com:  0.579D+00
 Coeff-En:   0.000D+00 0.000D+00 0.000D+00 0.000D+00 0.000D+00 0.447D-02
 Coeff-En:   0.996D+00
 Coeff:      0.165D-03-0.323D-02 0.146D-01 0.419D-01 0.960D-01 0.271D+00
 Coeff:      0.580D+00
 Gap=     0.135 Goal=   None    Shift=    0.000
 RMSDP=1.34D-05 MaxDP=8.55D-04 DE=-3.61D-04 OVMax= 2.12D-03

 Cycle   8  Pass 0  IDiag  1:
 E= -664.017153317353     Delta-E=       -0.000023264716 Rises=F Damp=F
 DIIS: error= 7.19D-05 at cycle   8 NSaved=   8.
 NSaved= 8 IEnMin= 8 EnMin= -664.017153317353     IErMin= 8 ErrMin= 7.19D-05
 ErrMax= 7.19D-05  0.00D+00 EMaxC= 1.00D-01 BMatC= 3.87D-06 BMatP= 2.79D-05
 IDIUse=1 WtCom= 1.00D+00 WtEn= 0.00D+00
 Coeff-Com: -0.245D-04-0.188D-02 0.388D-02 0.133D-01 0.371D-01 0.124D+00
 Coeff-Com:  0.351D+00 0.473D+00
 Coeff:     -0.245D-04-0.188D-02 0.388D-02 0.133D-01 0.371D-01 0.124D+00
 Coeff:      0.351D+00 0.473D+00
 Gap=     0.135 Goal=   None    Shift=    0.000
 RMSDP=5.55D-06 MaxDP=4.96D-04 DE=-2.33D-05 OVMax= 8.22D-04

 Initial convergence to 1.0D-05 achieved.  Increase integral accuracy.
 Cycle   9  Pass 1  IDiag  1:
 E= -664.017165175774     Delta-E=       -0.000011858421 Rises=F Damp=F
 DIIS: error= 2.61D-05 at cycle   1 NSaved=   1.
 NSaved= 1 IEnMin= 1 EnMin= -664.017165175774     IErMin= 1 ErrMin= 2.61D-05
 ErrMax= 2.61D-05  0.00D+00 EMaxC= 1.00D-01 BMatC= 6.41D-07 BMatP= 6.41D-07
 IDIUse=1 WtCom= 1.00D+00 WtEn= 0.00D+00
 Coeff-Com:  0.100D+01
 Coeff:      0.100D+01
 Gap=     0.135 Goal=   None    Shift=    0.000
 RMSDP=5.55D-06 MaxDP=4.96D-04 DE=-1.19D-05 OVMax= 8.40D-04

 Cycle  10  Pass 1  IDiag  1:
 E= -664.017163865530     Delta-E=        0.000001310244 Rises=F Damp=F
 DIIS: error= 5.87D-05 at cycle   2 NSaved=   2.
 NSaved= 2 IEnMin= 1 EnMin= -664.017165175774     IErMin= 1 ErrMin= 2.61D-05
 ErrMax= 5.87D-05  0.00D+00 EMaxC= 1.00D-01 BMatC= 2.02D-06 BMatP= 6.41D-07
 IDIUse=1 WtCom= 1.00D+00 WtEn= 0.00D+00
 Coeff-Com:  0.653D+00 0.347D+00
 Coeff:      0.653D+00 0.347D+00
 Gap=     0.135 Goal=   None    Shift=    0.000
 RMSDP=3.33D-06 MaxDP=3.04D-04 DE= 1.31D-06 OVMax= 6.04D-04

 Cycle  11  Pass 1  IDiag  1:
 E= -664.017165759815     Delta-E=       -0.000001894286 Rises=F Damp=F
 DIIS: error= 9.17D-06 at cycle   3 NSaved=   3.
 NSaved= 3 IEnMin= 3 EnMin= -664.017165759815     IErMin= 3 ErrMin= 9.17D-06
 ErrMax= 9.17D-06  0.00D+00 EMaxC= 1.00D-01 BMatC= 5.23D-08 BMatP= 6.41D-07
 IDIUse=1 WtCom= 1.00D+00 WtEn= 0.00D+00
 Coeff-Com:  0.142D+00 0.153D+00 0.704D+00
 Coeff:      0.142D+00 0.153D+00 0.704D+00
 Gap=     0.135 Goal=   None    Shift=    0.000
 RMSDP=8.80D-07 MaxDP=7.39D-05 DE=-1.89D-06 OVMax= 1.36D-04

 Cycle  12  Pass 1  IDiag  1:
 E= -664.017165771751     Delta-E=       -0.000000011935 Rises=F Damp=F
 DIIS: error= 1.03D-05 at cycle   4 NSaved=   4.
 NSaved= 4 IEnMin= 4 EnMin= -664.017165771751     IErMin= 3 ErrMin= 9.17D-06
 ErrMax= 1.03D-05  0.00D+00 EMaxC= 1.00D-01 BMatC= 4.57D-08 BMatP= 5.23D-08
 IDIUse=1 WtCom= 1.00D+00 WtEn= 0.00D+00
 Coeff-Com:  0.117D-01 0.658D-01 0.538D+00 0.384D+00
 Coeff:      0.117D-01 0.658D-01 0.538D+00 0.384D+00
 Gap=     0.135 Goal=   None    Shift=    0.000
 RMSDP=5.31D-07 MaxDP=5.81D-05 DE=-1.19D-08 OVMax= 1.03D-04

 Cycle  13  Pass 1  IDiag  1:
 E= -664.017165805411     Delta-E=       -0.000000033660 Rises=F Damp=F
 DIIS: error= 3.40D-06 at cycle   5 NSaved=   5.
 NSaved= 5 IEnMin= 5 EnMin= -664.017165805411     IErMin= 5 ErrMin= 3.40D-06
 ErrMax= 3.40D-06  0.00D+00 EMaxC= 1.00D-01 BMatC= 5.04D-09 BMatP= 4.57D-08
 IDIUse=1 WtCom= 1.00D+00 WtEn= 0.00D+00
 Coeff-Com: -0.879D-02 0.277D-01 0.299D+00 0.280D+00 0.401D+00
 Coeff:     -0.879D-02 0.277D-01 0.299D+00 0.280D+00 0.401D+00
 Gap=     0.135 Goal=   None    Shift=    0.000
 RMSDP=1.54D-07 MaxDP=1.51D-05 DE=-3.37D-08 OVMax= 2.80D-05

 Cycle  14  Pass 1  IDiag  1:
 E= -664.017165809477     Delta-E=       -0.000000004066 Rises=F Damp=F
 DIIS: error= 6.97D-07 at cycle   6 NSaved=   6.
 NSaved= 6 IEnMin= 6 EnMin= -664.017165809477     IErMin= 6 ErrMin= 6.97D-07
 ErrMax= 6.97D-07  0.00D+00 EMaxC= 1.00D-01 BMatC= 1.77D-10 BMatP= 5.04D-09
 IDIUse=1 WtCom= 1.00D+00 WtEn= 0.00D+00
 Coeff-Com: -0.607D-02 0.969D-02 0.122D+00 0.125D+00 0.225D+00 0.525D+00
 Coeff:     -0.607D-02 0.969D-02 0.122D+00 0.125D+00 0.225D+00 0.525D+00
 Gap=     0.135 Goal=   None    Shift=    0.000
 RMSDP=3.22D-08 MaxDP=2.00D-06 DE=-4.07D-09 OVMax= 4.13D-06

 Cycle  15  Pass 1  IDiag  1:
 E= -664.017165809603     Delta-E=       -0.000000000126 Rises=F Damp=F
 DIIS: error= 2.14D-07 at cycle   7 NSaved=   7.
 NSaved= 7 IEnMin= 7 EnMin= -664.017165809603     IErMin= 7 ErrMin= 2.14D-07
 ErrMax= 2.14D-07  0.00D+00 EMaxC= 1.00D-01 BMatC= 1.36D-11 BMatP= 1.77D-10
 IDIUse=1 WtCom= 1.00D+00 WtEn= 0.00D+00
 Coeff-Com: -0.233D-02 0.267D-02 0.387D-01 0.408D-01 0.831D-01 0.272D+00
 Coeff-Com:  0.565D+00
 Coeff:     -0.233D-02 0.267D-02 0.387D-01 0.408D-01 0.831D-01 0.272D+00
 Coeff:      0.565D+00
 Gap=     0.135 Goal=   None    Shift=    0.000
 RMSDP=1.15D-08 MaxDP=8.61D-07 DE=-1.26D-10 OVMax= 2.37D-06

 Cycle  16  Pass 1  IDiag  1:
 E= -664.017165809623     Delta-E=       -0.000000000021 Rises=F Damp=F
 DIIS: error= 1.17D-07 at cycle   8 NSaved=   8.
 NSaved= 8 IEnMin= 8 EnMin= -664.017165809623     IErMin= 8 ErrMin= 1.17D-07
 ErrMax= 1.17D-07  0.00D+00 EMaxC= 1.00D-01 BMatC= 3.80D-12 BMatP= 1.36D-11
 IDIUse=1 WtCom= 1.00D+00 WtEn= 0.00D+00
 Coeff-Com: -0.268D-03-0.417D-03-0.555D-03-0.127D-03 0.656D-02 0.666D-01
 Coeff-Com:  0.368D+00 0.560D+00
 Coeff:     -0.268D-03-0.417D-03-0.555D-03-0.127D-03 0.656D-02 0.666D-01
 Coeff:      0.368D+00 0.560D+00
 Gap=     0.135 Goal=   None    Shift=    0.000
 RMSDP=4.70D-09 MaxDP=3.66D-07 DE=-2.07D-11 OVMax= 8.60D-07

 SCF Done:  E(RB3LYP) =  -664.017165810     A.U. after   16 cycles
            NFock= 16  Conv=0.47D-08     -V/T= 2.0029
 KE= 6.621244589048D+02 PE=-3.303459344444D+03 EE= 1.100284975266D+03
 Leave Link  502 at Thu Aug 26 19:15:32 2021, MaxMem= 24159191040 cpu:       709.1
 (Enter /public/home/users/caep010/software/Gaussian09/g09/l801.exe)
 DoSCS=F DFT=T ScalE2(SS,OS)=  1.000000  1.000000
 Range of M.O.s used for correlation:     1   447
 NBasis=   447 NAE=    51 NBE=    51 NFC=     0 NFV=     0
 NROrb=    447 NOA=    51 NOB=    51 NVA=   396 NVB=   396

 **** Warning!!: The largest alpha MO coefficient is  0.57642751D+02

 Leave Link  801 at Thu Aug 26 19:15:32 2021, MaxMem= 24159191040 cpu:         0.6
 (Enter /public/home/users/caep010/software/Gaussian09/g09/l1101.exe)
 Using compressed storage, NAtomX=    25.
 Will process     26 centers per pass.
 Leave Link 1101 at Thu Aug 26 19:15:34 2021, MaxMem= 24159191040 cpu:        27.5
 (Enter /public/home/users/caep010/software/Gaussian09/g09/l1102.exe)
 Symmetrizing basis deriv contribution to polar:
 IMax=3 JMax=2 DiffMx= 0.00D+00
 Leave Link 1102 at Thu Aug 26 19:15:34 2021, MaxMem= 24159191040 cpu:         1.5
 (Enter /public/home/users/caep010/software/Gaussian09/g09/l1110.exe)
 Forming Gx(P) for the SCF density, NAtomX=    25.
 Integral derivatives from FoFJK, PRISM(SPDF).
 Do as many integral derivatives as possible in FoFJK.
 G2DrvN: MDV=   24159190736.
 G2DrvN: will do    26 centers at a time, making    1 passes.
 Calling FoFCou, ICntrl=  3107 FMM=F I1Cent=   0 AccDes= 0.00D+00.
 FoFJK:  IHMeth= 1 ICntrl=    3107 DoSepK=F KAlg= 0 I1Cent=   0 FoldK=F
 IRaf=         0 NMat=   1 IRICut=       1 DoRegI=T DoRafI=F ISym2E= 0.
 FoFCou: FMM=F IPFlag=           0 FMFlag=      100000 FMFlg1=           0
         NFxFlg=           0 DoJE=F BraDBF=F KetDBF=F FulRan=T
         wScrn=  0.000000 ICntrl=    3107 IOpCl=  0 I1Cent=           0 NGrid=           0
         NMat0=    1 NMatS0=      1 NMatT0=    0 NMatD0=    1 NMtDS0=    0 NMtDT0=    0
 Symmetry not used in FoFCou.
 End of G2Drv F.D. properties file   721 does not exist.
 End of G2Drv F.D. properties file   722 does not exist.
 End of G2Drv F.D. properties file   788 does not exist.
 Leave Link 1110 at Thu Aug 26 19:16:14 2021, MaxMem= 24159191040 cpu:      1254.5
 (Enter /public/home/users/caep010/software/Gaussian09/g09/l1002.exe)
 Minotr:  Closed shell wavefunction.
          IDoAtm=1111111111111111111111111
          Direct CPHF calculation.
          Differentiating once with respect to nuclear coordinates.
          Requested convergence is 1.0D-08 RMS, and 1.0D-07 maximum.
          Secondary convergence is 1.0D-12 RMS, and 1.0D-12 maximum.
          NewPWx=T KeepS1=F KeepF1=F KeepIn=T MapXYZ=F SortEE=F KeepMc=T.
          MDV=   24159190339 using IRadAn=       2.
 Generate precomputed XC quadrature information.
 Keep R1 ints in memory in canonical form, NReq=5071691415.
 FoFCou: FMM=F IPFlag=           0 FMFlag=           0 FMFlg1=           0
         NFxFlg=           0 DoJE=F BraDBF=F KetDBF=F FulRan=T
         wScrn=  0.000000 ICntrl=     600 IOpCl=  0 I1Cent=           0 NGrid=           0
         NMat0=    1 NMatS0= 100128 NMatT0=    0 NMatD0=    1 NMtDS0=    0 NMtDT0=    0
 Symmetry not used in FoFCou.
          Solving linear equations simultaneously, MaxMat=       0.
          There are    78 degrees of freedom in the 1st order CPHF.  IDoFFX=6 NUNeed=     0.
     72 vectors produced by pass  0 Test12= 2.59D-14 1.28D-09 XBig12= 1.70D-01 1.44D-01.
 AX will form    72 AO Fock derivatives at one time.
     72 vectors produced by pass  1 Test12= 2.59D-14 1.28D-09 XBig12= 1.00D-01 1.62D-01.
     72 vectors produced by pass  2 Test12= 2.59D-14 1.28D-09 XBig12= 7.95D-04 4.41D-03.
     72 vectors produced by pass  3 Test12= 2.59D-14 1.28D-09 XBig12= 5.83D-06 3.89D-04.
     72 vectors produced by pass  4 Test12= 2.59D-14 1.28D-09 XBig12= 2.13D-08 1.49D-05.
     64 vectors produced by pass  5 Test12= 2.59D-14 1.28D-09 XBig12= 4.96D-11 6.43D-07.
     19 vectors produced by pass  6 Test12= 2.59D-14 1.28D-09 XBig12= 4.99D-14 1.97D-08.
 InvSVY:  IOpt=1 It=  1 EMax= 1.43D-15
 Solved reduced A of dimension   443 with    78 vectors.
 End of Minotr F.D. properties file   721 does not exist.
 End of Minotr F.D. properties file   722 does not exist.
 End of Minotr F.D. properties file   788 does not exist.
 Leave Link 1002 at Thu Aug 26 19:17:36 2021, MaxMem= 24159191040 cpu:      2582.2
 (Enter /public/home/users/caep010/software/Gaussian09/g09/l601.exe)
 Copying SCF densities to generalized density rwf, IOpCl= 0 IROHF=0.

 **********************************************************************

            Population analysis using the SCF density.

 **********************************************************************

 Orbital symmetries:
       Occupied  (A) (A) (A) (A) (A) (A) (A) (A) (A) (A) (A) (A)
                 (A) (A) (A) (A) (A) (A) (A) (A) (A) (A) (A) (A)
                 (A) (A) (A) (A) (A) (A) (A) (A) (A) (A) (A) (A)
                 (A) (A) (A) (A) (A) (A) (A) (A) (A) (A) (A) (A)
                 (A) (A) (A)
       Virtual   (A) (A) (A) (A) (A) (A) (A) (A) (A) (A) (A) (A)
                 (A) (A) (A) (A) (A) (A) (A) (A) (A) (A) (A) (A)
                 (A) (A) (A) (A) (A) (A) (A) (A) (A) (A) (A) (A)
                 (A) (A) (A) (A) (A) (A) (A) (A) (A) (A) (A) (A)
                 (A) (A) (A) (A) (A) (A) (A) (A) (A) (A) (A) (A)
                 (A) (A) (A) (A) (A) (A) (A) (A) (A) (A) (A) (A)
                 (A) (A) (A) (A) (A) (A) (A) (A) (A) (A) (A) (A)
                 (A) (A) (A) (A) (A) (A) (A) (A) (A) (A) (A) (A)
                 (A) (A) (A) (A) (A) (A) (A) (A) (A) (A) (A) (A)
                 (A) (A) (A) (A) (A) (A) (A) (A) (A) (A) (A) (A)
                 (A) (A) (A) (A) (A) (A) (A) (A) (A) (A) (A) (A)
                 (A) (A) (A) (A) (A) (A) (A) (A) (A) (A) (A) (A)
                 (A) (A) (A) (A) (A) (A) (A) (A) (A) (A) (A) (A)
                 (A) (A) (A) (A) (A) (A) (A) (A) (A) (A) (A) (A)
                 (A) (A) (A) (A) (A) (A) (A) (A) (A) (A) (A) (A)
                 (A) (A) (A) (A) (A) (A) (A) (A) (A) (A) (A) (A)
                 (A) (A) (A) (A) (A) (A) (A) (A) (A) (A) (A) (A)
                 (A) (A) (A) (A) (A) (A) (A) (A) (A) (A) (A) (A)
                 (A) (A) (A) (A) (A) (A) (A) (A) (A) (A) (A) (A)
                 (A) (A) (A) (A) (A) (A) (A) (A) (A) (A) (A) (A)
                 (A) (A) (A) (A) (A) (A) (A) (A) (A) (A) (A) (A)
                 (A) (A) (A) (A) (A) (A) (A) (A) (A) (A) (A) (A)
                 (A) (A) (A) (A) (A) (A) (A) (A) (A) (A) (A) (A)
                 (A) (A) (A) (A) (A) (A) (A) (A) (A) (A) (A) (A)
                 (A) (A) (A) (A) (A) (A) (A) (A) (A) (A) (A) (A)
                 (A) (A) (A) (A) (A) (A) (A) (A) (A) (A) (A) (A)
                 (A) (A) (A) (A) (A) (A) (A) (A) (A) (A) (A) (A)
                 (A) (A) (A) (A) (A) (A) (A) (A) (A) (A) (A) (A)
                 (A) (A) (A) (A) (A) (A) (A) (A) (A) (A) (A) (A)
                 (A) (A) (A) (A) (A) (A) (A) (A) (A) (A) (A) (A)
                 (A) (A) (A) (A) (A) (A) (A) (A) (A) (A) (A) (A)
                 (A) (A) (A) (A) (A) (A) (A) (A) (A) (A) (A) (A)
                 (A) (A) (A) (A) (A) (A) (A) (A) (A) (A) (A) (A)
 The electronic state is 1-A.
 Alpha  occ. eigenvalues --  -19.15925 -19.15469 -14.55095 -14.37658 -14.36249
 Alpha  occ. eigenvalues --  -10.25295 -10.23600 -10.23324 -10.18480 -10.18182
 Alpha  occ. eigenvalues --  -10.17481 -10.16927 -10.16156 -10.15299  -1.20492
 Alpha  occ. eigenvalues --   -1.03280  -1.02272  -0.89957  -0.86045  -0.80619
 Alpha  occ. eigenvalues --   -0.78564  -0.76324  -0.74785  -0.70080  -0.64181
 Alpha  occ. eigenvalues --   -0.63569  -0.58713  -0.56597  -0.54119  -0.51793
 Alpha  occ. eigenvalues --   -0.51373  -0.50291  -0.49073  -0.48611  -0.46949
 Alpha  occ. eigenvalues --   -0.45884  -0.45095  -0.44202  -0.42207  -0.42119
 Alpha  occ. eigenvalues --   -0.39728  -0.38863  -0.37714  -0.36534  -0.30345
 Alpha  occ. eigenvalues --   -0.29891  -0.28939  -0.28562  -0.27401  -0.26730
 Alpha  occ. eigenvalues --   -0.21083
 Alpha virt. eigenvalues --   -0.07600  -0.01511   0.01537   0.02806   0.10373
 Alpha virt. eigenvalues --    0.12238   0.14467   0.15766   0.16137   0.16820
 Alpha virt. eigenvalues --    0.17566   0.17907   0.18878   0.19905   0.20346
 Alpha virt. eigenvalues --    0.21105   0.21558   0.22395   0.23036   0.26512
 Alpha virt. eigenvalues --    0.27487   0.28540   0.29119   0.31407   0.32198
 Alpha virt. eigenvalues --    0.34096   0.36124   0.37770   0.39095   0.41411
 Alpha virt. eigenvalues --    0.43230   0.44813   0.46619   0.47409   0.48612
 Alpha virt. eigenvalues --    0.48749   0.49719   0.50346   0.51544   0.52169
 Alpha virt. eigenvalues --    0.52645   0.53291   0.54264   0.55098   0.56636
 Alpha virt. eigenvalues --    0.57015   0.58202   0.59150   0.59526   0.60035
 Alpha virt. eigenvalues --    0.62486   0.62955   0.64839   0.66726   0.67456
 Alpha virt. eigenvalues --    0.69314   0.70044   0.70804   0.71422   0.73152
 Alpha virt. eigenvalues --    0.75035   0.75703   0.75979   0.76497   0.77838
 Alpha virt. eigenvalues --    0.78265   0.79383   0.79816   0.81052   0.81452
 Alpha virt. eigenvalues --    0.81711   0.82929   0.84347   0.84965   0.85472
 Alpha virt. eigenvalues --    0.86338   0.87502   0.88571   0.89530   0.91350
 Alpha virt. eigenvalues --    0.91942   0.92254   0.94728   0.94972   0.95470
 Alpha virt. eigenvalues --    0.96799   0.97940   0.98102   0.98978   0.99603
 Alpha virt. eigenvalues --    1.00126   1.01375   1.02271   1.04884   1.07111
 Alpha virt. eigenvalues --    1.08935   1.11698   1.13859   1.14411   1.15472
 Alpha virt. eigenvalues --    1.16754   1.17658   1.19583   1.23257   1.23886
 Alpha virt. eigenvalues --    1.24758   1.27489   1.27740   1.28875   1.29721
 Alpha virt. eigenvalues --    1.30120   1.34514   1.36272   1.37662   1.39465
 Alpha virt. eigenvalues --    1.40334   1.42267   1.42867   1.43426   1.43748
 Alpha virt. eigenvalues --    1.44957   1.46944   1.47788   1.48328   1.50177
 Alpha virt. eigenvalues --    1.51253   1.54843   1.55188   1.56170   1.57564
 Alpha virt. eigenvalues --    1.58311   1.59706   1.61997   1.63855   1.64692
 Alpha virt. eigenvalues --    1.65888   1.68014   1.70992   1.72334   1.74733
 Alpha virt. eigenvalues --    1.75846   1.78353   1.80402   1.81311   1.83277
 Alpha virt. eigenvalues --    1.87729   1.89295   1.90923   1.93191   1.93756
 Alpha virt. eigenvalues --    1.94264   1.95109   1.96179   1.97739   1.98990
 Alpha virt. eigenvalues --    2.00359   2.03776   2.05635   2.06487   2.11431
 Alpha virt. eigenvalues --    2.15009   2.16296   2.19865   2.20553   2.21302
 Alpha virt. eigenvalues --    2.26893   2.29140   2.33617   2.35267   2.36691
 Alpha virt. eigenvalues --    2.38572   2.39259   2.40062   2.43728   2.44922
 Alpha virt. eigenvalues --    2.48570   2.50818   2.51726   2.53857   2.57362
 Alpha virt. eigenvalues --    2.59158   2.69569   2.72728   2.76136   2.76376
 Alpha virt. eigenvalues --    2.78451   2.81099   2.83338   2.88195   2.88770
 Alpha virt. eigenvalues --    2.90716   2.95388   2.96180   2.99022   3.00493
 Alpha virt. eigenvalues --    3.03211   3.05614   3.06072   3.07174   3.08583
 Alpha virt. eigenvalues --    3.10344   3.10976   3.11453   3.12114   3.12976
 Alpha virt. eigenvalues --    3.13464   3.13986   3.15419   3.18692   3.18930
 Alpha virt. eigenvalues --    3.21081   3.23028   3.24052   3.24739   3.26177
 Alpha virt. eigenvalues --    3.28014   3.29800   3.31883   3.33404   3.33636
 Alpha virt. eigenvalues --    3.36713   3.37946   3.39225   3.40731   3.41711
 Alpha virt. eigenvalues --    3.43371   3.45103   3.47580   3.47958   3.48569
 Alpha virt. eigenvalues --    3.49515   3.50152   3.51727   3.52544   3.54098
 Alpha virt. eigenvalues --    3.54656   3.57513   3.58964   3.60386   3.60612
 Alpha virt. eigenvalues --    3.62416   3.64560   3.66684   3.67907   3.70566
 Alpha virt. eigenvalues --    3.71373   3.73850   3.75139   3.76422   3.78531
 Alpha virt. eigenvalues --    3.79706   3.80818   3.81274   3.83527   3.85261
 Alpha virt. eigenvalues --    3.87053   3.88070   3.89861   3.91795   3.92794
 Alpha virt. eigenvalues --    3.96200   3.97693   3.98859   3.99322   4.02487
 Alpha virt. eigenvalues --    4.05256   4.05511   4.07908   4.09262   4.12557
 Alpha virt. eigenvalues --    4.13516   4.15232   4.17230   4.18563   4.19563
 Alpha virt. eigenvalues --    4.20571   4.23837   4.24803   4.26618   4.27772
 Alpha virt. eigenvalues --    4.29225   4.30121   4.30450   4.32923   4.34851
 Alpha virt. eigenvalues --    4.35926   4.37151   4.38037   4.40393   4.42008
 Alpha virt. eigenvalues --    4.44094   4.44481   4.45877   4.47177   4.47947
 Alpha virt. eigenvalues --    4.48528   4.49489   4.50811   4.51651   4.53350
 Alpha virt. eigenvalues --    4.54716   4.55197   4.55893   4.58563   4.59080
 Alpha virt. eigenvalues --    4.59459   4.60073   4.61187   4.62723   4.63180
 Alpha virt. eigenvalues --    4.64144   4.67362   4.67850   4.68545   4.71016
 Alpha virt. eigenvalues --    4.72779   4.74341   4.75950   4.78011   4.84837
 Alpha virt. eigenvalues --    4.85880   4.87236   4.90832   4.91756   4.96348
 Alpha virt. eigenvalues --    4.98439   5.01447   5.02384   5.04072   5.05115
 Alpha virt. eigenvalues --    5.06410   5.07353   5.09006   5.09632   5.10344
 Alpha virt. eigenvalues --    5.10674   5.11858   5.13930   5.14859   5.17244
 Alpha virt. eigenvalues --    5.19554   5.20886   5.21939   5.25989   5.28775
 Alpha virt. eigenvalues --    5.34721   5.35244   5.38250   5.41990   5.45440
 Alpha virt. eigenvalues --    5.46587   5.51735   5.53579   5.57920   5.60497
 Alpha virt. eigenvalues --    5.61359   5.64235   5.66866   5.73687   5.78432
 Alpha virt. eigenvalues --    5.84207   5.90223   5.96398   5.99123   6.02269
 Alpha virt. eigenvalues --    6.03937   6.08022   6.20203   6.24331   6.26137
 Alpha virt. eigenvalues --    6.30684   6.40995   6.50080   6.66787   6.74759
 Alpha virt. eigenvalues --    6.91105   6.95323   7.07208   9.24288   9.63739
 Alpha virt. eigenvalues --   10.56061  10.62085  10.75809  11.26414  11.29983
 Alpha virt. eigenvalues --   11.39908  11.61441  11.77511  11.82268  11.92263
 Alpha virt. eigenvalues --   12.76982  12.86565  13.16482  13.34703  16.80540
 Alpha virt. eigenvalues --   23.83324
          Condensed to atoms (all electrons):
               1          2          3          4          5          6
     1  O    8.026449   0.526012  -0.090520  -0.125516   0.003427   0.000017
     2  N    0.526012   5.341930   0.470937   0.362092  -0.033510  -0.007220
     3  O   -0.090520   0.470937   8.104714  -0.097967  -0.015408  -0.020663
     4  C   -0.125516   0.362092  -0.097967   5.013592   0.390214  -0.056442
     5  C    0.003427  -0.033510  -0.015408   0.390214   4.669755   0.453761
     6  N    0.000017  -0.007220  -0.020663  -0.056442   0.453761   6.400808
     7  H    0.000667  -0.001023   0.053726  -0.012905  -0.027804   0.342296
     8  N    0.000001   0.000060   0.000798   0.000755  -0.058921   0.339243
     9  C   -0.000065   0.000587   0.000276   0.014997   0.390296  -0.021466
    10  C   -0.000000  -0.000015  -0.000111  -0.000012   0.005611  -0.098017
    11  H    0.000000  -0.000035   0.000002   0.005556  -0.022169  -0.023441
    12  C    0.000002   0.000314  -0.000033  -0.058881   0.025394   0.001247
    13  H    0.000000   0.000006  -0.000000   0.003189   0.002669  -0.000080
    14  C    0.001179   0.001117  -0.000012   0.024439  -0.052259   0.000648
    15  H   -0.000020  -0.000096   0.000000   0.002693   0.002795   0.000001
    16  C    0.000634  -0.016057   0.007969   0.387246  -0.016086   0.001263
    17  H    0.029640  -0.015325   0.000676  -0.035691   0.005702  -0.000041
    18  C   -0.000000   0.000003  -0.000862  -0.000009   0.002323  -0.009811
    19  H    0.000000   0.000000   0.000003   0.000000  -0.000042   0.000216
    20  H    0.000000   0.000051   0.001317  -0.000097   0.000297   0.006568
    21  H    0.000000  -0.000004   0.000034  -0.000005  -0.000174   0.000859
    22  C   -0.000000  -0.000000  -0.000000   0.000006  -0.000416   0.005750
    23  H    0.000000   0.000000   0.000000  -0.000000   0.000007  -0.000064
    24  H   -0.000000   0.000000  -0.000000  -0.000000   0.000006  -0.000080
    25  H   -0.000000   0.000000  -0.000000   0.000000   0.000035  -0.000259
               7          8          9         10         11         12
     1  O    0.000667   0.000001  -0.000065  -0.000000   0.000000   0.000002
     2  N   -0.001023   0.000060   0.000587  -0.000015  -0.000035   0.000314
     3  O    0.053726   0.000798   0.000276  -0.000111   0.000002  -0.000033
     4  C   -0.012905   0.000755   0.014997  -0.000012   0.005556  -0.058881
     5  C   -0.027804  -0.058921   0.390296   0.005611  -0.022169   0.025394
     6  N    0.342296   0.339243  -0.021466  -0.098017  -0.023441   0.001247
     7  H    0.449854  -0.045924   0.013356  -0.002282   0.000252  -0.000077
     8  N   -0.045924   6.346573  -0.008869   0.701854   0.033156   0.000515
     9  C    0.013356  -0.008869   4.891937   0.000720   0.336236   0.577716
    10  C   -0.002282   0.701854   0.000720   4.412910   0.000922  -0.000031
    11  H    0.000252   0.033156   0.336236   0.000922   0.608739  -0.036929
    12  C   -0.000077   0.000515   0.577716  -0.000031  -0.036929   4.639486
    13  H    0.000004  -0.000043  -0.027060   0.000000  -0.005000   0.335802
    14  C   -0.000001   0.000030   0.028469   0.000001   0.002738   0.570579
    15  H   -0.000000   0.000001   0.001893   0.000000  -0.000527  -0.031652
    16  C   -0.001168   0.000021  -0.074875  -0.000000   0.002177   0.034155
    17  H   -0.000025   0.000001   0.001708   0.000000   0.000061   0.003349
    18  C    0.007612  -0.063671   0.000054   0.413288   0.000121   0.000000
    19  H   -0.001028   0.004298  -0.000001  -0.020276  -0.000002  -0.000000
    20  H    0.004030  -0.008394  -0.000005  -0.016667  -0.000002   0.000000
    21  H    0.003338  -0.003163  -0.000001  -0.013363  -0.000003   0.000000
    22  C    0.000275  -0.028791   0.000061   0.408613  -0.000234   0.000001
    23  H   -0.000008  -0.000660  -0.000001  -0.019033   0.000000  -0.000000
    24  H    0.000006  -0.001385  -0.000001  -0.020825   0.000000  -0.000000
    25  H    0.000028   0.001480  -0.000079  -0.010955   0.000321   0.000000
              13         14         15         16         17         18
     1  O    0.000000   0.001179  -0.000020   0.000634   0.029640  -0.000000
     2  N    0.000006   0.001117  -0.000096  -0.016057  -0.015325   0.000003
     3  O   -0.000000  -0.000012   0.000000   0.007969   0.000676  -0.000862
     4  C    0.003189   0.024439   0.002693   0.387246  -0.035691  -0.000009
     5  C    0.002669  -0.052259   0.002795  -0.016086   0.005702   0.002323
     6  N   -0.000080   0.000648   0.000001   0.001263  -0.000041  -0.009811
     7  H    0.000004  -0.000001  -0.000000  -0.001168  -0.000025   0.007612
     8  N   -0.000043   0.000030   0.000001   0.000021   0.000001  -0.063671
     9  C   -0.027060   0.028469   0.001893  -0.074875   0.001708   0.000054
    10  C    0.000000   0.000001   0.000000  -0.000000   0.000000   0.413288
    11  H   -0.005000   0.002738  -0.000527   0.002177   0.000061   0.000121
    12  C    0.335802   0.570579  -0.031652   0.034155   0.003349   0.000000
    13  H    0.635285  -0.032801  -0.002947   0.001138  -0.000581  -0.000000
    14  C   -0.032801   4.708819   0.335850   0.544994  -0.033853   0.000000
    15  H   -0.002947   0.335850   0.628642  -0.022338  -0.004046   0.000000
    16  C    0.001138   0.544994  -0.022338   4.898438   0.336727  -0.000000
    17  H   -0.000581  -0.033853  -0.004046   0.336727   0.604015  -0.000000
    18  C   -0.000000   0.000000   0.000000  -0.000000  -0.000000   4.997398
    19  H    0.000000  -0.000000  -0.000000   0.000000   0.000000   0.384809
    20  H    0.000000   0.000000  -0.000000  -0.000000  -0.000000   0.372474
    21  H    0.000000  -0.000000  -0.000000   0.000000   0.000000   0.386402
    22  C    0.000000  -0.000000  -0.000000   0.000000   0.000000  -0.087663
    23  H   -0.000000   0.000000   0.000000  -0.000000  -0.000000  -0.000418
    24  H   -0.000000   0.000000   0.000000  -0.000000  -0.000000   0.001440
    25  H   -0.000000   0.000000   0.000000  -0.000000  -0.000000   0.008214
              19         20         21         22         23         24
     1  O    0.000000   0.000000   0.000000  -0.000000   0.000000  -0.000000
     2  N    0.000000   0.000051  -0.000004  -0.000000   0.000000   0.000000
     3  O    0.000003   0.001317   0.000034  -0.000000   0.000000  -0.000000
     4  C    0.000000  -0.000097  -0.000005   0.000006  -0.000000  -0.000000
     5  C   -0.000042   0.000297  -0.000174  -0.000416   0.000007   0.000006
     6  N    0.000216   0.006568   0.000859   0.005750  -0.000064  -0.000080
     7  H   -0.001028   0.004030   0.003338   0.000275  -0.000008   0.000006
     8  N    0.004298  -0.008394  -0.003163  -0.028791  -0.000660  -0.001385
     9  C   -0.000001  -0.000005  -0.000001   0.000061  -0.000001  -0.000001
    10  C   -0.020276  -0.016667  -0.013363   0.408613  -0.019033  -0.020825
    11  H   -0.000002  -0.000002  -0.000003  -0.000234   0.000000   0.000000
    12  C   -0.000000   0.000000   0.000000   0.000001  -0.000000  -0.000000
    13  H    0.000000   0.000000   0.000000   0.000000  -0.000000  -0.000000
    14  C   -0.000000   0.000000  -0.000000  -0.000000   0.000000   0.000000
    15  H   -0.000000  -0.000000  -0.000000  -0.000000   0.000000   0.000000
    16  C    0.000000  -0.000000   0.000000   0.000000  -0.000000  -0.000000
    17  H    0.000000  -0.000000   0.000000   0.000000  -0.000000  -0.000000
    18  C    0.384809   0.372474   0.386402  -0.087663  -0.000418   0.001440
    19  H    0.586597  -0.030942  -0.038812  -0.007290   0.003139  -0.000075
    20  H   -0.030942   0.564370  -0.041726   0.004501   0.000441  -0.000215
    21  H   -0.038812  -0.041726   0.558056   0.003361  -0.000346   0.000834
    22  C   -0.007290   0.004501   0.003361   4.947048   0.380929   0.384343
    23  H    0.003139   0.000441  -0.000346   0.380929   0.589001  -0.045245
    24  H   -0.000075  -0.000215   0.000834   0.384343  -0.045245   0.588506
    25  H   -0.000107  -0.000286  -0.000259   0.369021  -0.032673  -0.033454
              25
     1  O   -0.000000
     2  N    0.000000
     3  O   -0.000000
     4  C    0.000000
     5  C    0.000035
     6  N   -0.000259
     7  H    0.000028
     8  N    0.001480
     9  C   -0.000079
    10  C   -0.010955
    11  H    0.000321
    12  C    0.000000
    13  H   -0.000000
    14  C    0.000000
    15  H    0.000000
    16  C   -0.000000
    17  H   -0.000000
    18  C    0.008214
    19  H   -0.000107
    20  H   -0.000286
    21  H   -0.000259
    22  C    0.369021
    23  H   -0.032673
    24  H   -0.033454
    25  H    0.573548
 Mulliken charges:
               1
     1  O   -0.371908
     2  N    0.370179
     3  O   -0.414873
     4  C    0.182745
     5  C    0.274498
     6  N   -0.315094
     7  H    0.216801
     8  N   -0.208965
     9  C   -0.125882
    10  C    0.257668
    11  H    0.098059
    12  C   -0.060958
    13  H    0.090420
    14  C   -0.099936
    15  H    0.089750
    16  C   -0.084237
    17  H    0.107684
    18  C   -0.411704
    19  H    0.119512
    20  H    0.144285
    21  H    0.144971
    22  C   -0.379516
    23  H    0.124931
    24  H    0.126144
    25  H    0.125423
 Sum of Mulliken charges =  -0.00000
 Mulliken charges with hydrogens summed into heavy atoms:
               1
     1  O   -0.371908
     2  N    0.370179
     3  O   -0.414873
     4  C    0.182745
     5  C    0.274498
     6  N   -0.098292
     8  N   -0.208965
     9  C   -0.027823
    10  C    0.257668
    12  C    0.029462
    14  C   -0.010186
    16  C    0.023447
    18  C   -0.002935
    22  C   -0.003018
 APT charges:
               1
     1  O    0.793644
     2  N   -1.124691
     3  O   -0.006955
     4  C   -0.457286
     5  C   -0.303697
     6  N   -0.513141
     7  H    0.330723
     8  N   -0.782266
     9  C   -0.630027
    10  C    0.250272
    11  H    0.334612
    12  C   -0.138918
    13  H    0.565147
    14  C    0.012584
    15  H    0.669598
    16  C   -0.261462
    17  H    0.545436
    18  C   -0.789475
    19  H    0.644443
    20  H    0.087428
    21  H    0.303390
    22  C   -0.731890
    23  H    0.483219
    24  H    0.505215
    25  H    0.214098
 Sum of APT charges =  -0.00000
 APT charges with hydrogens summed into heavy atoms:
               1
     1  O    0.793644
     2  N   -1.124691
     3  O   -0.006955
     4  C   -0.457286
     5  C   -0.303697
     6  N   -0.182418
     8  N   -0.782266
     9  C   -0.295416
    10  C    0.250272
    12  C    0.426229
    14  C    0.682182
    16  C    0.283973
    18  C    0.245785
    22  C    0.470642
 Electronic spatial extent (au):  <R**2>=           3231.4384
 Charge=             -0.0000 electrons
 Dipole moment (field-independent basis, Debye):
    X=              3.2063    Y=             -2.6562    Z=             -0.0203  Tot=              4.1637
 Quadrupole moment (field-independent basis, Debye-Ang):
   XX=            -67.6579   YY=            -84.4220   ZZ=            -80.0635
   XY=             11.4865   XZ=              0.8191   YZ=             -0.4197
 Traceless Quadrupole moment (field-independent basis, Debye-Ang):
   XX=              9.7232   YY=             -7.0409   ZZ=             -2.6823
   XY=             11.4865   XZ=              0.8191   YZ=             -0.4197
 Octapole moment (field-independent basis, Debye-Ang**2):
  XXX=             44.8586  YYY=            -22.8422  ZZZ=             -0.0860  XYY=             11.5017
  XXY=            -11.1643  XXZ=             -0.9276  XZZ=              3.7052  YZZ=             11.6587
  YYZ=              0.0040  XYZ=              1.4418
 Hexadecapole moment (field-independent basis, Debye-Ang**3):
 XXXX=          -2655.1402 YYYY=          -1161.9163 ZZZZ=            -86.7990 XXXY=             61.0987
 XXXZ=              8.4984 YYYX=             48.3560 YYYZ=             -1.5072 ZZZX=             -1.6955
 ZZZY=             -0.6028 XXYY=           -685.0329 XXZZ=           -498.7592 YYZZ=           -208.9373
 XXYZ=             -7.2651 YYXZ=              2.6005 ZZXY=            -15.3213
 N-N= 8.770327444633D+02 E-N=-3.303459336141D+03  KE= 6.621244589048D+02
  Exact polarizability:   0.000   0.000   0.000   0.000   0.000   0.000
 Approx polarizability: 306.225   6.377 234.557  -7.953  -0.063  94.471
 No NMR shielding tensors so no spin-rotation constants.
 Leave Link  601 at Thu Aug 26 19:17:37 2021, MaxMem= 24159191040 cpu:        22.0
 (Enter /public/home/users/caep010/software/Gaussian09/g09/l701.exe)
 Compute integral second derivatives.
 ... and contract with generalized density number  0.
 Leave Link  701 at Thu Aug 26 19:17:37 2021, MaxMem= 24159191040 cpu:        19.6
 (Enter /public/home/users/caep010/software/Gaussian09/g09/l702.exe)
 L702 exits ... SP integral derivatives will be done elsewhere.
 Leave Link  702 at Thu Aug 26 19:17:38 2021, MaxMem= 24159191040 cpu:         0.9
 (Enter /public/home/users/caep010/software/Gaussian09/g09/l703.exe)
 Compute integral second derivatives, UseDBF=F ICtDFT=           0.
 Integral derivatives from FoFJK, PRISM(SPDF).
 Calling FoFJK, ICntrl=    100147 FMM=F ISym2X=0 I1Cent= 0 IOpClX= 0 NMat=1 NMatS=1 NMatT=0.
 FoFJK:  IHMeth= 1 ICntrl=  100147 DoSepK=F KAlg= 0 I1Cent=   0 FoldK=F
 IRaf=         0 NMat=   1 IRICut=       1 DoRegI=T DoRafI=F ISym2E= 0.
 FoFCou: FMM=F IPFlag=           0 FMFlag=      100000 FMFlg1=         800
         NFxFlg=           0 DoJE=F BraDBF=F KetDBF=F FulRan=T
         wScrn=  0.000000 ICntrl=  100147 IOpCl=  0 I1Cent=           0 NGrid=           0
         NMat0=    1 NMatS0=      1 NMatT0=    0 NMatD0=    1 NMtDS0=    0 NMtDT0=    0
 Symmetry not used in FoFCou.
 Leave Link  703 at Thu Aug 26 19:18:44 2021, MaxMem= 24159191040 cpu:      2090.4
 (Enter /public/home/users/caep010/software/Gaussian09/g09/l716.exe)
 Dipole        = 1.26146488D+00-1.04503172D+00-7.97797969D-03
 Polarizability= 0.00000000D+00 0.00000000D+00 0.00000000D+00
                 0.00000000D+00 0.00000000D+00 0.00000000D+00
 ***** Axes restored to original set *****
 -------------------------------------------------------------------
 Center     Atomic                   Forces (Hartrees/Bohr)
 Number     Number              X              Y              Z
 -------------------------------------------------------------------
      1        8           0.010087521   -0.005911124   -0.004376173
      2        7          -0.011561904    0.007576914    0.006230084
      3        8           0.003228013   -0.002042115   -0.005459717
      4        6          -0.002066810    0.000027597    0.005248299
      5        6           0.001872640   -0.000691001   -0.002801655
      6        7           0.082258834   -0.049909801   -0.196091810
      7        1          -0.078457385    0.043411072    0.197826374
      8        7          -0.006679699    0.007544507   -0.001291552
      9        6          -0.105127692    0.113460623    0.023965281
     10        6           0.003015746    0.001260657   -0.008840876
     11        1           0.110399772   -0.121400968   -0.016944530
     12        6          -0.063123415    0.023056963    0.139713733
     13        1           0.071943708   -0.029910155   -0.149199858
     14        6           0.037538035   -0.084497684    0.116695409
     15        1          -0.040957982    0.093409284   -0.130441735
     16        6           0.104204423   -0.112351832   -0.004554754
     17        1          -0.114518058    0.118271417    0.020888171
     18        6           0.044791620   -0.010782992   -0.110855082
     19        1           0.012196880   -0.109480392    0.064951797
     20        1          -0.124985689    0.029964453   -0.008640389
     21        1           0.058915693    0.095199150    0.067640745
     22        6          -0.075601263    0.094754798    0.006993067
     23        1          -0.059464029   -0.112231501    0.026967155
     24        1           0.100824986    0.011228218    0.081650989
     25        1           0.041266054    0.000043913   -0.119272972
 -------------------------------------------------------------------
 Cartesian Forces:  Max     0.197826374 RMS     0.075649561
 FormGI is forming the generalized inverse of G from B-inverse, IUseBI=4.
 Leave Link  716 at Thu Aug 26 19:18:44 2021, MaxMem= 24159191040 cpu:         1.2
 (Enter /public/home/users/caep010/software/Gaussian09/g09/l103.exe)

 GradGradGradGradGradGradGradGradGradGradGradGradGradGradGradGradGradGrad
 Berny optimization.
 Red2BG is reusing G-inverse.
 Internal  Forces:  Max     0.217175998 RMS     0.047898666
 Search for a local minimum.
 Step number   1 out of a maximum of  123
 All quantities printed in internal units (Hartrees-Bohrs-Radians)
 RMS Force = .47899D-01 SwitMx=.10000D-02 MixMth= 1
 Mixed Optimization -- RFO/linear search
 Second derivative matrix not updated -- analytic derivatives used.
 ITU=  0
     Eigenvalues ---    0.00014   0.00238   0.00558   0.00624   0.01236
     Eigenvalues ---    0.01418   0.01712   0.01820   0.01909   0.02003
     Eigenvalues ---    0.02167   0.02530   0.02671   0.02831   0.02910
     Eigenvalues ---    0.03125   0.05420   0.06135   0.06222   0.06350
     Eigenvalues ---    0.06572   0.10902   0.11293   0.11411   0.12458
     Eigenvalues ---    0.12612   0.12870   0.13174   0.13298   0.13732
     Eigenvalues ---    0.14822   0.15039   0.15475   0.17608   0.19246
     Eigenvalues ---    0.19935   0.20880   0.21073   0.21902   0.22757
     Eigenvalues ---    0.24226   0.25653   0.28618   0.30932   0.34122
     Eigenvalues ---    0.35077   0.35849   0.38499   0.43488   0.43953
     Eigenvalues ---    0.47487   0.51147   0.52771   0.54538   0.55106
     Eigenvalues ---    0.71475   0.71648   0.71715   0.71807   0.71848
     Eigenvalues ---    0.71951   0.72254   0.73314   0.74675   0.84920
     Eigenvalues ---    0.85310   0.85587   0.85675   1.18355
 RFO step:  Lambda=-2.41006645D-01 EMin= 1.40828149D-04
 Linear search not attempted -- first point.
 Maximum step size (   0.300) exceeded in Quadratic search.
    -- Step size scaled by   0.627
 Iteration  1 RMS(Cart)=  0.03092518 RMS(Int)=  0.00015020
 Iteration  2 RMS(Cart)=  0.00019409 RMS(Int)=  0.00000411
 Iteration  3 RMS(Cart)=  0.00000005 RMS(Int)=  0.00000411
 ITry= 1 IFail=0 DXMaxC= 1.01D-01 DCOld= 1.00D+10 DXMaxT= 3.00D-01 DXLimC= 3.00D+00 Rises=F
 Variable       Old X    -DE/DX   Delta X   Delta X   Delta X     New X
                                 (Linear)    (Quad)   (Total)
    R1        2.33700  -0.01149   0.00000  -0.00913  -0.00913   2.32787
    R2        2.34608  -0.00271   0.00000  -0.00047  -0.00047   2.34560
    R3        2.73622  -0.00400   0.00000  -0.00080  -0.00080   2.73542
    R4        2.67463   0.00149   0.00000   0.00353   0.00353   2.67815
    R5        2.64602   0.00032   0.00000   0.00066   0.00066   2.64669
    R6        2.57710  -0.00031   0.00000   0.00092   0.00092   2.57802
    R7        2.67113   0.00108   0.00000   0.00048   0.00048   2.67160
    R8        1.62551   0.21718   0.00000   0.09586   0.09586   1.72138
    R9        2.62224  -0.00921   0.00000  -0.01261  -0.01261   2.60962
   R10        2.42102   0.00064   0.00000   0.00171   0.00171   2.42273
   R11        1.75759   0.16491   0.00000   0.09428   0.09428   1.85186
   R12        2.59070   0.01085   0.00000   0.00801   0.00801   2.59871
   R13        2.82517   0.01605   0.00000   0.01515   0.01515   2.84032
   R14        2.82928   0.00967   0.00000   0.00806   0.00806   2.83734
   R15        1.75743   0.16831   0.00000   0.09629   0.09629   1.85372
   R16        2.61829   0.01894   0.00000   0.01477   0.01477   2.63306
   R17        1.75883   0.16558   0.00000   0.09506   0.09506   1.85389
   R18        2.57384   0.01880   0.00000   0.01424   0.01424   2.58807
   R19        1.75742   0.16586   0.00000   0.09470   0.09470   1.85212
   R20        1.81269   0.12787   0.00000   0.08347   0.08347   1.89617
   R21        1.81522   0.12877   0.00000   0.08448   0.08448   1.89971
   R22        1.81362   0.13078   0.00000   0.08555   0.08555   1.89916
   R23        1.81417   0.12982   0.00000   0.08504   0.08504   1.89921
   R24        1.81413   0.13020   0.00000   0.08526   0.08526   1.89939
   R25        1.81583   0.12621   0.00000   0.08266   0.08266   1.89849
    A1        2.12473   0.00845   0.00000   0.00646   0.00646   2.13119
    A2        2.07233  -0.00266   0.00000  -0.00200  -0.00200   2.07033
    A3        2.08610  -0.00579   0.00000  -0.00445  -0.00445   2.08165
    A4        2.12203  -0.00266   0.00000   0.00165   0.00166   2.12368
    A5        2.04330  -0.00089   0.00000  -0.00266  -0.00266   2.04064
    A6        2.11755   0.00356   0.00000   0.00102   0.00102   2.11857
    A7        2.15723  -0.00661   0.00000  -0.00582  -0.00581   2.15141
    A8        2.02868   0.00560   0.00000   0.00466   0.00466   2.03334
    A9        2.09718   0.00102   0.00000   0.00116   0.00117   2.09835
   A10        2.09548  -0.00230   0.00000  -0.00906  -0.00906   2.08642
   A11        2.09211  -0.00043   0.00000   0.00153   0.00153   2.09364
   A12        2.09560   0.00273   0.00000   0.00753   0.00753   2.10313
   A13        2.03716  -0.00209   0.00000   0.00258   0.00258   2.03974
   A14        2.08521  -0.00288   0.00000  -0.00609  -0.00609   2.07912
   A15        2.11313  -0.00168   0.00000  -0.00088  -0.00088   2.11225
   A16        2.08484   0.00456   0.00000   0.00697   0.00697   2.09181
   A17        2.19565  -0.00422   0.00000  -0.00487  -0.00487   2.19078
   A18        2.04815  -0.00139   0.00000  -0.00172  -0.00172   2.04643
   A19        2.03937   0.00561   0.00000   0.00659   0.00659   2.04596
   A20        2.08008  -0.00046   0.00000  -0.00116  -0.00116   2.07892
   A21        2.12316  -0.00231   0.00000  -0.00182  -0.00182   2.12134
   A22        2.07995   0.00277   0.00000   0.00298   0.00298   2.08293
   A23        2.10153   0.00192   0.00000   0.00202   0.00202   2.10354
   A24        2.08022  -0.00232   0.00000  -0.00200  -0.00200   2.07822
   A25        2.10144   0.00040   0.00000  -0.00002  -0.00002   2.10142
   A26        2.10323  -0.00284   0.00000  -0.00096  -0.00096   2.10227
   A27        2.09018  -0.00338   0.00000  -0.00744  -0.00744   2.08275
   A28        2.08977   0.00622   0.00000   0.00840   0.00840   2.09817
   A29        1.91092   0.00069   0.00000   0.00312   0.00310   1.91403
   A30        1.91055   0.00403   0.00000   0.00810   0.00808   1.91863
   A31        1.91071   0.00185   0.00000   0.00480   0.00479   1.91550
   A32        1.91104  -0.00170   0.00000  -0.00450  -0.00452   1.90653
   A33        1.91018  -0.00182   0.00000  -0.00502  -0.00503   1.90515
   A34        1.91039  -0.00305   0.00000  -0.00650  -0.00652   1.90387
   A35        1.91151   0.00045   0.00000   0.00324   0.00324   1.91474
   A36        1.91073   0.00101   0.00000   0.00382   0.00382   1.91454
   A37        1.91136   0.00024   0.00000   0.00158   0.00158   1.91294
   A38        1.91192  -0.00224   0.00000  -0.00666  -0.00666   1.90526
   A39        1.90921   0.00049   0.00000  -0.00064  -0.00065   1.90856
   A40        1.90908   0.00006   0.00000  -0.00135  -0.00136   1.90772
    D1       -2.98504  -0.00132   0.00000  -0.00279  -0.00279  -2.98783
[...]
 032694,-0.00032157,-0.00016527,0.00334203,0.00376259,0.00087676,-0.000
 16101,-0.00008389,0.00008418,0.00111053,0.00205249,0.00120099,-0.00233
 321,-0.00125049,-0.00084856,0.14971134,-0.20836809,-0.02793470,-0.1658
 8562,0.21527059,0.00317331,-0.00200846,-0.00463234,-0.00365824,0.00201
 693,0.00174727,0.00096447,-0.00144593,0.00108334,-0.01535843,0.0177913
 6,0.00694648,0.00040548,0.00252682,-0.00388768,-0.00078617,0.00092779,
 0.00062842,-0.00030958,0.00026095,0.00024202,0.00012149,0.00013708,-0.
 00043106,-0.00018960,0.00043222,-0.00090342,-0.00011659,0.00011134,0.0
 0004543,-0.00014412,-0.00018128,0.00010907,0.00319539,0.00110587,-0.00
 432575,0.00082002,-0.00106978,-0.00005576,0.01822209,-0.02086150,0.000
 79431,-0.00130380,-0.00051018,0.00082651,0.03197738,-0.03008413,-0.059
 78538,-0.03700325,0.03082060,0.06166473,-0.00004272,-0.00004437,0.0000
 1767,0.00013812,0.00004118,-0.00013483,-0.00027308,-0.00014334,-0.0001
 4691,0.00007902,0.00024475,0.00008614,0.00066250,-0.00037882,0.0005636
 1,-0.00531295,-0.00355015,-0.00670568,0.00059989,0.00011191,0.00012442
 ,0.01987483,0.00755263,0.00098857,-0.00027534,0.00000239,-0.00057607,-
 0.10238286,0.01365902,0.03811021,-0.00006365,0.00005705,0.00004912,0.0
 0012962,0.00001717,0.00015642,0.00003967,0.00002743,-0.00000419,-0.000
 12176,0.00012520,-0.00001315,-0.00004271,-0.00002743,-0.00001234,0.000
 05820,0.00001639,-0.00015166,0.00001506,0.00001480,-0.00000092,0.52337
 911,-0.00004172,-0.00003481,0.00002996,0.00006821,0.00015591,-0.000277
 71,-0.00004672,-0.00047633,0.00023282,0.00000427,0.00024895,0.00013829
 ,-0.00020665,0.00055991,0.00056949,-0.00789078,-0.00221965,0.00335814,
 0.00027454,0.00037293,0.00007053,0.00453378,0.01082999,0.02533603,-0.0
 0013610,-0.00046653,0.00042274,0.01183061,-0.08846270,-0.01119727,0.00
 012662,-0.00007867,-0.00018861,0.00013181,0.00004875,-0.00003375,0.000
 02606,0.00001760,0.00002947,0.00003636,-0.00006816,0.00000318,-0.00002
 023,-0.00004090,-0.00000989,0.00001131,-0.00003178,0.00010001,0.000012
 14,0.00000737,0.00001221,-0.01953466,0.55600786,0.00001134,0.00003797,
 -0.00020314,-0.00020325,-0.00019651,0.00123862,-0.00039056,0.00052942,
 -0.00057997,0.00069063,-0.00059409,-0.00030085,0.00013400,0.00109222,-
 0.00261116,0.00418537,-0.00984349,0.00151641,-0.00028104,0.00056105,0.
 00018138,0.00854977,0.01616867,-0.04013195,-0.00022952,0.00000250,0.00
 022896,0.04270723,-0.01676472,-0.16641014,-0.00012536,0.00002291,0.000
 32328,-0.00013158,0.00031562,-0.00019636,-0.00000076,0.00002531,-0.000
 00026,0.00021019,-0.00026749,0.00000899,-0.00003037,0.00001197,-0.0000
 0706,-0.00013905,0.00008452,0.00023261,0.00000573,0.00000413,-0.000000
 83,0.03631399,-0.03291370,0.49135199,-0.00009097,0.00009841,-0.0000599
 3,0.00007210,-0.00016727,0.00028127,0.00005666,0.00019414,-0.00022755,
 -0.00000841,-0.00001134,-0.00003768,0.00026982,-0.00018745,-0.00004472
 ,-0.00042917,0.00117208,-0.00023192,-0.00036695,-0.00088804,-0.0001289
 0,-0.00040647,0.00112863,0.00417120,-0.00007055,0.00007539,0.00000278,
 0.00415244,-0.01189831,0.00895539,0.00003584,-0.00000227,-0.00005920,0
 .00002515,-0.00002870,-0.00003483,-0.00000108,0.00000639,-0.00000858,0
 .00001672,-0.00001195,-0.00001816,0.00000259,-0.00000132,-0.00000413,0
 .00001224,-0.00002877,0.00003397,-0.00000170,-0.00000185,0.00000670,-0
 .08019219,0.06720680,-0.06299194,0.08460910,0.00012025,-0.00018924,0.0
 0003493,-0.00011808,0.00024828,-0.00019674,0.00012196,-0.00010317,0.00
 024404,0.00002252,-0.00005136,-0.00001529,-0.00020016,0.00039311,-0.00
 012466,0.00041193,-0.00020587,0.00042073,-0.00086477,0.00005572,-0.000
 37611,0.00150617,0.00073740,-0.00166755,0.00004185,-0.00011432,0.00014
 071,-0.00304028,0.00281856,-0.00466031,0.00000020,0.00000690,0.0000184
 9,-0.00005385,0.00006081,-0.00001385,0.00000058,-0.00000521,0.00001477
 ,0.00001756,-0.00002406,0.00000916,0.00000076,-0.00000324,0.00000621,-
 0.00001125,0.00001593,-0.00000656,0.00000076,0.00000036,-0.00000578,0.
 06606546,-0.17364780,0.12083887,-0.07335692,0.18563581,-0.00011483,0.0
 0010145,0.00006521,0.00015812,-0.00004725,-0.00033561,-0.00004642,0.00
 002429,0.00022214,-0.00012275,0.00008780,0.00012291,-0.00001292,-0.000
 16342,0.00054984,0.00167455,-0.00189220,0.00011389,-0.00018857,-0.0003
 0350,0.00019262,0.00322917,-0.00052438,-0.00660520,0.00008700,0.000038
 59,-0.00036886,-0.01328104,0.02228587,-0.01826138,-0.00006541,0.000025
 96,0.00014823,0.00002825,-0.00009034,0.00013080,0.00000601,-0.00000292
 ,-0.00000958,-0.00009223,0.00009894,0.00003316,-0.00000934,0.00001252,
 -0.00000288,-0.00000998,0.00004674,-0.00008721,0.00000016,0.00000215,-
 0.00000690,-0.06012686,0.11736755,-0.15715284,0.06469211,-0.12900476,0
 .17237317,-0.00002652,0.00002313,-0.00015688,-0.00016704,-0.00013073,0
 .00066964,0.00011081,0.00026399,-0.00040536,0.00025509,-0.00019451,-0.
 00017882,-0.00008909,0.00020147,-0.00105980,0.00141192,-0.00207564,0.0
 0003755,0.00004802,-0.00109968,0.00040158,-0.00060495,0.00442826,-0.00
 144601,-0.00011009,0.00010854,0.00019885,-0.01150742,-0.00018831,0.004
 74180,-0.00000860,-0.00001456,-0.00000537,-0.00000607,0.00010352,-0.00
 012784,-0.00001096,0.00000796,-0.00000492,0.00011724,-0.00012955,-0.00
 002006,-0.00000480,-0.00000547,-0.00000445,-0.00002323,-0.00000752,0.0
 0013865,-0.00000234,-0.00000198,0.00000997,-0.30011126,-0.02254433,-0.
 01267224,-0.01012789,-0.00175447,-0.00043624,0.32812498,-0.00016532,0.
 00024563,-0.00017284,0.00016558,-0.00033820,0.00083783,-0.00009077,0.0
 0055034,-0.00073612,0.00000012,0.00004424,-0.00019974,0.00041491,-0.00
 020316,0.00017369,-0.00057581,0.00101946,-0.00073320,-0.00076500,-0.00
 164925,0.00118549,-0.00010058,0.00013246,0.00193125,-0.00005501,0.0000
 9105,-0.00011282,0.00614308,-0.00142561,-0.00193451,0.00002023,0.00000
 661,-0.00003836,-0.00001431,-0.00001535,-0.00001657,0.00000529,0.00000
 609,-0.00001624,0.00002482,0.00000063,-0.00008351,0.00000708,0.0000044
 5,-0.00000809,0.00002499,-0.00008423,0.00006367,-0.00000424,-0.0000025
 7,0.00001517,-0.02170393,-0.04436958,0.00198765,0.02285967,0.00253121,
 0.00010401,0.02420202,0.04675037,-0.00000379,0.00006970,0.00005778,0.0
 0000696,0.00001772,-0.00032031,0.00001406,-0.00031096,0.00012454,-0.00
 009219,0.00006339,0.00005049,-0.00045595,-0.00023723,0.00003398,-0.001
 08625,0.00223964,0.00189542,0.00079789,0.00216114,-0.00089017,-0.00115
 052,-0.00542074,-0.00085398,0.00014462,-0.00002297,0.00006789,0.032013
 16,0.00419465,0.00059575,0.00000254,-0.00003275,0.00005444,0.00000352,
 0.00000438,0.00001508,-0.00000983,-0.00000855,-0.00000684,-0.00000148,
 0.00000910,0.00000356,0.00000267,0.00000747,-0.00000005,-0.00000937,0.
 00001512,-0.00000206,-0.00000173,0.00000123,0.00000037,-0.00790675,0.0
 0140670,-0.04514268,-0.02035151,-0.00341100,-0.00084286,0.00949043,0.0
 0060250,0.04896937,0.00015893,-0.00025337,0.00015748,-0.00000974,0.000
 42471,-0.00069351,0.00013327,-0.00036893,0.00070385,-0.00003133,-0.000
 06973,0.00017560,-0.00018935,0.00026282,-0.00004206,0.00131847,-0.0010
 5971,0.00015681,-0.00053862,0.00007647,-0.00112567,-0.00083465,0.00017
 421,-0.00176541,0.00005980,-0.00004776,0.00007158,0.00171349,0.0144760
 3,0.00685596,-0.00001074,0.00001413,0.00001859,-0.00001087,-0.00001924
 ,0.00001717,-0.00000349,-0.00000632,0.00001691,-0.00003503,0.00001251,
 0.00007856,0.00000360,0.00000250,0.00001148,-0.00003802,0.00005559,-0.
 00008142,0.00000307,0.00000071,-0.00001588,-0.05258506,-0.04844358,-0.
 02020863,0.00217297,0.01116278,0.00506137,-0.00705337,-0.03038677,-0.0
 1158953,0.05745993,-0.00004488,-0.00000941,0.00007571,0.00006341,-0.00
 007127,-0.00036259,-0.00002751,0.00006535,0.00019349,-0.00017056,0.000
 20122,0.00011402,-0.00025926,-0.00063962,0.00081895,-0.00094378,0.0016
 1595,-0.00072902,0.00002023,0.00036972,0.00034424,0.00136323,-0.002013
 70,0.00221197,0.00014563,0.00001180,-0.00019774,0.00289166,-0.00101242
 ,-0.00484689,-0.00001681,0.00000118,-0.00003019,0.00005232,-0.00005823
 ,0.00012630,0.00000034,-0.00001487,-0.00000187,-0.00009488,0.00012263,
 -0.00000027,-0.00000498,-0.00000464,-0.00000119,0.00005405,0.00000185,
 -0.00010425,0.00000112,0.00000039,-0.00000587,-0.05084028,-0.25834410,
 -0.08096145,-0.00572896,-0.01877564,-0.00809557,-0.00035072,-0.0027637
 1,-0.00048031,0.05444278,0.28097600,-0.00004565,-0.00010637,0.00012717
 ,0.00013199,0.00026118,-0.00074385,0.00031869,-0.00027396,0.00058676,-
 0.00014690,0.00013657,0.00017966,0.00012723,0.00029220,0.00057041,-0.0
 0277007,0.00120924,0.00139141,-0.00222219,0.00021750,-0.00232274,0.006
 31770,-0.00059465,0.00152343,0.00005141,-0.00019737,-0.00002255,-0.007
 22958,-0.02695566,-0.01303749,0.00000096,-0.00002405,0.00006202,0.0000
 0199,-0.00003565,0.00006268,0.00001180,0.00000258,0.00000666,-0.000058
 07,0.00005016,0.00003375,-0.00000839,-0.00000131,0.00000065,-0.0000110
 3,0.00003852,-0.00007322,0.00000046,0.00000245,-0.00000799,-0.02106359
 ,-0.08511469,-0.07870054,0.00559375,0.01890785,0.00816453,-0.00066912,
 -0.00134310,-0.00081853,0.02042477,0.09299554,0.08541404,0.00012520,0.
 00005025,-0.00000705,-0.00007473,0.00007663,0.00017164,-0.00010491,-0.
 00006144,-0.00010325,-0.00030972,-0.00038514,-0.00015576,0.00127556,0.
 00147458,0.00007240,0.01050594,0.00345886,0.00318472,0.00009309,0.0003
 6728,0.00033025,-0.01551392,0.01164381,-0.01052189,0.00018280,0.000014
 31,0.00017517,-0.13185095,0.06909673,0.02031700,0.00013577,0.00004917,
 0.00002291,-0.00018376,-0.00008136,-0.00009865,-0.00002392,-0.00002151
 ,0.00000693,0.00009947,-0.00002928,0.00000834,0.00003753,0.00003454,0.
 00001468,-0.00020266,-0.00015063,0.00003956,-0.00002206,-0.00002477,-0
 .00000340,-0.00462796,0.01068661,0.00509575,0.00049419,0.00052144,-0.0
 0089100,-0.00033680,0.00030132,-0.00004373,-0.00085513,-0.00065738,0.0
 0066854,0.50872867,0.00020186,-0.00006631,-0.00003531,-0.00012065,0.00
 003703,0.00038666,-0.00006393,-0.00000421,-0.00027041,-0.00014717,-0.0
 0043657,-0.00015957,0.00148821,0.00087875,-0.00041939,0.00541750,0.006
 62782,0.00303630,0.00056302,-0.00025169,0.00018473,0.01616339,-0.03238
 049,0.00856978,-0.00000848,0.00018210,0.00020164,0.06754652,-0.1433406
 8,-0.01687059,0.00007463,0.00006997,0.00005871,-0.00021339,0.00001556,
 -0.00010079,-0.00001956,-0.00001432,-0.00000339,0.00008155,-0.00001685
 ,-0.00000990,0.00003585,0.00002196,0.00001361,-0.00009842,-0.00015267,
 -0.00010513,-0.00002060,-0.00002035,0.00000429,0.00502446,0.00057389,-
 0.00201407,-0.00006494,0.00040381,0.00076793,-0.00117933,0.00002705,-0
 .00000286,-0.00040672,0.00022669,0.00097885,0.02304804,0.50305119,-0.0
 0038737,0.00042571,0.00027440,0.00066655,-0.00021315,-0.00144715,-0.00
 009686,-0.00027815,0.00080279,-0.00075270,0.00056421,0.00019511,0.0000
 3769,-0.00037780,0.00334812,-0.00172880,0.00899377,-0.00289799,-0.0001
 6065,0.00077955,-0.00096288,-0.02186000,0.02231644,0.00113008,0.000232
 26,0.00013239,-0.00078614,0.02420528,-0.02158597,-0.08763996,-0.000040
 97,0.00013616,-0.00003310,0.00023259,-0.00050233,0.00026943,0.00000204
 ,0.00000255,-0.00005196,-0.00026965,0.00032711,0.00007752,0.00001138,0
 .00001759,-0.00000791,-0.00009140,0.00005364,-0.00017044,-0.00001386,0
 .00001698,-0.00004405,0.01929693,-0.01923258,-0.00458460,0.00058050,-0
 .00101576,0.00141444,0.00181175,-0.00133209,-0.00297313,0.00190122,-0.
 00143445,-0.00265573,-0.00912564,-0.01569070,0.59186062,-0.00014649,0.
 00012267,0.00005631,0.00017928,-0.00010247,-0.00036542,0.00000223,-0.0
 0004344,0.00016848,-0.00010815,0.00027162,0.00013533,-0.00034079,-0.00
 068239,0.00076684,-0.00287740,0.00061142,-0.00138707,0.00004919,0.0000
 8716,-0.00011442,0.00077814,0.00219837,0.00110973,0.00004167,0.0000252
 6,-0.00028274,0.01012303,0.02196375,-0.00624893,-0.00003960,-0.0000063
 9,-0.00000435,0.00010793,-0.00009936,0.00010124,0.00000554,0.00000346,
 -0.00001456,-0.00009337,0.00009653,0.00000866,-0.00000938,-0.00000443,
 -0.00000644,0.00004585,0.00004388,-0.00004791,0.00000346,0.00000888,-0
 .00000432,0.00008371,-0.00091180,-0.00034137,0.00005601,-0.00019556,0.
 00003761,-0.00000729,0.00002115,0.00006701,0.00012036,-0.00013404,-0.0
 0034929,-0.09016445,-0.09549548,0.02715333,0.09889736,0.00027671,-0.00
 025168,-0.00011758,-0.00039256,0.00020728,0.00064916,0.00004938,0.0000
 4875,-0.00030508,0.00027547,-0.00033893,-0.00026032,0.00014667,0.00102
 373,-0.00138281,0.00322255,-0.00166177,0.00110589,0.00004299,-0.000106
 70,0.00035383,-0.00130504,-0.00136854,-0.00248114,-0.00009411,-0.00003
 741,0.00051531,-0.00725030,-0.02235969,0.00804641,0.00002493,0.0000057
 8,-0.00004207,-0.00014675,0.00020529,-0.00019569,-0.00001433,-0.000003
 13,0.00002308,0.00018262,-0.00018424,-0.00003981,0.00001090,-0.0000054
 1,0.00001019,-0.00005555,-0.00006694,0.00014322,-0.00000602,-0.0000109
 5,0.00000638,0.00083547,0.00129365,0.00097769,-0.00009813,0.00009752,-
 0.00074542,0.00005793,-0.00018308,-0.00029267,-0.00031474,0.00022351,0
 .00004635,-0.09724467,-0.24258256,0.04817445,0.10324202,0.26807453,0.0
 0005414,-0.00006610,-0.00005247,-0.00008068,0.00001031,0.00030695,-0.0
 0005781,0.00012974,-0.00012296,0.00013845,-0.00012504,-0.00014174,0.00
 005952,0.00036685,-0.00036495,-0.00000428,-0.00061352,0.00061408,-0.00
 015893,-0.00010679,-0.00000986,-0.00019532,0.00112422,0.00041452,-0.00
 004002,-0.00002816,0.00011624,-0.00351610,-0.00212267,-0.00007922,0.00
 003079,-0.00001303,0.00002461,-0.00005946,0.00006944,-0.00004898,0.000
 00365,0.00000444,0.00000465,0.00004319,-0.00005907,-0.00001010,0.00000
 177,0.00000408,0.00000155,-0.00002448,0.00000746,0.00003602,-0.0000003
 6,0.00000095,-0.00000216,0.00017421,-0.00012482,0.00018688,-0.00000802
 ,-0.00008594,-0.00031780,-0.00012453,0.00007388,0.00002431,-0.00014841
 ,0.00031229,0.00018328,0.02746643,0.04723600,-0.05841585,-0.02693883,-
 0.05457774,0.05830245,-0.00023721,0.00025893,0.00012786,0.00037069,-0.
 00018275,-0.00066836,-0.00002914,-0.00009130,0.00030516,-0.00036818,0.
 00026380,0.00025122,0.00044973,-0.00053105,0.00150533,-0.00084626,0.00
 315784,-0.00049519,-0.00000538,0.00011220,-0.00031523,-0.00142051,-0.0
 0155879,0.00114847,0.00012817,0.00006792,-0.00047422,-0.01570393,0.000
 25895,-0.01404698,-0.00000783,0.00001819,0.00003744,0.00010169,-0.0002
 3841,0.00017247,0.00000572,-0.00000370,-0.00002309,-0.00016025,0.00019
 098,0.00004369,0.00000082,0.00001261,-0.00000579,-0.00000476,0.0000046
 8,-0.00015926,-0.00000696,-0.00000140,-0.00000861,0.00140034,0.0008128
 3,-0.00019247,-0.00027194,-0.00033105,0.00068227,0.00026778,-0.0003571
 9,-0.00008949,-0.00022032,-0.00003753,0.00018272,-0.20184635,-0.023262
 31,-0.12221280,-0.01174536,-0.00245352,-0.00902831,0.22051244,0.000143
 13,-0.00018773,-0.00007787,-0.00024909,0.00012916,0.00039451,0.0000556
 2,0.00003576,-0.00018174,0.00030926,-0.00014057,-0.00008304,-0.0004019
 0,0.00015810,-0.00116852,-0.00018926,-0.00375744,0.00016900,-0.0000047
 6,-0.00008819,0.00018726,0.00324233,0.00077897,-0.00035720,-0.00010063
 ,-0.00006646,0.00033173,0.02137383,0.00091955,0.01802903,-0.00000931,-
 0.00002379,-0.00002747,-0.00005052,0.00017421,-0.00010358,-0.00000044,
 0.00000231,0.00002057,0.00009776,-0.00013080,-0.00002067,-0.00000561,-
 0.00001192,0.00000254,0.00003505,0.00000989,0.00009487,0.00000850,-0.0
 0000035,0.00001045,-0.00128515,0.00007023,0.00004668,-0.00016038,0.000
 15745,-0.00014543,-0.00016136,0.00006594,0.00027096,0.00012317,-0.0000
 3195,-0.00011761,-0.02216485,-0.04508430,-0.02005613,-0.02302591,-0.00
 387130,-0.01819870,0.02250333,0.05213499,0.00003417,-0.00001312,-0.000
 02568,-0.00005924,-0.00005035,0.00019360,-0.00006991,0.00011249,-0.000
 07857,0.00012453,-0.00006849,-0.00008004,-0.00019078,-0.00000439,-0.00
 028977,-0.00003199,-0.00034956,0.00067856,0.00013369,0.00015765,0.0000
 2626,-0.00080208,-0.00001561,0.00046570,0.00000521,-0.00000028,0.00005
 874,0.00353880,0.00356497,0.00246779,-0.00000726,-0.00004494,0.0000224
 1,-0.00001925,0.00005854,-0.00001165,-0.00000485,-0.00000497,-0.000000
 97,0.00002708,-0.00002312,0.00000336,-0.00000676,-0.00000012,-0.000002
 14,-0.00000949,0.00002065,0.00000979,-0.00000003,0.00000067,-0.0000023
 3,0.00017217,0.00008313,0.00009297,0.00005521,0.00001030,-0.00004973,-
 0.00032805,0.00005055,0.00019371,-0.00012077,0.00011575,0.00008663,-0.
 12089196,-0.02109908,-0.14423261,0.00590676,0.00088464,0.00369805,0.13
 649521,0.02070222,0.15262773,-0.00000904,0.00000792,-0.00002292,-0.000
 00058,-0.00000988,0.00004832,0.00005747,-0.00003348,-0.00008562,-0.000
 03653,0.00005657,0.00000741,0.00008804,-0.00015608,0.00011824,-0.00012
 447,0.00007795,-0.00072098,0.00013932,-0.00021099,0.00013673,0.0012903
 1,-0.00254585,0.00028222,-0.00004986,0.00003714,-0.00002307,-0.0083310
 7,-0.00028305,0.02225546,0.00000117,0.00006981,-0.00004660,0.00000336,
 -0.00000739,-0.00002432,0.00000334,0.00000592,-0.00000187,0.00000965,-
 0.00000555,-0.00003021,0.00000694,-0.00000437,0.00000048,0.00002717,-0
 .00003737,0.00002790,-0.00000011,-0.00000077,0.00000662,-0.00042852,0.
 00401462,0.00003415,-0.00000851,-0.00006783,-0.00025903,-0.00013814,0.
 00002866,0.00024929,-0.00072817,0.00027678,0.00074183,-0.07556088,0.00
 145595,0.08060919,-0.00496151,0.00100809,0.01241341,0.00963701,-0.0000
 8283,-0.02395039,0.07911360,-0.00001857,0.00000291,0.00002399,0.000031
 70,-0.00000591,-0.00006362,-0.00005791,0.00003621,0.00008955,0.0000374
 5,-0.00003318,0.00000086,-0.00009654,0.00013527,-0.00005039,-0.0002074
 4,-0.00024099,0.00048964,-0.00010918,0.00019865,-0.00014063,-0.0016892
 4,0.00165057,-0.00080118,0.00002943,-0.00005699,-0.00001375,0.00809357
 ,-0.00086810,-0.02556604,0.00004802,-0.00004233,0.00006904,-0.00000951
 ,-0.00001262,0.00003366,0.00000528,0.00000036,0.00000213,-0.00002371,0
 .00001170,0.00003054,-0.00000454,0.00000909,-0.00000024,-0.00002308,0.
 00004638,-0.00003231,0.00000131,0.00000245,-0.00000653,0.00371283,-0.0
 0194604,0.00084835,-0.00010494,-0.00004296,0.00005139,0.00044132,-0.00
 044078,-0.00084365,0.00014843,-0.00007671,-0.00037456,-0.00000255,-0.0
 4776481,-0.00022140,-0.00799490,0.00185229,0.02678192,0.00138671,-0.00
 124177,-0.00408751,-0.00359396,0.04882730,0.00004355,-0.00005659,-0.00
 000052,-0.00005599,0.00006283,0.00001980,-0.00002434,0.00001527,0.0000
 3743,0.00005537,-0.00005729,-0.00001212,-0.00003114,0.00013075,-0.0002
 3504,-0.00000517,-0.00037821,0.00066724,-0.00011871,0.00016906,-0.0000
 5284,-0.00186642,0.00180368,0.00043468,-0.00000370,-0.00003725,0.00007
 787,0.00124083,-0.00008921,-0.00479695,0.00000805,0.00000278,0.0000119
 7,-0.00001899,0.00002721,-0.00002123,-0.00000025,0.00000017,0.00000795
 ,0.00001532,-0.00002466,0.00001039,0.00000090,-0.00000074,0.00000262,-
 0.00000796,0.00001115,0.00000173,0.00000141,-0.00000022,-0.00000231,0.
 00078950,-0.00006721,0.00066027,-0.00016579,-0.00006175,0.00050991,0.0
 0013950,-0.00029850,-0.00023612,0.00013993,-0.00005659,-0.00001046,0.0
 8426802,-0.00465730,-0.29246899,0.00059437,-0.00049628,-0.00434753,0.0
 0676797,0.00027815,-0.01585180,-0.09176625,0.00378074,0.31559405\\0.00
 000030,-0.00000118,0.00000229,-0.00000119,0.00000072,0.00000057,0.0000
 0095,-0.00000161,0.00000150,-0.00000002,-0.00000003,0.00000096,-0.0000
 0008,0.00000020,-0.00000003,-0.00000522,0.00000250,0.00000944,0.000006
 04,-0.00000278,-0.00001078,-0.00000050,0.00000048,-0.00000032,-0.00000
 217,0.00000247,0.00000015,0.00000090,-0.00000016,0.00000041,0.00000050
 ,-0.00000034,-0.00000046,-0.00000199,0.00000136,0.00000243,-0.00000069
 ,0.00000129,-0.00000108,-0.00000055,-0.00000056,0.00000315,-0.00000196
 ,0.00000238,-0.00000001,0.00000076,-0.00000107,0.00000037,-0.00000201,
 0.00000155,0.00000235,0.00000241,-0.00000254,-0.00000238,0.00000105,-0
 .00000076,-0.00000206,-0.00000075,-0.00000213,0.00000063,0.00000168,0.
 00000060,0.00000028,0.00000034,0.00000113,-0.00000431,0.00000062,-0.00
 000145,-0.00000168,0.00000181,-0.00000038,-0.00000124,-0.00000020,0.00
 000029,-0.00000018\\\@
 Job cpu time:       1 days  5 hours 42 minutes  0.6 seconds.
 File lengths (MBytes):  RWF= 195805 Int=      0 D2E=      0 Chk=    164 Scr=      1
 Normal termination of Gaussian 09 at Fri Aug 27 08:57:11 2021.
