 Entering Gaussian System, Link 0=g09
 Input=G4.DNITPY.gjf
 Output=G4.DNITPY.log
 Initial command:
 /public/home/users/caep010/software/Gaussian09/g09/l1.exe "/public/home/users/caep010/.cache/gau_scr/Gau-221437.inp" -scrdir="/public/home/users/caep010/.cache/gau_scr/"
 Entering Link 1 = /public/home/users/caep010/software/Gaussian09/g09/l1.exe PID=    221438.
  
 Copyright (c) 1988,1990,1992,1993,1995,1998,2003,2009,2015,
            Gaussian, Inc.  All Rights Reserved.
  
 This is part of the Gaussian(R) 09 program.  It is based on
 the Gaussian(R) 03 system (copyright 2003, Gaussian, Inc.),
 the Gaussian(R) 98 system (copyright 1998, Gaussian, Inc.),
 the Gaussian(R) 94 system (copyright 1995, Gaussian, Inc.),
 the Gaussian 92(TM) system (copyright 1992, Gaussian, Inc.),
 the Gaussian 90(TM) system (copyright 1990, Gaussian, Inc.),
 the Gaussian 88(TM) system (copyright 1988, Gaussian, Inc.),
 the Gaussian 86(TM) system (copyright 1986, Carnegie Mellon
 University), and the Gaussian 82(TM) system (copyright 1983,
 Carnegie Mellon University). Gaussian is a federally registered
 trademark of Gaussian, Inc.
  
 This software contains proprietary and confidential information,
 including trade secrets, belonging to Gaussian, Inc.
  
 This software is provided under written license and may be
 used, copied, transmitted, or stored only in accord with that
 written license.
  
 The following legend is applicable only to US Government
 contracts under FAR:
  
                    RESTRICTED RIGHTS LEGEND
  
 Use, reproduction and disclosure by the US Government is
 subject to restrictions as set forth in subparagraphs (a)
 and (c) of the Commercial Computer Software - Restricted
 Rights clause in FAR 52.227-19.
  
 Gaussian, Inc.
 340 Quinnipiac St., Bldg. 40, Wallingford CT 06492
  
  
 ---------------------------------------------------------------
 Warning -- This program may not be used in any manner that
 competes with the business of Gaussian, Inc. or will provide
 assistance to any competitor of Gaussian, Inc.  The licensee
 of this program is prohibited from giving any competitor of
 Gaussian, Inc. access to this program.  By using this program,
 the user acknowledges that Gaussian, Inc. is engaged in the
 business of creating and licensing software in the field of
 computational chemistry and represents and warrants to the
 licensee that it is not a competitor of Gaussian, Inc. and that
 it will not use this program in any manner prohibited above.
 ---------------------------------------------------------------
  

 Cite this work as:
 Gaussian 09, Revision E.01,
 M. J. Frisch, G. W. Trucks, H. B. Schlegel, G. E. Scuseria, 
 M. A. Robb, J. R. Cheeseman, G. Scalmani, V. Barone, B. Mennucci, 
 G. A. Petersson, H. Nakatsuji, M. Caricato, X. Li, H. P. Hratchian, 
 A. F. Izmaylov, J. Bloino, G. Zheng, J. L. Sonnenberg, M. Hada, 
 M. Ehara, K. Toyota, R. Fukuda, J. Hasegawa, M. Ishida, T. Nakajima, 
 Y. Honda, O. Kitao, H. Nakai, T. Vreven, J. A. Montgomery, Jr., 
 J. E. Peralta, F. Ogliaro, M. Bearpark, J. J. Heyd, E. Brothers, 
 K. N. Kudin, V. N. Staroverov, T. Keith, R. Kobayashi, J. Normand, 
 K. Raghavachari, A. Rendell, J. C. Burant, S. S. Iyengar, J. Tomasi, 
 M. Cossi, N. Rega, J. M. Millam, M. Klene, J. E. Knox, J. B. Cross, 
 V. Bakken, C. Adamo, J. Jaramillo, R. Gomperts, R. E. Stratmann, 
 O. Yazyev, A. J. Austin, R. Cammi, C. Pomelli, J. W. Ochterski, 
 R. L. Martin, K. Morokuma, V. G. Zakrzewski, G. A. Voth, 
 P. Salvador, J. J. Dannenberg, S. Dapprich, A. D. Daniels, 
 O. Farkas, J. B. Foresman, J. V. Ortiz, J. Cioslowski, 
 and D. J. Fox, Gaussian, Inc., Wallingford CT, 2013.
 
 ******************************************
 Gaussian 09:  ES64L-G09RevE.01 30-Nov-2015
                26-Aug-2021 
 ******************************************
 %nproc=32
 Will use up to   32 processors via shared memory.
 %mem=180GB
 ----------------
 #P G4 OPT=calcfc
 ----------------
 1/10=4,14=-1,18=20,19=15,26=3,38=1/1,3;
 2/9=110,12=2,17=6,18=5,40=1/2;
 3/5=35,7=104,11=2,16=1,25=1,30=1,71=2,74=-5,140=1/1,2,3;
 4//1;
 5/5=2,38=5/2;
 8/6=4,10=90,11=11/1;
 11/6=1,8=1,9=11,15=111,16=1/1,2,10;
 10/6=1,13=1/2;
 6/7=2,8=2,9=2,10=2,28=1/1;
 7/10=1,18=20,25=1/1,2,3,16;
 1/10=4,14=-1,18=20,19=15,26=3/3(2);
 2/9=110/2;
 99//99;
 2/9=110/2;
 3/5=35,7=104,11=2,16=1,25=1,30=1,71=1,74=-5/1,2,3;
 4/5=5,16=3,69=1/1;
 5/5=2,38=5/2;
 7//1,2,3,16;
 1/14=-1,18=20,19=15,26=3/3(-5);
 2/9=110/2;
 6/7=2,8=2,9=2,10=2,19=2,28=1/1;
 99/9=1/99;
 Leave Link    1 at Thu Aug 26 12:12:16 2021, MaxMem= 24159191040 cpu:         3.3
 (Enter /public/home/users/caep010/software/Gaussian09/g09/l101.exe)
 ------
 DNITPY
 ------
 Symbolic Z-matrix:
 Charge =  0 Multiplicity = 1
 C                     3.8247    2.4284   -1.1062 
 H                     4.5214    1.8102   -0.8541 
 N                     3.6492    3.5356   -0.3956 
 C                     2.6967    4.3734   -0.7939 
 C                     3.0648    2.1408   -2.2132 
 H                     2.5097    5.2043   -0.2794 
 C                     2.0884    2.9862   -2.6413 
 H                     1.5337    2.7799   -3.3477 
 N                     3.3175    0.8875   -2.9343 
 O                     2.7232    0.7107   -3.9756 
 O                     4.1015    0.0947   -2.4396 
 C                     1.9231    4.1277   -1.9027 
 N                     0.9059    5.1102   -2.2958 
 O                     0.2673    4.8716   -3.2923 
 O                     0.7794    6.1057   -1.6118 
 
 NAtoms=     15 NQM=       15 NQMF=       0 NMMI=      0 NMMIF=      0
                NMic=       0 NMicF=      0.
                    Isotopes and Nuclear Properties:
 (Nuclear quadrupole moments (NQMom) in fm**2, nuclear magnetic moments (NMagM)
  in nuclear magnetons)

  Atom         1           2           3           4           5           6           7           8           9          10
 IAtWgt=          12           1          14          12          12           1          12           1          14          16
 AtmWgt=  12.0000000   1.0078250  14.0030740  12.0000000  12.0000000   1.0078250  12.0000000   1.0078250  14.0030740  15.9949146
 NucSpn=           0           1           2           0           0           1           0           1           2           0
 AtZEff=   0.0000000   0.0000000   0.0000000   0.0000000   0.0000000   0.0000000   0.0000000   0.0000000   0.0000000   0.0000000
 NQMom=    0.0000000   0.0000000   2.0440000   0.0000000   0.0000000   0.0000000   0.0000000   0.0000000   2.0440000   0.0000000
 NMagM=    0.0000000   2.7928460   0.4037610   0.0000000   0.0000000   2.7928460   0.0000000   2.7928460   0.4037610   0.0000000
 AtZNuc=   6.0000000   1.0000000   7.0000000   6.0000000   6.0000000   1.0000000   6.0000000   1.0000000   7.0000000   8.0000000

  Atom        11          12          13          14          15
 IAtWgt=          16          12          14          16          16
 AtmWgt=  15.9949146  12.0000000  14.0030740  15.9949146  15.9949146
 NucSpn=           0           0           2           0           0
 AtZEff=   0.0000000   0.0000000   0.0000000   0.0000000   0.0000000
 NQMom=    0.0000000   0.0000000   2.0440000   0.0000000   0.0000000
 NMagM=    0.0000000   0.0000000   0.4037610   0.0000000   0.0000000
 AtZNuc=   8.0000000   6.0000000   7.0000000   8.0000000   8.0000000
 Leave Link  101 at Thu Aug 26 12:12:16 2021, MaxMem= 24159191040 cpu:        10.1
 (Enter /public/home/users/caep010/software/Gaussian09/g09/l103.exe)

 GradGradGradGradGradGradGradGradGradGradGradGradGradGradGradGradGradGrad
 Berny optimization.
 Initialization pass.
                           ----------------------------
                           !    Initial Parameters    !
                           ! (Angstroms and Degrees)  !
 --------------------------                            --------------------------
 ! Name  Definition              Value          Derivative Info.                !
 --------------------------------------------------------------------------------
 ! R1    R(1,2)                  0.9649         calculate D2E/DX2 analytically  !
 ! R2    R(1,3)                  1.3273         calculate D2E/DX2 analytically  !
 ! R3    R(1,5)                  1.3732         calculate D2E/DX2 analytically  !
 ! R4    R(3,4)                  1.3296         calculate D2E/DX2 analytically  !
 ! R5    R(4,6)                  0.995          calculate D2E/DX2 analytically  !
 ! R6    R(4,12)                 1.3741         calculate D2E/DX2 analytically  !
 ! R7    R(5,7)                  1.3606         calculate D2E/DX2 analytically  !
 ! R8    R(5,9)                  1.4679         calculate D2E/DX2 analytically  !
 ! R9    R(7,8)                  0.9215         calculate D2E/DX2 analytically  !
 ! R10   R(7,12)                 1.3696         calculate D2E/DX2 analytically  !
 ! R11   R(9,10)                 1.2119         calculate D2E/DX2 analytically  !
 ! R12   R(9,11)                 1.2198         calculate D2E/DX2 analytically  !
 ! R13   R(12,13)                1.4678         calculate D2E/DX2 analytically  !
 ! R14   R(13,14)                1.2074         calculate D2E/DX2 analytically  !
 ! R15   R(13,15)                1.2144         calculate D2E/DX2 analytically  !
 ! A1    A(2,1,3)              119.3425         calculate D2E/DX2 analytically  !
 ! A2    A(2,1,5)              118.4237         calculate D2E/DX2 analytically  !
 ! A3    A(3,1,5)              122.2184         calculate D2E/DX2 analytically  !
 ! A4    A(1,3,4)              117.3861         calculate D2E/DX2 analytically  !
 ! A5    A(3,4,6)              120.3925         calculate D2E/DX2 analytically  !
 ! A6    A(3,4,12)             122.1649         calculate D2E/DX2 analytically  !
 ! A7    A(6,4,12)             117.4346         calculate D2E/DX2 analytically  !
 ! A8    A(1,5,7)              121.3744         calculate D2E/DX2 analytically  !
 ! A9    A(1,5,9)              118.6588         calculate D2E/DX2 analytically  !
 ! A10   A(7,5,9)              119.9657         calculate D2E/DX2 analytically  !
 ! A11   A(5,7,8)              122.278          calculate D2E/DX2 analytically  !
 ! A12   A(5,7,12)             115.7709         calculate D2E/DX2 analytically  !
 ! A13   A(8,7,12)             121.8232         calculate D2E/DX2 analytically  !
 ! A14   A(5,9,10)             117.5315         calculate D2E/DX2 analytically  !
 ! A15   A(5,9,11)             117.7979         calculate D2E/DX2 analytically  !
 ! A16   A(10,9,11)            124.6683         calculate D2E/DX2 analytically  !
 ! A17   A(4,12,7)             121.0788         calculate D2E/DX2 analytically  !
 ! A18   A(4,12,13)            119.1141         calculate D2E/DX2 analytically  !
 ! A19   A(7,12,13)            119.8071         calculate D2E/DX2 analytically  !
 ! A20   A(12,13,14)           117.0839         calculate D2E/DX2 analytically  !
 ! A21   A(12,13,15)           118.0362         calculate D2E/DX2 analytically  !
 ! A22   A(14,13,15)           124.8722         calculate D2E/DX2 analytically  !
 ! D1    D(2,1,3,4)            178.6272         calculate D2E/DX2 analytically  !
 ! D2    D(5,1,3,4)              0.0757         calculate D2E/DX2 analytically  !
 ! D3    D(2,1,5,7)           -178.3933         calculate D2E/DX2 analytically  !
 ! D4    D(2,1,5,9)              1.9859         calculate D2E/DX2 analytically  !
 ! D5    D(3,1,5,7)              0.1709         calculate D2E/DX2 analytically  !
 ! D6    D(3,1,5,9)           -179.4499         calculate D2E/DX2 analytically  !
 ! D7    D(1,3,4,6)            178.2842         calculate D2E/DX2 analytically  !
 ! D8    D(1,3,4,12)            -0.6642         calculate D2E/DX2 analytically  !
 ! D9    D(3,4,12,7)             1.0284         calculate D2E/DX2 analytically  !
 ! D10   D(3,4,12,13)         -178.9249         calculate D2E/DX2 analytically  !
 ! D11   D(6,4,12,7)          -177.9496         calculate D2E/DX2 analytically  !
 ! D12   D(6,4,12,13)            2.0971         calculate D2E/DX2 analytically  !
 ! D13   D(1,5,7,8)           -175.7958         calculate D2E/DX2 analytically  !
 ! D14   D(1,5,7,12)             0.1609         calculate D2E/DX2 analytically  !
 ! D15   D(9,5,7,8)              3.8201         calculate D2E/DX2 analytically  !
 ! D16   D(9,5,7,12)           179.7768         calculate D2E/DX2 analytically  !
 ! D17   D(1,5,9,10)          -173.3604         calculate D2E/DX2 analytically  !
 ! D18   D(1,5,9,11)             7.1689         calculate D2E/DX2 analytically  !
 ! D19   D(7,5,9,10)             7.0133         calculate D2E/DX2 analytically  !
 ! D20   D(7,5,9,11)          -172.4574         calculate D2E/DX2 analytically  !
 ! D21   D(5,7,12,4)            -0.7314         calculate D2E/DX2 analytically  !
 ! D22   D(5,7,12,13)          179.2215         calculate D2E/DX2 analytically  !
 ! D23   D(8,7,12,4)           175.2454         calculate D2E/DX2 analytically  !
 ! D24   D(8,7,12,13)           -4.8017         calculate D2E/DX2 analytically  !
 ! D25   D(4,12,13,14)         178.4108         calculate D2E/DX2 analytically  !
 ! D26   D(4,12,13,15)          -0.6308         calculate D2E/DX2 analytically  !
 ! D27   D(7,12,13,14)          -1.543          calculate D2E/DX2 analytically  !
 ! D28   D(7,12,13,15)         179.4153         calculate D2E/DX2 analytically  !
 --------------------------------------------------------------------------------
 Trust Radius=3.00D-01 FncErr=1.00D-07 GrdErr=1.00D-06
 Number of steps in this run=     75 maximum allowed number of steps=    100.
 GradGradGradGradGradGradGradGradGradGradGradGradGradGradGradGradGradGrad

 Leave Link  103 at Thu Aug 26 12:12:16 2021, MaxMem= 24159191040 cpu:         0.5
 (Enter /public/home/users/caep010/software/Gaussian09/g09/l202.exe)
                          Input orientation:                          
 ---------------------------------------------------------------------
 Center     Atomic      Atomic             Coordinates (Angstroms)
 Number     Number       Type             X           Y           Z
 ---------------------------------------------------------------------
      1          6           0        3.824700    2.428400   -1.106200
      2          1           0        4.521400    1.810200   -0.854100
      3          7           0        3.649200    3.535600   -0.395600
      4          6           0        2.696700    4.373400   -0.793900
      5          6           0        3.064800    2.140800   -2.213200
      6          1           0        2.509700    5.204300   -0.279400
      7          6           0        2.088400    2.986200   -2.641300
      8          1           0        1.533700    2.779900   -3.347700
      9          7           0        3.317500    0.887500   -2.934300
     10          8           0        2.723200    0.710700   -3.975600
     11          8           0        4.101500    0.094700   -2.439600
     12          6           0        1.923100    4.127700   -1.902700
     13          7           0        0.905900    5.110200   -2.295800
     14          8           0        0.267300    4.871600   -3.292300
     15          8           0        0.779400    6.105700   -1.611800
 ---------------------------------------------------------------------
                    Distance matrix (angstroms):
                    1          2          3          4          5
     1  C    0.000000
     2  H    0.964944   0.000000
     3  N    1.327270   1.986947   0.000000
     4  C    2.270009   3.146927   1.329589   0.000000
     5  C    1.373175   2.019439   2.364458   2.671032   0.000000
     6  H    3.180950   3.987121   2.023987   0.995025   3.665072
     7  C    2.383781   3.239838   2.789463   2.388983   1.360635
     8  H    3.224369   4.010575   3.709625   3.227027   2.009927
     9  N    2.444090   2.574487   3.683403   4.137415   1.467857
    10  O    3.520973   3.766455   4.653379   4.851730   2.295197
    11  O    2.701986   2.373408   4.027692   4.794691   2.304892
    12  C    2.671725   3.636142   2.366718   1.374141   2.312501
    13  N    4.138429   5.102974   3.689962   2.450621   3.672194
    14  O    4.837701   5.780515   4.648980   3.520254   4.055580
    15  O    4.801252   5.746999   4.039840   2.710325   4.615752
                    6          7          8          9         10
     6  H    0.000000
     7  C    3.267420   0.000000
     8  H    4.030478   0.921549   0.000000
     9  N    5.131841   2.449710   2.633253   0.000000
    10  O    5.822364   2.713158   2.467946   1.211923   0.000000
    11  O    5.771335   3.529026   3.824728   1.219802   2.153709
    12  C    2.034274   1.369626   2.014007   3.675248   4.075900
    13  N    2.578158   2.455413   2.632665   4.904558   5.047763
    14  O    3.770492   2.700915   2.445822   5.030401   4.879696
    15  O    2.362573   3.536189   3.826652   5.951518   6.202575
                   11         12         13         14         15
    11  O    0.000000
    12  C    4.615060   0.000000
    13  N    5.948763   1.467832   0.000000
    14  O    6.184413   2.286055   1.207374   0.000000
    15  O    6.917638   2.303293   1.214446   2.146935   0.000000
 Stoichiometry    C5H3N3O4
 Framework group  C1[X(C5H3N3O4)]
 Deg. of freedom    39
 Full point group                 C1      NOp   1
 Largest Abelian subgroup         C1      NOp   1
 Largest concise Abelian subgroup C1      NOp   1
                         Standard orientation:                         
 ---------------------------------------------------------------------
 Center     Atomic      Atomic             Coordinates (Angstroms)
 Number     Number       Type             X           Y           Z
 ---------------------------------------------------------------------
      1          6           0        1.134633    1.505053   -0.039509
      2          1           0        1.976282    1.975170   -0.081146
      3          7           0        0.002210    2.197340   -0.040651
      4          6           0       -1.135185    1.509425   -0.010433
      5          6           0        1.153482    0.132321   -0.010161
      6          1           0       -2.009652    1.983445    0.015767
      7          6           0        0.001676   -0.591548    0.015980
      8          1           0       -0.000799   -1.509879    0.092887
      9          7           0        2.451051   -0.553821    0.001209
     10          8           0        2.446892   -1.761734   -0.097200
     11          8           0        3.454768    0.129308    0.118699
     12          6           0       -1.158949    0.135607    0.007533
     13          7           0       -2.453483   -0.556222    0.016696
     14          8           0       -2.431781   -1.763320    0.002663
     15          8           0       -3.462157    0.120125    0.019745
 ---------------------------------------------------------------------
 Rotational constants (GHZ):      2.0554229      0.6217339      0.4777508
 Leave Link  202 at Thu Aug 26 12:12:16 2021, MaxMem= 24159191040 cpu:         0.4
 (Enter /public/home/users/caep010/software/Gaussian09/g09/l301.exe)
 Standard basis: GTBas3 (6D, 7F)
 Ernie: Thresh=  0.10000D-02 Tol=  0.10000D-05 Strict=F.
 There are   387 symmetry adapted cartesian basis functions of A   symmetry.
 There are   351 symmetry adapted basis functions of A   symmetry.
   351 basis functions,   549 primitive gaussians,   387 cartesian basis functions
    43 alpha electrons       43 beta electrons
       nuclear repulsion energy       678.2838770924 Hartrees.
 IExCor=  402 DFT=T Ex+Corr=B3LYP ExCW=0 ScaHFX=  0.200000
 ScaDFX=  0.800000  0.720000  1.000000  0.810000 ScalE2=  1.000000  1.000000
 IRadAn=      0 IRanWt=     -1 IRanGd=            0 ICorTp=0 IEmpDi=  4
 NAtoms=   15 NActive=   15 NUniq=   15 SFac= 1.00D+00 NAtFMM=   60 NAOKFM=F Big=F
 Integral buffers will be    131072 words long.
 Raffenetti 2 integral format.
 Two-electron integral symmetry is turned on.
 Leave Link  301 at Thu Aug 26 12:12:16 2021, MaxMem= 24159191040 cpu:         2.4
 (Enter /public/home/users/caep010/software/Gaussian09/g09/l302.exe)
 NPDir=0 NMtPBC=     1 NCelOv=     1 NCel=       1 NClECP=     1 NCelD=      1
         NCelK=      1 NCelE2=     1 NClLst=     1 CellRange=     0.0.
 One-electron integrals computed using PRISM.
 NBasis=   351 RedAO= T EigKep=  1.04D-04  NBF=   351
 NBsUse=   351 1.00D-06 EigRej= -1.00D+00 NBFU=   351
 Precomputing XC quadrature grid using
 IXCGrd= 4 IRadAn=           0 IRanWt=          -1 IRanGd=           0 AccXCQ= 0.00D+00.
 Generated NRdTot=       0 NPtTot=           0 NUsed=           0 NTot=          32
 NSgBfM=   386   386   387   387   387 MxSgAt=    15 MxSgA2=    15.
 Leave Link  302 at Thu Aug 26 12:12:17 2021, MaxMem= 24159191040 cpu:        17.2
 (Enter /public/home/users/caep010/software/Gaussian09/g09/l303.exe)
 DipDrv:  MaxL=1.
 Leave Link  303 at Thu Aug 26 12:12:17 2021, MaxMem= 24159191040 cpu:         1.0
 (Enter /public/home/users/caep010/software/Gaussian09/g09/l401.exe)
 ExpMin= 1.61D-01 ExpMax= 5.48D+03 ExpMxC= 8.25D+02 IAcc=1 IRadAn=         1 AccDes= 0.00D+00
 Harris functional with IExCor=  402 and IRadAn=       1 diagonalized for initial guess.
 HarFok:  IExCor=  402 AccDes= 0.00D+00 IRadAn=         1 IDoV= 1 UseB2=F ITyADJ=14
 ICtDFT=  3500011 ScaDFX=  1.000000  1.000000  1.000000  1.000000
 FoFCou: FMM=F IPFlag=           0 FMFlag=      100000 FMFlg1=           0
         NFxFlg=           0 DoJE=T BraDBF=F KetDBF=T FulRan=T
         wScrn=  0.000000 ICntrl=     500 IOpCl=  0 I1Cent=   200000004 NGrid=           0
         NMat0=    1 NMatS0=      1 NMatT0=    0 NMatD0=    1 NMtDS0=    0 NMtDT0=    0
 Petite list used in FoFCou.
 Harris En= -657.319620171891    
 JPrj=0 DoOrth=F DoCkMO=F.
 Leave Link  401 at Thu Aug 26 12:12:18 2021, MaxMem= 24159191040 cpu:        17.4
 (Enter /public/home/users/caep010/software/Gaussian09/g09/l502.exe)
 Closed shell SCF:
 Using DIIS extrapolation, IDIIS=  1040.
 Integral symmetry usage will be decided dynamically.
 Keep R1 ints in memory in canonical form, NReq=1937856343.
 IVT=      483025 IEndB=      483025 NGot= 24159191040 MDV= 22250540040
 LenX= 22250540040 LenY= 22250389830
 Requested convergence on RMS density matrix=1.00D-08 within 128 cycles.
 Requested convergence on MAX density matrix=1.00D-06.
 Requested convergence on             energy=1.00D-06.
 No special actions if energy rises.
 FoFCou: FMM=F IPFlag=           0 FMFlag=           0 FMFlg1=           0
         NFxFlg=           0 DoJE=F BraDBF=F KetDBF=F FulRan=T
         wScrn=  0.000000 ICntrl=     600 IOpCl=  0 I1Cent=           0 NGrid=           0
         NMat0=    1 NMatS0=  61776 NMatT0=    0 NMatD0=    1 NMtDS0=    0 NMtDT0=    0
 Symmetry not used in FoFCou.
 Integral accuracy reduced to 1.0D-05 until final iterations.

 Cycle   1  Pass 0  IDiag  1:
 E= -656.902403229725    
 DIIS: error= 3.60D-02 at cycle   1 NSaved=   1.
 NSaved= 1 IEnMin= 1 EnMin= -656.902403229725     IErMin= 1 ErrMin= 3.60D-02
 ErrMax= 3.60D-02  0.00D+00 EMaxC= 1.00D-01 BMatC= 5.17D-01 BMatP= 5.17D-01
 IDIUse=3 WtCom= 6.40D-01 WtEn= 3.60D-01
 Coeff-Com:  0.100D+01
 Coeff-En:   0.100D+01
 Coeff:      0.100D+01
 Gap=     0.174 Goal=   None    Shift=    0.000
 GapD=    0.174 DampG=1.000 DampE=0.500 DampFc=0.5000 IDamp=-1.
 Damping current iteration by 5.00D-01
 RMSDP=3.95D-03 MaxDP=2.46D-01              OVMax= 3.39D-01

 Cycle   2  Pass 0  IDiag  1:
 E= -656.965453347804     Delta-E=       -0.063050118079 Rises=F Damp=T
 DIIS: error= 1.67D-02 at cycle   2 NSaved=   2.
 NSaved= 2 IEnMin= 2 EnMin= -656.965453347804     IErMin= 2 ErrMin= 1.67D-02
 ErrMax= 1.67D-02  0.00D+00 EMaxC= 1.00D-01 BMatC= 1.10D-01 BMatP= 5.17D-01
 IDIUse=3 WtCom= 8.33D-01 WtEn= 1.67D-01
 Coeff-Com:  0.282D+00 0.718D+00
 Coeff-En:   0.426D+00 0.574D+00
 Coeff:      0.306D+00 0.694D+00
 Gap=     0.175 Goal=   None    Shift=    0.000
 RMSDP=1.00D-03 MaxDP=5.97D-02 DE=-6.31D-02 OVMax= 2.18D-01

 Cycle   3  Pass 0  IDiag  1:
 E= -657.265772698722     Delta-E=       -0.300319350918 Rises=F Damp=F
 DIIS: error= 4.81D-03 at cycle   3 NSaved=   3.
 NSaved= 3 IEnMin= 3 EnMin= -657.265772698722     IErMin= 3 ErrMin= 4.81D-03
 ErrMax= 4.81D-03  0.00D+00 EMaxC= 1.00D-01 BMatC= 1.03D-02 BMatP= 1.10D-01
 IDIUse=3 WtCom= 9.52D-01 WtEn= 4.81D-02
 Coeff-Com:  0.837D-01 0.229D+00 0.687D+00
 Coeff-En:   0.000D+00 0.000D+00 0.100D+01
 Coeff:      0.797D-01 0.218D+00 0.702D+00
 Gap=     0.178 Goal=   None    Shift=    0.000
 RMSDP=5.22D-04 MaxDP=2.77D-02 DE=-3.00D-01 OVMax= 6.25D-02

 Cycle   4  Pass 0  IDiag  1:
 E= -657.269570364449     Delta-E=       -0.003797665727 Rises=F Damp=F
 DIIS: error= 5.96D-03 at cycle   4 NSaved=   4.
 NSaved= 4 IEnMin= 4 EnMin= -657.269570364449     IErMin= 3 ErrMin= 4.81D-03
 ErrMax= 5.96D-03  0.00D+00 EMaxC= 1.00D-01 BMatC= 6.94D-03 BMatP= 1.03D-02
 IDIUse=3 WtCom= 9.40D-01 WtEn= 5.96D-02
 Coeff-Com:  0.305D-01 0.666D-01 0.445D+00 0.458D+00
 Coeff-En:   0.000D+00 0.000D+00 0.398D+00 0.602D+00
 Coeff:      0.287D-01 0.627D-01 0.442D+00 0.466D+00
 Gap=     0.187 Goal=   None    Shift=    0.000
 RMSDP=2.83D-04 MaxDP=1.49D-02 DE=-3.80D-03 OVMax= 3.92D-02

 Cycle   5  Pass 0  IDiag  1:
 E= -657.275002068086     Delta-E=       -0.005431703637 Rises=F Damp=F
 DIIS: error= 1.86D-03 at cycle   5 NSaved=   5.
 NSaved= 5 IEnMin= 5 EnMin= -657.275002068086     IErMin= 5 ErrMin= 1.86D-03
 ErrMax= 1.86D-03  0.00D+00 EMaxC= 1.00D-01 BMatC= 1.51D-03 BMatP= 6.94D-03
 IDIUse=3 WtCom= 9.81D-01 WtEn= 1.86D-02
 Coeff-Com:  0.108D-01 0.131D-01 0.220D+00 0.336D+00 0.419D+00
 Coeff-En:   0.000D+00 0.000D+00 0.000D+00 0.163D+00 0.837D+00
 Coeff:      0.106D-01 0.128D-01 0.216D+00 0.333D+00 0.427D+00
 Gap=     0.185 Goal=   None    Shift=    0.000
 RMSDP=1.33D-04 MaxDP=9.23D-03 DE=-5.43D-03 OVMax= 1.71D-02

 Cycle   6  Pass 0  IDiag  1:
 E= -657.276002912042     Delta-E=       -0.001000843956 Rises=F Damp=F
 DIIS: error= 6.83D-04 at cycle   6 NSaved=   6.
 NSaved= 6 IEnMin= 6 EnMin= -657.276002912042     IErMin= 6 ErrMin= 6.83D-04
 ErrMax= 6.83D-04  0.00D+00 EMaxC= 1.00D-01 BMatC= 3.57D-04 BMatP= 1.51D-03
 IDIUse=3 WtCom= 9.93D-01 WtEn= 6.83D-03
 Coeff-Com:  0.297D-02-0.192D-02 0.901D-01 0.177D+00 0.334D+00 0.397D+00
 Coeff-En:   0.000D+00 0.000D+00 0.000D+00 0.000D+00 0.210D+00 0.790D+00
 Coeff:      0.295D-02-0.190D-02 0.895D-01 0.176D+00 0.333D+00 0.400D+00
 Gap=     0.183 Goal=   None    Shift=    0.000
 RMSDP=5.58D-05 MaxDP=3.70D-03 DE=-1.00D-03 OVMax= 6.74D-03

 Cycle   7  Pass 0  IDiag  1:
 E= -657.276270469317     Delta-E=       -0.000267557275 Rises=F Damp=F
 DIIS: error= 2.03D-04 at cycle   7 NSaved=   7.
 NSaved= 7 IEnMin= 7 EnMin= -657.276270469317     IErMin= 7 ErrMin= 2.03D-04
 ErrMax= 2.03D-04  0.00D+00 EMaxC= 1.00D-01 BMatC= 1.43D-05 BMatP= 3.57D-04
 IDIUse=3 WtCom= 9.98D-01 WtEn= 2.03D-03
 Coeff-Com:  0.901D-03-0.205D-02 0.372D-01 0.802D-01 0.168D+00 0.241D+00
 Coeff-Com:  0.475D+00
 Coeff-En:   0.000D+00 0.000D+00 0.000D+00 0.000D+00 0.000D+00 0.000D+00
 Coeff-En:   0.100D+01
 Coeff:      0.899D-03-0.204D-02 0.371D-01 0.800D-01 0.168D+00 0.240D+00
 Coeff:      0.476D+00
 Gap=     0.183 Goal=   None    Shift=    0.000
 RMSDP=1.47D-05 MaxDP=8.65D-04 DE=-2.68D-04 OVMax= 1.35D-03

 Cycle   8  Pass 0  IDiag  1:
 E= -657.276283037433     Delta-E=       -0.000012568116 Rises=F Damp=F
 DIIS: error= 4.04D-05 at cycle   8 NSaved=   8.
 NSaved= 8 IEnMin= 8 EnMin= -657.276283037433     IErMin= 8 ErrMin= 4.04D-05
 ErrMax= 4.04D-05  0.00D+00 EMaxC= 1.00D-01 BMatC= 7.69D-07 BMatP= 1.43D-05
 IDIUse=1 WtCom= 1.00D+00 WtEn= 0.00D+00
 Coeff-Com:  0.308D-04-0.952D-03 0.747D-02 0.197D-01 0.452D-01 0.718D-01
 Coeff-Com:  0.235D+00 0.622D+00
 Coeff:      0.308D-04-0.952D-03 0.747D-02 0.197D-01 0.452D-01 0.718D-01
 Coeff:      0.235D+00 0.622D+00
 Gap=     0.183 Goal=   None    Shift=    0.000
 RMSDP=3.78D-06 MaxDP=1.84D-04 DE=-1.26D-05 OVMax= 2.67D-04

 Initial convergence to 1.0D-05 achieved.  Increase integral accuracy.
 Cycle   9  Pass 1  IDiag  1:
 E= -657.276307145558     Delta-E=       -0.000024108125 Rises=F Damp=F
 DIIS: error= 3.14D-05 at cycle   1 NSaved=   1.
 NSaved= 1 IEnMin= 1 EnMin= -657.276307145558     IErMin= 1 ErrMin= 3.14D-05
 ErrMax= 3.14D-05  0.00D+00 EMaxC= 1.00D-01 BMatC= 3.27D-07 BMatP= 3.27D-07
 IDIUse=1 WtCom= 1.00D+00 WtEn= 0.00D+00
 Coeff-Com:  0.100D+01
 Coeff:      0.100D+01
 Gap=     0.183 Goal=   None    Shift=    0.000
 RMSDP=3.78D-06 MaxDP=1.84D-04 DE=-2.41D-05 OVMax= 1.04D-04

 Cycle  10  Pass 1  IDiag  1:
 E= -657.276307374187     Delta-E=       -0.000000228629 Rises=F Damp=F
 DIIS: error= 9.42D-06 at cycle   2 NSaved=   2.
 NSaved= 2 IEnMin= 2 EnMin= -657.276307374187     IErMin= 2 ErrMin= 9.42D-06
 ErrMax= 9.42D-06  0.00D+00 EMaxC= 1.00D-01 BMatC= 3.74D-08 BMatP= 3.27D-07
 IDIUse=1 WtCom= 1.00D+00 WtEn= 0.00D+00
 Coeff-Com:  0.140D+00 0.860D+00
 Coeff:      0.140D+00 0.860D+00
 Gap=     0.183 Goal=   None    Shift=    0.000
 RMSDP=1.47D-06 MaxDP=7.95D-05 DE=-2.29D-07 OVMax= 7.87D-05

 Cycle  11  Pass 1  IDiag  1:
 E= -657.276307358965     Delta-E=        0.000000015222 Rises=F Damp=F
 DIIS: error= 1.04D-05 at cycle   3 NSaved=   3.
 NSaved= 3 IEnMin= 2 EnMin= -657.276307374187     IErMin= 2 ErrMin= 9.42D-06
 ErrMax= 1.04D-05  0.00D+00 EMaxC= 1.00D-01 BMatC= 5.38D-08 BMatP= 3.74D-08
 IDIUse=1 WtCom= 1.00D+00 WtEn= 0.00D+00
 Coeff-Com: -0.254D-03 0.548D+00 0.452D+00
 Coeff:     -0.254D-03 0.548D+00 0.452D+00
 Gap=     0.183 Goal=   None    Shift=    0.000
 RMSDP=8.40D-07 MaxDP=4.92D-05 DE= 1.52D-08 OVMax= 7.28D-05

 Cycle  12  Pass 1  IDiag  1:
 E= -657.276307398370     Delta-E=       -0.000000039406 Rises=F Damp=F
 DIIS: error= 4.51D-06 at cycle   4 NSaved=   4.
 NSaved= 4 IEnMin= 4 EnMin= -657.276307398370     IErMin= 4 ErrMin= 4.51D-06
 ErrMax= 4.51D-06  0.00D+00 EMaxC= 1.00D-01 BMatC= 9.42D-09 BMatP= 3.74D-08
 IDIUse=1 WtCom= 1.00D+00 WtEn= 0.00D+00
 Coeff-Com: -0.111D-01 0.324D+00 0.330D+00 0.358D+00
 Coeff:     -0.111D-01 0.324D+00 0.330D+00 0.358D+00
 Gap=     0.183 Goal=   None    Shift=    0.000
 RMSDP=2.82D-07 MaxDP=2.17D-05 DE=-3.94D-08 OVMax= 3.45D-05

 Cycle  13  Pass 1  IDiag  1:
 E= -657.276307405424     Delta-E=       -0.000000007053 Rises=F Damp=F
 DIIS: error= 1.21D-06 at cycle   5 NSaved=   5.
 NSaved= 5 IEnMin= 5 EnMin= -657.276307405424     IErMin= 5 ErrMin= 1.21D-06
 ErrMax= 1.21D-06  0.00D+00 EMaxC= 1.00D-01 BMatC= 8.49D-10 BMatP= 9.42D-09
 IDIUse=1 WtCom= 1.00D+00 WtEn= 0.00D+00
 Coeff-Com: -0.828D-02 0.179D+00 0.194D+00 0.257D+00 0.378D+00
 Coeff:     -0.828D-02 0.179D+00 0.194D+00 0.257D+00 0.378D+00
 Gap=     0.183 Goal=   None    Shift=    0.000
 RMSDP=8.74D-08 MaxDP=5.36D-06 DE=-7.05D-09 OVMax= 9.29D-06

 Cycle  14  Pass 1  IDiag  1:
 E= -657.276307406063     Delta-E=       -0.000000000639 Rises=F Damp=F
 DIIS: error= 2.20D-07 at cycle   6 NSaved=   6.
 NSaved= 6 IEnMin= 6 EnMin= -657.276307406063     IErMin= 6 ErrMin= 2.20D-07
 ErrMax= 2.20D-07  0.00D+00 EMaxC= 1.00D-01 BMatC= 3.82D-11 BMatP= 8.49D-10
 IDIUse=1 WtCom= 1.00D+00 WtEn= 0.00D+00
 Coeff-Com: -0.355D-02 0.683D-01 0.771D-01 0.108D+00 0.220D+00 0.530D+00
 Coeff:     -0.355D-02 0.683D-01 0.771D-01 0.108D+00 0.220D+00 0.530D+00
 Gap=     0.183 Goal=   None    Shift=    0.000
 RMSDP=2.22D-08 MaxDP=1.32D-06 DE=-6.39D-10 OVMax= 2.06D-06

 Cycle  15  Pass 1  IDiag  1:
 E= -657.276307406102     Delta-E=       -0.000000000040 Rises=F Damp=F
 DIIS: error= 9.98D-08 at cycle   7 NSaved=   7.
 NSaved= 7 IEnMin= 7 EnMin= -657.276307406102     IErMin= 7 ErrMin= 9.98D-08
 ErrMax= 9.98D-08  0.00D+00 EMaxC= 1.00D-01 BMatC= 5.29D-12 BMatP= 3.82D-11
 IDIUse=1 WtCom= 1.00D+00 WtEn= 0.00D+00
 Coeff-Com: -0.367D-03 0.410D-02 0.599D-02 0.883D-02 0.489D-01 0.305D+00
 Coeff-Com:  0.628D+00
 Coeff:     -0.367D-03 0.410D-02 0.599D-02 0.883D-02 0.489D-01 0.305D+00
 Coeff:      0.628D+00
 Gap=     0.183 Goal=   None    Shift=    0.000
 RMSDP=7.52D-09 MaxDP=5.20D-07 DE=-3.96D-11 OVMax= 7.15D-07

 SCF Done:  E(RB3LYP) =  -657.276307406     A.U. after   15 cycles
            NFock= 15  Conv=0.75D-08     -V/T= 2.0047
 KE= 6.542271643064D+02 PE=-2.894941973842D+03 EE= 9.051546250371D+02
 Leave Link  502 at Thu Aug 26 12:13:14 2021, MaxMem= 24159191040 cpu:       321.0
 (Enter /public/home/users/caep010/software/Gaussian09/g09/l801.exe)
 DoSCS=F DFT=T ScalE2(SS,OS)=  1.000000  1.000000
 Range of M.O.s used for correlation:     1   351
 NBasis=   351 NAE=    43 NBE=    43 NFC=     0 NFV=     0
 NROrb=    351 NOA=    43 NOB=    43 NVA=   308 NVB=   308

 **** Warning!!: The largest alpha MO coefficient is  0.60048735D+02

 Leave Link  801 at Thu Aug 26 12:13:14 2021, MaxMem= 24159191040 cpu:         0.6
 (Enter /public/home/users/caep010/software/Gaussian09/g09/l1101.exe)
 Using compressed storage, NAtomX=    15.
 Will process     16 centers per pass.
 Leave Link 1101 at Thu Aug 26 12:13:15 2021, MaxMem= 24159191040 cpu:        19.8
 (Enter /public/home/users/caep010/software/Gaussian09/g09/l1102.exe)
 Symmetrizing basis deriv contribution to polar:
 IMax=3 JMax=2 DiffMx= 0.00D+00
 Leave Link 1102 at Thu Aug 26 12:13:15 2021, MaxMem= 24159191040 cpu:         1.2
 (Enter /public/home/users/caep010/software/Gaussian09/g09/l1110.exe)
 Forming Gx(P) for the SCF density, NAtomX=    15.
 Integral derivatives from FoFJK, PRISM(SPDF).
 Do as many integral derivatives as possible in FoFJK.
 G2DrvN: MDV=   24159190816.
 G2DrvN: will do    16 centers at a time, making    1 passes.
 Calling FoFCou, ICntrl=  3107 FMM=F I1Cent=   0 AccDes= 0.00D+00.
 FoFJK:  IHMeth= 1 ICntrl=    3107 DoSepK=F KAlg= 0 I1Cent=   0 FoldK=F
 IRaf=         0 NMat=   1 IRICut=       1 DoRegI=T DoRafI=F ISym2E= 0.
 FoFCou: FMM=F IPFlag=           0 FMFlag=      100000 FMFlg1=           0
         NFxFlg=           0 DoJE=F BraDBF=F KetDBF=F FulRan=T
         wScrn=  0.000000 ICntrl=    3107 IOpCl=  0 I1Cent=           0 NGrid=           0
         NMat0=    1 NMatS0=      1 NMatT0=    0 NMatD0=    1 NMtDS0=    0 NMtDT0=    0
 Symmetry not used in FoFCou.
 End of G2Drv F.D. properties file   721 does not exist.
 End of G2Drv F.D. properties file   722 does not exist.
 End of G2Drv F.D. properties file   788 does not exist.
 Leave Link 1110 at Thu Aug 26 12:13:34 2021, MaxMem= 24159191040 cpu:       585.3
 (Enter /public/home/users/caep010/software/Gaussian09/g09/l1002.exe)
 Minotr:  Closed shell wavefunction.
          IDoAtm=111111111111111
          Direct CPHF calculation.
          Differentiating once with respect to nuclear coordinates.
          Requested convergence is 1.0D-08 RMS, and 1.0D-07 maximum.
          Secondary convergence is 1.0D-12 RMS, and 1.0D-12 maximum.
          NewPWx=T KeepS1=F KeepF1=F KeepIn=T MapXYZ=F SortEE=F KeepMc=T.
          MDV=   24159190535 using IRadAn=       2.
 Generate precomputed XC quadrature information.
 Keep R1 ints in memory in canonical form, NReq=1937379135.
 FoFCou: FMM=F IPFlag=           0 FMFlag=           0 FMFlg1=           0
         NFxFlg=           0 DoJE=F BraDBF=F KetDBF=F FulRan=T
         wScrn=  0.000000 ICntrl=     600 IOpCl=  0 I1Cent=           0 NGrid=           0
         NMat0=    1 NMatS0=  61776 NMatT0=    0 NMatD0=    1 NMtDS0=    0 NMtDT0=    0
 Symmetry not used in FoFCou.
          Solving linear equations simultaneously, MaxMat=       0.
          There are    48 degrees of freedom in the 1st order CPHF.  IDoFFX=6 NUNeed=     0.
     42 vectors produced by pass  0 Test12= 2.76D-14 2.08D-09 XBig12= 2.39D-01 1.11D-01.
 AX will form    42 AO Fock derivatives at one time.
     42 vectors produced by pass  1 Test12= 2.76D-14 2.08D-09 XBig12= 2.33D-02 5.89D-02.
     42 vectors produced by pass  2 Test12= 2.76D-14 2.08D-09 XBig12= 5.43D-04 4.05D-03.
     42 vectors produced by pass  3 Test12= 2.76D-14 2.08D-09 XBig12= 6.18D-06 3.82D-04.
     42 vectors produced by pass  4 Test12= 2.76D-14 2.08D-09 XBig12= 2.71D-08 2.27D-05.
     42 vectors produced by pass  5 Test12= 2.76D-14 2.08D-09 XBig12= 8.86D-11 1.72D-06.
     35 vectors produced by pass  6 Test12= 2.76D-14 2.08D-09 XBig12= 1.39D-13 5.76D-08.
      1 vectors produced by pass  7 Test12= 2.76D-14 2.08D-09 XBig12= 4.05D-16 2.29D-09.
 InvSVY:  IOpt=1 It=  1 EMax= 2.22D-15
 Solved reduced A of dimension   288 with    42 vectors.
 End of Minotr F.D. properties file   721 does not exist.
 End of Minotr F.D. properties file   722 does not exist.
 End of Minotr F.D. properties file   788 does not exist.
 Leave Link 1002 at Thu Aug 26 12:14:08 2021, MaxMem= 24159191040 cpu:       972.8
 (Enter /public/home/users/caep010/software/Gaussian09/g09/l601.exe)
 Copying SCF densities to generalized density rwf, IOpCl= 0 IROHF=0.

 **********************************************************************

            Population analysis using the SCF density.

 **********************************************************************

 Orbital symmetries:
       Occupied  (A) (A) (A) (A) (A) (A) (A) (A) (A) (A) (A) (A)
                 (A) (A) (A) (A) (A) (A) (A) (A) (A) (A) (A) (A)
                 (A) (A) (A) (A) (A) (A) (A) (A) (A) (A) (A) (A)
                 (A) (A) (A) (A) (A) (A) (A)
       Virtual   (A) (A) (A) (A) (A) (A) (A) (A) (A) (A) (A) (A)
                 (A) (A) (A) (A) (A) (A) (A) (A) (A) (A) (A) (A)
                 (A) (A) (A) (A) (A) (A) (A) (A) (A) (A) (A) (A)
                 (A) (A) (A) (A) (A) (A) (A) (A) (A) (A) (A) (A)
                 (A) (A) (A) (A) (A) (A) (A) (A) (A) (A) (A) (A)
                 (A) (A) (A) (A) (A) (A) (A) (A) (A) (A) (A) (A)
                 (A) (A) (A) (A) (A) (A) (A) (A) (A) (A) (A) (A)
                 (A) (A) (A) (A) (A) (A) (A) (A) (A) (A) (A) (A)
                 (A) (A) (A) (A) (A) (A) (A) (A) (A) (A) (A) (A)
                 (A) (A) (A) (A) (A) (A) (A) (A) (A) (A) (A) (A)
                 (A) (A) (A) (A) (A) (A) (A) (A) (A) (A) (A) (A)
                 (A) (A) (A) (A) (A) (A) (A) (A) (A) (A) (A) (A)
                 (A) (A) (A) (A) (A) (A) (A) (A) (A) (A) (A) (A)
                 (A) (A) (A) (A) (A) (A) (A) (A) (A) (A) (A) (A)
                 (A) (A) (A) (A) (A) (A) (A) (A) (A) (A) (A) (A)
                 (A) (A) (A) (A) (A) (A) (A) (A) (A) (A) (A) (A)
                 (A) (A) (A) (A) (A) (A) (A) (A) (A) (A) (A) (A)
                 (A) (A) (A) (A) (A) (A) (A) (A) (A) (A) (A) (A)
                 (A) (A) (A) (A) (A) (A) (A) (A) (A) (A) (A) (A)
                 (A) (A) (A) (A) (A) (A) (A) (A) (A) (A) (A) (A)
                 (A) (A) (A) (A) (A) (A) (A) (A) (A) (A) (A) (A)
                 (A) (A) (A) (A) (A) (A) (A) (A) (A) (A) (A) (A)
                 (A) (A) (A) (A) (A) (A) (A) (A) (A) (A) (A) (A)
                 (A) (A) (A) (A) (A) (A) (A) (A) (A) (A) (A) (A)
                 (A) (A) (A) (A) (A) (A) (A) (A) (A) (A) (A) (A)
                 (A) (A) (A) (A) (A) (A) (A) (A)
 The electronic state is 1-A.
 Alpha  occ. eigenvalues --  -19.20008 -19.19985 -19.19886 -19.19851 -14.59547
 Alpha  occ. eigenvalues --  -14.59459 -14.38146 -10.28403 -10.28383 -10.26996
 Alpha  occ. eigenvalues --  -10.26722 -10.25172  -1.26692  -1.26236  -1.08965
 Alpha  occ. eigenvalues --   -1.08574  -1.01103  -0.90048  -0.87194  -0.76198
 Alpha  occ. eigenvalues --   -0.75820  -0.69129  -0.62388  -0.61435  -0.57225
 Alpha  occ. eigenvalues --   -0.57100  -0.57030  -0.56499  -0.56317  -0.53673
 Alpha  occ. eigenvalues --   -0.52298  -0.48518  -0.46069  -0.45687  -0.35445
 Alpha  occ. eigenvalues --   -0.35123  -0.33904  -0.33652  -0.33380  -0.32941
 Alpha  occ. eigenvalues --   -0.32162  -0.31798  -0.30351
 Alpha virt. eigenvalues --   -0.12026  -0.11379  -0.05924  -0.01587   0.08356
 Alpha virt. eigenvalues --    0.11377   0.13264   0.15064   0.17588   0.18028
 Alpha virt. eigenvalues --    0.19546   0.21857   0.23742   0.26400   0.27114
 Alpha virt. eigenvalues --    0.29952   0.31566   0.32821   0.35572   0.38100
 Alpha virt. eigenvalues --    0.39341   0.42542   0.43421   0.45118   0.46567
 Alpha virt. eigenvalues --    0.47469   0.47808   0.48265   0.50650   0.52058
 Alpha virt. eigenvalues --    0.53336   0.56887   0.57343   0.60138   0.61316
 Alpha virt. eigenvalues --    0.61817   0.63298   0.63966   0.64357   0.65442
 Alpha virt. eigenvalues --    0.69438   0.69643   0.70136   0.70770   0.73540
 Alpha virt. eigenvalues --    0.74302   0.75191   0.76175   0.77504   0.79797
 Alpha virt. eigenvalues --    0.80824   0.81551   0.81955   0.84247   0.84759
 Alpha virt. eigenvalues --    0.85546   0.87556   0.89982   0.90550   0.91587
 Alpha virt. eigenvalues --    0.92549   0.93206   0.94253   0.95777   0.95875
 Alpha virt. eigenvalues --    0.96406   0.98137   0.99032   0.99751   1.00844
 Alpha virt. eigenvalues --    1.01815   1.02312   1.04751   1.08643   1.10237
 Alpha virt. eigenvalues --    1.11335   1.11564   1.16772   1.19052   1.20635
 Alpha virt. eigenvalues --    1.24018   1.24343   1.26771   1.27338   1.28453
 Alpha virt. eigenvalues --    1.30753   1.32807   1.33753   1.35324   1.36774
 Alpha virt. eigenvalues --    1.39607   1.40463   1.41689   1.42707   1.44283
 Alpha virt. eigenvalues --    1.44857   1.49193   1.50063   1.51466   1.53657
 Alpha virt. eigenvalues --    1.56840   1.59589   1.61450   1.62139   1.63497
 Alpha virt. eigenvalues --    1.64128   1.65889   1.66646   1.68042   1.69690
 Alpha virt. eigenvalues --    1.71395   1.76083   1.78000   1.82219   1.86200
 Alpha virt. eigenvalues --    1.86549   1.89116   1.93374   1.96512   1.98911
 Alpha virt. eigenvalues --    1.99501   2.02059   2.06864   2.16523   2.17065
 Alpha virt. eigenvalues --    2.19357   2.26475   2.27327   2.29518   2.34606
 Alpha virt. eigenvalues --    2.39948   2.41658   2.42847   2.49832   2.55102
 Alpha virt. eigenvalues --    2.57741   2.63325   2.81540   2.83138   2.90532
 Alpha virt. eigenvalues --    2.92121   2.93996   2.95780   2.98987   3.00275
 Alpha virt. eigenvalues --    3.01779   3.03397   3.07041   3.08703   3.11464
 Alpha virt. eigenvalues --    3.13777   3.16998   3.18530   3.20990   3.21963
 Alpha virt. eigenvalues --    3.25127   3.27075   3.31640   3.33547   3.34454
 Alpha virt. eigenvalues --    3.36358   3.38646   3.40042   3.41297   3.44137
 Alpha virt. eigenvalues --    3.45755   3.47086   3.52569   3.53868   3.54896
 Alpha virt. eigenvalues --    3.58462   3.61155   3.62316   3.63202   3.63733
 Alpha virt. eigenvalues --    3.65137   3.67575   3.68853   3.69222   3.74698
 Alpha virt. eigenvalues --    3.77089   3.80106   3.81309   3.82376   3.84379
 Alpha virt. eigenvalues --    3.90086   3.97902   3.99617   3.99676   4.01706
 Alpha virt. eigenvalues --    4.02987   4.03479   4.06684   4.07262   4.10345
 Alpha virt. eigenvalues --    4.11787   4.13506   4.14349   4.18646   4.19461
 Alpha virt. eigenvalues --    4.22281   4.23017   4.24223   4.26266   4.26851
 Alpha virt. eigenvalues --    4.29924   4.30686   4.32396   4.34913   4.35778
 Alpha virt. eigenvalues --    4.36437   4.39137   4.41167   4.42203   4.43161
 Alpha virt. eigenvalues --    4.45671   4.46612   4.47497   4.48533   4.49867
 Alpha virt. eigenvalues --    4.53239   4.53443   4.54455   4.55441   4.58916
 Alpha virt. eigenvalues --    4.59903   4.60346   4.61877   4.64619   4.66505
 Alpha virt. eigenvalues --    4.66941   4.73405   4.76032   4.76567   4.77503
 Alpha virt. eigenvalues --    4.87191   4.92417   4.95603   4.96692   4.97114
 Alpha virt. eigenvalues --    4.97991   5.00099   5.00186   5.00719   5.02279
 Alpha virt. eigenvalues --    5.02592   5.05561   5.07064   5.07786   5.08009
 Alpha virt. eigenvalues --    5.12698   5.13295   5.20743   5.21506   5.25561
 Alpha virt. eigenvalues --    5.26269   5.32615   5.35086   5.36264   5.38153
 Alpha virt. eigenvalues --    5.43295   5.48799   5.53597   5.58291   5.59308
 Alpha virt. eigenvalues --    5.60705   5.61562   5.63192   5.73889   5.75163
 Alpha virt. eigenvalues --    5.77257   5.86176   5.91507   5.94259   5.99389
 Alpha virt. eigenvalues --    6.02444   6.03336   6.07342   6.12052   6.23504
 Alpha virt. eigenvalues --    6.24349   6.26054   6.31668   6.36797   6.39190
 Alpha virt. eigenvalues --    6.40427   6.70787   6.74909   6.87923   6.89550
 Alpha virt. eigenvalues --    7.03402   7.06927   8.10380   9.88463  10.59732
 Alpha virt. eigenvalues --   10.85744  11.28494  11.28929  11.35867  11.67330
 Alpha virt. eigenvalues --   11.95289  12.90813  12.99408  13.15841  13.20857
 Alpha virt. eigenvalues --   15.95750  18.86844  21.20920
          Condensed to atoms (all electrons):
               1          2          3          4          5          6
     1  C    4.735353   0.342833   0.490843  -0.059004   0.466896   0.002060
     2  H    0.342833   0.535538  -0.015779   0.002423  -0.034259  -0.000297
     3  N    0.490843  -0.015779   6.379115   0.490205   0.055556  -0.016909
     4  C   -0.059004   0.002423   0.490205   4.756128  -0.065256   0.347452
     5  C    0.466896  -0.034259   0.055556  -0.065256   5.001079   0.001637
     6  H    0.002060  -0.000297  -0.016909   0.347452   0.001637   0.527067
     7  C    0.021853   0.004711  -0.131759   0.017490   0.304805   0.003995
     8  H    0.009177  -0.000232  -0.002184   0.008958  -0.035050  -0.000235
     9  N   -0.029018  -0.012872   0.003591  -0.000744   0.328275   0.000012
    10  O    0.006303   0.000489  -0.000044   0.000045  -0.133721  -0.000000
    11  O    0.000972   0.026313   0.000358   0.000037  -0.125916  -0.000000
    12  C   -0.066521   0.001613   0.052916   0.466878   0.020205  -0.037044
    13  N   -0.000784   0.000012   0.003635  -0.028071   0.004347  -0.012057
    14  O    0.000051   0.000000  -0.000047   0.006475   0.001130   0.000480
    15  O    0.000041   0.000000   0.000330   0.000378  -0.000067   0.025766
               7          8          9         10         11         12
     1  C    0.021853   0.009177  -0.029018   0.006303   0.000972  -0.066521
     2  H    0.004711  -0.000232  -0.012872   0.000489   0.026313   0.001613
     3  N   -0.131759  -0.002184   0.003591  -0.000044   0.000358   0.052916
     4  C    0.017490   0.008958  -0.000744   0.000045   0.000037   0.466878
     5  C    0.304805  -0.035050   0.328275  -0.133721  -0.125916   0.020205
     6  H    0.003995  -0.000235   0.000012  -0.000000  -0.000000  -0.037044
     7  C    5.282395   0.332468  -0.034952   0.011545   0.008367   0.310345
     8  H    0.332468   0.558897  -0.016690   0.024475   0.000518  -0.034677
     9  N   -0.034952  -0.016690   5.279799   0.548790   0.541010   0.004108
    10  O    0.011545   0.024475   0.548790   7.969624  -0.092192   0.001081
    11  O    0.008367   0.000518   0.541010  -0.092192   7.987742  -0.000056
    12  C    0.310345  -0.034677   0.004108   0.001081  -0.000056   4.999114
    13  N   -0.034757  -0.016887  -0.000003  -0.000012  -0.000000   0.335607
    14  O    0.011232   0.025721  -0.000012   0.000003   0.000000  -0.137156
    15  O    0.008670   0.000541  -0.000000   0.000000   0.000000  -0.127119
              13         14         15
     1  C   -0.000784   0.000051   0.000041
     2  H    0.000012   0.000000   0.000000
     3  N    0.003635  -0.000047   0.000330
     4  C   -0.028071   0.006475   0.000378
     5  C    0.004347   0.001130  -0.000067
     6  H   -0.012057   0.000480   0.025766
     7  C   -0.034757   0.011232   0.008670
     8  H   -0.016887   0.025721   0.000541
     9  N   -0.000003  -0.000012  -0.000000
    10  O   -0.000012   0.000003   0.000000
    11  O   -0.000000   0.000000   0.000000
    12  C    0.335607  -0.137156  -0.127119
    13  N    5.258900   0.552786   0.545751
    14  O    0.552786   7.966375  -0.092945
    15  O    0.545751  -0.092945   7.984403
 Mulliken charges:
               1
     1  C    0.078945
     2  H    0.149508
     3  N   -0.309826
     4  C    0.056605
     5  C    0.210339
     6  H    0.158074
     7  C   -0.116408
     8  H    0.145199
     9  N    0.388705
    10  O   -0.336386
    11  O   -0.347153
    12  C    0.210707
    13  N    0.391532
    14  O   -0.334092
    15  O   -0.345749
 Sum of Mulliken charges =  -0.00000
 Mulliken charges with hydrogens summed into heavy atoms:
               1
     1  C    0.228453
     3  N   -0.309826
     4  C    0.214679
     5  C    0.210339
     7  C    0.028791
     9  N    0.388705
    10  O   -0.336386
    11  O   -0.347153
    12  C    0.210707
    13  N    0.391532
    14  O   -0.334092
    15  O   -0.345749
 APT charges:
               1
     1  C   -0.296113
     2  H    0.528327
     3  N    0.237843
     4  C   -0.348529
     5  C   -0.240576
     6  H    0.548235
     7  C   -0.285651
     8  H    0.304529
     9  N   -1.193400
    10  O    0.367294
    11  O    0.710520
    12  C   -0.221311
    13  N   -1.204120
    14  O    0.361194
    15  O    0.731757
 Sum of APT charges =  -0.00000
 APT charges with hydrogens summed into heavy atoms:
               1
     1  C    0.232214
     3  N    0.237843
     4  C    0.199706
     5  C   -0.240576
     7  C    0.018878
     9  N   -1.193400
    10  O    0.367294
    11  O    0.710520
    12  C   -0.221311
    13  N   -1.204120
    14  O    0.361194
    15  O    0.731757
 Electronic spatial extent (au):  <R**2>=           2082.7131
 Charge=             -0.0000 electrons
 Dipole moment (field-independent basis, Debye):
    X=             -0.0532    Y=              1.5225    Z=              0.0280  Tot=              1.5237
 Quadrupole moment (field-independent basis, Debye-Ang):
   XX=            -82.3903   YY=            -71.7774   ZZ=            -62.0484
   XY=             -0.0107   XZ=             -0.3893   YZ=             -0.4162
 Traceless Quadrupole moment (field-independent basis, Debye-Ang):
   XX=            -10.3183   YY=              0.2947   ZZ=             10.0236
   XY=             -0.0107   XZ=             -0.3893   YZ=             -0.4162
 Octapole moment (field-independent basis, Debye-Ang**2):
  XXX=             -0.4657  YYY=            -13.6138  ZZZ=              0.2619  XYY=             -0.0906
  XXY=             16.8346  XXZ=             -1.7332  XZZ=             -0.0762  YZZ=             -5.6352
  YYZ=              1.0204  XYZ=             -1.0592
 Hexadecapole moment (field-independent basis, Debye-Ang**3):
 XXXX=          -2054.2242 YYYY=           -681.0026 ZZZZ=            -52.4856 XXXY=              0.2689
 XXXZ=             -5.2258 YYYX=              0.0092 YYYZ=              0.3330 ZZZX=              0.1395
 ZZZY=              0.4835 XXYY=           -411.9849 XXZZ=           -285.0898 YYZZ=           -110.0574
 XXYZ=             -2.3122 YYXZ=              0.5833 ZZXY=              0.2566
 N-N= 6.782838770924D+02 E-N=-2.894941994674D+03  KE= 6.542271643064D+02
  Exact polarizability:   0.000   0.000   0.000   0.000   0.000   0.000
 Approx polarizability: 192.469  -0.047 200.828   1.268   2.632  62.899
 No NMR shielding tensors so no spin-rotation constants.
 Leave Link  601 at Thu Aug 26 12:14:09 2021, MaxMem= 24159191040 cpu:        16.5
 (Enter /public/home/users/caep010/software/Gaussian09/g09/l701.exe)
 Compute integral second derivatives.
 ... and contract with generalized density number  0.
 Leave Link  701 at Thu Aug 26 12:14:10 2021, MaxMem= 24159191040 cpu:        17.9
 (Enter /public/home/users/caep010/software/Gaussian09/g09/l702.exe)
 L702 exits ... SP integral derivatives will be done elsewhere.
 Leave Link  702 at Thu Aug 26 12:14:10 2021, MaxMem= 24159191040 cpu:         0.6
 (Enter /public/home/users/caep010/software/Gaussian09/g09/l703.exe)
 Compute integral second derivatives, UseDBF=F ICtDFT=           0.
 Integral derivatives from FoFJK, PRISM(SPDF).
 Calling FoFJK, ICntrl=    100147 FMM=F ISym2X=0 I1Cent= 0 IOpClX= 0 NMat=1 NMatS=1 NMatT=0.
 FoFJK:  IHMeth= 1 ICntrl=  100147 DoSepK=F KAlg= 0 I1Cent=   0 FoldK=F
 IRaf=         0 NMat=   1 IRICut=       1 DoRegI=T DoRafI=F ISym2E= 0.
 FoFCou: FMM=F IPFlag=           0 FMFlag=      100000 FMFlg1=         800
         NFxFlg=           0 DoJE=F BraDBF=F KetDBF=F FulRan=T
         wScrn=  0.000000 ICntrl=  100147 IOpCl=  0 I1Cent=           0 NGrid=           0
         NMat0=    1 NMatS0=      1 NMatT0=    0 NMatD0=    1 NMtDS0=    0 NMtDT0=    0
 Symmetry not used in FoFCou.
 Leave Link  703 at Thu Aug 26 12:14:48 2021, MaxMem= 24159191040 cpu:      1220.8
 (Enter /public/home/users/caep010/software/Gaussian09/g09/l716.exe)
 Dipole        =-2.09137748D-02 5.99012976D-01 1.10009536D-02
 Polarizability= 0.00000000D+00 0.00000000D+00 0.00000000D+00
                 0.00000000D+00 0.00000000D+00 0.00000000D+00
 ***** Axes restored to original set *****
 -------------------------------------------------------------------
 Center     Atomic                   Forces (Hartrees/Bohr)
 Number     Number              X              Y              Z
 -------------------------------------------------------------------
      1        6          -0.068824486    0.069050650   -0.023810795
      2        1           0.084431596   -0.072595515    0.035231062
      3        7           0.003690444    0.003896452    0.008772054
      4        6           0.013862876   -0.056159125   -0.032088924
      5        6           0.006453240   -0.013858786   -0.003633012
      6        1          -0.008912943    0.065685248    0.045077033
      7        6           0.086021144    0.037560849    0.120208068
      8        1          -0.105316413   -0.038321322   -0.141468846
      9        7           0.001966459   -0.004731367    0.003209195
     10        8          -0.009679390    0.002235392   -0.012736189
     11        8           0.005672413   -0.000035679    0.006240440
     12        6          -0.005150399    0.006615596   -0.001412278
     13        7           0.004563584   -0.000039160    0.003824657
     14        8          -0.011014091   -0.008216528   -0.018922708
     15        8           0.002235966    0.008913297    0.011510246
 -------------------------------------------------------------------
 Cartesian Forces:  Max     0.141468846 RMS     0.045200831
 FormGI is forming the generalized inverse of G from B-inverse, IUseBI=4.
 Leave Link  716 at Thu Aug 26 12:14:49 2021, MaxMem= 24159191040 cpu:         1.1
 (Enter /public/home/users/caep010/software/Gaussian09/g09/l103.exe)

 GradGradGradGradGradGradGradGradGradGradGradGradGradGradGradGradGradGrad
 Berny optimization.
 Red2BG is reusing G-inverse.
 Internal  Forces:  Max     0.180411793 RMS     0.029313796
 Search for a local minimum.
 Step number   1 out of a maximum of   75
 All quantities printed in internal units (Hartrees-Bohrs-Radians)
 RMS Force = .29314D-01 SwitMx=.10000D-02 MixMth= 1
 Mixed Optimization -- RFO/linear search
 Second derivative matrix not updated -- analytic derivatives used.
 ITU=  0
     Eigenvalues ---    0.00350   0.00380   0.01594   0.01897   0.02068
     Eigenvalues ---    0.02118   0.02792   0.03226   0.04165   0.04346
     Eigenvalues ---    0.10840   0.11549   0.11799   0.12892   0.13003
     Eigenvalues ---    0.17909   0.19032   0.21118   0.21842   0.23877
     Eigenvalues ---    0.25351   0.25634   0.28617   0.31247   0.33863
     Eigenvalues ---    0.40167   0.41508   0.47904   0.48223   0.51950
     Eigenvalues ---    0.55045   0.59340   0.60412   0.64727   0.67247
     Eigenvalues ---    0.70876   0.83482   0.86320   0.89771
 RFO step:  Lambda=-6.61326433D-02 EMin= 3.50403375D-03
 Linear search not attempted -- first point.
 Iteration  1 RMS(Cart)=  0.04311457 RMS(Int)=  0.00068041
 Iteration  2 RMS(Cart)=  0.00073109 RMS(Int)=  0.00003174
 Iteration  3 RMS(Cart)=  0.00000070 RMS(Int)=  0.00003173
 ITry= 1 IFail=0 DXMaxC= 1.82D-01 DCOld= 1.00D+10 DXMaxT= 3.00D-01 DXLimC= 3.00D+00 Rises=F
 Variable       Old X    -DE/DX   Delta X   Delta X   Delta X     New X
                                 (Linear)    (Quad)   (Total)
    R1        1.82348   0.11667   0.00000   0.15049   0.15049   1.97397
    R2        2.50818   0.00968   0.00000   0.01253   0.01252   2.52069
    R3        2.59493   0.02193   0.00000   0.03330   0.03331   2.62823
    R4        2.51256   0.00762   0.00000   0.00807   0.00804   2.52060
    R5        1.88032   0.07983   0.00000   0.11929   0.11929   1.99961
    R6        2.59675   0.02025   0.00000   0.03124   0.03123   2.62798
    R7        2.57123   0.02352   0.00000   0.03904   0.03906   2.61029
    R8        2.77385   0.00342   0.00000   0.00875   0.00875   2.78260
    R9        1.74148   0.18041   0.00000   0.18707   0.18707   1.92855
   R10        2.58822   0.01671   0.00000   0.02625   0.02627   2.61449
   R11        2.29020   0.01536   0.00000   0.01666   0.01666   2.30686
   R12        2.30509   0.00620   0.00000   0.00449   0.00449   2.30958
   R13        2.77380   0.00432   0.00000   0.00952   0.00952   2.78332
   R14        2.28161   0.02307   0.00000   0.02403   0.02403   2.30563
   R15        2.29497   0.01356   0.00000   0.01322   0.01322   2.30819
    A1        2.08292  -0.00393   0.00000  -0.01731  -0.01733   2.06559
    A2        2.06688   0.00514   0.00000   0.01752   0.01751   2.08439
    A3        2.13311  -0.00118   0.00000  -0.00001  -0.00002   2.13309
    A4        2.04877   0.00375   0.00000   0.00670   0.00665   2.05542
    A5        2.10125  -0.00691   0.00000  -0.02945  -0.02944   2.07180
    A6        2.13218   0.00047   0.00000   0.00199   0.00196   2.13414
    A7        2.04962   0.00645   0.00000   0.02755   0.02756   2.07718
    A8        2.11838  -0.00005   0.00000  -0.00394  -0.00390   2.11449
    A9        2.07099   0.00342   0.00000   0.01317   0.01314   2.08413
   A10        2.09380  -0.00338   0.00000  -0.00921  -0.00924   2.08456
   A11        2.13415   0.00195   0.00000   0.00027   0.00019   2.13435
   A12        2.02058  -0.00427   0.00000  -0.00399  -0.00398   2.01660
   A13        2.12622   0.00242   0.00000   0.00487   0.00479   2.13101
   A14        2.05131  -0.00331   0.00000  -0.00662  -0.00663   2.04468
   A15        2.05596  -0.00479   0.00000  -0.01004  -0.01005   2.04591
   A16        2.17587   0.00811   0.00000   0.01672   0.01671   2.19259
   A17        2.11322   0.00127   0.00000  -0.00071  -0.00069   2.11254
   A18        2.07893   0.00190   0.00000   0.00792   0.00791   2.08684
   A19        2.09103  -0.00317   0.00000  -0.00721  -0.00722   2.08381
   A20        2.04350  -0.00127   0.00000  -0.00027  -0.00028   2.04322
   A21        2.06012  -0.00590   0.00000  -0.01290  -0.01291   2.04721
   A22        2.17943   0.00720   0.00000   0.01332   0.01330   2.19274
    D1        3.11763   0.00086   0.00000   0.00765   0.00753   3.12516
    D2        0.00132  -0.00029   0.00000  -0.00166  -0.00168  -0.00035
    D3       -3.11355  -0.00075   0.00000  -0.00710  -0.00716  -3.12071
    D4        0.03466  -0.00093   0.00000  -0.00924  -0.00930   0.02536
    D5        0.00298   0.00027   0.00000   0.00164   0.00166   0.00464
    D6       -3.13199   0.00009   0.00000  -0.00050  -0.00049  -3.13248
    D7        3.11165   0.00096   0.00000   0.00823   0.00811   3.11976
    D8       -0.01159   0.00021   0.00000   0.00198   0.00197  -0.00962
    D9        0.01795  -0.00007   0.00000  -0.00230  -0.00228   0.01566
   D10       -3.12283  -0.00009   0.00000  -0.00232  -0.00230  -3.12512
   D11       -3.10581  -0.00067   0.00000  -0.00781  -0.00787  -3.11368
   D12        0.03660  -0.00069   0.00000  -0.00783  -0.00788   0.02872
   D13       -3.06822  -0.00191   0.00000  -0.02012  -0.02010  -3.08832
   D14        0.00281  -0.00013   0.00000  -0.00176  -0.00176   0.00105
   D15        0.06667  -0.00170   0.00000  -0.01787  -0.01788   0.04880
   D16        3.13770   0.00008   0.00000   0.00050   0.00046   3.13816
   D17       -3.02571   0.00019   0.00000  -0.00265  -0.00265  -3.02836
   D18        0.12512  -0.00106   0.00000  -0.00936  -0.00936   0.11576
   D19        0.12240  -0.00000   0.00000  -0.00477  -0.00477   0.11763
   D20       -3.00995  -0.00125   0.00000  -0.01148  -0.01148  -3.02143
   D21       -0.01277   0.00006   0.00000   0.00213   0.00211  -0.01065
   D22        3.12801   0.00008   0.00000   0.00215   0.00213   3.13014
   D23        3.05861   0.00181   0.00000   0.02020   0.02021   3.07882
   D24       -0.08381   0.00183   0.00000   0.02023   0.02023  -0.06357
   D25        3.11386   0.00100   0.00000   0.00657   0.00657   3.12042
   D26       -0.01101  -0.00071   0.00000  -0.00290  -0.00291  -0.01392
   D27       -0.02693   0.00097   0.00000   0.00655   0.00655  -0.02038
   D28        3.13139  -0.00073   0.00000  -0.00293  -0.00292   3.12847
         Item               Value     Threshold  Converged?
 Maximum Force            0.180412     0.000450     NO 
 RMS     Force            0.029314     0.000300     NO 
 Maximum Displacement     0.182425     0.001800     NO 
 RMS     Displacement     0.043226     0.001200     NO 
 Predicted change in Energy=-3.582400D-02
 Lowest energy point so far.  Saving SCF results.
 GradGradGradGradGradGradGradGradGradGradGradGradGradGradGradGradGradGrad

 Leave Link  103 at Thu Aug 26 12:14:49 2021, MaxMem= 24159191040 cpu:         8.7
 (Enter /public/home/users/caep010/software/Gaussian09/g09/l202.exe)
                          Input orientation:                          
 ---------------------------------------------------------------------
 Center     Atomic      Atomic             Coordinates (Angstroms)
 Number     Number       Type             X           Y           Z
 ---------------------------------------------------------------------
      1          6           0        3.836964    2.426708   -1.091055
      2          1           0        4.591561    1.768100   -0.794473
      3          7           0        3.655073    3.542035   -0.382371
      4          6           0        2.701106    4.383978   -0.782644
      5          6           0        3.071207    2.127906   -2.212955
      6          1           0        2.530597    5.263585   -0.219707
      7          6           0        2.080750    2.985261   -2.651070
      8          1           0        1.478449    2.762472   -3.444235
      9          7           0        3.317078    0.872981   -2.942978
     10          8           0        2.708213    0.707998   -3.988092
     11          8           0        4.110651    0.085348   -2.449427
     12          6           0        1.915921    4.137859   -1.903746
     13          7           0        0.892855    5.118873   -2.304117
     14          8           0        0.245617    4.867952   -3.307481
     15          8           0        0.770459    6.115844   -1.609148
 ---------------------------------------------------------------------
                    Distance matrix (angstroms):
                    1          2          3          4          5
     1  C    0.000000
     2  H    1.044577   0.000000
     3  N    1.333893   2.047849   0.000000
     4  C    2.283899   3.227504   1.333844   0.000000
     5  C    1.390801   2.110220   2.385728   2.696781   0.000000
     6  H    3.242485   4.098334   2.062677   1.058149   3.754701
     7  C    2.414522   3.351508   2.816999   2.415009   1.381307
     8  H    3.348550   4.207312   3.836720   3.347871   2.110830
     9  N    2.472644   2.653605   3.714135   4.168161   1.472488
    10  O    3.552586   3.856166   4.682897   4.877271   2.301958
    11  O    2.720671   2.408693   4.053265   4.821121   2.303998
    12  C    2.697946   3.742365   2.386260   1.390669   2.338848
    13  N    4.169778   5.214128   3.716096   2.474818   3.701272
    14  O    4.875448   5.900129   4.683878   3.555061   4.085315
    15  O    4.825101   5.845289   4.055918   2.722107   4.643455
                    6          7          8          9         10
     6  H    0.000000
     7  C    3.362238   0.000000
     8  H    4.214280   1.020545   0.000000
     9  N    5.226103   2.464841   2.683652   0.000000
    10  O    5.914865   2.714270   2.455394   1.220737   0.000000
    11  O    5.855114   3.545512   3.883957   1.222177   2.173020
    12  C    2.116854   1.383526   2.110966   3.701712   4.090986
    13  N    2.654789   2.466530   2.682427   4.930780   5.058370
    14  O    3.861607   2.709818   2.443691   5.052378   4.881887
    15  O    2.398954   3.550073   3.887660   5.979296   6.217641
                   11         12         13         14         15
    11  O    0.000000
    12  C    4.640846   0.000000
    13  N    5.975926   1.472871   0.000000
    14  O    6.208707   2.300744   1.220089   0.000000
    15  O    6.944770   2.304625   1.221440   2.171872   0.000000
 Stoichiometry    C5H3N3O4
 Framework group  C1[X(C5H3N3O4)]
 Deg. of freedom    39
 Full point group                 C1      NOp   1
 RotChk:  IX=0 Diff= 2.50D-03
 Largest Abelian subgroup         C1      NOp   1
 Largest concise Abelian subgroup C1      NOp   1
                         Standard orientation:                         
 ---------------------------------------------------------------------
 Center     Atomic      Atomic             Coordinates (Angstroms)
 Number     Number       Type             X           Y           Z
 ---------------------------------------------------------------------
      1          6           0        1.142289    1.526539   -0.036408
      2          1           0        2.041768    2.056452   -0.072078
      3          7           0        0.000438    2.216063   -0.037725
      4          6           0       -1.141472    1.527236   -0.011295
      5          6           0        1.168907    0.136277   -0.008300
      6          1           0       -2.055776    2.059534    0.008316
      7          6           0        0.000694   -0.600455    0.014335
      8          1           0       -0.000395   -1.618819    0.081009
      9          7           0        2.465211   -0.562069    0.003165
     10          8           0        2.443467   -1.778666   -0.094904
     11          8           0        3.469699    0.125476    0.112714
     12          6           0       -1.169899    0.136962    0.005691
     13          7           0       -2.465558   -0.563433    0.013614
     14          8           0       -2.437384   -1.783170    0.005542
     15          8           0       -3.474450    0.125054    0.019802
 ---------------------------------------------------------------------
 Rotational constants (GHZ):      2.0064236      0.6167844      0.4721233
 Leave Link  202 at Thu Aug 26 12:14:49 2021, MaxMem= 24159191040 cpu:         0.3
 (Enter /public/home/users/caep010/software/Gaussian09/g09/l301.exe)
 Standard basis: GTBas3 (6D, 7F)
 Ernie: Thresh=  0.10000D-02 Tol=  0.10000D-05 Strict=F.
 There are   387 symmetry adapted cartesian basis functions of A   symmetry.
 There are   351 symmetry adapted basis functions of A   symmetry.
   351 basis functions,   549 primitive gaussians,   387 cartesian basis functions
    43 alpha electrons       43 beta electrons
       nuclear repulsion energy       672.3566683215 Hartrees.
 IExCor=  402 DFT=T Ex+Corr=B3LYP ExCW=0 ScaHFX=  0.200000
 ScaDFX=  0.800000  0.720000  1.000000  0.810000 ScalE2=  1.000000  1.000000
 IRadAn=      0 IRanWt=     -1 IRanGd=            0 ICorTp=0 IEmpDi=  4
 NAtoms=   15 NActive=   15 NUniq=   15 SFac= 1.00D+00 NAtFMM=   60 NAOKFM=F Big=F
 Integral buffers will be    131072 words long.
 Raffenetti 2 integral format.
 Two-electron integral symmetry is turned on.
 Leave Link  301 at Thu Aug 26 12:14:49 2021, MaxMem= 24159191040 cpu:         1.8
 (Enter /public/home/users/caep010/software/Gaussian09/g09/l302.exe)
 NPDir=0 NMtPBC=     1 NCelOv=     1 NCel=       1 NClECP=     1 NCelD=      1
         NCelK=      1 NCelE2=     1 NClLst=     1 CellRange=     0.0.
 One-electron integrals computed using PRISM.
 NBasis=   351 RedAO= T EigKep=  1.14D-04  NBF=   351
 NBsUse=   351 1.00D-06 EigRej= -1.00D+00 NBFU=   351
 Precomputing XC quadrature grid using
 IXCGrd= 4 IRadAn=           0 IRanWt=          -1 IRanGd=           0 AccXCQ= 0.00D+00.
 Generated NRdTot=       0 NPtTot=           0 NUsed=           0 NTot=          32
 NSgBfM=   387   387   387   387   387 MxSgAt=    15 MxSgA2=    15.
 Leave Link  302 at Thu Aug 26 12:14:50 2021, MaxMem= 24159191040 cpu:        17.2
 (Enter /public/home/users/caep010/software/Gaussian09/g09/l303.exe)
 DipDrv:  MaxL=1.
 Leave Link  303 at Thu Aug 26 12:14:50 2021, MaxMem= 24159191040 cpu:         0.9
 (Enter /public/home/users/caep010/software/Gaussian09/g09/l401.exe)
 Initial guess from the checkpoint file:  "/public/home/users/caep010/.cache/gau_scr/Gau-221438.chk"
 B after Tr=     0.000000    0.000000    0.000000
         Rot=    1.000000   -0.000141   -0.000013    0.000283 Ang=  -0.04 deg.
 Guess basis will be translated and rotated to current coordinates.
 JPrj=2 DoOrth=T DoCkMO=T.
 Generating alternative initial guess.
 ExpMin= 1.61D-01 ExpMax= 5.48D+03 ExpMxC= 8.25D+02 IAcc=1 IRadAn=         1 AccDes= 0.00D+00
 Harris functional with IExCor=  402 and IRadAn=       1 diagonalized for initial guess.
 HarFok:  IExCor=  402 AccDes= 0.00D+00 IRadAn=         1 IDoV= 1 UseB2=F ITyADJ=14
 ICtDFT=  3500011 ScaDFX=  1.000000  1.000000  1.000000  1.000000
 FoFCou: FMM=F IPFlag=           0 FMFlag=      100000 FMFlg1=           0
         NFxFlg=           0 DoJE=T BraDBF=F KetDBF=T FulRan=T
         wScrn=  0.000000 ICntrl=     500 IOpCl=  0 I1Cent=   200000004 NGrid=           0
         NMat0=    1 NMatS0=      1 NMatT0=    0 NMatD0=    1 NMtDS0=    0 NMtDT0=    0
 Petite list used in FoFCou.
 Harris En= -657.337439152443    
 Leave Link  401 at Thu Aug 26 12:14:51 2021, MaxMem= 24159191040 cpu:        21.0
 (Enter /public/home/users/caep010/software/Gaussian09/g09/l502.exe)
 Closed shell SCF:
 Using DIIS extrapolation, IDIIS=  1040.
 Integral symmetry usage will be decided dynamically.
 Keep R1 ints in memory in canonical form, NReq=1937856343.
 IVT=      483025 IEndB=      483025 NGot= 24159191040 MDV= 22250540040
 LenX= 22250540040 LenY= 22250389830
 Requested convergence on RMS density matrix=1.00D-08 within 128 cycles.
 Requested convergence on MAX density matrix=1.00D-06.
 Requested convergence on             energy=1.00D-06.
 No special actions if energy rises.
 FoFCou: FMM=F IPFlag=           0 FMFlag=           0 FMFlg1=           0
         NFxFlg=           0 DoJE=F BraDBF=F KetDBF=F FulRan=T
         wScrn=  0.000000 ICntrl=     600 IOpCl=  0 I1Cent=           0 NGrid=           0
         NMat0=    1 NMatS0=  61776 NMatT0=    0 NMatD0=    1 NMtDS0=    0 NMtDT0=    0
 Symmetry not used in FoFCou.
 Integral accuracy reduced to 1.0D-05 until final iterations.

 Cycle   1  Pass 0  IDiag  1:
 E= -657.311107308775    
 DIIS: error= 3.90D-03 at cycle   1 NSaved=   1.
 NSaved= 1 IEnMin= 1 EnMin= -657.311107308775     IErMin= 1 ErrMin= 3.90D-03
 ErrMax= 3.90D-03  0.00D+00 EMaxC= 1.00D-01 BMatC= 5.48D-03 BMatP= 5.48D-03
 IDIUse=3 WtCom= 9.61D-01 WtEn= 3.90D-02
 Coeff-Com:  0.100D+01
 Coeff-En:   0.100D+01
 Coeff:      0.100D+01
 Gap=     1.031 Goal=   None    Shift=    0.000
 GapD=    1.031 DampG=2.000 DampE=1.000 DampFc=2.0000 IDamp=-1.
 RMSDP=6.28D-04 MaxDP=3.76D-02              OVMax= 2.02D-02

 Cycle   2  Pass 0  IDiag  1:
 E= -657.315253317691     Delta-E=       -0.004146008916 Rises=F Damp=F
 DIIS: error= 1.98D-03 at cycle   2 NSaved=   2.
 NSaved= 2 IEnMin= 2 EnMin= -657.315253317691     IErMin= 2 ErrMin= 1.98D-03
 ErrMax= 1.98D-03  0.00D+00 EMaxC= 1.00D-01 BMatC= 8.75D-04 BMatP= 5.48D-03
 IDIUse=3 WtCom= 9.80D-01 WtEn= 1.98D-02
 Coeff-Com:  0.207D+00 0.793D+00
 Coeff-En:   0.000D+00 0.100D+01
 Coeff:      0.202D+00 0.798D+00
 Gap=     0.179 Goal=   None    Shift=    0.000
 RMSDP=1.69D-04 MaxDP=1.28D-02 DE=-4.15D-03 OVMax= 2.48D-02

 Cycle   3  Pass 0  IDiag  1:
 E= -657.315330508161     Delta-E=       -0.000077190470 Rises=F Damp=F
 DIIS: error= 1.63D-03 at cycle   3 NSaved=   3.
 NSaved= 3 IEnMin= 3 EnMin= -657.315330508161     IErMin= 3 ErrMin= 1.63D-03
 ErrMax= 1.63D-03  0.00D+00 EMaxC= 1.00D-01 BMatC= 8.94D-04 BMatP= 8.75D-04
 IDIUse=3 WtCom= 9.84D-01 WtEn= 1.63D-02
 Coeff-Com:  0.333D-01 0.499D+00 0.468D+00
 Coeff-En:   0.000D+00 0.480D+00 0.520D+00
 Coeff:      0.328D-01 0.498D+00 0.469D+00
 Gap=     0.182 Goal=   None    Shift=    0.000
 RMSDP=9.38D-05 MaxDP=6.10D-03 DE=-7.72D-05 OVMax= 1.31D-02

 Cycle   4  Pass 0  IDiag  1:
 E= -657.316120668205     Delta-E=       -0.000790160045 Rises=F Damp=F
 DIIS: error= 3.71D-04 at cycle   4 NSaved=   4.
 NSaved= 4 IEnMin= 4 EnMin= -657.316120668205     IErMin= 4 ErrMin= 3.71D-04
 ErrMax= 3.71D-04  0.00D+00 EMaxC= 1.00D-01 BMatC= 3.94D-05 BMatP= 8.75D-04
 IDIUse=3 WtCom= 9.96D-01 WtEn= 3.71D-03
 Coeff-Com:  0.445D-02 0.220D+00 0.246D+00 0.529D+00
 Coeff-En:   0.000D+00 0.000D+00 0.000D+00 0.100D+01
 Coeff:      0.444D-02 0.219D+00 0.245D+00 0.531D+00
 Gap=     0.181 Goal=   None    Shift=    0.000
 RMSDP=2.48D-05 MaxDP=1.67D-03 DE=-7.90D-04 OVMax= 2.85D-03

 Cycle   5  Pass 0  IDiag  1:
 E= -657.316147688278     Delta-E=       -0.000027020072 Rises=F Damp=F
 DIIS: error= 1.93D-04 at cycle   5 NSaved=   5.
 NSaved= 5 IEnMin= 5 EnMin= -657.316147688278     IErMin= 5 ErrMin= 1.93D-04
 ErrMax= 1.93D-04  0.00D+00 EMaxC= 1.00D-01 BMatC= 9.85D-06 BMatP= 3.94D-05
 IDIUse=3 WtCom= 9.98D-01 WtEn= 1.93D-03
 Coeff-Com: -0.293D-02 0.625D-01 0.803D-01 0.349D+00 0.511D+00
 Coeff-En:   0.000D+00 0.000D+00 0.000D+00 0.238D+00 0.762D+00
 Coeff:     -0.292D-02 0.624D-01 0.801D-01 0.349D+00 0.512D+00
 Gap=     0.181 Goal=   None    Shift=    0.000
 RMSDP=9.57D-06 MaxDP=5.04D-04 DE=-2.70D-05 OVMax= 1.17D-03

 Initial convergence to 1.0D-05 achieved.  Increase integral accuracy.
 Cycle   6  Pass 1  IDiag  1:
 E= -657.316173957897     Delta-E=       -0.000026269620 Rises=F Damp=F
 DIIS: error= 4.06D-05 at cycle   1 NSaved=   1.
 NSaved= 1 IEnMin= 1 EnMin= -657.316173957897     IErMin= 1 ErrMin= 4.06D-05
 ErrMax= 4.06D-05  0.00D+00 EMaxC= 1.00D-01 BMatC= 1.16D-06 BMatP= 1.16D-06
 IDIUse=1 WtCom= 1.00D+00 WtEn= 0.00D+00
 Coeff-Com:  0.100D+01
 Coeff:      0.100D+01
 Gap=     0.181 Goal=   None    Shift=    0.000
 RMSDP=9.57D-06 MaxDP=5.04D-04 DE=-2.63D-05 OVMax= 1.26D-03

 Cycle   7  Pass 1  IDiag  1:
 E= -657.316168100924     Delta-E=        0.000005856973 Rises=F Damp=F
 DIIS: error= 1.27D-04 at cycle   2 NSaved=   2.
 NSaved= 2 IEnMin= 1 EnMin= -657.316173957897     IErMin= 1 ErrMin= 4.06D-05
 ErrMax= 1.27D-04  0.00D+00 EMaxC= 1.00D-01 BMatC= 8.59D-06 BMatP= 1.16D-06
 IDIUse=3 WtCom= 4.70D-01 WtEn= 5.30D-01
 Coeff-Com:  0.746D+00 0.254D+00
 Coeff-En:   0.826D+00 0.174D+00
 Coeff:      0.788D+00 0.212D+00
 Gap=     0.181 Goal=   None    Shift=    0.000
 RMSDP=6.11D-06 MaxDP=4.37D-04 DE= 5.86D-06 OVMax= 8.43D-04

 Cycle   8  Pass 1  IDiag  1:
 E= -657.316174809021     Delta-E=       -0.000006708097 Rises=F Damp=F
 DIIS: error= 1.41D-05 at cycle   3 NSaved=   3.
 NSaved= 3 IEnMin= 3 EnMin= -657.316174809021     IErMin= 3 ErrMin= 1.41D-05
 ErrMax= 1.41D-05  0.00D+00 EMaxC= 1.00D-01 BMatC= 1.36D-07 BMatP= 1.16D-06
 IDIUse=1 WtCom= 1.00D+00 WtEn= 0.00D+00
 Coeff-Com:  0.128D+00-0.662D-01 0.938D+00
 Coeff:      0.128D+00-0.662D-01 0.938D+00
 Gap=     0.181 Goal=   None    Shift=    0.000
 RMSDP=1.22D-06 MaxDP=6.70D-05 DE=-6.71D-06 OVMax= 9.61D-05

 Cycle   9  Pass 1  IDiag  1:
 E= -657.316174889588     Delta-E=       -0.000000080568 Rises=F Damp=F
 DIIS: error= 1.10D-05 at cycle   4 NSaved=   4.
 NSaved= 4 IEnMin= 4 EnMin= -657.316174889588     IErMin= 4 ErrMin= 1.10D-05
 ErrMax= 1.10D-05  0.00D+00 EMaxC= 1.00D-01 BMatC= 4.05D-08 BMatP= 1.36D-07
 IDIUse=1 WtCom= 1.00D+00 WtEn= 0.00D+00
 Coeff-Com:  0.365D-02-0.715D-01 0.624D+00 0.444D+00
 Coeff:      0.365D-02-0.715D-01 0.624D+00 0.444D+00
 Gap=     0.181 Goal=   None    Shift=    0.000
 RMSDP=4.49D-07 MaxDP=3.64D-05 DE=-8.06D-08 OVMax= 3.63D-05

 Cycle  10  Pass 1  IDiag  1:
 E= -657.316174919048     Delta-E=       -0.000000029459 Rises=F Damp=F
 DIIS: error= 1.76D-06 at cycle   5 NSaved=   5.
 NSaved= 5 IEnMin= 5 EnMin= -657.316174919048     IErMin= 5 ErrMin= 1.76D-06
 ErrMax= 1.76D-06  0.00D+00 EMaxC= 1.00D-01 BMatC= 1.41D-09 BMatP= 4.05D-08
 IDIUse=1 WtCom= 1.00D+00 WtEn= 0.00D+00
 Coeff-Com: -0.758D-02-0.332D-01 0.269D+00 0.234D+00 0.538D+00
 Coeff:     -0.758D-02-0.332D-01 0.269D+00 0.234D+00 0.538D+00
 Gap=     0.181 Goal=   None    Shift=    0.000
 RMSDP=1.37D-07 MaxDP=7.31D-06 DE=-2.95D-08 OVMax= 6.85D-06

 Cycle  11  Pass 1  IDiag  1:
 E= -657.316174919869     Delta-E=       -0.000000000822 Rises=F Damp=F
 DIIS: error= 5.19D-07 at cycle   6 NSaved=   6.
 NSaved= 6 IEnMin= 6 EnMin= -657.316174919869     IErMin= 6 ErrMin= 5.19D-07
 ErrMax= 5.19D-07  0.00D+00 EMaxC= 1.00D-01 BMatC= 1.52D-10 BMatP= 1.41D-09
 IDIUse=1 WtCom= 1.00D+00 WtEn= 0.00D+00
 Coeff-Com: -0.465D-02-0.161D-01 0.130D+00 0.118D+00 0.330D+00 0.444D+00
 Coeff:     -0.465D-02-0.161D-01 0.130D+00 0.118D+00 0.330D+00 0.444D+00
 Gap=     0.181 Goal=   None    Shift=    0.000
 RMSDP=4.05D-08 MaxDP=2.45D-06 DE=-8.22D-10 OVMax= 4.03D-06

 Cycle  12  Pass 1  IDiag  1:
 E= -657.316174920010     Delta-E=       -0.000000000140 Rises=F Damp=F
 DIIS: error= 3.07D-07 at cycle   7 NSaved=   7.
 NSaved= 7 IEnMin= 7 EnMin= -657.316174920010     IErMin= 7 ErrMin= 3.07D-07
 ErrMax= 3.07D-07  0.00D+00 EMaxC= 1.00D-01 BMatC= 2.70D-11 BMatP= 1.52D-10
 IDIUse=1 WtCom= 1.00D+00 WtEn= 0.00D+00
 Coeff-Com: -0.203D-02-0.612D-02 0.493D-01 0.459D-01 0.145D+00 0.311D+00
 Coeff-Com:  0.457D+00
 Coeff:     -0.203D-02-0.612D-02 0.493D-01 0.459D-01 0.145D+00 0.311D+00
 Coeff:      0.457D+00
 Gap=     0.181 Goal=   None    Shift=    0.000
 RMSDP=1.82D-08 MaxDP=1.44D-06 DE=-1.40D-10 OVMax= 2.27D-06

 Cycle  13  Pass 1  IDiag  1:
 E= -657.316174919998     Delta-E=        0.000000000012 Rises=F Damp=F
 DIIS: error= 1.40D-07 at cycle   8 NSaved=   8.
 NSaved= 8 IEnMin= 7 EnMin= -657.316174920010     IErMin= 8 ErrMin= 1.40D-07
 ErrMax= 1.40D-07  0.00D+00 EMaxC= 1.00D-01 BMatC= 7.38D-12 BMatP= 2.70D-11
 IDIUse=1 WtCom= 1.00D+00 WtEn= 0.00D+00
 Coeff-Com: -0.431D-03-0.762D-03 0.611D-02 0.615D-02 0.290D-01 0.135D+00
 Coeff-Com:  0.363D+00 0.461D+00
 Coeff:     -0.431D-03-0.762D-03 0.611D-02 0.615D-02 0.290D-01 0.135D+00
 Coeff:      0.363D+00 0.461D+00
 Gap=     0.181 Goal=   None    Shift=    0.000
 RMSDP=7.95D-09 MaxDP=4.42D-07 DE= 1.16D-11 OVMax= 8.62D-07

 SCF Done:  E(RB3LYP) =  -657.316174920     A.U. after   13 cycles
            NFock= 13  Conv=0.79D-08     -V/T= 2.0059
 KE= 6.534440575456D+02 PE=-2.882719747503D+03 EE= 8.996028467154D+02
 Leave Link  502 at Thu Aug 26 12:15:42 2021, MaxMem= 24159191040 cpu:       291.2
 (Enter /public/home/users/caep010/software/Gaussian09/g09/l701.exe)
 Compute integral first derivatives.
 ... and contract with generalized density number  0.
 Leave Link  701 at Thu Aug 26 12:15:42 2021, MaxMem= 24159191040 cpu:        16.1
 (Enter /public/home/users/caep010/software/Gaussian09/g09/l702.exe)
 L702 exits ... SP integral derivatives will be done elsewhere.
 Leave Link  702 at Thu Aug 26 12:15:43 2021, MaxMem= 24159191040 cpu:         0.5
 (Enter /public/home/users/caep010/software/Gaussian09/g09/l703.exe)
 Compute integral first derivatives, UseDBF=F ICtDFT=           0.
 Integral derivatives from FoFJK, PRISM(SPDF).
 Calling FoFJK, ICntrl=      2127 FMM=F ISym2X=0 I1Cent= 0 IOpClX= 0 NMat=1 NMatS=1 NMatT=0.
 FoFJK:  IHMeth= 1 ICntrl=    2127 DoSepK=F KAlg= 0 I1Cent=   0 FoldK=F
 IRaf=         0 NMat=   1 IRICut=       1 DoRegI=T DoRafI=F ISym2E= 0.
 FoFCou: FMM=F IPFlag=           0 FMFlag=      100000 FMFlg1=         800
         NFxFlg=           0 DoJE=F BraDBF=F KetDBF=F FulRan=T
         wScrn=  0.000000 ICntrl=    2127 IOpCl=  0 I1Cent=           0 NGrid=           0
         NMat0=    1 NMatS0=      1 NMatT0=    0 NMatD0=    1 NMtDS0=    0 NMtDT0=    0
 Symmetry not used in FoFCou.
 Leave Link  703 at Thu Aug 26 12:15:49 2021, MaxMem= 24159191040 cpu:       192.4
 (Enter /public/home/users/caep010/software/Gaussian09/g09/l716.exe)
 Dipole        =-4.56288062D-03 6.26831120D-01 8.38983830D-03
 ***** Axes restored to original set *****
 -------------------------------------------------------------------
 Center     Atomic                   Forces (Hartrees/Bohr)
 Number     Number              X              Y              Z
 -------------------------------------------------------------------
[...]
    13  N   -0.054842  -0.002760  -0.000356   0.001585   0.000054   0.361783
    14  O    0.036104   0.004473   0.001585  -0.001119   0.000026  -0.101413
    15  O   -0.001658  -0.000016   0.000054   0.000026  -0.000033  -0.072737
              13         14         15
     1  C    0.003201  -0.000261   0.003467
     2  H   -0.000109   0.000003   0.000002
     3  N    0.004486  -0.001527   0.000314
     4  C   -0.044017   0.008967   0.004031
     5  C    0.001615  -0.009148  -0.001362
     6  H    0.002297  -0.000361   0.001271
     7  C   -0.054842   0.036104  -0.001658
     8  H   -0.002760   0.004473  -0.000016
     9  N   -0.000356   0.001585   0.000054
    10  O    0.001585  -0.001119   0.000026
    11  O    0.000054   0.000026  -0.000033
    12  C    0.361783  -0.101413  -0.072737
    13  N    5.497886   0.358000   0.333739
    14  O    0.358000   8.221551  -0.088368
    15  O    0.333739  -0.088368   8.238369
 Mulliken charges:
               1
     1  C   -0.033495
     2  H    0.281448
     3  N   -0.459105
     4  C   -0.033430
     5  C    0.187065
     6  H    0.281426
     7  C   -0.104046
     8  H    0.309462
     9  N    0.537411
    10  O   -0.428505
    11  O   -0.417087
    12  C    0.187026
    13  N    0.537439
    14  O   -0.428510
    15  O   -0.417100
 Sum of Mulliken charges =  -0.00000
 Mulliken charges with hydrogens summed into heavy atoms:
               1
     1  C    0.247953
     3  N   -0.459105
     4  C    0.247996
     5  C    0.187065
     7  C    0.205416
     9  N    0.537411
    10  O   -0.428505
    11  O   -0.417087
    12  C    0.187026
    13  N    0.537439
    14  O   -0.428510
    15  O   -0.417100
 Electronic spatial extent (au):  <R**2>=           2123.8048
 Charge=             -0.0000 electrons
 Dipole moment (field-independent basis, Debye):
    X=             -0.0001    Y=              2.2279    Z=              0.0010  Tot=              2.2279
 Quadrupole moment (field-independent basis, Debye-Ang):
   XX=            -89.0183   YY=            -73.5721   ZZ=            -65.1499
   XY=              0.0004   XZ=             -0.0031   YZ=             -0.0010
 Traceless Quadrupole moment (field-independent basis, Debye-Ang):
   XX=            -13.1049   YY=              2.3413   ZZ=             10.7636
   XY=              0.0004   XZ=             -0.0031   YZ=             -0.0010
 Octapole moment (field-independent basis, Debye-Ang**2):
  XXX=             -0.0003  YYY=            -11.8270  ZZZ=             -0.0010  XYY=              0.0007
  XXY=             26.7774  XXZ=              0.0073  XZZ=             -0.0006  YZZ=             -5.9662
  YYZ=              0.0010  XYZ=             -0.0012
 Hexadecapole moment (field-independent basis, Debye-Ang**3):
 XXXX=          -2221.7222 YYYY=           -727.2893 ZZZZ=            -60.8987 XXXY=              0.0051
 XXXZ=             -0.0128 YYYX=              0.0033 YYYZ=             -0.0109 ZZZX=              0.0020
 ZZZY=             -0.0018 XXYY=           -433.3990 XXZZ=           -304.7646 YYZZ=           -121.6228
 XXYZ=              0.0055 YYXZ=             -0.0164 ZZXY=             -0.0010
 N-N= 6.708308192387D+02 E-N=-2.876822481857D+03  KE= 6.528634104603D+02
 No NMR shielding tensors so no spin-rotation constants.
 Leave Link  601 at Thu Aug 26 16:30:51 2021, MaxMem= 24159191040 cpu:        42.5
 (Enter /public/home/users/caep010/software/Gaussian09/g09/l9999.exe)
 1\1\GINC-B1366\SP\RHF\GFHFB2\C5H3N3O4\ROOT\26-Aug-2021\0\\#P Geom=AllC
 heck Guess=TCheck SCRF=Check HF/GFHFB2 SCF=Tight\\DNITPY\\0,1\C,0,3.82
 44781812,2.4186760803,-1.0754130712\H,0,4.5909421467,1.7275292,-0.7426
 54947\N,0,3.6427309529,3.5356904839,-0.3690306154\C,0,2.6999503445,4.3
 858676912,-0.7790599103\C,0,3.0699864928,2.1219299499,-2.2086392315\H,
 0,2.5516967997,5.2936105798,-0.205205088\C,0,2.0863649611,2.9899095582
 ,-2.6520691574\H,0,1.4885987251,2.7800985784,-3.5274993464\N,0,3.31878
 60628,0.8700416852,-2.9467437766\O,0,2.629692822,0.6577582923,-3.93275
 94903\O,0,4.1967444206,0.1364089916,-2.5172963368\C,0,1.9149200149,4.1
 4276852,-1.9043086941\N,0,0.8887482987,5.1220395808,-2.3066403964\O,0,
 0.2279950974,4.8608585088,-3.3002752569\O,0,0.7748646796,6.1237122995,
 -1.6159046818\\Version=ES64L-G09RevE.01\State=1-A\HF=-653.9109652\RMSD
 =4.966e-09\Dipole=0.4841119,0.1697053,0.7107096\Quadrupole=1.79678,-5.
 3864553,3.5896753,6.8451574,-1.6739497,-2.9626211\PG=C01 [X(C5H3N3O4)]
 \\@


 A leading authority is anyone who has guessed right more than once.
 -- Frank A. Clark
 Diagonal vibrational polarizability:
        0.0000000       0.0000000       0.0000000

 Temperature=              298.150000 Pressure=                      1.000000
 E(ZPE)=                     0.092326 E(Thermal)=                    0.101657
 E(CCSD(T))=              -655.574230 E(Empiric)=                   -0.215357
 DE(Plus)=                  -0.045707 DE(2DF)=                      -0.437327
 E(Delta-G3XP)=             -0.795121 DE(HF)=                       -0.065049
 G4(0 K)=                 -657.040466 G4 Energy=                  -657.031135
 G4 Enthalpy=             -657.030191 G4 Free Energy=             -657.076698
 1\1\GINC-B1366\Mixed\G4\G4\C5H3N3O4\ROOT\26-Aug-2021\0\\#P Geom=AllChe
 ck Guess=TCheck SCRF=Check HF/GFHFB2 SCF=Tight\\DNITPY\\0,1\C,0,3.8244
 781812,2.4186760803,-1.0754130712\H,0,4.5909421467,1.7275292,-0.742654
 947\N,0,3.6427309529,3.5356904839,-0.3690306154\C,0,2.6999503445,4.385
 8676912,-0.7790599103\C,0,3.0699864928,2.1219299499,-2.2086392315\H,0,
 2.5516967997,5.2936105798,-0.205205088\C,0,2.0863649611,2.9899095582,-
 2.6520691574\H,0,1.4885987251,2.7800985784,-3.5274993464\N,0,3.3187860
 628,0.8700416852,-2.9467437766\O,0,2.629692822,0.6577582923,-3.9327594
 903\O,0,4.1967444206,0.1364089916,-2.5172963368\C,0,1.9149200149,4.142
 76852,-1.9043086941\N,0,0.8887482987,5.1220395808,-2.3066403964\O,0,0.
 2279950974,4.8608585088,-3.3002752569\O,0,0.7748646796,6.1237122995,-1
 .6159046818\\Version=ES64L-G09RevE.01\State=1-A\MP2/GTBas1=-655.485583
 5\MP4/GTBas1=-655.5978308\CCSD(T)/G3Bas1=-655.5742298\MP2/GTBas2=-655.
 5282017\MP4/GTBas2=-655.643538\MP2/GTBas3=-655.8981837\MP4/GTBas3=-656
 .035158\HF/GTLargeXP=-653.8483984\MP2/GTLargeXP=-656.7359232\HF/GFHFB1
 =-653.9007772\HF/GFHFB2=-653.9109652\G4=-657.0404657\FreqCoord=7.22721
 63637,4.570635396,-2.0322361842,8.6756233492,3.2645570746,-1.403414461
 1,6.8837638767,6.6814867052,-0.6973667977,5.1021667235,8.2880887915,-1
 .4722098715,5.8014337031,4.0098664784,-4.173723274,4.8220081256,10.003
 47425,-0.3877814174,3.9426583898,5.6501102272,-5.011684393,2.813043912
 2,5.2536249356,-6.6660076986,6.2715967524,1.6441405093,-5.5685387216,4
 .9693992473,1.242983034,-7.4318383832,7.9306976047,0.2577756362,-4.757
 0006719,3.6186743945,7.8286979347,-3.5986219043,1.6794908857,9.6792520
 495,-4.3589186362,0.4308482936,9.1856913523,-6.2366163987,1.4642820344
 ,11.5721391627,-3.0536173054\PG=C01 [X(C5H3N3O4)]\NImag=0\\0.49039495,
 -0.21544841,0.60520023,0.20172713,0.10633250,0.49347905,-0.19830988,0.
 12709363,-0.07371413,0.19811959,0.12649633,-0.15735890,0.05776629,-0.1
 4542278,0.17423295,-0.07418331,0.05845555,-0.08591166,0.08035567,-0.05
 076559,0.08085471,-0.10315159,0.03478890,-0.01074670,0.00003269,0.0178
 8823,0.01735052,0.32438443,0.05448923,-0.26978898,-0.10073241,0.002477
 43,-0.02287810,-0.01413178,-0.20697921,0.52501943,0.00548410,-0.123924
 03,-0.16534209,0.00465607,0.00401534,0.00659815,0.10023649,0.11094874,
 0.30401810,-0.00287339,0.06146212,0.04277449,0.00590961,0.00377386,-0.
 00217941,-0.20938573,0.10909391,-0.07469314,0.43404407,0.03408166,-0.0
 6710012,-0.01829461,0.00216447,-0.00025138,-0.00622415,0.12879673,-0.2
 0461745,0.04053825,-0.17631795,0.64004949,0.02020614,0.01396178,0.0391
 1443,-0.00350243,-0.00433733,0.00270479,-0.05844737,0.01732989,-0.1242
 6846,0.16784310,0.18118543,0.51540679,-0.16895069,0.02415945,-0.090933
 32,-0.00484561,-0.00244100,-0.01944285,0.04415788,-0.04937291,-0.01609
 901,-0.04212356,0.01290689,-0.02727267,0.46926423,-0.01380922,-0.11264
 027,-0.04740846,0.01260372,0.00929107,0.01430395,-0.01285797,-0.002722
 97,-0.03658441,0.00604888,-0.00581018,0.01052443,-0.17191259,0.4836070
 2,-0.12221620,-0.00266308,-0.22099510,-0.00703272,-0.00342017,-0.00116
 024,0.01399505,-0.07959628,-0.02581456,-0.03293209,0.01859977,-0.03339
 721,0.24264081,0.07814820,0.49307703,0.00251608,0.00614960,-0.00422313
 ,0.00025965,0.00064436,0.00024876,-0.00706262,0.02284121,0.01308807,-0
 .05343128,0.02539266,0.01297532,-0.00062489,0.00039302,-0.00034786,0.0
 5157079,0.00454694,0.00183399,-0.00171020,0.00009354,-0.00016382,-0.00
 043604,0.00742633,-0.01852743,-0.00471716,0.02597723,-0.24654100,-0.13
 419968,-0.00001534,0.00052508,0.00046116,-0.04313961,0.26442996,-0.005
 54767,0.00018264,0.00401468,-0.00020465,0.00021309,0.00043342,0.000384
 81,0.01344546,0.00935050,0.01345037,-0.13489888,-0.14205791,-0.0006859
 8,0.00094714,-0.00008422,-0.00780265,0.14411618,0.13764307,-0.02232180
 ,-0.00883044,-0.04614702,0.00119985,0.00043000,-0.00403858,-0.02125558
 ,0.03101323,0.01031151,0.03544319,-0.02326486,0.00998455,-0.21196837,0
 .12642778,-0.06599228,-0.00037863,0.00140301,-0.00510113,0.46743924,0.
 01712066,0.04831882,0.05118042,0.00029423,0.00039297,-0.00339297,0.031
 01995,-0.05962700,-0.00575763,-0.04922460,0.01287660,-0.05615367,0.091
 43333,-0.18177563,0.01353260,0.00153634,0.00136391,-0.00113248,-0.1552
 9824,0.56180396,-0.02475619,0.02058504,-0.00150758,-0.00414687,-0.0032
 3169,-0.00261705,0.01030350,-0.00575462,-0.00091471,-0.01140806,-0.025
 57487,-0.02382859,-0.09481217,0.05477195,-0.13403790,-0.00498711,-0.00
 128892,-0.00200927,0.24644232,0.15673809,0.56838669,0.00074006,0.00520
 861,-0.00256852,-0.00038278,-0.00048079,-0.00065351,-0.00125671,-0.000
 52360,0.00142747,0.00299462,0.00353392,-0.00129337,-0.00506162,-0.0034
 4666,-0.01768834,0.00028428,-0.00003841,0.00049898,-0.14092162,-0.0295
 9972,-0.13756381,0.13924265,0.00511332,-0.00173917,-0.00082083,0.00042
 921,0.00047408,0.00103307,-0.00052178,-0.00113798,0.00078406,0.0036312
 4,-0.00312373,-0.00370639,0.01108941,0.01002071,0.01507435,-0.00094843
 ,0.00006518,-0.00092950,-0.02960196,-0.06237216,-0.04939028,0.02827644
 ,0.05703053,-0.00265653,-0.00070890,0.00286463,0.00009621,-0.00003952,
 -0.00008474,0.00142877,0.00078644,-0.00050858,-0.00121579,-0.00382425,
 0.00199376,-0.00574126,-0.00203055,-0.00085858,-0.00025091,0.00014342,
 -0.00034297,-0.13752983,-0.04936904,-0.24700884,0.15325563,0.05655803,
 0.25547151,0.01431091,-0.01543800,0.00617095,-0.00355549,-0.00084199,-
 0.00162536,0.00186176,-0.00216932,-0.01042212,-0.00362620,0.00183627,-
 0.00221663,-0.09760741,0.00704347,-0.00678114,-0.00122807,-0.00061674,
 0.00075633,0.00032101,0.01940543,0.01570737,-0.00358977,-0.00103815,0.
 00114710,0.63796210,-0.01202625,-0.01253575,-0.02306926,0.00143544,-0.
 00000532,0.00396328,0.00122984,0.01037845,0.00243149,0.00119322,-0.001
 52700,0.00052188,0.00841947,-0.11220064,-0.01090555,-0.00051799,-0.000
 95475,0.00049651,0.01467056,-0.03145137,-0.00908755,-0.00305520,0.0002
 6900,0.00097965,-0.19054142,0.57391080,0.00896588,-0.02709948,-0.01348
 680,0.00024909,0.00128171,-0.00141348,-0.00761988,-0.00156550,-0.00107
 265,-0.00274142,0.00127835,-0.00263227,-0.00561900,-0.01252609,-0.1038
 7005,0.00083866,0.00038460,-0.00100064,0.01179201,-0.00348475,0.011560
 59,-0.00052061,0.00335392,-0.00313555,0.31948513,0.05617533,0.65568492
 ,0.00107891,0.00092875,-0.00144559,0.00055016,0.00064232,0.00122118,-0
 .00058239,-0.00104411,0.00079357,0.00047317,0.00045369,0.00092553,0.01
 247026,-0.00828042,-0.01741046,0.00037220,0.00010731,-0.00001619,-0.00
 388211,0.00661387,0.00020266,0.00153363,-0.00017388,0.00166983,-0.2283
 2470,-0.03040821,-0.20293949,0.26249742,0.00673506,-0.00397830,0.00221
 978,-0.00040144,-0.00007466,-0.00050295,-0.00143664,-0.00335412,-0.002
 81987,-0.00130387,0.00061995,-0.00102756,-0.01827560,-0.00689225,-0.04
 486967,0.00008172,0.00014368,-0.00016569,0.00052161,-0.00307477,-0.002
 39352,-0.00061296,-0.00231986,-0.00262482,-0.03548527,-0.14076149,-0.0
 9410738,0.02084012,0.12578295,0.00333498,-0.00461526,0.00308880,0.0003
 6183,0.00072589,0.00098536,0.00047257,-0.00235609,-0.00337725,-0.00052
 247,0.00104124,0.00024744,-0.02564459,-0.03310816,-0.03598591,-0.00003
 866,-0.00013596,0.00030601,-0.00481553,0.00477722,-0.00115815,0.001309
 07,-0.00210730,-0.00020227,-0.20711865,-0.08812732,-0.39360783,0.29297
 713,0.10488970,0.45947980,-0.00428521,-0.00164715,-0.00723754,0.001537
 84,-0.00010418,0.00195588,0.00047272,0.00105653,0.00178350,0.00048641,
 -0.00065999,0.00009714,-0.00807599,0.03689391,-0.00343210,0.00021849,-
 0.00008441,0.00003532,0.00247193,0.00227091,0.00177568,0.00115241,-0.0
 0112065,-0.00041600,-0.31785293,0.20404800,-0.11488361,-0.04669466,0.0
 3056473,-0.06128977,0.37158902,0.00309124,-0.00141566,0.00188886,0.000
 36361,-0.00303580,-0.00191119,0.00033532,-0.00126011,-0.00039394,0.000
 55833,-0.00021022,0.00053275,0.04625990,-0.04013431,0.00440657,-0.0000
 1936,0.00012003,-0.00002974,-0.00239946,-0.00229770,-0.00682094,-0.000
 16721,0.00087663,-0.00006843,0.21015780,-0.29081986,0.07176911,0.01265
 551,0.03349148,0.02044886,-0.27142871,0.30790348,-0.00333434,-0.003688
 78,-0.00625481,0.00234173,-0.00246231,0.00053207,0.00118941,0.00045400
 ,0.00147233,0.00110042,-0.00090185,0.00049430,0.00427817,-0.00661664,0
 .02023380,0.00008910,-0.00010708,0.00014624,-0.00206976,-0.00132527,-0
 .00097256,0.00037126,-0.00119159,0.00017497,-0.10985512,0.06457570,-0.
 15368575,-0.07603769,0.04153378,-0.02856074,0.18031889,-0.08949210,0.1
 6713925,-0.00844757,-0.01749949,-0.01267255,0.00046011,-0.00036454,0.0
 0030642,-0.03051960,0.03937171,-0.03094045,-0.14426433,-0.03103321,-0.
 10736168,0.00685305,0.02008629,0.01756369,0.00923740,0.00276132,0.0014
 3871,-0.09704411,0.04603024,0.00315677,0.00904005,-0.01330688,-0.00922
 622,0.00064487,0.00540456,-0.00679933,0.00067216,-0.00121083,0.0011981
 2,-0.00081701,0.00081815,0.00161652,0.37848520,-0.01064516,-0.02647173
 ,-0.02615646,-0.00077492,-0.00013941,-0.00098234,0.00285233,0.04308549
 ,0.01968397,0.00695270,-0.12775676,-0.03544151,0.04800939,-0.04110345,
 0.01776009,-0.01229347,0.00065904,-0.02214049,0.01103580,-0.25225163,-
 0.13917239,0.00122822,0.00136760,-0.00367079,0.00663026,0.00554658,0.0
 0396442,-0.00246614,0.00034927,-0.00163167,-0.00021629,-0.00236988,-0.
 00087354,-0.10849457,0.53924972,-0.00701443,-0.03423473,-0.04641369,-0
 .00003093,-0.00049828,-0.00050438,-0.06104137,0.06269054,0.00305536,-0
 .07604039,-0.08017019,-0.23055830,0.04058032,-0.01515413,0.04131381,-0
 .01098170,-0.00441064,-0.00660733,-0.02570087,-0.09796014,-0.17841848,
 0.00275330,-0.02075418,-0.00630821,-0.00578965,0.00254085,0.00546723,0
 .00016177,-0.00015625,-0.00112989,0.00076408,0.00034257,-0.00043465,0.
 18806347,0.19864213,0.52816795,-0.00091517,-0.00070460,-0.00111406,-0.
 00132378,-0.00045193,0.00077897,0.00642856,-0.00195653,-0.00487093,-0.
 02183373,0.01325262,-0.01277509,0.00937591,-0.00069656,-0.00154464,-0.
 00023854,-0.00088820,0.00224635,-0.00695665,0.01975590,0.00741881,-0.0
 0209351,-0.00410376,0.00038761,0.00156458,0.00341150,0.00260117,-0.000
 72087,-0.00142921,-0.00185031,0.00002356,-0.00196232,-0.00084840,-0.10
 477653,0.01343780,-0.00994632,0.47980221,-0.00006059,-0.00319263,-0.00
 232836,-0.00054854,-0.00089600,0.00051139,-0.00536163,0.00758713,-0.00
 763618,0.00983949,0.00963066,0.02095799,0.00052030,0.00018811,-0.00762
 916,-0.00316235,-0.00203913,-0.00313099,0.02449038,-0.02698191,0.00617
 062,-0.00208333,-0.00064819,0.00136475,0.00197950,-0.00213849,-0.00086
 425,-0.00040717,0.00129733,0.00071208,-0.00064294,0.00087993,0.0004849
 1,0.01207822,-0.10781553,-0.00299401,-0.08009140,0.67094065,-0.0005828
 6,-0.00307893,-0.00367937,0.00069863,0.00062677,-0.00096245,-0.0076678
 8,-0.00364074,-0.00284501,-0.01559087,0.02497409,0.00048828,-0.0005433
 4,-0.00906543,0.00209399,0.00037119,-0.00044692,-0.00269525,0.01133994
 ,0.00057207,0.01436897,0.00204244,-0.00101595,-0.00371401,0.00142262,0
 .00082322,0.00409193,-0.00100864,-0.00049260,-0.00174221,0.00023800,-0
 .00106922,-0.00122824,-0.01109269,-0.00134968,-0.10110554,0.22446989,0
 .26607615,0.71690462,0.00023269,-0.00113445,-0.00066723,0.00025346,0.0
 0016492,-0.00010932,-0.00417930,0.00107699,-0.00169297,0.00070004,0.00
 700131,0.00310831,-0.00129976,0.00016703,0.00001161,0.00034207,-0.0002
 5639,0.00023704,-0.00018544,-0.00206123,-0.00259439,-0.00191876,0.0018
 0261,-0.00076770,-0.00025622,-0.00175411,-0.00157080,0.00035622,0.0008
 2505,0.00096525,-0.00004329,0.00075810,0.00051429,-0.02505519,0.007999
 08,-0.04822947,-0.24351562,-0.02472695,-0.21631122,0.24686616,0.000622
 58,0.00076857,0.00136313,0.00019050,0.00021649,0.00002253,0.00147053,-
 0.00114998,0.00242223,0.00119767,-0.00374166,-0.00410902,-0.00108714,0
 .00155966,0.00098463,0.00078716,0.00005191,0.00100227,0.00402934,-0.00
 534663,-0.00012461,0.00224091,-0.00020091,0.00247920,-0.00073231,0.001
 01216,0.00009444,0.00035248,-0.00056137,-0.00014091,0.00035661,-0.0005
 1809,-0.00004808,0.01798365,0.01614879,0.01680597,-0.01964733,-0.13134
 973,-0.06774357,0.03159076,0.13526033,0.00078025,-0.00070731,0.0003397
 6,-0.00008839,-0.00000825,0.00035155,-0.00136929,0.00196152,-0.0019855
 9,-0.00167456,0.00272742,0.00323409,-0.00102149,0.00246306,-0.00036864
 ,0.00109551,-0.00022747,0.00106619,0.00241950,-0.00730129,-0.00258393,
 -0.00040437,0.00196262,0.00113035,-0.00072916,-0.00111021,-0.00192170,
 0.00057614,0.00041619,0.00113475,0.00018354,0.00042523,0.00061637,-0.0
 3999581,0.00503531,-0.02150831,-0.21213467,-0.07372401,-0.38786802,0.2
 8365274,0.12539633,0.46567809,-0.00001830,0.00091146,0.00079722,0.0000
 9458,0.00006720,0.00001495,0.00005547,0.00062546,0.00093783,-0.0025128
 7,0.00185579,-0.00227086,-0.00156342,0.00133931,0.00116666,-0.00183694
 ,0.00272342,0.00031036,-0.00196088,0.00070293,-0.00473849,0.00023707,0
 .00047327,-0.00018093,-0.00062443,-0.00150940,-0.00123780,0.00020061,0
 .00058754,0.00066102,-0.00018330,0.00097909,0.00032553,0.00553150,0.03
 674497,0.01245220,-0.11482041,0.06817702,0.01221479,0.02770296,-0.0393
 5540,-0.03128993,0.08969837,-0.00030736,0.00009990,-0.00023039,0.00000
 191,0.00019585,0.00005724,0.00134910,-0.00100637,0.00100916,-0.0028822
 2,-0.00249719,-0.00603901,0.00030644,-0.00191195,0.00011655,0.00225513
 ,-0.00096666,0.00202445,0.00537325,0.00042254,0.00457368,-0.00048024,0
 .00143827,0.00002479,-0.00018951,0.00127767,0.00134555,0.00018588,-0.0
 0066783,-0.00037234,0.00071361,-0.00120991,-0.00034116,0.02737538,-0.0
 4849810,-0.02468950,0.06207401,-0.41546220,-0.20516926,-0.02145271,-0.
 01214954,-0.05730915,-0.07432266,0.48093554,-0.00020697,0.00120300,0.0
 0068975,-0.00003913,0.00013405,0.00019396,0.00153136,0.00016082,0.0016
 3447,-0.00617017,-0.00045577,-0.00694114,0.00031638,0.00133512,-0.0001
 4623,-0.00007459,0.00257471,0.00183748,-0.00089483,-0.00092316,0.00074
 084,-0.00096560,0.00114996,0.00052853,-0.00015168,-0.00020803,-0.00097
 795,0.00033025,0.00010086,0.00052209,0.00010700,-0.00002840,0.00032743
 ,0.00474503,-0.01366707,0.01498443,0.00718163,-0.19797093,-0.23210768,
 -0.01654614,-0.07840454,-0.05731495,0.01083745,0.28499937,0.27602897\\
 -0.00031835,0.00023333,-0.00010260,0.00025325,-0.00023064,0.00007807,-
 0.00001207,-0.00000820,-0.00003520,0.00004832,-0.00017939,-0.00010566,
 -0.00002144,0.00005379,0.00000911,-0.00005890,0.00013955,0.00007050,0.
 00000466,-0.00000718,-0.00011117,0.00006797,0.00001495,0.00017611,0.00
 000084,0.00002194,-0.00000163,0.00002710,-0.00001137,0.00002884,-0.000
 01806,-0.00000436,-0.00001822,0.00000753,-0.00002347,0.00000357,0.0000
 0100,-0.00000805,-0.00000171,0.00002544,0.00002439,0.00004006,-0.00000
 729,-0.00001528,-0.00003007\\\@
 Job cpu time:       0 days 17 hours 44 minutes 37.3 seconds.
 File lengths (MBytes):  RWF=  76853 Int=      0 D2E=      0 Chk=     92 Scr=      1
 Normal termination of Gaussian 09 at Thu Aug 26 16:30:51 2021.
