 Entering Gaussian System, Link 0=g09
 Input=G4.DNPHOL.gjf
 Output=G4.DNPHOL.log
 Initial command:
 /public/home/users/caep010/software/Gaussian09/g09/l1.exe "/public/home/users/caep010/.cache/gau_scr/Gau-198479.inp" -scrdir="/public/home/users/caep010/.cache/gau_scr/"
 Entering Link 1 = /public/home/users/caep010/software/Gaussian09/g09/l1.exe PID=    198480.
  
 Copyright (c) 1988,1990,1992,1993,1995,1998,2003,2009,2015,
            Gaussian, Inc.  All Rights Reserved.
  
 This is part of the Gaussian(R) 09 program.  It is based on
 the Gaussian(R) 03 system (copyright 2003, Gaussian, Inc.),
 the Gaussian(R) 98 system (copyright 1998, Gaussian, Inc.),
 the Gaussian(R) 94 system (copyright 1995, Gaussian, Inc.),
 the Gaussian 92(TM) system (copyright 1992, Gaussian, Inc.),
 the Gaussian 90(TM) system (copyright 1990, Gaussian, Inc.),
 the Gaussian 88(TM) system (copyright 1988, Gaussian, Inc.),
 the Gaussian 86(TM) system (copyright 1986, Carnegie Mellon
 University), and the Gaussian 82(TM) system (copyright 1983,
 Carnegie Mellon University). Gaussian is a federally registered
 trademark of Gaussian, Inc.
  
 This software contains proprietary and confidential information,
 including trade secrets, belonging to Gaussian, Inc.
  
 This software is provided under written license and may be
 used, copied, transmitted, or stored only in accord with that
 written license.
  
 The following legend is applicable only to US Government
 contracts under FAR:
  
                    RESTRICTED RIGHTS LEGEND
  
 Use, reproduction and disclosure by the US Government is
 subject to restrictions as set forth in subparagraphs (a)
 and (c) of the Commercial Computer Software - Restricted
 Rights clause in FAR 52.227-19.
  
 Gaussian, Inc.
 340 Quinnipiac St., Bldg. 40, Wallingford CT 06492
  
  
 ---------------------------------------------------------------
 Warning -- This program may not be used in any manner that
 competes with the business of Gaussian, Inc. or will provide
 assistance to any competitor of Gaussian, Inc.  The licensee
 of this program is prohibited from giving any competitor of
 Gaussian, Inc. access to this program.  By using this program,
 the user acknowledges that Gaussian, Inc. is engaged in the
 business of creating and licensing software in the field of
 computational chemistry and represents and warrants to the
 licensee that it is not a competitor of Gaussian, Inc. and that
 it will not use this program in any manner prohibited above.
 ---------------------------------------------------------------
  

 Cite this work as:
 Gaussian 09, Revision E.01,
 M. J. Frisch, G. W. Trucks, H. B. Schlegel, G. E. Scuseria, 
 M. A. Robb, J. R. Cheeseman, G. Scalmani, V. Barone, B. Mennucci, 
 G. A. Petersson, H. Nakatsuji, M. Caricato, X. Li, H. P. Hratchian, 
 A. F. Izmaylov, J. Bloino, G. Zheng, J. L. Sonnenberg, M. Hada, 
 M. Ehara, K. Toyota, R. Fukuda, J. Hasegawa, M. Ishida, T. Nakajima, 
 Y. Honda, O. Kitao, H. Nakai, T. Vreven, J. A. Montgomery, Jr., 
 J. E. Peralta, F. Ogliaro, M. Bearpark, J. J. Heyd, E. Brothers, 
 K. N. Kudin, V. N. Staroverov, T. Keith, R. Kobayashi, J. Normand, 
 K. Raghavachari, A. Rendell, J. C. Burant, S. S. Iyengar, J. Tomasi, 
 M. Cossi, N. Rega, J. M. Millam, M. Klene, J. E. Knox, J. B. Cross, 
 V. Bakken, C. Adamo, J. Jaramillo, R. Gomperts, R. E. Stratmann, 
 O. Yazyev, A. J. Austin, R. Cammi, C. Pomelli, J. W. Ochterski, 
 R. L. Martin, K. Morokuma, V. G. Zakrzewski, G. A. Voth, 
 P. Salvador, J. J. Dannenberg, S. Dapprich, A. D. Daniels, 
 O. Farkas, J. B. Foresman, J. V. Ortiz, J. Cioslowski, 
 and D. J. Fox, Gaussian, Inc., Wallingford CT, 2013.
 
 ******************************************
 Gaussian 09:  ES64L-G09RevE.01 30-Nov-2015
                25-Aug-2021 
 ******************************************
 %nproc=32
 Will use up to   32 processors via shared memory.
 %mem=180GB
 ----------------
 #P G4 OPT=calcfc
 ----------------
 1/10=4,14=-1,18=20,19=15,26=3,38=1/1,3;
 2/9=110,12=2,17=6,18=5,40=1/2;
 3/5=35,7=104,11=2,16=1,25=1,30=1,71=2,74=-5,140=1/1,2,3;
 4//1;
 5/5=2,38=5/2;
 8/6=4,10=90,11=11/1;
 11/6=1,8=1,9=11,15=111,16=1/1,2,10;
 10/6=1,13=1/2;
 6/7=2,8=2,9=2,10=2,28=1/1;
 7/10=1,18=20,25=1/1,2,3,16;
 1/10=4,14=-1,18=20,19=15,26=3/3(2);
 2/9=110/2;
 99//99;
 2/9=110/2;
 3/5=35,7=104,11=2,16=1,25=1,30=1,71=1,74=-5/1,2,3;
 4/5=5,16=3,69=1/1;
 5/5=2,38=5/2;
 7//1,2,3,16;
 1/14=-1,18=20,19=15,26=3/3(-5);
 2/9=110/2;
 6/7=2,8=2,9=2,10=2,19=2,28=1/1;
 99/9=1/99;
 Leave Link    1 at Wed Aug 25 15:28:38 2021, MaxMem= 24159191040 cpu:         4.0
 (Enter /public/home/users/caep010/software/Gaussian09/g09/l101.exe)
 ------
 DNPHOL
 ------
 Symbolic Z-matrix:
 Charge =  0 Multiplicity = 1
 C                     1.0593    1.8744   -2.3112 
 C                     2.1103    2.6476   -1.8041 
 C                     3.3978    2.5394   -2.2943 
 O                    -0.1827    2.036    -1.8423 
 H                    -0.6091    1.5786   -2.2938 
 N                     1.8989    3.6283   -0.7253 
 O                     2.7971    4.4276   -0.5128 
 H                     4.0726    3.2069   -2.062 
 O                     0.8611    3.6047   -0.0942 
 C                     1.3949    0.9733   -3.3277 
 N                     0.375     0.1504   -3.9641 
 O                    -0.799     0.2561   -3.572 
 C                     2.6955    0.8452   -3.8072 
 C                     3.682     1.6321   -3.3069 
 H                     4.5383    1.5413   -3.559 
 H                     2.9021    0.2983   -4.5248 
 O                     0.6939   -0.5929   -4.8705 
 
 NAtoms=     17 NQM=       17 NQMF=       0 NMMI=      0 NMMIF=      0
                NMic=       0 NMicF=      0.
                    Isotopes and Nuclear Properties:
 (Nuclear quadrupole moments (NQMom) in fm**2, nuclear magnetic moments (NMagM)
  in nuclear magnetons)

  Atom         1           2           3           4           5           6           7           8           9          10
 IAtWgt=          12          12          12          16           1          14          16           1          16          12
 AtmWgt=  12.0000000  12.0000000  12.0000000  15.9949146   1.0078250  14.0030740  15.9949146   1.0078250  15.9949146  12.0000000
 NucSpn=           0           0           0           0           1           2           0           1           0           0
 AtZEff=   0.0000000   0.0000000   0.0000000   0.0000000   0.0000000   0.0000000   0.0000000   0.0000000   0.0000000   0.0000000
 NQMom=    0.0000000   0.0000000   0.0000000   0.0000000   0.0000000   2.0440000   0.0000000   0.0000000   0.0000000   0.0000000
 NMagM=    0.0000000   0.0000000   0.0000000   0.0000000   2.7928460   0.4037610   0.0000000   2.7928460   0.0000000   0.0000000
 AtZNuc=   6.0000000   6.0000000   6.0000000   8.0000000   1.0000000   7.0000000   8.0000000   1.0000000   8.0000000   6.0000000

  Atom        11          12          13          14          15          16          17
 IAtWgt=          14          16          12          12           1           1          16
 AtmWgt=  14.0030740  15.9949146  12.0000000  12.0000000   1.0078250   1.0078250  15.9949146
 NucSpn=           2           0           0           0           1           1           0
 AtZEff=   0.0000000   0.0000000   0.0000000   0.0000000   0.0000000   0.0000000   0.0000000
 NQMom=    2.0440000   0.0000000   0.0000000   0.0000000   0.0000000   0.0000000   0.0000000
 NMagM=    0.4037610   0.0000000   0.0000000   0.0000000   2.7928460   2.7928460   0.0000000
 AtZNuc=   7.0000000   8.0000000   6.0000000   6.0000000   1.0000000   1.0000000   8.0000000
 Leave Link  101 at Wed Aug 25 15:28:39 2021, MaxMem= 24159191040 cpu:        30.7
 (Enter /public/home/users/caep010/software/Gaussian09/g09/l103.exe)

 GradGradGradGradGradGradGradGradGradGradGradGradGradGradGradGradGradGrad
 Berny optimization.
 Initialization pass.
                           ----------------------------
                           !    Initial Parameters    !
                           ! (Angstroms and Degrees)  !
 --------------------------                            --------------------------
 ! Name  Definition              Value          Derivative Info.                !
 --------------------------------------------------------------------------------
 ! R1    R(1,2)                  1.3999         calculate D2E/DX2 analytically  !
 ! R2    R(1,4)                  1.3374         calculate D2E/DX2 analytically  !
 ! R3    R(1,10)                 1.3992         calculate D2E/DX2 analytically  !
 ! R4    R(2,3)                  1.3819         calculate D2E/DX2 analytically  !
 ! R5    R(2,6)                  1.4732         calculate D2E/DX2 analytically  !
 ! R6    R(3,8)                  0.9772         calculate D2E/DX2 analytically  !
 ! R7    R(3,14)                 1.389          calculate D2E/DX2 analytically  !
 ! R8    R(4,5)                  0.7713         calculate D2E/DX2 analytically  !
 ! R9    R(6,7)                  1.221          calculate D2E/DX2 analytically  !
 ! R10   R(6,9)                  1.2149         calculate D2E/DX2 analytically  !
 ! R11   R(10,11)                1.4568         calculate D2E/DX2 analytically  !
 ! R12   R(10,13)                1.3921         calculate D2E/DX2 analytically  !
 ! R13   R(11,12)                1.2423         calculate D2E/DX2 analytically  !
 ! R14   R(11,17)                1.2148         calculate D2E/DX2 analytically  !
 ! R15   R(13,14)                1.3575         calculate D2E/DX2 analytically  !
 ! R16   R(13,16)                0.9256         calculate D2E/DX2 analytically  !
 ! R17   R(14,15)                0.8972         calculate D2E/DX2 analytically  !
 ! A1    A(2,1,4)              120.232          calculate D2E/DX2 analytically  !
 ! A2    A(2,1,10)             116.027          calculate D2E/DX2 analytically  !
 ! A3    A(4,1,10)             123.7291         calculate D2E/DX2 analytically  !
 ! A4    A(1,2,3)              121.8539         calculate D2E/DX2 analytically  !
 ! A5    A(1,2,6)              121.6839         calculate D2E/DX2 analytically  !
 ! A6    A(3,2,6)              116.4606         calculate D2E/DX2 analytically  !
 ! A7    A(2,3,8)              120.3694         calculate D2E/DX2 analytically  !
 ! A8    A(2,3,14)             120.0249         calculate D2E/DX2 analytically  !
 ! A9    A(8,3,14)             118.5684         calculate D2E/DX2 analytically  !
 ! A10   A(1,4,5)              103.681          calculate D2E/DX2 analytically  !
 ! A11   A(2,6,7)              117.2373         calculate D2E/DX2 analytically  !
 ! A12   A(2,6,9)              119.345          calculate D2E/DX2 analytically  !
 ! A13   A(7,6,9)              123.4171         calculate D2E/DX2 analytically  !
 ! A14   A(1,10,11)            120.8771         calculate D2E/DX2 analytically  !
 ! A15   A(1,10,13)            122.2471         calculate D2E/DX2 analytically  !
 ! A16   A(11,10,13)           116.8481         calculate D2E/DX2 analytically  !
 ! A17   A(10,11,12)           118.4031         calculate D2E/DX2 analytically  !
 ! A18   A(10,11,17)           119.1944         calculate D2E/DX2 analytically  !
 ! A19   A(12,11,17)           122.3884         calculate D2E/DX2 analytically  !
 ! A20   A(10,13,14)           119.9125         calculate D2E/DX2 analytically  !
 ! A21   A(10,13,16)           122.0024         calculate D2E/DX2 analytically  !
 ! A22   A(14,13,16)           117.7775         calculate D2E/DX2 analytically  !
 ! A23   A(3,14,13)            119.9102         calculate D2E/DX2 analytically  !
 ! A24   A(3,14,15)            117.7883         calculate D2E/DX2 analytically  !
 ! A25   A(13,14,15)           122.0964         calculate D2E/DX2 analytically  !
 ! D1    D(4,1,2,3)           -177.8492         calculate D2E/DX2 analytically  !
 ! D2    D(4,1,2,6)              1.6653         calculate D2E/DX2 analytically  !
 ! D3    D(10,1,2,3)             0.9385         calculate D2E/DX2 analytically  !
 ! D4    D(10,1,2,6)          -179.547          calculate D2E/DX2 analytically  !
 ! D5    D(2,1,4,5)            174.4884         calculate D2E/DX2 analytically  !
 ! D6    D(10,1,4,5)            -4.2017         calculate D2E/DX2 analytically  !
 ! D7    D(2,1,10,11)         -177.8068         calculate D2E/DX2 analytically  !
 ! D8    D(2,1,10,13)            0.222          calculate D2E/DX2 analytically  !
 ! D9    D(4,1,10,11)            0.9337         calculate D2E/DX2 analytically  !
 ! D10   D(4,1,10,13)          178.9625         calculate D2E/DX2 analytically  !
 ! D11   D(1,2,3,8)            167.3536         calculate D2E/DX2 analytically  !
 ! D12   D(1,2,3,14)            -0.8335         calculate D2E/DX2 analytically  !
 ! D13   D(6,2,3,8)            -12.185          calculate D2E/DX2 analytically  !
 ! D14   D(6,2,3,14)           179.628          calculate D2E/DX2 analytically  !
 ! D15   D(1,2,6,7)           -166.7806         calculate D2E/DX2 analytically  !
 ! D16   D(1,2,6,9)             13.4859         calculate D2E/DX2 analytically  !
 ! D17   D(3,2,6,7)             12.7587         calculate D2E/DX2 analytically  !
 ! D18   D(3,2,6,9)           -166.9748         calculate D2E/DX2 analytically  !
 ! D19   D(2,3,14,13)           -0.4853         calculate D2E/DX2 analytically  !
 ! D20   D(2,3,14,15)         -175.3903         calculate D2E/DX2 analytically  !
 ! D21   D(8,3,14,13)         -168.8832         calculate D2E/DX2 analytically  !
 ! D22   D(8,3,14,15)           16.2117         calculate D2E/DX2 analytically  !
 ! D23   D(1,10,11,12)          -0.8301         calculate D2E/DX2 analytically  !
 ! D24   D(1,10,11,17)         177.8348         calculate D2E/DX2 analytically  !
 ! D25   D(13,10,11,12)       -178.9616         calculate D2E/DX2 analytically  !
 ! D26   D(13,10,11,17)         -0.2967         calculate D2E/DX2 analytically  !
 ! D27   D(1,10,13,14)          -1.5101         calculate D2E/DX2 analytically  !
 ! D28   D(1,10,13,16)        -174.9972         calculate D2E/DX2 analytically  !
 ! D29   D(11,10,13,14)        176.5937         calculate D2E/DX2 analytically  !
 ! D30   D(11,10,13,16)          3.1066         calculate D2E/DX2 analytically  !
 ! D31   D(10,13,14,3)           1.6194         calculate D2E/DX2 analytically  !
 ! D32   D(10,13,14,15)        176.2981         calculate D2E/DX2 analytically  !
 ! D33   D(16,13,14,3)         175.3781         calculate D2E/DX2 analytically  !
 ! D34   D(16,13,14,15)         -9.9432         calculate D2E/DX2 analytically  !
 --------------------------------------------------------------------------------
 Trust Radius=3.00D-01 FncErr=1.00D-07 GrdErr=1.00D-06
 Number of steps in this run=     86 maximum allowed number of steps=    102.
 GradGradGradGradGradGradGradGradGradGradGradGradGradGradGradGradGradGrad

 Leave Link  103 at Wed Aug 25 15:28:39 2021, MaxMem= 24159191040 cpu:         0.7
 (Enter /public/home/users/caep010/software/Gaussian09/g09/l202.exe)
                          Input orientation:                          
 ---------------------------------------------------------------------
 Center     Atomic      Atomic             Coordinates (Angstroms)
 Number     Number       Type             X           Y           Z
 ---------------------------------------------------------------------
      1          6           0        1.059300    1.874400   -2.311200
      2          6           0        2.110300    2.647600   -1.804100
      3          6           0        3.397800    2.539400   -2.294300
      4          8           0       -0.182700    2.036000   -1.842300
      5          1           0       -0.609100    1.578600   -2.293800
      6          7           0        1.898900    3.628300   -0.725300
      7          8           0        2.797100    4.427600   -0.512800
      8          1           0        4.072600    3.206900   -2.062000
      9          8           0        0.861100    3.604700   -0.094200
     10          6           0        1.394900    0.973300   -3.327700
     11          7           0        0.375000    0.150400   -3.964100
     12          8           0       -0.799000    0.256100   -3.572000
     13          6           0        2.695500    0.845200   -3.807200
     14          6           0        3.682000    1.632100   -3.306900
     15          1           0        4.538300    1.541300   -3.559000
     16          1           0        2.902100    0.298300   -4.524800
     17          8           0        0.693900   -0.592900   -4.870500
 ---------------------------------------------------------------------
                    Distance matrix (angstroms):
                    1          2          3          4          5
     1  C    0.000000
     2  C    1.399853   0.000000
     3  C    2.431274   1.381904   0.000000
     4  O    1.337365   2.373471   3.643857   0.000000
     5  H    1.694508   2.962719   4.120484   0.771287   0.000000
     6  N    2.509217   1.473184   2.427790   2.848889   3.598823
     7  O    3.573936   2.303812   2.664560   4.045557   4.784450
     8  H    3.304184   2.056684   0.977177   4.418920   4.962198
     9  O    2.819275   2.323854   3.522804   2.570251   3.332388
    10  C    1.399243   2.374118   2.744484   2.413414   2.334813
    11  N    2.484456   3.729997   4.199151   2.892845   2.407927
    12  O    2.767994   4.160381   4.945615   2.557290   1.849017
    13  C    2.444262   2.757447   2.377479   3.682780   3.707915
    14  C    2.815792   2.399977   1.389000   4.152601   4.409396
    15  H    3.710984   3.193549   1.973933   5.047735   5.300740
    16  H    3.283295   3.680811   3.200528   4.442004   4.352592
    17  O    3.573668   4.680795   4.874339   4.104819   3.612839
                    6          7          8          9         10
     6  N    0.000000
     7  O    1.220983   0.000000
     8  H    2.586371   2.348836   0.000000
     9  O    1.214855   2.144874   3.787376   0.000000
    10  C    3.751736   4.671404   3.709588   4.202943   0.000000
    11  N    4.990780   6.006037   5.160661   5.210049   1.456834
    12  O    5.172436   6.300163   5.892352   5.105306   2.321046
    13  C    4.228277   4.867955   3.243417   4.976568   1.392081
    14  C    3.718725   4.050292   2.045077   4.708510   2.380184
    15  H    4.399075   4.543329   2.287380   5.457496   3.202669
    16  H    5.150875   5.758323   3.986905   5.893062   2.039688
    17  O    6.037652   6.972691   5.808766   6.360884   2.307513
                   11         12         13         14         15
    11  N    0.000000
    12  O    1.242252   0.000000
    13  C    2.427362   3.551604   0.000000
    14  C    3.682879   4.694999   1.357459   0.000000
    15  H    4.408149   5.489871   1.985465   0.897245   0.000000
    16  H    2.592777   3.822009   0.925599   1.967371   2.270456
    17  O    1.214806   2.153057   2.684239   4.040323   4.588491
                   16         17
    16  H    0.000000
    17  O    2.406220   0.000000
 Stoichiometry    C6H4N2O5
 Framework group  C1[X(C6H4N2O5)]
 Deg. of freedom    45
 Full point group                 C1      NOp   1
 Largest Abelian subgroup         C1      NOp   1
 Largest concise Abelian subgroup C1      NOp   1
                         Standard orientation:                         
 ---------------------------------------------------------------------
 Center     Atomic      Atomic             Coordinates (Angstroms)
 Number     Number       Type             X           Y           Z
 ---------------------------------------------------------------------
      1          6           0       -0.004695   -0.462190   -0.012116
      2          6           0        1.187919    0.270762   -0.018751
      3          6           0        1.194647    1.652609   -0.029396
      4          8           0        0.026258   -1.798121    0.041510
      5          1           0       -0.716482   -1.995303    0.107395
      6          7           0        2.503527   -0.391984   -0.004120
      7          8           0        3.477216    0.304041    0.237291
      8          1           0        2.019834    2.144033    0.150722
      9          8           0        2.572733   -1.583058   -0.233087
     10          6           0       -1.186068    0.287206   -0.037497
     11          7           0       -2.487151   -0.366132    0.014435
     12          8           0       -2.523745   -1.606771    0.066074
     13          6           0       -1.182302    1.678851   -0.072170
     14          6           0       -0.004450    2.353330   -0.051288
     15          1           0        0.034507    3.246975   -0.121499
     16          1           0       -1.963290    2.172932   -0.020445
     17          8           0       -3.492400    0.315754    0.030578
 ---------------------------------------------------------------------
 Rotational constants (GHZ):      1.6645945      0.5953181      0.4400707
 Leave Link  202 at Wed Aug 25 15:28:40 2021, MaxMem= 24159191040 cpu:         6.5
 (Enter /public/home/users/caep010/software/Gaussian09/g09/l301.exe)
 Standard basis: GTBas3 (6D, 7F)
 Ernie: Thresh=  0.10000D-02 Tol=  0.10000D-05 Strict=F.
 There are   423 symmetry adapted cartesian basis functions of A   symmetry.
 There are   384 symmetry adapted basis functions of A   symmetry.
   384 basis functions,   600 primitive gaussians,   423 cartesian basis functions
    47 alpha electrons       47 beta electrons
       nuclear repulsion energy       799.4676576631 Hartrees.
 IExCor=  402 DFT=T Ex+Corr=B3LYP ExCW=0 ScaHFX=  0.200000
 ScaDFX=  0.800000  0.720000  1.000000  0.810000 ScalE2=  1.000000  1.000000
 IRadAn=      0 IRanWt=     -1 IRanGd=            0 ICorTp=0 IEmpDi=  4
 NAtoms=   17 NActive=   17 NUniq=   17 SFac= 1.00D+00 NAtFMM=   60 NAOKFM=F Big=F
 Integral buffers will be    131072 words long.
 Raffenetti 2 integral format.
 Two-electron integral symmetry is turned on.
 Leave Link  301 at Wed Aug 25 15:28:40 2021, MaxMem= 24159191040 cpu:         1.9
 (Enter /public/home/users/caep010/software/Gaussian09/g09/l302.exe)
 NPDir=0 NMtPBC=     1 NCelOv=     1 NCel=       1 NClECP=     1 NCelD=      1
         NCelK=      1 NCelE2=     1 NClLst=     1 CellRange=     0.0.
 One-electron integrals computed using PRISM.
 NBasis=   384 RedAO= T EigKep=  1.14D-04  NBF=   384
 NBsUse=   384 1.00D-06 EigRej= -1.00D+00 NBFU=   384
 Precomputing XC quadrature grid using
 IXCGrd= 4 IRadAn=           0 IRanWt=          -1 IRanGd=           0 AccXCQ= 0.00D+00.
 Generated NRdTot=       0 NPtTot=           0 NUsed=           0 NTot=          32
 NSgBfM=   422   422   422   422   422 MxSgAt=    17 MxSgA2=    17.
 Leave Link  302 at Wed Aug 25 15:28:42 2021, MaxMem= 24159191040 cpu:        30.0
 (Enter /public/home/users/caep010/software/Gaussian09/g09/l303.exe)
 DipDrv:  MaxL=1.
 Leave Link  303 at Wed Aug 25 15:28:42 2021, MaxMem= 24159191040 cpu:         1.5
 (Enter /public/home/users/caep010/software/Gaussian09/g09/l401.exe)
 ExpMin= 1.61D-01 ExpMax= 5.48D+03 ExpMxC= 8.25D+02 IAcc=1 IRadAn=         1 AccDes= 0.00D+00
 Harris functional with IExCor=  402 and IRadAn=       1 diagonalized for initial guess.
 HarFok:  IExCor=  402 AccDes= 0.00D+00 IRadAn=         1 IDoV= 1 UseB2=F ITyADJ=14
 ICtDFT=  3500011 ScaDFX=  1.000000  1.000000  1.000000  1.000000
 FoFCou: FMM=F IPFlag=           0 FMFlag=      100000 FMFlg1=           0
         NFxFlg=           0 DoJE=T BraDBF=F KetDBF=T FulRan=T
         wScrn=  0.000000 ICntrl=     500 IOpCl=  0 I1Cent=   200000004 NGrid=           0
         NMat0=    1 NMatS0=      1 NMatT0=    0 NMatD0=    1 NMtDS0=    0 NMtDT0=    0
 Petite list used in FoFCou.
 Harris En= -716.485900381152    
 JPrj=0 DoOrth=F DoCkMO=F.
 Leave Link  401 at Wed Aug 25 15:28:43 2021, MaxMem= 24159191040 cpu:        17.5
 (Enter /public/home/users/caep010/software/Gaussian09/g09/l502.exe)
 Closed shell SCF:
 Using DIIS extrapolation, IDIIS=  1040.
 Integral symmetry usage will be decided dynamically.
 Keep R1 ints in memory in canonical form, NReq=2770804379.
 IVT=      571919 IEndB=      571919 NGot= 24159191040 MDV= 21426498962
 LenX= 21426498962 LenY= 21426319592
 Requested convergence on RMS density matrix=1.00D-08 within 128 cycles.
 Requested convergence on MAX density matrix=1.00D-06.
 Requested convergence on             energy=1.00D-06.
 No special actions if energy rises.
 FoFCou: FMM=F IPFlag=           0 FMFlag=           0 FMFlg1=           0
         NFxFlg=           0 DoJE=F BraDBF=F KetDBF=F FulRan=T
         wScrn=  0.000000 ICntrl=     600 IOpCl=  0 I1Cent=           0 NGrid=           0
         NMat0=    1 NMatS0=  73920 NMatT0=    0 NMatD0=    1 NMtDS0=    0 NMtDT0=    0
 Symmetry not used in FoFCou.
 Integral accuracy reduced to 1.0D-05 until final iterations.

 Cycle   1  Pass 0  IDiag  1:
 E= -715.895098391341    
 DIIS: error= 3.85D-02 at cycle   1 NSaved=   1.
 NSaved= 1 IEnMin= 1 EnMin= -715.895098391341     IErMin= 1 ErrMin= 3.85D-02
 ErrMax= 3.85D-02  0.00D+00 EMaxC= 1.00D-01 BMatC= 6.58D-01 BMatP= 6.58D-01
 IDIUse=3 WtCom= 6.15D-01 WtEn= 3.85D-01
 Coeff-Com:  0.100D+01
 Coeff-En:   0.100D+01
 Coeff:      0.100D+01
 Gap=     0.137 Goal=   None    Shift=    0.000
 GapD=    0.137 DampG=1.000 DampE=0.500 DampFc=0.5000 IDamp=-1.
 Damping current iteration by 5.00D-01
 RMSDP=4.12D-03 MaxDP=2.61D-01              OVMax= 3.50D-01

 Cycle   2  Pass 0  IDiag  1:
 E= -715.953071209423     Delta-E=       -0.057972818081 Rises=F Damp=T
 DIIS: error= 1.49D-02 at cycle   2 NSaved=   2.
 NSaved= 2 IEnMin= 2 EnMin= -715.953071209423     IErMin= 2 ErrMin= 1.49D-02
 ErrMax= 1.49D-02  0.00D+00 EMaxC= 1.00D-01 BMatC= 1.52D-01 BMatP= 6.58D-01
 IDIUse=3 WtCom= 8.51D-01 WtEn= 1.49D-01
 Coeff-Com:  0.295D+00 0.705D+00
 Coeff-En:   0.452D+00 0.548D+00
 Coeff:      0.318D+00 0.682D+00
 Gap=     0.164 Goal=   None    Shift=    0.000
 RMSDP=1.20D-03 MaxDP=6.77D-02 DE=-5.80D-02 OVMax= 2.27D-01

 Cycle   3  Pass 0  IDiag  1:
 E= -716.365854288822     Delta-E=       -0.412783079399 Rises=F Damp=F
 DIIS: error= 4.98D-03 at cycle   3 NSaved=   3.
 NSaved= 3 IEnMin= 3 EnMin= -716.365854288822     IErMin= 3 ErrMin= 4.98D-03
 ErrMax= 4.98D-03  0.00D+00 EMaxC= 1.00D-01 BMatC= 2.33D-02 BMatP= 1.52D-01
 IDIUse=3 WtCom= 9.50D-01 WtEn= 4.98D-02
 Coeff-Com:  0.106D+00 0.290D+00 0.604D+00
 Coeff-En:   0.000D+00 0.000D+00 0.100D+01
 Coeff:      0.101D+00 0.275D+00 0.624D+00
 Gap=     0.176 Goal=   None    Shift=    0.000
 RMSDP=7.25D-04 MaxDP=4.69D-02 DE=-4.13D-01 OVMax= 7.74D-02

 Cycle   4  Pass 0  IDiag  1:
 E= -716.372999588256     Delta-E=       -0.007145299434 Rises=F Damp=F
 DIIS: error= 7.81D-03 at cycle   4 NSaved=   4.
 NSaved= 4 IEnMin= 4 EnMin= -716.372999588256     IErMin= 3 ErrMin= 4.98D-03
 ErrMax= 7.81D-03  0.00D+00 EMaxC= 1.00D-01 BMatC= 1.82D-02 BMatP= 2.33D-02
 IDIUse=3 WtCom= 9.22D-01 WtEn= 7.81D-02
 Coeff-Com:  0.432D-01 0.110D+00 0.448D+00 0.399D+00
 Coeff-En:   0.000D+00 0.000D+00 0.416D+00 0.584D+00
 Coeff:      0.398D-01 0.101D+00 0.446D+00 0.413D+00
 Gap=     0.173 Goal=   None    Shift=    0.000
 RMSDP=4.23D-04 MaxDP=3.85D-02 DE=-7.15D-03 OVMax= 7.92D-02

 Cycle   5  Pass 0  IDiag  1:
 E= -716.384601310936     Delta-E=       -0.011601722679 Rises=F Damp=F
 DIIS: error= 3.69D-03 at cycle   5 NSaved=   5.
 NSaved= 5 IEnMin= 5 EnMin= -716.384601310936     IErMin= 5 ErrMin= 3.69D-03
 ErrMax= 3.69D-03  0.00D+00 EMaxC= 1.00D-01 BMatC= 4.14D-03 BMatP= 1.82D-02
 IDIUse=3 WtCom= 9.63D-01 WtEn= 3.69D-02
 Coeff-Com:  0.126D-01 0.183D-01 0.217D+00 0.327D+00 0.424D+00
 Coeff-En:   0.000D+00 0.000D+00 0.000D+00 0.217D+00 0.783D+00
 Coeff:      0.121D-01 0.176D-01 0.209D+00 0.323D+00 0.438D+00
 Gap=     0.166 Goal=   None    Shift=    0.000
 RMSDP=1.74D-04 MaxDP=1.48D-02 DE=-1.16D-02 OVMax= 3.00D-02

 Cycle   6  Pass 0  IDiag  1:
 E= -716.387764000381     Delta-E=       -0.003162689446 Rises=F Damp=F
 DIIS: error= 6.10D-04 at cycle   6 NSaved=   6.
 NSaved= 6 IEnMin= 6 EnMin= -716.387764000381     IErMin= 6 ErrMin= 6.10D-04
 ErrMax= 6.10D-04  0.00D+00 EMaxC= 1.00D-01 BMatC= 2.51D-04 BMatP= 4.14D-03
 IDIUse=3 WtCom= 9.94D-01 WtEn= 6.10D-03
 Coeff-Com:  0.236D-02-0.162D-02 0.733D-01 0.141D+00 0.266D+00 0.518D+00
 Coeff-En:   0.000D+00 0.000D+00 0.000D+00 0.000D+00 0.396D-01 0.960D+00
 Coeff:      0.235D-02-0.161D-02 0.729D-01 0.140D+00 0.265D+00 0.521D+00
 Gap=     0.167 Goal=   None    Shift=    0.000
 RMSDP=4.57D-05 MaxDP=2.81D-03 DE=-3.16D-03 OVMax= 3.57D-03

 Cycle   7  Pass 0  IDiag  1:
 E= -716.387967124156     Delta-E=       -0.000203123774 Rises=F Damp=F
 DIIS: error= 1.04D-04 at cycle   7 NSaved=   7.
 NSaved= 7 IEnMin= 7 EnMin= -716.387967124156     IErMin= 7 ErrMin= 1.04D-04
 ErrMax= 1.04D-04  0.00D+00 EMaxC= 1.00D-01 BMatC= 1.12D-05 BMatP= 2.51D-04
 IDIUse=3 WtCom= 9.99D-01 WtEn= 1.04D-03
 Coeff-Com:  0.519D-03-0.192D-02 0.269D-01 0.569D-01 0.120D+00 0.275D+00
 Coeff-Com:  0.523D+00
 Coeff-En:   0.000D+00 0.000D+00 0.000D+00 0.000D+00 0.000D+00 0.000D+00
 Coeff-En:   0.100D+01
 Coeff:      0.518D-03-0.192D-02 0.269D-01 0.569D-01 0.120D+00 0.275D+00
 Coeff:      0.523D+00
 Gap=     0.167 Goal=   None    Shift=    0.000
 RMSDP=1.24D-05 MaxDP=1.06D-03 DE=-2.03D-04 OVMax= 1.50D-03

 Cycle   8  Pass 0  IDiag  1:
 E= -716.387970690470     Delta-E=       -0.000003566314 Rises=F Damp=F
 DIIS: error= 1.10D-04 at cycle   8 NSaved=   8.
 NSaved= 8 IEnMin= 8 EnMin= -716.387970690470     IErMin= 7 ErrMin= 1.04D-04
 ErrMax= 1.10D-04  0.00D+00 EMaxC= 1.00D-01 BMatC= 6.70D-06 BMatP= 1.12D-05
 IDIUse=3 WtCom= 9.99D-01 WtEn= 1.04D-03
 Coeff-Com:  0.786D-05-0.129D-02 0.928D-02 0.219D-01 0.518D-01 0.131D+00
 Coeff-Com:  0.419D+00 0.368D+00
 Coeff-En:   0.000D+00 0.000D+00 0.000D+00 0.000D+00 0.000D+00 0.000D+00
 Coeff-En:   0.394D+00 0.606D+00
 Coeff:      0.785D-05-0.129D-02 0.928D-02 0.218D-01 0.517D-01 0.131D+00
 Coeff:      0.419D+00 0.368D+00
 Gap=     0.167 Goal=   None    Shift=    0.000
 RMSDP=6.77D-06 MaxDP=5.97D-04 DE=-3.57D-06 OVMax= 9.04D-04

 Initial convergence to 1.0D-05 achieved.  Increase integral accuracy.
 Cycle   9  Pass 1  IDiag  1:
 E= -716.387932269176     Delta-E=        0.000038421294 Rises=F Damp=F
 DIIS: error= 3.34D-05 at cycle   1 NSaved=   1.
 NSaved= 1 IEnMin= 1 EnMin= -716.387932269176     IErMin= 1 ErrMin= 3.34D-05
 ErrMax= 3.34D-05  0.00D+00 EMaxC= 1.00D-01 BMatC= 7.90D-07 BMatP= 7.90D-07
 IDIUse=1 WtCom= 1.00D+00 WtEn= 0.00D+00
 Coeff-Com:  0.100D+01
 Coeff:      0.100D+01
 Gap=     0.167 Goal=   None    Shift=    0.000
 RMSDP=6.77D-06 MaxDP=5.97D-04 DE= 3.84D-05 OVMax= 4.70D-04

 Cycle  10  Pass 1  IDiag  1:
 E= -716.387931107501     Delta-E=        0.000001161676 Rises=F Damp=F
 DIIS: error= 5.31D-05 at cycle   2 NSaved=   2.
 NSaved= 2 IEnMin= 1 EnMin= -716.387932269176     IErMin= 1 ErrMin= 3.34D-05
 ErrMax= 5.31D-05  0.00D+00 EMaxC= 1.00D-01 BMatC= 2.26D-06 BMatP= 7.90D-07
 IDIUse=1 WtCom= 1.00D+00 WtEn= 0.00D+00
 Coeff-Com:  0.656D+00 0.344D+00
 Coeff:      0.656D+00 0.344D+00
 Gap=     0.167 Goal=   None    Shift=    0.000
 RMSDP=4.28D-06 MaxDP=3.69D-04 DE= 1.16D-06 OVMax= 5.21D-04

 Cycle  11  Pass 1  IDiag  1:
 E= -716.387932629098     Delta-E=       -0.000001521597 Rises=F Damp=F
 DIIS: error= 2.22D-05 at cycle   3 NSaved=   3.
 NSaved= 3 IEnMin= 3 EnMin= -716.387932629098     IErMin= 3 ErrMin= 2.22D-05
 ErrMax= 2.22D-05  0.00D+00 EMaxC= 1.00D-01 BMatC= 3.07D-07 BMatP= 7.90D-07
 IDIUse=1 WtCom= 1.00D+00 WtEn= 0.00D+00
 Coeff-Com:  0.126D+00 0.258D+00 0.615D+00
 Coeff:      0.126D+00 0.258D+00 0.615D+00
 Gap=     0.167 Goal=   None    Shift=    0.000
 RMSDP=1.71D-06 MaxDP=1.36D-04 DE=-1.52D-06 OVMax= 2.01D-04

 Cycle  12  Pass 1  IDiag  1:
 E= -716.387932814381     Delta-E=       -0.000000185283 Rises=F Damp=F
 DIIS: error= 7.25D-06 at cycle   4 NSaved=   4.
 NSaved= 4 IEnMin= 4 EnMin= -716.387932814381     IErMin= 4 ErrMin= 7.25D-06
 ErrMax= 7.25D-06  0.00D+00 EMaxC= 1.00D-01 BMatC= 7.46D-08 BMatP= 3.07D-07
 IDIUse=1 WtCom= 1.00D+00 WtEn= 0.00D+00
 Coeff-Com: -0.857D-02 0.132D+00 0.438D+00 0.438D+00
 Coeff:     -0.857D-02 0.132D+00 0.438D+00 0.438D+00
 Gap=     0.167 Goal=   None    Shift=    0.000
 RMSDP=5.93D-07 MaxDP=4.74D-05 DE=-1.85D-07 OVMax= 5.46D-05

 Cycle  13  Pass 1  IDiag  1:
 E= -716.387932869147     Delta-E=       -0.000000054766 Rises=F Damp=F
 DIIS: error= 1.78D-06 at cycle   5 NSaved=   5.
 NSaved= 5 IEnMin= 5 EnMin= -716.387932869147     IErMin= 5 ErrMin= 1.78D-06
 ErrMax= 1.78D-06  0.00D+00 EMaxC= 1.00D-01 BMatC= 2.35D-09 BMatP= 7.46D-08
 IDIUse=1 WtCom= 1.00D+00 WtEn= 0.00D+00
 Coeff-Com: -0.953D-02 0.718D-01 0.247D+00 0.269D+00 0.422D+00
 Coeff:     -0.953D-02 0.718D-01 0.247D+00 0.269D+00 0.422D+00
 Gap=     0.167 Goal=   None    Shift=    0.000
 RMSDP=1.33D-07 MaxDP=7.28D-06 DE=-5.48D-08 OVMax= 1.54D-05

 Cycle  14  Pass 1  IDiag  1:
 E= -716.387932870912     Delta-E=       -0.000000001764 Rises=F Damp=F
 DIIS: error= 7.29D-07 at cycle   6 NSaved=   6.
 NSaved= 6 IEnMin= 6 EnMin= -716.387932870912     IErMin= 6 ErrMin= 7.29D-07
 ErrMax= 7.29D-07  0.00D+00 EMaxC= 1.00D-01 BMatC= 2.45D-10 BMatP= 2.35D-09
 IDIUse=1 WtCom= 1.00D+00 WtEn= 0.00D+00
 Coeff-Com: -0.538D-02 0.339D-01 0.118D+00 0.132D+00 0.275D+00 0.447D+00
 Coeff:     -0.538D-02 0.339D-01 0.118D+00 0.132D+00 0.275D+00 0.447D+00
 Gap=     0.167 Goal=   None    Shift=    0.000
 RMSDP=4.84D-08 MaxDP=3.74D-06 DE=-1.76D-09 OVMax= 7.90D-06

 Cycle  15  Pass 1  IDiag  1:
 E= -716.387932871083     Delta-E=       -0.000000000172 Rises=F Damp=F
 DIIS: error= 4.47D-07 at cycle   7 NSaved=   7.
 NSaved= 7 IEnMin= 7 EnMin= -716.387932871083     IErMin= 7 ErrMin= 4.47D-07
 ErrMax= 4.47D-07  0.00D+00 EMaxC= 1.00D-01 BMatC= 6.99D-11 BMatP= 2.45D-10
 IDIUse=1 WtCom= 1.00D+00 WtEn= 0.00D+00
 Coeff-Com: -0.242D-02 0.137D-01 0.473D-01 0.540D-01 0.136D+00 0.345D+00
 Coeff-Com:  0.406D+00
 Coeff:     -0.242D-02 0.137D-01 0.473D-01 0.540D-01 0.136D+00 0.345D+00
 Coeff:      0.406D+00
 Gap=     0.167 Goal=   None    Shift=    0.000
 RMSDP=2.14D-08 MaxDP=1.81D-06 DE=-1.72D-10 OVMax= 3.92D-06

 Cycle  16  Pass 1  IDiag  1:
 E= -716.387932871134     Delta-E=       -0.000000000051 Rises=F Damp=F
 DIIS: error= 1.01D-07 at cycle   8 NSaved=   8.
 NSaved= 8 IEnMin= 8 EnMin= -716.387932871134     IErMin= 8 ErrMin= 1.01D-07
 ErrMax= 1.01D-07  0.00D+00 EMaxC= 1.00D-01 BMatC= 5.73D-12 BMatP= 6.99D-11
 IDIUse=1 WtCom= 1.00D+00 WtEn= 0.00D+00
 Coeff-Com: -0.446D-03 0.185D-02 0.601D-02 0.748D-02 0.281D-01 0.124D+00
 Coeff-Com:  0.257D+00 0.576D+00
 Coeff:     -0.446D-03 0.185D-02 0.601D-02 0.748D-02 0.281D-01 0.124D+00
 Coeff:      0.257D+00 0.576D+00
 Gap=     0.167 Goal=   None    Shift=    0.000
 RMSDP=6.93D-09 MaxDP=4.60D-07 DE=-5.07D-11 OVMax= 7.36D-07

 SCF Done:  E(RB3LYP) =  -716.387932871     A.U. after   16 cycles
            NFock= 16  Conv=0.69D-08     -V/T= 2.0040
 KE= 7.135126137440D+02 PE=-3.277132037109D+03 EE= 1.047763832831D+03
 Leave Link  502 at Wed Aug 25 15:30:05 2021, MaxMem= 24159191040 cpu:       422.4
 (Enter /public/home/users/caep010/software/Gaussian09/g09/l801.exe)
 DoSCS=F DFT=T ScalE2(SS,OS)=  1.000000  1.000000
 Range of M.O.s used for correlation:     1   384
 NBasis=   384 NAE=    47 NBE=    47 NFC=     0 NFV=     0
 NROrb=    384 NOA=    47 NOB=    47 NVA=   337 NVB=   337

 **** Warning!!: The largest alpha MO coefficient is  0.31078371D+02

 Leave Link  801 at Wed Aug 25 15:30:05 2021, MaxMem= 24159191040 cpu:         0.6
 (Enter /public/home/users/caep010/software/Gaussian09/g09/l1101.exe)
 Using compressed storage, NAtomX=    17.
 Will process     18 centers per pass.
 Leave Link 1101 at Wed Aug 25 15:30:06 2021, MaxMem= 24159191040 cpu:        21.2
 (Enter /public/home/users/caep010/software/Gaussian09/g09/l1102.exe)
 Symmetrizing basis deriv contribution to polar:
 IMax=3 JMax=2 DiffMx= 0.00D+00
 Leave Link 1102 at Wed Aug 25 15:30:07 2021, MaxMem= 24159191040 cpu:         1.2
 (Enter /public/home/users/caep010/software/Gaussian09/g09/l1110.exe)
 Forming Gx(P) for the SCF density, NAtomX=    17.
 Integral derivatives from FoFJK, PRISM(SPDF).
 Do as many integral derivatives as possible in FoFJK.
 G2DrvN: MDV=   24159190800.
 G2DrvN: will do    18 centers at a time, making    1 passes.
 Calling FoFCou, ICntrl=  3107 FMM=F I1Cent=   0 AccDes= 0.00D+00.
 FoFJK:  IHMeth= 1 ICntrl=    3107 DoSepK=F KAlg= 0 I1Cent=   0 FoldK=F
 IRaf=         0 NMat=   1 IRICut=       1 DoRegI=T DoRafI=F ISym2E= 0.
 FoFCou: FMM=F IPFlag=           0 FMFlag=      100000 FMFlg1=           0
         NFxFlg=           0 DoJE=F BraDBF=F KetDBF=F FulRan=T
         wScrn=  0.000000 ICntrl=    3107 IOpCl=  0 I1Cent=           0 NGrid=           0
         NMat0=    1 NMatS0=      1 NMatT0=    0 NMatD0=    1 NMtDS0=    0 NMtDT0=    0
 Symmetry not used in FoFCou.
 End of G2Drv F.D. properties file   721 does not exist.
 End of G2Drv F.D. properties file   722 does not exist.
 End of G2Drv F.D. properties file   788 does not exist.
 Leave Link 1110 at Wed Aug 25 15:30:31 2021, MaxMem= 24159191040 cpu:       779.5
 (Enter /public/home/users/caep010/software/Gaussian09/g09/l1002.exe)
 Minotr:  Closed shell wavefunction.
          IDoAtm=11111111111111111
          Direct CPHF calculation.
          Differentiating once with respect to nuclear coordinates.
          Requested convergence is 1.0D-08 RMS, and 1.0D-07 maximum.
          Secondary convergence is 1.0D-12 RMS, and 1.0D-12 maximum.
          NewPWx=T KeepS1=F KeepF1=F KeepIn=T MapXYZ=F SortEE=F KeepMc=T.
          MDV=   24159190482 using IRadAn=       2.
 Generate precomputed XC quadrature information.
 Keep R1 ints in memory in canonical form, NReq=2770238961.
 FoFCou: FMM=F IPFlag=           0 FMFlag=           0 FMFlg1=           0
         NFxFlg=           0 DoJE=F BraDBF=F KetDBF=F FulRan=T
         wScrn=  0.000000 ICntrl=     600 IOpCl=  0 I1Cent=           0 NGrid=           0
         NMat0=    1 NMatS0=  73920 NMatT0=    0 NMatD0=    1 NMtDS0=    0 NMtDT0=    0
 Symmetry not used in FoFCou.
          Solving linear equations simultaneously, MaxMat=       0.
          There are    54 degrees of freedom in the 1st order CPHF.  IDoFFX=6 NUNeed=     0.
     48 vectors produced by pass  0 Test12= 2.93D-14 1.85D-09 XBig12= 2.77D-01 1.52D-01.
 AX will form    48 AO Fock derivatives at one time.
     48 vectors produced by pass  1 Test12= 2.93D-14 1.85D-09 XBig12= 8.01D-02 6.33D-02.
     48 vectors produced by pass  2 Test12= 2.93D-14 1.85D-09 XBig12= 1.46D-03 6.44D-03.
     48 vectors produced by pass  3 Test12= 2.93D-14 1.85D-09 XBig12= 7.83D-06 3.90D-04.
     48 vectors produced by pass  4 Test12= 2.93D-14 1.85D-09 XBig12= 4.10D-08 2.44D-05.
     48 vectors produced by pass  5 Test12= 2.93D-14 1.85D-09 XBig12= 1.24D-10 9.16D-07.
     33 vectors produced by pass  6 Test12= 2.93D-14 1.85D-09 XBig12= 1.99D-13 3.88D-08.
      1 vectors produced by pass  7 Test12= 2.93D-14 1.85D-09 XBig12= 8.03D-16 2.53D-09.
 InvSVY:  IOpt=1 It=  1 EMax= 5.55D-16
 Solved reduced A of dimension   322 with    54 vectors.
 End of Minotr F.D. properties file   721 does not exist.
 End of Minotr F.D. properties file   722 does not exist.
 End of Minotr F.D. properties file   788 does not exist.
 Leave Link 1002 at Wed Aug 25 15:31:18 2021, MaxMem= 24159191040 cpu:      1334.6
 (Enter /public/home/users/caep010/software/Gaussian09/g09/l601.exe)
 Copying SCF densities to generalized density rwf, IOpCl= 0 IROHF=0.

 **********************************************************************

            Population analysis using the SCF density.

 **********************************************************************

 Orbital symmetries:
       Occupied  (A) (A) (A) (A) (A) (A) (A) (A) (A) (A) (A) (A)
                 (A) (A) (A) (A) (A) (A) (A) (A) (A) (A) (A) (A)
                 (A) (A) (A) (A) (A) (A) (A) (A) (A) (A) (A) (A)
                 (A) (A) (A) (A) (A) (A) (A) (A) (A) (A) (A)
       Virtual   (A) (A) (A) (A) (A) (A) (A) (A) (A) (A) (A) (A)
                 (A) (A) (A) (A) (A) (A) (A) (A) (A) (A) (A) (A)
                 (A) (A) (A) (A) (A) (A) (A) (A) (A) (A) (A) (A)
                 (A) (A) (A) (A) (A) (A) (A) (A) (A) (A) (A) (A)
                 (A) (A) (A) (A) (A) (A) (A) (A) (A) (A) (A) (A)
                 (A) (A) (A) (A) (A) (A) (A) (A) (A) (A) (A) (A)
                 (A) (A) (A) (A) (A) (A) (A) (A) (A) (A) (A) (A)
                 (A) (A) (A) (A) (A) (A) (A) (A) (A) (A) (A) (A)
                 (A) (A) (A) (A) (A) (A) (A) (A) (A) (A) (A) (A)
                 (A) (A) (A) (A) (A) (A) (A) (A) (A) (A) (A) (A)
                 (A) (A) (A) (A) (A) (A) (A) (A) (A) (A) (A) (A)
                 (A) (A) (A) (A) (A) (A) (A) (A) (A) (A) (A) (A)
                 (A) (A) (A) (A) (A) (A) (A) (A) (A) (A) (A) (A)
                 (A) (A) (A) (A) (A) (A) (A) (A) (A) (A) (A) (A)
                 (A) (A) (A) (A) (A) (A) (A) (A) (A) (A) (A) (A)
                 (A) (A) (A) (A) (A) (A) (A) (A) (A) (A) (A) (A)
                 (A) (A) (A) (A) (A) (A) (A) (A) (A) (A) (A) (A)
                 (A) (A) (A) (A) (A) (A) (A) (A) (A) (A) (A) (A)
                 (A) (A) (A) (A) (A) (A) (A) (A) (A) (A) (A) (A)
                 (A) (A) (A) (A) (A) (A) (A) (A) (A) (A) (A) (A)
                 (A) (A) (A) (A) (A) (A) (A) (A) (A) (A) (A) (A)
                 (A) (A) (A) (A) (A) (A) (A) (A) (A) (A) (A) (A)
                 (A) (A) (A) (A) (A) (A) (A) (A) (A) (A) (A) (A)
                 (A) (A) (A) (A) (A) (A) (A) (A) (A) (A) (A) (A)
                 (A) (A) (A) (A) (A) (A) (A) (A) (A) (A) (A) (A)
                 (A) (A) (A) (A) (A) (A) (A) (A) (A) (A) (A) (A)
                 (A) (A) (A) (A) (A) (A) (A) (A) (A) (A) (A) (A)
                 (A) (A) (A) (A) (A) (A) (A) (A) (A) (A) (A) (A)
                 (A)
 The electronic state is 1-A.
 Alpha  occ. eigenvalues --  -19.19920 -19.19752 -19.19709 -19.17912 -19.17774
 Alpha  occ. eigenvalues --  -14.59359 -14.57765 -10.31974 -10.28061 -10.27422
 Alpha  occ. eigenvalues --  -10.23576 -10.23166 -10.21221  -1.25467  -1.24223
 Alpha  occ. eigenvalues --   -1.16221  -1.07482  -1.06301  -0.93350  -0.86105
 Alpha  occ. eigenvalues --   -0.83199  -0.75161  -0.73804  -0.68203  -0.63677
 Alpha  occ. eigenvalues --   -0.60382  -0.57824  -0.56314  -0.56186  -0.55090
 Alpha  occ. eigenvalues --   -0.54707  -0.53548  -0.52372  -0.50782  -0.46410
 Alpha  occ. eigenvalues --   -0.45518  -0.44568  -0.42385  -0.39448  -0.33883
 Alpha  occ. eigenvalues --   -0.33554  -0.32103  -0.31849  -0.31594  -0.31343
 Alpha  occ. eigenvalues --   -0.29464  -0.28531
 Alpha virt. eigenvalues --   -0.11810  -0.09198  -0.03102  -0.01169   0.05880
 Alpha virt. eigenvalues --    0.12092   0.13090   0.14437   0.17097   0.17584
 Alpha virt. eigenvalues --    0.19122   0.22349   0.24372   0.25400   0.26701
 Alpha virt. eigenvalues --    0.27136   0.28819   0.31316   0.33388   0.34192
 Alpha virt. eigenvalues --    0.36802   0.39796   0.40791   0.42198   0.42975
 Alpha virt. eigenvalues --    0.43939   0.46202   0.47137   0.47484   0.48539
 Alpha virt. eigenvalues --    0.52092   0.53002   0.54575   0.55116   0.55978
 Alpha virt. eigenvalues --    0.57842   0.58552   0.59038   0.61306   0.62228
 Alpha virt. eigenvalues --    0.64056   0.65981   0.67494   0.68718   0.69910
 Alpha virt. eigenvalues --    0.70493   0.71672   0.73834   0.73903   0.75945
 Alpha virt. eigenvalues --    0.76971   0.77455   0.77750   0.79828   0.80638
 Alpha virt. eigenvalues --    0.82323   0.83516   0.83587   0.84878   0.85955
 Alpha virt. eigenvalues --    0.87367   0.88960   0.89331   0.90706   0.91452
 Alpha virt. eigenvalues --    0.93003   0.93912   0.94342   0.96075   0.96374
 Alpha virt. eigenvalues --    0.97293   0.97744   0.98401   0.99427   1.01425
 Alpha virt. eigenvalues --    1.02303   1.04929   1.05852   1.07553   1.10405
 Alpha virt. eigenvalues --    1.12319   1.13173   1.13623   1.15916   1.17284
 Alpha virt. eigenvalues --    1.20737   1.21830   1.23438   1.25434   1.25842
 Alpha virt. eigenvalues --    1.27786   1.30902   1.32714   1.34320   1.35325
 Alpha virt. eigenvalues --    1.37133   1.37659   1.38887   1.39879   1.40812
 Alpha virt. eigenvalues --    1.41609   1.42235   1.43639   1.45514   1.48207
 Alpha virt. eigenvalues --    1.49368   1.50452   1.53101   1.53797   1.56381
 Alpha virt. eigenvalues --    1.58277   1.61253   1.62704   1.63950   1.64720
 Alpha virt. eigenvalues --    1.66349   1.67591   1.69308   1.70365   1.71990
 Alpha virt. eigenvalues --    1.74498   1.80951   1.83775   1.84226   1.84894
 Alpha virt. eigenvalues --    1.87253   1.88536   1.90490   1.92796   1.94679
 Alpha virt. eigenvalues --    1.96530   1.99622   2.05273   2.12008   2.15389
 Alpha virt. eigenvalues --    2.20504   2.21944   2.23486   2.25539   2.28180
 Alpha virt. eigenvalues --    2.31186   2.32371   2.34514   2.44339   2.46677
 Alpha virt. eigenvalues --    2.57590   2.60452   2.65016   2.67668   2.69282
 Alpha virt. eigenvalues --    2.74318   2.83411   2.86154   2.87809   2.90532
 Alpha virt. eigenvalues --    2.92817   2.94533   2.96487   3.00529   3.02591
 Alpha virt. eigenvalues --    3.03653   3.06858   3.08666   3.10508   3.12277
 Alpha virt. eigenvalues --    3.15553   3.17427   3.17997   3.21573   3.23423
 Alpha virt. eigenvalues --    3.25911   3.27687   3.29895   3.33136   3.34732
 Alpha virt. eigenvalues --    3.37574   3.38838   3.39348   3.41053   3.42409
 Alpha virt. eigenvalues --    3.43714   3.44137   3.48192   3.50046   3.51951
 Alpha virt. eigenvalues --    3.52813   3.54222   3.55007   3.58065   3.61376
 Alpha virt. eigenvalues --    3.63135   3.64189   3.64901   3.68895   3.70414
 Alpha virt. eigenvalues --    3.72115   3.73646   3.74511   3.76240   3.80967
 Alpha virt. eigenvalues --    3.86473   3.88545   3.91201   3.94983   4.00215
 Alpha virt. eigenvalues --    4.01783   4.03090   4.03716   4.05351   4.06203
 Alpha virt. eigenvalues --    4.07848   4.09606   4.10708   4.14474   4.15242
 Alpha virt. eigenvalues --    4.20555   4.21680   4.22367   4.23976   4.25108
 Alpha virt. eigenvalues --    4.25910   4.27284   4.28445   4.28931   4.31839
 Alpha virt. eigenvalues --    4.33482   4.34315   4.36222   4.38524   4.41057
 Alpha virt. eigenvalues --    4.43309   4.43628   4.43943   4.47284   4.47906
 Alpha virt. eigenvalues --    4.49470   4.49934   4.50596   4.52022   4.53091
 Alpha virt. eigenvalues --    4.54157   4.56121   4.56611   4.58315   4.59404
 Alpha virt. eigenvalues --    4.59677   4.61031   4.61864   4.66957   4.68528
 Alpha virt. eigenvalues --    4.68832   4.70390   4.76321   4.77212   4.80371
 Alpha virt. eigenvalues --    4.84490   4.87482   4.89858   4.92388   4.96707
 Alpha virt. eigenvalues --    4.97728   5.00294   5.00521   5.02156   5.02235
 Alpha virt. eigenvalues --    5.03513   5.05319   5.05896   5.06134   5.08246
 Alpha virt. eigenvalues --    5.10000   5.13708   5.18921   5.21576   5.22117
 Alpha virt. eigenvalues --    5.24536   5.28388   5.32030   5.33252   5.33960
 Alpha virt. eigenvalues --    5.35269   5.39307   5.40915   5.50267   5.52966
 Alpha virt. eigenvalues --    5.55418   5.57965   5.58995   5.62350   5.62954
 Alpha virt. eigenvalues --    5.64126   5.68084   5.72471   5.77341   5.78277
 Alpha virt. eigenvalues --    5.81846   5.89034   5.90552   5.93064   5.97972
 Alpha virt. eigenvalues --    6.00422   6.02867   6.03639   6.04899   6.09791
 Alpha virt. eigenvalues --    6.11634   6.22103   6.24059   6.26104   6.26571
 Alpha virt. eigenvalues --    6.30331   6.36015   6.51971   6.59135   6.71839
 Alpha virt. eigenvalues --    6.76446   6.88961   6.92188   7.03633   7.09537
 Alpha virt. eigenvalues --    7.35133   9.29376   9.65139  10.51970  10.63922
 Alpha virt. eigenvalues --   11.28089  11.30393  11.69986  11.75697  12.70352
 Alpha virt. eigenvalues --   12.92489  12.99681  13.14598  13.22833  13.73899
 Alpha virt. eigenvalues --   15.78973  18.41830
          Condensed to atoms (all electrons):
               1          2          3          4          5          6
     1  C    4.894648   0.294400  -0.000473   0.472231  -0.068161  -0.016197
     2  C    0.294400   5.055383   0.397988  -0.018037   0.012866   0.328970
     3  C   -0.000473   0.397988   5.000724   0.002388   0.000015  -0.028066
     4  O    0.472231  -0.018037   0.002388   7.514407   0.394828   0.002865
     5  H   -0.068161   0.012866   0.000015   0.394828   0.416516  -0.000286
     6  N   -0.016197   0.328970  -0.028066   0.002865  -0.000286   5.252425
     7  O    0.005014  -0.142085   0.007740  -0.000080   0.000003   0.554031
     8  H    0.004805  -0.030419   0.350010   0.000020   0.000008  -0.013942
     9  O    0.007422  -0.106556   0.008361  -0.013776   0.000280   0.527322
    10  C    0.310040   0.017830  -0.096605  -0.071020  -0.011713   0.002477
    11  N   -0.029326  -0.000518   0.000338  -0.004097  -0.004780  -0.000018
    12  O   -0.015008   0.000214  -0.000037  -0.022154   0.057098  -0.000001
    13  C    0.008424  -0.075179   0.055480   0.001932  -0.001228   0.000164
    14  C   -0.066233   0.031756   0.469167  -0.000029  -0.000112   0.002124
    15  H    0.002814   0.001464  -0.021593  -0.000005  -0.000001  -0.000082
    16  H    0.004880   0.001174   0.003458  -0.000008  -0.000032   0.000005
    17  O    0.003843  -0.000023  -0.000015  -0.000037   0.001015  -0.000000
               7          8          9         10         11         12
     1  C    0.005014   0.004805   0.007422   0.310040  -0.029326  -0.015008
     2  C   -0.142085  -0.030419  -0.106556   0.017830  -0.000518   0.000214
     3  C    0.007740   0.350010   0.008361  -0.096605   0.000338  -0.000037
     4  O   -0.000080   0.000020  -0.013776  -0.071020  -0.004097  -0.022154
     5  H    0.000003   0.000008   0.000280  -0.011713  -0.004780   0.057098
     6  N    0.554031  -0.013942   0.527322   0.002477  -0.000018  -0.000001
     7  O    7.995822   0.027758  -0.092959  -0.000062  -0.000000   0.000000
     8  H    0.027758   0.544345   0.000709   0.000954   0.000004  -0.000000
     9  O   -0.092959   0.000709   8.001101   0.000270   0.000000  -0.000000
    10  C   -0.000062   0.000954   0.000270   5.155916   0.359631  -0.093286
    11  N   -0.000000   0.000004   0.000000   0.359631   5.279516   0.465035
    12  O    0.000000  -0.000000  -0.000000  -0.093286   0.465035   8.088418
    13  C    0.000003   0.002710  -0.000031   0.367094  -0.020832   0.007822
    14  C    0.001348  -0.027824  -0.000004   0.048451   0.001668   0.000018
    15  H   -0.000011  -0.002838   0.000001   0.001660  -0.000086   0.000001
    16  H    0.000000  -0.000400  -0.000000  -0.032957  -0.014246   0.000625
    17  O   -0.000000   0.000000  -0.000000  -0.127952   0.555151  -0.087345
              13         14         15         16         17
     1  C    0.008424  -0.066233   0.002814   0.004880   0.003843
     2  C   -0.075179   0.031756   0.001464   0.001174  -0.000023
     3  C    0.055480   0.469167  -0.021593   0.003458  -0.000015
     4  O    0.001932  -0.000029  -0.000005  -0.000008  -0.000037
     5  H   -0.001228  -0.000112  -0.000001  -0.000032   0.001015
     6  N    0.000164   0.002124  -0.000082   0.000005  -0.000000
     7  O    0.000003   0.001348  -0.000011   0.000000  -0.000000
     8  H    0.002710  -0.027824  -0.002838  -0.000400   0.000000
     9  O   -0.000031  -0.000004   0.000001  -0.000000  -0.000000
    10  C    0.367094   0.048451   0.001660  -0.032957  -0.127952
    11  N   -0.020832   0.001668  -0.000086  -0.014246   0.555151
    12  O    0.007822   0.000018   0.000001   0.000625  -0.087345
    13  C    4.906637   0.508422  -0.015686   0.343486   0.005045
    14  C    0.508422   4.757983   0.335038  -0.027851   0.001404
    15  H   -0.015686   0.335038   0.597749  -0.002208  -0.000007
    16  H    0.343486  -0.027851  -0.002208   0.572515   0.025705
    17  O    0.005045   0.001404  -0.000007   0.025705   7.960371
 Mulliken charges:
               1
     1  C    0.186875
     2  C    0.230773
     3  C   -0.148880
     4  O   -0.259428
     5  H    0.203684
     6  N    0.388209
     7  O   -0.356522
     8  H    0.144101
     9  O   -0.332141
    10  C    0.169273
    11  N    0.412559
    12  O   -0.401400
    13  C   -0.094263
    14  C   -0.035325
    15  H    0.103789
    16  H    0.125853
    17  O   -0.337157
 Sum of Mulliken charges =  -0.00000
 Mulliken charges with hydrogens summed into heavy atoms:
               1
     1  C    0.186875
     2  C    0.230773
     3  C   -0.004779
     4  O   -0.055744
     6  N    0.388209
     7  O   -0.356522
     9  O   -0.332141
    10  C    0.169273
    11  N    0.412559
    12  O   -0.401400
    13  C    0.031590
    14  C    0.068464
    17  O   -0.337157
 APT charges:
               1
     1  C   -0.295835
     2  C   -0.249282
     3  C   -0.330420
     4  O   -0.163043
     5  H    0.381710
     6  N   -1.285622
     7  O    0.722243
     8  H    0.549258
     9  O    0.422394
    10  C   -0.287530
    11  N   -1.182753
    12  O    0.259749
    13  C   -0.296749
    14  C   -0.076251
    15  H    0.537526
    16  H    0.511215
    17  O    0.783391
 Sum of APT charges =  -0.00000
 APT charges with hydrogens summed into heavy atoms:
               1
     1  C   -0.295835
     2  C   -0.249282
     3  C    0.218838
     4  O    0.218667
     6  N   -1.285622
     7  O    0.722243
     9  O    0.422394
    10  C   -0.287530
    11  N   -1.182753
    12  O    0.259749
    13  C    0.214465
    14  C    0.461275
    17  O    0.783391
 Electronic spatial extent (au):  <R**2>=           2281.5511
 Charge=             -0.0000 electrons
 Dipole moment (field-independent basis, Debye):
    X=             -1.0825    Y=              3.8924    Z=             -0.0163  Tot=              4.0401
 Quadrupole moment (field-independent basis, Debye-Ang):
   XX=            -91.7754   YY=            -67.3411   ZZ=            -68.7571
   XY=              1.8861   XZ=             -0.0920   YZ=             -0.8130
 Traceless Quadrupole moment (field-independent basis, Debye-Ang):
   XX=            -15.8176   YY=              8.6167   ZZ=              7.2008
   XY=              1.8861   XZ=             -0.0920   YZ=             -0.8130
 Octapole moment (field-independent basis, Debye-Ang**2):
  XXX=             -4.4171  YYY=             10.4619  ZZZ=              1.0229  XYY=             -3.9165
  XXY=              9.4408  XXZ=             -2.8804  XZZ=             -0.6460  YZZ=             -8.9301
  YYZ=              1.2069  XYZ=             -1.7069
 Hexadecapole moment (field-independent basis, Debye-Ang**3):
 XXXX=          -2177.8759 YYYY=           -701.5272 ZZZZ=            -62.0246 XXXY=             -2.2324
 XXXZ=             -6.7767 YYYX=             10.4524 YYYZ=             -2.7957 ZZZX=             -0.5484
 ZZZY=              1.1519 XXYY=           -452.6797 XXZZ=           -302.7212 YYZZ=           -140.8192
 XXYZ=             -2.9483 YYXZ=              3.3861 ZZXY=              0.0375
 N-N= 7.994676576631D+02 E-N=-3.277132044966D+03  KE= 7.135126137440D+02
  Exact polarizability:   0.000   0.000   0.000   0.000   0.000   0.000
 Approx polarizability: 218.695   0.702 231.590   4.043   5.064  69.569
 No NMR shielding tensors so no spin-rotation constants.
 Leave Link  601 at Wed Aug 25 15:31:19 2021, MaxMem= 24159191040 cpu:        15.8
 (Enter /public/home/users/caep010/software/Gaussian09/g09/l701.exe)
 Compute integral second derivatives.
 ... and contract with generalized density number  0.
 Leave Link  701 at Wed Aug 25 15:31:20 2021, MaxMem= 24159191040 cpu:        20.9
 (Enter /public/home/users/caep010/software/Gaussian09/g09/l702.exe)
 L702 exits ... SP integral derivatives will be done elsewhere.
 Leave Link  702 at Wed Aug 25 15:31:20 2021, MaxMem= 24159191040 cpu:         0.8
 (Enter /public/home/users/caep010/software/Gaussian09/g09/l703.exe)
 Compute integral second derivatives, UseDBF=F ICtDFT=           0.
 Integral derivatives from FoFJK, PRISM(SPDF).
 Calling FoFJK, ICntrl=    100147 FMM=F ISym2X=0 I1Cent= 0 IOpClX= 0 NMat=1 NMatS=1 NMatT=0.
 FoFJK:  IHMeth= 1 ICntrl=  100147 DoSepK=F KAlg= 0 I1Cent=   0 FoldK=F
 IRaf=         0 NMat=   1 IRICut=       1 DoRegI=T DoRafI=F ISym2E= 0.
 FoFCou: FMM=F IPFlag=           0 FMFlag=      100000 FMFlg1=         800
         NFxFlg=           0 DoJE=F BraDBF=F KetDBF=F FulRan=T
         wScrn=  0.000000 ICntrl=  100147 IOpCl=  0 I1Cent=           0 NGrid=           0
         NMat0=    1 NMatS0=      1 NMatT0=    0 NMatD0=    1 NMtDS0=    0 NMtDT0=    0
 Symmetry not used in FoFCou.
 Leave Link  703 at Wed Aug 25 15:32:11 2021, MaxMem= 24159191040 cpu:      1605.2
 (Enter /public/home/users/caep010/software/Gaussian09/g09/l716.exe)
 Dipole        =-4.25877367D-01 1.53138368D+00-6.41643163D-03
 Polarizability= 0.00000000D+00 0.00000000D+00 0.00000000D+00
                 0.00000000D+00 0.00000000D+00 0.00000000D+00
 ***** Axes restored to original set *****
 -------------------------------------------------------------------
 Center     Atomic                   Forces (Hartrees/Bohr)
 Number     Number              X              Y              Z
 -------------------------------------------------------------------
      1        6          -0.007770756    0.007803597    0.015667760
      2        6           0.007575061    0.005930819    0.007171899
      3        6          -0.069650883   -0.055424678   -0.035073880
      4        8           0.233143255    0.226363512    0.215673478
      5        1          -0.237598619   -0.235575173   -0.224974011
      6        7          -0.004123731    0.006117909    0.003062800
      7        8           0.011411544    0.002681649   -0.004051521
      8        1           0.068384877    0.063480365    0.036087953
      9        8          -0.007658781   -0.005611343    0.001822200
     10        6          -0.000493542   -0.009240487   -0.010664094
     11        7          -0.015428603    0.000419120   -0.000702385
     12        8           0.006546363    0.003378541    0.003279554
     13        6          -0.045634790    0.094454591    0.117528577
     14        6          -0.189755010    0.029109971    0.080817894
     15        1           0.212132785   -0.021209890   -0.071221005
     16        1           0.030090608   -0.109796576   -0.131474064
     17        8           0.008830224   -0.002881924   -0.002951155
 -------------------------------------------------------------------
 Cartesian Forces:  Max     0.237598619 RMS     0.097440480
 FormGI is forming the generalized inverse of G from B-inverse, IUseBI=4.
 Leave Link  716 at Wed Aug 25 15:32:11 2021, MaxMem= 24159191040 cpu:         1.2
 (Enter /public/home/users/caep010/software/Gaussian09/g09/l103.exe)

 GradGradGradGradGradGradGradGradGradGradGradGradGradGradGradGradGradGrad
 Berny optimization.
 Red2BG is reusing G-inverse.
 Internal  Forces:  Max     0.402753407 RMS     0.057996355
 Search for a local minimum.
 Step number   1 out of a maximum of   86
 All quantities printed in internal units (Hartrees-Bohrs-Radians)
 RMS Force = .57996D-01 SwitMx=.10000D-02 MixMth= 1
 Mixed Optimization -- RFO/linear search
 Second derivative matrix not updated -- analytic derivatives used.
 ITU=  0
     Eigenvalues ---   -0.00099   0.00523   0.01252   0.01636   0.01868
     Eigenvalues ---    0.01961   0.02039   0.02510   0.02775   0.03161
     Eigenvalues ---    0.03235   0.03641   0.10725   0.11403   0.11431
     Eigenvalues ---    0.11549   0.12685   0.17744   0.17869   0.19330
     Eigenvalues ---    0.21234   0.21997   0.22535   0.23973   0.24129
     Eigenvalues ---    0.24859   0.29616   0.34730   0.38191   0.41858
     Eigenvalues ---    0.44124   0.47492   0.50087   0.53594   0.55319
     Eigenvalues ---    0.57537   0.59120   0.63061   0.66352   0.77970
     Eigenvalues ---    0.81131   0.82670   0.87784   1.02344   1.90688
 Eigenvalue     1 is  -9.90D-04 should be greater than     0.000000 Eigenvector:
                          D16       D18       D15       D17       D1
   1                    0.51324   0.51174   0.47585   0.47435   0.05888
                          D2        D5        D10       D12       D14
   1                    0.05730  -0.04627  -0.03563  -0.03342  -0.03177
 RFO step:  Lambda=-1.66729523D-01 EMin=-9.89915332D-04
 Linear search not attempted -- first point.
 Maximum step size (   0.300) exceeded in Quadratic search.
    -- Step size scaled by   0.828
 Iteration  1 RMS(Cart)=  0.07760005 RMS(Int)=  0.02668650
 Iteration  2 RMS(Cart)=  0.03755900 RMS(Int)=  0.00194518
 Iteration  3 RMS(Cart)=  0.00204326 RMS(Int)=  0.00007114
 Iteration  4 RMS(Cart)=  0.00000522 RMS(Int)=  0.00007103
 Iteration  5 RMS(Cart)=  0.00000000 RMS(Int)=  0.00007103
 ITry= 1 IFail=0 DXMaxC= 4.07D-01 DCOld= 1.00D+10 DXMaxT= 3.00D-01 DXLimC= 3.00D+00 Rises=F
 Variable       Old X    -DE/DX   Delta X   Delta X   Delta X     New X
                                 (Linear)    (Quad)   (Total)
    R1        2.64534   0.01429   0.00000   0.01314   0.01315   2.65849
    R2        2.52725  -0.00024   0.00000  -0.00991  -0.00991   2.51734
    R3        2.64419   0.01270   0.00000   0.01766   0.01766   2.66185
    R4        2.61142   0.00460   0.00000   0.00300   0.00300   2.61442
    R5        2.78391   0.00278   0.00000  -0.00002  -0.00002   2.78389
    R6        1.84660   0.09917   0.00000   0.09962   0.09962   1.94622
    R7        2.62483   0.01007   0.00000   0.00999   0.00998   2.63481
    R8        1.45752   0.40275   0.00000   0.16032   0.16032   1.61784
    R9        2.30732   0.00945   0.00000   0.00607   0.00607   2.31340
   R10        2.29574   0.00760   0.00000   0.00549   0.00549   2.30123
   R11        2.75302  -0.00032   0.00000   0.00070   0.00070   2.75372
   R12        2.63065   0.00171   0.00000   0.00394   0.00394   2.63459
   R13        2.34752  -0.00486   0.00000  -0.00399  -0.00399   2.34353
   R14        2.29565   0.00628   0.00000   0.00478   0.00478   2.30043
   R15        2.56523   0.02769   0.00000   0.03122   0.03122   2.59645
   R16        1.74913   0.17352   0.00000   0.13750   0.13750   1.88662
   R17        1.69555   0.22461   0.00000   0.15607   0.15607   1.85162
    A1        2.09844   0.00379   0.00000  -0.00419  -0.00426   2.09418
    A2        2.02505   0.00040   0.00000  -0.00238  -0.00246   2.02260
    A3        2.15948  -0.00419   0.00000   0.00614   0.00605   2.16553
    A4        2.12675   0.00054   0.00000   0.00531   0.00530   2.13205
    A5        2.12378   0.00312   0.00000  -0.00979  -0.00979   2.11399
    A6        2.03262  -0.00365   0.00000   0.00449   0.00449   2.03711
    A7        2.10084  -0.00589   0.00000  -0.01631  -0.01643   2.08441
    A8        2.09483   0.00168   0.00000   0.00159   0.00150   2.09633
    A9        2.06941   0.00517   0.00000   0.01884   0.01882   2.08823
   A10        1.80957   0.02708   0.00000   0.04581   0.04581   1.85539
   A11        2.04618  -0.00795   0.00000  -0.00608  -0.00620   2.03997
   A12        2.08296  -0.00264   0.00000  -0.01545  -0.01558   2.06739
   A13        2.15403   0.01059   0.00000   0.02141   0.02129   2.17532
   A14        2.10970  -0.00003   0.00000  -0.00154  -0.00154   2.10816
   A15        2.13362   0.00130   0.00000  -0.00102  -0.00102   2.13259
   A16        2.03938  -0.00125   0.00000   0.00253   0.00253   2.04192
   A17        2.06652  -0.00442   0.00000  -0.00452  -0.00453   2.06200
   A18        2.08033  -0.00609   0.00000  -0.00763  -0.00764   2.07270
   A19        2.13608   0.01056   0.00000   0.01229   0.01228   2.14836
   A20        2.09287  -0.00134   0.00000   0.00178   0.00178   2.09464
   A21        2.12934  -0.00820   0.00000  -0.02478  -0.02478   2.10457
   A22        2.05560   0.00977   0.00000   0.02339   0.02339   2.07900
   A23        2.09283  -0.00256   0.00000  -0.00558  -0.00560   2.08723
   A24        2.05579   0.00541   0.00000   0.01600   0.01600   2.07179
   A25        2.13098  -0.00269   0.00000  -0.00974  -0.00976   2.12123
    D1       -3.10405  -0.00030   0.00000   0.03432   0.03425  -3.06981
    D2        0.02906   0.00002   0.00000   0.03498   0.03487   0.06394
    D3        0.01638  -0.00001   0.00000   0.01235   0.01231   0.02869
    D4       -3.13369   0.00031   0.00000   0.01301   0.01293  -3.12075
    D5        3.04540   0.00180   0.00000  -0.02004  -0.02008   3.02531
    D6       -0.07333   0.00141   0.00000   0.00382   0.00387  -0.06946
    D7       -3.10331  -0.00037   0.00000   0.00458   0.00465  -3.09866
    D8        0.00387   0.00021   0.00000   0.00354   0.00361   0.00748
    D9        0.01630   0.00005   0.00000  -0.01838  -0.01843  -0.00214
   D10        3.12349   0.00062   0.00000  -0.01942  -0.01948   3.10401
   D11        2.92087   0.00536   0.00000   0.00301   0.00277   2.92364
   D12       -0.01455  -0.00060   0.00000  -0.02242  -0.02246  -0.03700
   D13       -0.21267   0.00503   0.00000   0.00245   0.00224  -0.21043
   D14        3.13510  -0.00093   0.00000  -0.02298  -0.02299   3.11211
   D15       -2.91087  -0.00050   0.00000   0.29343   0.29345  -2.61742
   D16        0.23537   0.00144   0.00000   0.32127   0.32129   0.55666
   D17        0.22268  -0.00018   0.00000   0.29407   0.29405   0.51673
   D18       -2.91426   0.00176   0.00000   0.32191   0.32189  -2.59237
   D19       -0.00847   0.00121   0.00000   0.01632   0.01634   0.00787
   D20       -3.06114  -0.00070   0.00000   0.00837   0.00839  -3.05275
   D21       -2.94757  -0.00336   0.00000  -0.00458  -0.00481  -2.95238
   D22        0.28295  -0.00527   0.00000  -0.01253  -0.01276   0.27019
   D23       -0.01449  -0.00045   0.00000   0.01544   0.01543   0.00094
   D24        3.10380   0.00190   0.00000   0.02206   0.02205   3.12586
   D25       -3.12347  -0.00104   0.00000   0.01648   0.01649  -3.10698
   D26       -0.00518   0.00131   0.00000   0.02311   0.02311   0.01793
   D27       -0.02636   0.00041   0.00000  -0.00923  -0.00921  -0.03556
   D28       -3.05428  -0.00258   0.00000  -0.01490  -0.01487  -3.06915
   D29        3.08214   0.00098   0.00000  -0.01030  -0.01029   3.07185
   D30        0.05422  -0.00201   0.00000  -0.01597  -0.01596   0.03827
   D31        0.02826  -0.00108   0.00000  -0.00083  -0.00086   0.02741
   D32        3.07698   0.00134   0.00000   0.00884   0.00867   3.08566
   D33        3.06092   0.00066   0.00000   0.00156   0.00165   3.06258
   D34       -0.17354   0.00308   0.00000   0.01123   0.01118  -0.16236
         Item               Value     Threshold  Converged?
 Maximum Force            0.402753     0.000450     NO 
 RMS     Force            0.057996     0.000300     NO 
 Maximum Displacement     0.407412     0.001800     NO 
 RMS     Displacement     0.109297     0.001200     NO 
 Predicted change in Energy=-8.883524D-02
 Lowest energy point so far.  Saving SCF results.
 GradGradGradGradGradGradGradGradGradGradGradGradGradGradGradGradGradGrad

 Leave Link  103 at Wed Aug 25 15:32:11 2021, MaxMem= 24159191040 cpu:         4.3
 (Enter /public/home/users/caep010/software/Gaussian09/g09/l202.exe)
                          Input orientation:                          
 ---------------------------------------------------------------------
 Center     Atomic      Atomic             Coordinates (Angstroms)
 Number     Number       Type             X           Y           Z
 ---------------------------------------------------------------------
      1          6           0        1.050994    1.886971   -2.309924
      2          6           0        2.113140    2.653079   -1.796074
      3          6           0        3.403487    2.542760   -2.282780
      4          8           0       -0.189160    2.086061   -1.866160
      5          1           0       -0.699869    1.603567   -2.355372
      6          7           0        1.895414    3.625372   -0.710957
      7          8           0        2.629501    4.604824   -0.689804
      8          1           0        4.105724    3.248573   -2.019395
      9          8           0        1.032598    3.389107    0.115281
     10          6           0        1.387925    0.973036   -3.327432
     11          7           0        0.362258    0.163608   -3.972630
     12          8           0       -0.812706    0.303406   -3.601321
     13          6           0        2.694199    0.827630   -3.792409
     14          6           0        3.696281    1.619285   -3.285522
     15          1           0        4.629284    1.504866   -3.562094
     16          1           0        2.896473    0.217607   -4.556397
     17          8           0        0.692458   -0.602451   -4.859211
 ---------------------------------------------------------------------
                    Distance matrix (angstroms):
                    1          2          3          4          5
     1  C    0.000000
     2  C    1.406811   0.000000
     3  C    2.442339   1.383491   0.000000
     4  O    1.332120   2.372131   3.645443   0.000000
     5  H    1.774234   3.054065   4.210093   0.856127   0.000000
     6  N    2.508341   1.473173   2.432480   2.837150   3.677946
     7  O    3.535986   2.302123   2.718223   3.958893   4.781879
     8  H    3.357044   2.091621   1.029894   4.452072   5.090447
     9  O    2.852783   2.315726   3.476797   2.667720   3.506240
    10  C    1.408589   2.386113   2.760040   2.421020   2.387751
    11  N    2.491772   3.741717   4.214858   2.904669   2.411870
    12  O    2.765640   4.164187   4.952731   2.564655   1.804312
    13  C    2.453587   2.766812   2.392434   3.688881   3.766544
    14  C    2.832136   2.406973   1.394283   4.162826   4.493502
    15  H    3.810262   3.281494   2.053399   5.141146   5.464961
    16  H    3.352493   3.763577   3.291312   4.499958   4.438364
    17  O    3.581150   4.690375   4.886719   4.118701   3.615840
                    6          7          8          9         10
     6  N    0.000000
     7  O    1.224197   0.000000
     8  H    2.596047   2.405507   0.000000
     9  O    1.217761   2.162459   3.744422   0.000000
    10  C    3.760103   4.657089   3.778288   4.220892   0.000000
    11  N    4.997287   5.970069   5.229309   5.250163   1.457205
    12  O    5.169485   6.231205   5.947054   5.171057   2.316505
    13  C    4.238014   4.888511   3.316165   4.959045   1.394166
    14  C    3.727719   4.097464   2.103640   4.668291   2.397478
    15  H    4.483255   4.675353   2.386326   5.478102   3.293071
    16  H    5.234729   5.854014   4.133451   5.946176   2.087281
    17  O    6.043972   6.946351   5.877527   6.387002   2.304817
                   11         12         13         14         15
    11  N    0.000000
    12  O    1.240142   0.000000
    13  C    2.431327   3.551015   0.000000
    14  C    3.702272   4.707678   1.373980   0.000000
    15  H    4.491661   5.573177   2.063067   0.979836   0.000000
    16  H    2.601143   3.831127   0.998358   2.054146   2.376617
    17  O    1.217335   2.160644   2.681448   4.054079   4.649935
                   16         17
    16  H    0.000000
    17  O    2.371049   0.000000
 Stoichiometry    C6H4N2O5
 Framework group  C1[X(C6H4N2O5)]
 Deg. of freedom    45
 Full point group                 C1      NOp   1
 RotChk:  IX=2 Diff= 1.34D-02
 Largest Abelian subgroup         C1      NOp   1
 Largest concise Abelian subgroup C1      NOp   1
                         Standard orientation:                         
 ---------------------------------------------------------------------
 Center     Atomic      Atomic             Coordinates (Angstroms)
 Number     Number       Type             X           Y           Z
 ---------------------------------------------------------------------
      1          6           0        0.000443   -0.468183    0.000327
      2          6           0        1.192889    0.277897   -0.023184
      3          6           0        1.195654    1.661125   -0.050041
      4          8           0        0.047272   -1.795078    0.108489
      5          1           0       -0.762443   -2.057474    0.200492
      6          7           0        2.507445   -0.386944   -0.010346
      7          8           0        3.429921    0.220694    0.517358
      8          1           0        2.073895    2.168932    0.127456
      9          8           0        2.612920   -1.474357   -0.548258
     10          6           0       -1.193154    0.278612   -0.041474
     11          7           0       -2.489666   -0.382603    0.031308
     12          8           0       -2.511189   -1.618474    0.131873
     13          6           0       -1.195977    1.671028   -0.111241
     14          6           0       -0.008556    2.362191   -0.099147
     15          1           0        0.017970    3.337098   -0.193656
     16          1           0       -2.054454    2.179560   -0.077588
     17          8           0       -3.497325    0.300051    0.008678
 ---------------------------------------------------------------------
 Rotational constants (GHZ):      1.6436041      0.5901205      0.4418051
 Leave Link  202 at Wed Aug 25 15:32:11 2021, MaxMem= 24159191040 cpu:         0.5
 (Enter /public/home/users/caep010/software/Gaussian09/g09/l301.exe)
 Standard basis: GTBas3 (6D, 7F)
 Ernie: Thresh=  0.10000D-02 Tol=  0.10000D-05 Strict=F.
 There are   423 symmetry adapted cartesian basis functions of A   symmetry.
 There are   384 symmetry adapted basis functions of A   symmetry.
   384 basis functions,   600 primitive gaussians,   423 cartesian basis functions
    47 alpha electrons       47 beta electrons
       nuclear repulsion energy       795.4944004561 Hartrees.
 IExCor=  402 DFT=T Ex+Corr=B3LYP ExCW=0 ScaHFX=  0.200000
 ScaDFX=  0.800000  0.720000  1.000000  0.810000 ScalE2=  1.000000  1.000000
 IRadAn=      0 IRanWt=     -1 IRanGd=            0 ICorTp=0 IEmpDi=  4
 NAtoms=   17 NActive=   17 NUniq=   17 SFac= 1.00D+00 NAtFMM=   60 NAOKFM=F Big=F
 Integral buffers will be    131072 words long.
 Raffenetti 2 integral format.
 Two-electron integral symmetry is turned on.
 Leave Link  301 at Wed Aug 25 15:32:12 2021, MaxMem= 24159191040 cpu:         2.1
 (Enter /public/home/users/caep010/software/Gaussian09/g09/l302.exe)
 NPDir=0 NMtPBC=     1 NCelOv=     1 NCel=       1 NClECP=     1 NCelD=      1
         NCelK=      1 NCelE2=     1 NClLst=     1 CellRange=     0.0.
 One-electron integrals computed using PRISM.
 NBasis=   384 RedAO= T EigKep=  1.17D-04  NBF=   384
 NBsUse=   384 1.00D-06 EigRej= -1.00D+00 NBFU=   384
 Precomputing XC quadrature grid using
 IXCGrd= 4 IRadAn=           0 IRanWt=          -1 IRanGd=           0 AccXCQ= 0.00D+00.
 Generated NRdTot=       0 NPtTot=           0 NUsed=           0 NTot=          32
 NSgBfM=   422   422   422   422   422 MxSgAt=    17 MxSgA2=    17.
 Leave Link  302 at Wed Aug 25 15:32:12 2021, MaxMem= 24159191040 cpu:        18.0
 (Enter /public/home/users/caep010/software/Gaussian09/g09/l303.exe)
 DipDrv:  MaxL=1.
 Leave Link  303 at Wed Aug 25 15:32:12 2021, MaxMem= 24159191040 cpu:         1.1
 (Enter /public/home/users/caep010/software/Gaussian09/g09/l401.exe)
 Initial guess from the checkpoint file:  "/public/home/users/caep010/.cache/gau_scr/Gau-198480.chk"
 B after Tr=     0.000000    0.000000   -0.000000
         Rot=    0.999990   -0.003810    0.000533   -0.002235 Ang=  -0.51 deg.
 Guess basis will be translated and rotated to current coordinates.
 JPrj=2 DoOrth=T DoCkMO=T.
 Generating alternative initial guess.
 ExpMin= 1.61D-01 ExpMax= 5.48D+03 ExpMxC= 8.25D+02 IAcc=1 IRadAn=         1 AccDes= 0.00D+00
 Harris functional with IExCor=  402 and IRadAn=       1 diagonalized for initial guess.
 HarFok:  IExCor=  402 AccDes= 0.00D+00 IRadAn=         1 IDoV= 1 UseB2=F ITyADJ=14
 ICtDFT=  3500011 ScaDFX=  1.000000  1.000000  1.000000  1.000000
 FoFCou: FMM=F IPFlag=           0 FMFlag=      100000 FMFlg1=           0
         NFxFlg=           0 DoJE=T BraDBF=F KetDBF=T FulRan=T
         wScrn=  0.000000 ICntrl=     500 IOpCl=  0 I1Cent=   200000004 NGrid=           0
         NMat0=    1 NMatS0=      1 NMatT0=    0 NMatD0=    1 NMtDS0=    0 NMtDT0=    0
 Petite list used in FoFCou.
 Harris En= -716.547753916019    
 Leave Link  401 at Wed Aug 25 15:32:13 2021, MaxMem= 24159191040 cpu:        29.3
 (Enter /public/home/users/caep010/software/Gaussian09/g09/l502.exe)
 Closed shell SCF:
 Using DIIS extrapolation, IDIIS=  1040.
 Integral symmetry usage will be decided dynamically.
 Keep R1 ints in memory in canonical form, NReq=2770804379.
 IVT=      571919 IEndB=      571919 NGot= 24159191040 MDV= 21426498962
 LenX= 21426498962 LenY= 21426319592
 Requested convergence on RMS density matrix=1.00D-08 within 128 cycles.
 Requested convergence on MAX density matrix=1.00D-06.
 Requested convergence on             energy=1.00D-06.
 No special actions if energy rises.
 FoFCou: FMM=F IPFlag=           0 FMFlag=           0 FMFlg1=           0
         NFxFlg=           0 DoJE=F BraDBF=F KetDBF=F FulRan=T
         wScrn=  0.000000 ICntrl=     600 IOpCl=  0 I1Cent=           0 NGrid=           0
         NMat0=    1 NMatS0=  73920 NMatT0=    0 NMatD0=    1 NMtDS0=    0 NMtDT0=    0
 Symmetry not used in FoFCou.
 Integral accuracy reduced to 1.0D-05 until final iterations.

 Cycle   1  Pass 0  IDiag  1:
 E= -716.361104555025    
 DIIS: error= 1.07D-02 at cycle   1 NSaved=   1.
 NSaved= 1 IEnMin= 1 EnMin= -716.361104555025     IErMin= 1 ErrMin= 1.07D-02
 ErrMax= 1.07D-02  0.00D+00 EMaxC= 1.00D-01 BMatC= 7.90D-02 BMatP= 7.90D-02
 IDIUse=3 WtCom= 8.93D-01 WtEn= 1.07D-01
 Coeff-Com:  0.100D+01
 Coeff-En:   0.100D+01
 Coeff:      0.100D+01
 Recover alternate guess density for next cycle.
 RMSDP=2.10D-03 MaxDP=7.65D-02              OVMax= 0.00D+00

 Cycle   2  Pass 0  IDiag  1:
 E= -716.032430693467     Delta-E=        0.328673861559 Rises=F Damp=F
 Switch densities from cycles 1 and 2 for lowest energy.
 DIIS: error= 3.41D-02 at cycle   2 NSaved=   2.
 NSaved= 2 IEnMin= 1 EnMin= -716.361104555025     IErMin= 1 ErrMin= 1.07D-02
 ErrMax= 3.41D-02  0.00D+00 EMaxC= 1.00D+00 BMatC= 6.07D-01 BMatP= 7.90D-02
 IDIUse=1 WtCom= 1.00D+00 WtEn= 0.00D+00
 Coeff-Com:  0.910D+00 0.902D-01
 Coeff:      0.910D+00 0.902D-01
 Gap=     0.161 Goal=   None    Shift=    0.000
 RMSDP=1.35D-03 MaxDP=7.03D-02 DE= 3.29D-01 OVMax= 1.47D-01

 Cycle   3  Pass 0  IDiag  1:
 E= -716.465338052011     Delta-E=       -0.432907358545 Rises=F Damp=F
 DIIS: error= 5.19D-03 at cycle   3 NSaved=   3.
 NSaved= 3 IEnMin= 3 EnMin= -716.465338052011     IErMin= 3 ErrMin= 5.19D-03
 ErrMax= 5.19D-03  0.00D+00 EMaxC= 1.00D+00 BMatC= 2.34D-02 BMatP= 7.90D-02
 IDIUse=1 WtCom= 1.00D+00 WtEn= 0.00D+00
 Coeff-Com: -0.143D-01 0.157D+00 0.857D+00
 Coeff:     -0.143D-01 0.157D+00 0.857D+00
 Gap=     0.165 Goal=   None    Shift=    0.000
 RMSDP=3.74D-04 MaxDP=1.82D-02 DE=-4.33D-01 OVMax= 3.25D-02

 Cycle   4  Pass 0  IDiag  1:
 E= -716.480187440179     Delta-E=       -0.014849388168 Rises=F Damp=F
 DIIS: error= 1.88D-03 at cycle   4 NSaved=   4.
 NSaved= 4 IEnMin= 4 EnMin= -716.480187440179     IErMin= 4 ErrMin= 1.88D-03
 ErrMax= 1.88D-03  0.00D+00 EMaxC= 1.00D+00 BMatC= 3.92D-03 BMatP= 2.34D-02
 IDIUse=1 WtCom= 1.00D+00 WtEn= 0.00D+00
 Coeff-Com: -0.279D-01 0.722D-01 0.463D+00 0.492D+00
 Coeff:     -0.279D-01 0.722D-01 0.463D+00 0.492D+00
 Gap=     0.163 Goal=   None    Shift=    0.000
 RMSDP=1.96D-04 MaxDP=1.58D-02 DE=-1.48D-02 OVMax= 2.82D-02

 Cycle   5  Pass 0  IDiag  1:
 E= -716.482611526260     Delta-E=       -0.002424086081 Rises=F Damp=F
 DIIS: error= 1.81D-03 at cycle   5 NSaved=   5.
 NSaved= 5 IEnMin= 5 EnMin= -716.482611526260     IErMin= 5 ErrMin= 1.81D-03
 ErrMax= 1.81D-03  0.00D+00 EMaxC= 1.00D+00 BMatC= 1.21D-03 BMatP= 3.92D-03
 IDIUse=1 WtCom= 1.00D+00 WtEn= 0.00D+00
 Coeff-Com: -0.127D-01 0.223D-01 0.179D+00 0.359D+00 0.452D+00
 Coeff:     -0.127D-01 0.223D-01 0.179D+00 0.359D+00 0.452D+00
 Gap=     0.162 Goal=   None    Shift=    0.000
 RMSDP=1.02D-04 MaxDP=9.77D-03 DE=-2.42D-03 OVMax= 2.09D-02

 Cycle   6  Pass 0  IDiag  1:
 E= -716.483358263979     Delta-E=       -0.000746737720 Rises=F Damp=F
 DIIS: error= 8.81D-04 at cycle   6 NSaved=   6.
[...]
 uadrupole=7.5955428,-4.5077165,-3.0878264,-3.6601015,-2.7341752,-7.908
 5134\PG=C01 [X(C6H4N2O5)]\\@


 THE ENLIGHTENED ONE, BECAUSE HE SAW MANKIND DROWNING  
 IN THE GREAT SEA OF BIRTH, DEATH, AND SORROW, LONGED TO SAVE 
 THEM, FOR THIS HE WAS MOVED TO PITY.                         
 BECAUSE HE SAW MEN OF THE WORLD STRAYING IN FALSE PATHS, AND 
 NONE TO GUIDE THEM, FOR THIS HE WAS MOVED TO PITY.           
                     ..................                       
 BECAUSE HE SAW THE MEN OF THE WORLD PLOUGHING THEIR FIELDS,  
 SOWING THE SEED, TRAFFICKING, HUCKSTERING, BUYING, SELLING,  
 AND AT THE END WINNOWING NOTHING BUT BITTERNESS,             
 FOR THIS HE WAS MOVED TO PITY......                   
                   BUDAH'S PITY - UPSAKA SILA SUTRA           
 Diagonal vibrational polarizability:
        0.0000000       0.0000000       0.0000000

 Temperature=              298.150000 Pressure=                      1.000000
 E(ZPE)=                     0.108604 E(Thermal)=                    0.118783
 E(CCSD(T))=              -714.594601 E(Empiric)=                   -0.236198
 DE(Plus)=                  -0.051701 DE(2DF)=                      -0.494576
 E(Delta-G3XP)=             -0.864449 DE(HF)=                       -0.072353
 G4(0 K)=                 -716.205273 G4 Energy=                  -716.195094
 G4 Enthalpy=             -716.194150 G4 Free Energy=             -716.242281
 1\1\GINC-B1441\Mixed\G4\G4\C6H4N2O5\ROOT\25-Aug-2021\0\\#P Geom=AllChe
 ck Guess=TCheck SCRF=Check HF/GFHFB2 SCF=Tight\\DNPHOL\\0,1\C,0,1.0387
 345328,1.9182507986,-2.311226834\C,0,2.1125044623,2.6831125271,-1.7984
 021769\C,0,3.4023031633,2.556208505,-2.2885257848\O,0,-0.1917302639,2.
 0857478398,-1.8707479517\H,0,-0.757745279,1.467148704,-2.3964347468\N,
 0,1.9026315219,3.6535134668,-0.7094674166\O,0,2.6901727252,4.591445557
 9,-0.6525934895\H,0,4.1652353693,3.1943685047,-1.8611963004\O,0,0.9889
 324793,3.4508382503,0.0720893758\C,0,1.3788083261,1.0040498204,-3.3456
 376\N,0,0.3515408499,0.1755616194,-3.9549437482\O,0,-0.8238699222,0.30
 8649261,-3.5610804648\C,0,2.6836174288,0.8619209555,-3.8182956017\C,0,
 3.7005444078,1.6373843764,-3.2925353399\H,0,4.7145435405,1.5352305747,
 -3.656852608\H,0,2.8625885162,0.1386432126,-4.6024211726\O,0,0.6691881
 415,-0.6147739742,-4.8239281397\\Version=ES64L-G09RevE.01\State=1-A\MP
 2/GTBas1=-714.4988496\MP4/GTBas1=-714.6196141\CCSD(T)/G3Bas1=-714.5946
 013\MP2/GTBas2=-714.5468754\MP4/GTBas2=-714.6713148\MP2/GTBas3=-714.96
 58594\MP4/GTBas3=-715.11419\HF/GTLargeXP=-712.7358174\MP2/GTLargeXP=-7
 15.8783341\HF/GFHFB1=-712.7940877\HF/GFHFB2=-712.8054109\G4=-716.20527
 32\FreqCoord=1.9629237918,3.6249686635,-4.3675857473,3.9920548883,5.07
 03478598,-3.3984875912,6.4294211996,4.830534013,-4.3246869813,-0.36231
 76901,3.9414921995,-3.5352012924,-1.4319310557,2.7725092468,-4.5286053
 669,3.5954525083,6.9041398752,-1.3406991176,5.0836897008,8.6765746585,
 -1.2332229713,7.8711541269,6.0364816413,-3.5171512874,1.8688115499,6.5
 21139222,0.1362291773,2.6055701261,1.8973791844,-6.3223388039,0.664315
 9308,0.3317633802,-7.473760555,-1.5568885222,0.5832625745,-6.729466815
 6,5.0713019859,1.628794554,-7.2155329817,6.9930154733,3.0942080456,-6.
 2219900752,8.9091961332,2.9011653369,-6.9104499375,5.4095083269,0.2619
 97702,-8.6973155644,1.2645823187,-1.1617544448,-9.1159030688\PG=C01 [X
 (C6H4N2O5)]\NImag=0\\0.73972620,0.05914756,0.39361010,-0.07072971,0.21
 999076,0.41244886,-0.19440541,-0.05024208,-0.02095728,0.69659361,-0.08
 482413,-0.13810408,-0.05769095,0.09621020,0.35081277,-0.05241121,-0.06
 558517,-0.12530997,-0.07932723,0.18660175,0.35868723,-0.04998048,-0.03
 362186,-0.02111038,-0.31334327,0.02022533,0.09260377,0.68087193,-0.004
 14657,0.02645482,0.02673833,-0.01692601,-0.09250074,-0.02647014,0.0952
 9004,0.44525966,0.00847020,0.03437814,0.03451248,0.05195843,-0.0352767
 2,-0.10762324,-0.05120501,0.27957008,0.43660804,-0.33426426,0.03881557
 ,0.10203115,-0.06109730,-0.01244226,0.00243140,0.00790234,-0.00611164,
 -0.00653119,0.56017474,0.01904796,-0.08704904,-0.04005067,-0.02841221,
 0.01013006,0.01072821,0.00163063,-0.00383479,-0.00948046,0.09894101,0.
 26232012,0.08163119,-0.04566322,-0.11693971,-0.01322462,0.00646099,0.0
 1634956,0.00045188,-0.00688574,-0.00314350,-0.00734190,0.20983000,0.26
 474135,-0.05567114,-0.02680692,-0.01578523,-0.00021778,0.00341762,0.00
 448243,-0.00150312,-0.00061077,0.00002192,-0.14466572,-0.10677217,-0.0
 8617122,0.21364039,-0.01904381,0.00877412,0.01262472,0.00802278,0.0035
 7146,-0.00191126,-0.00337419,0.00286794,0.00231550,-0.12128898,-0.1668
 8372,-0.12791868,0.12966399,0.15679429,-0.00768402,0.01380324,0.016922
 87,0.00987992,0.00025996,0.00169257,-0.00276537,0.00158544,0.00358628,
 -0.10148001,-0.13051767,-0.13426692,0.09571614,0.11102750,0.12030053,0
 .02565512,-0.01551260,-0.02469254,-0.10791885,-0.00181745,-0.00315918,
 0.00226014,0.02568055,0.02706594,-0.00663218,0.00468816,0.00443477,-0.
 00069591,-0.00097371,-0.00010351,0.71581844,-0.00547518,-0.01567823,-0
 .01285952,-0.00000147,-0.09766031,-0.01960473,0.02381495,-0.00784451,-
 0.01699210,0.00778925,-0.00017347,0.00272193,-0.00161704,-0.00122944,-
 0.00161252,0.25619238,0.59188258,-0.02081818,-0.01291576,-0.00514592,-
 0.00210138,-0.02119962,-0.09733718,0.01954027,-0.01100341,-0.02081059,
 0.01331825,0.00002404,-0.00645524,-0.00041786,-0.00052476,-0.00142947,
 -0.23259828,0.07461717,0.54088579,-0.00111972,0.00032127,0.00169839,0.
 00911617,-0.02304364,-0.00848148,-0.00884300,0.00321983,0.00524417,0.0
 0071501,-0.00085629,-0.00149192,0.00055799,0.00050486,0.00054537,-0.26
 674600,-0.20655247,-0.00071917,0.31787289,0.00669359,-0.00158088,-0.00
 393440,-0.03197818,-0.04326163,-0.02839689,-0.00549350,-0.00111395,0.0
 0181021,-0.00212833,-0.00024391,-0.00103126,0.00104764,0.00044083,0.00
 085332,-0.21373270,-0.36083652,-0.04337142,0.29476892,0.41590726,0.008
 29362,-0.00311855,-0.00172202,-0.01606545,-0.03527989,0.00277382,0.000
 33347,-0.00433715,-0.00142131,-0.00308894,0.00042515,0.00210471,0.0001
 6753,0.00034300,0.00011903,-0.00994150,-0.05121076,-0.11439189,-0.0223
 9298,0.05173712,0.09494229,-0.00297542,0.00107116,0.00391534,-0.017636
 81,-0.01791503,-0.01152859,-0.20344365,-0.12215073,-0.07698291,-0.0011
 2124,-0.00113478,-0.00092576,-0.00023180,0.00032606,0.00026538,-0.0024
 9453,-0.00397366,-0.00204274,0.00308832,0.00155609,-0.00001234,0.21230
 507,0.00025884,0.00278249,-0.00353711,0.00111241,0.00730799,0.00065919
 ,-0.12405879,-0.14682777,-0.07273682,0.00025266,0.00017845,0.00016508,
 0.00013391,-0.00005935,0.00020184,0.00046241,-0.00289911,0.00160578,0.
 00190986,-0.00232177,-0.00290615,0.13389840,0.14796311,0.00273110,-0.0
 0351504,0.00174452,0.00839294,0.00402857,0.00841067,-0.07918804,-0.072
 52467,-0.09371376,0.00047751,0.00053382,0.00040743,0.00014248,0.000061
 18,-0.00018667,-0.00020920,0.00442984,-0.00146508,0.00025135,-0.001821
 61,-0.00156021,0.08167864,0.08479813,0.09060877,-0.01285366,-0.0002044
 6,0.00376182,-0.00803978,0.00800055,0.03937789,0.00273289,-0.00023574,
 -0.00046378,0.00383805,-0.00636962,-0.00766328,0.00080491,0.00055324,-
 0.00053223,-0.34640773,-0.06091633,0.22683379,-0.05824481,-0.04980673,
 0.04472155,0.00118988,-0.00118722,0.00045288,0.41726999,-0.00094176,-0
 .00068666,-0.00059498,0.01486524,0.01552480,-0.01752260,-0.00350900,-0
 .00011145,-0.00221828,-0.00279471,-0.00268675,-0.00484130,0.00065324,0
 .00068737,-0.00048576,-0.04840460,-0.11775427,0.01298566,-0.07063680,-
 0.00336028,0.04449122,0.00079393,-0.00007294,-0.00073853,0.10780856,0.
 11017958,0.00672052,0.00217001,-0.00083065,0.04536780,-0.00925481,-0.0
 3282533,-0.00489136,-0.00553990,-0.00268019,-0.00832770,-0.00376986,-0
 .00228349,0.00058442,0.00037639,-0.00055036,0.23718522,0.02080988,-0.3
 0638418,0.02703214,0.02735197,0.02199659,-0.00071538,0.00100124,0.0002
 3609,-0.30567303,-0.03136829,0.32528049,-0.13914524,-0.00454331,0.0144
 0448,0.04136315,-0.00030536,-0.01176948,-0.02917954,0.01932923,0.02624
 738,-0.00932510,0.03056442,0.03619855,-0.00047279,-0.00229612,-0.00270
 957,-0.00427891,-0.00101030,0.00156241,0.00012905,-0.00224701,-0.00153
 622,-0.00023898,0.00120404,0.00098185,0.00132369,-0.00067601,-0.001087
 38,0.63054780,0.02270724,-0.14787601,-0.09428229,-0.02540864,-0.017334
 30,-0.01623194,0.00991621,-0.01018590,-0.01001893,0.02492434,0.0061949
 6,-0.01187944,-0.00195018,-0.00641595,-0.00380448,-0.00463094,0.002599
 76,-0.00201048,0.00123218,-0.00106974,0.00007127,0.00052261,0.00015844
 ,0.00021612,0.00069691,0.00036560,-0.00001366,-0.00475706,0.35341420,0
 .04161418,-0.08612557,-0.16464741,-0.03367367,-0.02223951,-0.00703350,
 0.01704163,-0.01218027,-0.02132633,0.02966160,-0.01402127,-0.00802179,
 -0.00238470,-0.00375561,-0.00549712,-0.00034414,-0.00419547,0.00315937
 ,0.00006438,-0.00044558,-0.00147392,0.00041191,0.00024915,-0.00038874,
 -0.00123597,0.00130290,0.00012660,-0.12728180,0.23402475,0.39925040,0.
 04744479,-0.01187048,-0.02327086,-0.00375094,0.00050025,0.00304851,0.0
 0582183,-0.00249789,-0.00451233,-0.04593049,-0.01667917,-0.00751993,0.
 01021428,0.03621685,0.03452564,0.00406057,-0.00168683,-0.00428079,-0.0
 0088570,0.00150709,0.00183294,-0.00016418,-0.00034412,-0.00022435,-0.0
 0248200,0.00040844,0.00200779,-0.11589333,-0.00634753,0.00219177,0.732
 85744,-0.01066345,-0.02114037,-0.01592467,-0.00131162,0.00096160,-0.00
 641238,0.00553671,-0.00453788,-0.00473462,-0.01097278,-0.00044927,0.00
 400481,0.01037866,0.00264867,0.00209405,-0.00057195,-0.00241316,-0.002
 56620,0.00016838,0.00103885,0.00102146,0.00015412,-0.00084882,0.000011
 74,-0.00037869,0.00086790,0.00128358,-0.00544605,-0.10089362,-0.019226
 13,-0.04400198,0.51943417,-0.02250106,-0.01672943,-0.01467199,0.001248
 17,-0.00676808,-0.00076313,0.00387873,-0.00214835,-0.00465237,-0.00173
 259,0.00520976,0.00376840,0.00790230,-0.00354961,-0.00702371,-0.001565
 22,-0.00218200,-0.00073139,0.00035299,0.00061811,0.00008211,-0.0000073
 2,-0.00007808,-0.00066473,0.00042459,0.00077346,0.00060619,0.00223115,
 -0.01847632,-0.10057670,-0.15531814,0.29554789,0.57099730,-0.01896431,
 0.00705292,0.01123644,0.00445316,0.00095769,-0.00004077,-0.00426176,0.
 00298944,0.00435201,0.02825777,0.00451791,-0.00031056,-0.01828282,-0.0
 2191702,-0.02031587,-0.00170234,0.00115558,0.00254207,0.00050103,-0.00
 055845,-0.00090511,0.00011259,0.00016600,-0.00002648,0.00137712,-0.000
 32603,-0.00125936,-0.06361877,-0.01455962,0.00359131,-0.43286157,0.019
 94214,0.09932001,0.53307903,0.01408596,-0.00299901,-0.00536586,-0.0025
 7027,-0.00061394,0.00056626,0.00099836,-0.00060718,-0.00123292,-0.0189
 6946,-0.01791889,-0.02004901,-0.00583888,-0.00104319,0.00848284,0.0010
 6744,0.00122531,0.00018382,-0.00045244,-0.00064846,-0.00009436,-0.0000
 7549,0.00004940,0.00003873,-0.00075194,-0.00054821,-0.00040294,-0.0174
 2956,0.02013445,0.00453118,-0.00141538,-0.10712423,-0.03198995,-0.0290
 0965,0.10542900,0.01838627,-0.00376444,-0.00855602,-0.00380177,-0.0002
 3734,0.00002768,0.00213520,-0.00174531,-0.00198008,-0.02435614,-0.0254
 7690,-0.01475404,-0.00365479,0.01196736,0.00516357,0.00154165,0.001023
 88,-0.00046029,-0.00064049,-0.00060699,0.00014083,-0.00009563,-0.00001
 695,0.00006715,-0.00109274,-0.00044219,0.00002322,0.00105660,0.0039114
 5,0.02332072,0.07749940,-0.03689624,-0.12979011,-0.13997528,0.08160689
 ,0.14501719,0.01684942,0.05369339,0.05130485,-0.05503405,-0.01277655,0
 .00231040,0.04980603,-0.03387242,-0.04775128,-0.00542556,-0.00795114,-
 0.00463058,-0.00003342,0.00322829,0.00318888,-0.00162090,-0.00575904,-
 0.00508742,0.00106210,0.00096778,0.00019406,0.00074132,0.00034389,0.00
 207785,-0.00208852,0.00168652,0.00210284,-0.27446447,0.01127349,0.0643
 2656,-0.04936355,-0.02703017,-0.01554928,0.00730925,-0.00214151,-0.003
 12733,0.65409497,0.02850523,0.01086242,0.00330608,-0.01566077,-0.00580
 462,0.00107046,-0.00400845,-0.02833477,-0.03225096,-0.00285079,-0.0008
 8116,-0.00678003,-0.00097336,-0.00071831,0.00003689,-0.00069479,-0.001
 83921,0.00004611,0.00056663,0.00007915,-0.00044973,0.00068174,0.001346
 87,-0.00608130,-0.00053265,0.00035166,0.00035822,0.04286525,-0.0896457
 0,-0.04356050,-0.02626331,-0.00060685,0.00870543,-0.00415188,-0.000960
 64,-0.00392318,0.07704187,0.45276062,0.02515256,-0.00314184,-0.0087003
 3,-0.00299273,-0.00031200,-0.00175632,-0.01547735,-0.02417031,-0.01641
 785,0.00004223,-0.00552926,0.00060799,-0.00113634,-0.00102386,-0.00137
 807,-0.00096749,0.00046972,-0.00020662,0.00082020,-0.00014281,-0.00059
 508,0.00255202,-0.00566018,0.00066062,0.00017117,-0.00037390,0.0000248
 0,0.09862808,-0.03552258,-0.11906467,-0.01571945,0.00882440,0.01025802
 ,-0.00536444,-0.00429204,0.00039449,-0.05275550,0.30097533,0.45809474,
 -0.00338651,-0.01514177,-0.01541649,0.00828696,0.02506541,0.02318622,-
 0.13364752,0.04547190,0.06594908,-0.00216501,0.00218765,0.00223132,0.0
 0024872,-0.00060684,-0.00071942,-0.00772447,-0.00160020,0.00334426,0.0
 0230727,-0.00045294,-0.00116017,0.00996779,-0.01405251,-0.01607118,0.0
 0078101,0.00090871,0.00143203,-0.05271807,-0.01241253,0.00262310,-0.00
 047759,0.00686966,0.00904448,-0.00376851,-0.00073928,-0.00013782,-0.25
 072786,-0.12699564,-0.07929942,0.73044123,-0.01825528,-0.03271176,-0.0
 2716782,0.05303822,0.00758376,-0.01295698,-0.00005445,-0.18203852,-0.1
 2352228,0.00661815,0.00392372,0.00311706,-0.00067589,-0.00323135,-0.00
 311759,-0.00246012,0.01111737,0.00313575,-0.00097969,-0.00180179,0.000
 16059,0.00561162,-0.00536712,-0.01188746,0.00323430,-0.00189021,-0.001
 97957,-0.04326721,0.01534823,0.02180998,0.01135493,0.01176555,0.001483
 59,-0.00518068,0.00112582,0.00340597,-0.08171018,-0.16293154,-0.086423
 20,0.06618905,0.39395152,-0.01797873,-0.02725157,-0.02523257,0.0556845
 6,-0.00428060,-0.01477187,0.01796629,-0.13679817,-0.19983097,0.0069543
 4,0.00460069,0.00146103,-0.00078723,-0.00304325,-0.00300213,0.00238183
 ,0.00285422,0.00941041,-0.00166992,-0.00138733,-0.00053455,0.00420391,
 -0.00625082,-0.00277908,0.00086449,-0.00049614,-0.00156490,-0.02899314
 ,0.01332262,0.02699515,0.01337647,0.00253116,0.00646825,-0.00438989,0.
 00234603,0.00255137,-0.03318675,-0.07507519,-0.12466986,-0.09028942,0.
 26279230,0.40713410,-0.00001266,-0.00015925,-0.00038644,0.00188813,-0.
 00017198,0.00092850,-0.00173386,-0.00066754,-0.00006079,0.00023996,0.0
 0017520,-0.00000015,0.00000006,-0.00014227,-0.00013723,-0.00002915,-0.
 00045935,-0.00011009,-0.00001589,0.00013219,0.00006998,0.00042506,0.00
 053969,-0.00046710,-0.00007132,0.00014441,0.00009349,-0.00005924,-0.00
 352098,-0.00166017,-0.00045593,0.00048399,0.00104269,-0.00050718,-0.00
 016060,-0.00023998,-0.01747095,0.00371767,0.00832659,-0.30915690,0.022
 42126,0.09405995,0.32623951,-0.00045372,-0.00122339,-0.00022904,-0.000
 98444,0.00080783,-0.00525959,0.02107430,-0.00023749,-0.00607331,0.0002
 3174,-0.00005239,0.00038279,-0.00000798,-0.00013028,-0.00016434,0.0010
 4420,0.00095482,-0.00041155,-0.00006119,-0.00015444,-0.00006224,0.0003
 3281,-0.00104991,0.00237358,0.00019573,-0.00049928,-0.00046219,-0.0024
 9150,0.00175508,-0.00500849,-0.00096597,0.00130207,-0.00008700,-0.0003
 9457,-0.00055580,0.00023087,-0.01814619,0.00334862,0.00768944,0.022499
 22,-0.04710403,-0.02114284,-0.02292121,0.04443107,-0.00039810,-0.00027
 688,-0.00104992,0.00007100,-0.00595775,0.00070712,0.02201923,-0.000665
 20,-0.00602553,-0.00003971,0.00046249,0.00000898,0.00001477,-0.0000989
 0,-0.00007565,0.00133976,0.00014336,0.00093575,-0.00031420,-0.00011741
 ,-0.00009319,-0.00078390,0.00217005,-0.00108437,0.00006261,-0.00004399
 ,-0.00068278,-0.00071589,-0.00467887,0.00277844,-0.00040720,-0.0004750
 1,0.00125697,-0.00041291,0.00020644,-0.00040735,-0.01369652,0.00211614
 ,0.00599609,0.09426799,-0.02111068,-0.07752025,-0.10081106,0.02588606,
 0.07685445,-0.00508743,-0.00180819,0.00052055,-0.00104192,0.00000426,0
 .00015582,-0.00302169,-0.00368203,-0.00084253,-0.00095216,0.00083342,0
 .00113624,0.00066487,0.00081650,0.00070605,-0.00014759,-0.00022348,-0.
 00016099,0.00021772,0.00008503,-0.00001480,0.00034001,-0.00051269,-0.0
 0084077,0.00010192,0.00005854,-0.00005637,-0.00145868,0.01935272,0.021
 65999,0.00031020,0.00427464,0.00309641,0.00164427,-0.00100484,-0.00124
 878,-0.06481477,0.03231875,0.03915649,0.00902043,-0.01564537,-0.017071
 96,0.00076860,0.00100017,-0.00024399,0.06451931,-0.00052958,0.00288632
 ,-0.00177662,-0.00050868,0.00012158,0.00078182,-0.00343370,0.00284101,
 -0.00451139,-0.00032283,0.00005482,-0.00003234,0.00009666,0.00019009,0
 .00014249,0.00012474,-0.00079081,-0.00005766,0.00020387,0.00013926,-0.
 00002217,0.00038591,-0.00057180,0.00002271,-0.00021005,0.00010404,0.00
 010181,0.00069844,0.00243984,-0.00342666,0.00072657,-0.00317626,0.0012
 8108,0.00046201,0.00011599,-0.00040752,0.03382563,-0.17720972,-0.14866
 892,0.00434097,-0.00508868,-0.01103394,0.00072335,-0.00149780,0.002433
 18,-0.03266700,0.18064220,0.00207758,-0.00163874,0.00269399,-0.0006294
 1,0.00048402,0.00015632,-0.00044031,-0.00434289,0.00374386,-0.00001024
 ,-0.00032678,-0.00018006,-0.00005510,-0.00004158,0.00000703,-0.0001716
 3,0.00015117,-0.00043941,0.00003885,0.00000392,0.00009998,0.00014011,0
 .00021861,-0.00054738,0.00012786,0.00005106,-0.00000742,0.00244372,-0.
 00814475,-0.00332607,-0.00048258,0.00038884,-0.00412465,0.00012007,-0.
 00007684,0.00033586,0.04055229,-0.14838013,-0.20190353,0.00340700,-0.0
 0575444,-0.00209688,-0.00050020,0.00237062,-0.00151139,-0.04295012,0.1
 6550255,0.20661697,-0.01180931,-0.00019094,0.00347589,0.00078493,-0.00
 108492,-0.00180699,-0.00043728,-0.00107965,-0.00095932,0.01045116,0.00
 558900,0.00319598,-0.00435672,-0.00968964,-0.00838016,-0.00139571,0.00
 032318,0.00119587,0.00028758,-0.00036049,-0.00049563,0.00013659,-0.000
 12679,-0.00015946,0.00076836,-0.00003868,-0.00051567,0.01748942,-0.017
 03821,-0.01660597,-0.14844385,0.05256840,0.06813210,-0.03276696,0.0644
 0753,0.07775161,-0.00881903,-0.00356549,-0.00113659,0.00271904,-0.0002
 3867,-0.00112482,-0.00004823,0.00004859,0.00004812,-0.00106307,-0.0039
 1632,-0.00366790,0.17650307,-0.00611292,0.00367916,0.00075405,0.000755
 50,-0.00154223,-0.00005600,-0.00093260,0.00075153,0.00097487,0.0003090
 6,-0.00262873,-0.00160164,-0.00013854,0.00373681,0.00121478,-0.0004610
 3,0.00133919,0.00146253,-0.00031329,-0.00121197,-0.00076881,-0.0000847
 6,0.00023185,0.00005419,0.00010414,-0.00047090,-0.00066189,-0.01019189
 ,-0.02898934,-0.04773290,0.06135854,-0.29682836,-0.23161051,0.03885420
 ,0.00493958,-0.02862937,0.00732634,0.00018316,-0.00269801,-0.00153087,
 -0.00265095,-0.00168717,-0.00013457,-0.00009469,0.00000695,-0.00320043
 ,-0.00120009,-0.00046465,-0.08560688,0.32075598,-0.00255622,-0.0006159
 6,0.00448379,0.00017073,0.00066199,-0.00138444,-0.00089266,0.00091766,
 0.00117507,-0.00200806,-0.00264131,-0.00340472,0.00136047,0.00315186,0
 .00561821,-0.00019648,0.00143593,0.00086592,-0.00033767,-0.00111896,-0
 .00046720,-0.00007275,0.00011705,0.00025476,-0.00013764,-0.00047836,-0
 .00048469,-0.00966073,-0.04648245,-0.02427445,0.07725313,-0.22947268,-
 0.33043847,0.05183877,-0.03445826,-0.02109419,0.00972692,-0.00011364,-
 0.00134442,-0.00239156,-0.00198523,-0.00201727,-0.00014798,-0.00003277
 ,-0.00008735,-0.00300123,-0.00032845,0.00048278,-0.11894705,0.31144359
 ,0.37211667\\0.00002001,-0.00000023,-0.00000312,0.00000419,-0.00000232
 ,-0.00000118,-0.00005660,-0.00004720,-0.00001735,0.00003202,0.00005267
 ,0.00005394,-0.00004540,-0.00003038,-0.00004448,-0.00000056,0.00000895
 ,-0.00000159,0.00001185,-0.00000225,-0.00000941,0.00005782,0.00004919,
 0.00002965,-0.00001239,-0.00001909,-0.00000158,-0.00000195,0.00000132,
 -0.00000252,-0.00001614,0.00000313,0.00000292,0.00000462,-0.00000123,0
 .00000245,-0.00000763,-0.00004029,-0.00002716,0.00006746,0.00000928,-0
 .00001762,-0.00005143,-0.00000231,0.00002268,-0.00000978,0.00001979,0.
 00001954,0.00000392,0.00000098,-0.00000517\\\@
 Job cpu time:       0 days 22 hours 59 minutes 44.7 seconds.
 File lengths (MBytes):  RWF= 120299 Int=      0 D2E=      0 Chk=    111 Scr=      1
 Normal termination of Gaussian 09 at Wed Aug 25 22:27:21 2021.
