 Entering Gaussian System, Link 0=g09
 Input=G4.DUJQOP.gjf
 Output=G4.DUJQOP.log
 Initial command:
 /public/home/users/caep010/software/Gaussian09/g09/l1.exe "/public/home/users/caep010/.cache/gau_scr/Gau-210131.inp" -scrdir="/public/home/users/caep010/.cache/gau_scr/"
 Entering Link 1 = /public/home/users/caep010/software/Gaussian09/g09/l1.exe PID=    210132.
  
 Copyright (c) 1988,1990,1992,1993,1995,1998,2003,2009,2015,
            Gaussian, Inc.  All Rights Reserved.
  
 This is part of the Gaussian(R) 09 program.  It is based on
 the Gaussian(R) 03 system (copyright 2003, Gaussian, Inc.),
 the Gaussian(R) 98 system (copyright 1998, Gaussian, Inc.),
 the Gaussian(R) 94 system (copyright 1995, Gaussian, Inc.),
 the Gaussian 92(TM) system (copyright 1992, Gaussian, Inc.),
 the Gaussian 90(TM) system (copyright 1990, Gaussian, Inc.),
 the Gaussian 88(TM) system (copyright 1988, Gaussian, Inc.),
 the Gaussian 86(TM) system (copyright 1986, Carnegie Mellon
 University), and the Gaussian 82(TM) system (copyright 1983,
 Carnegie Mellon University). Gaussian is a federally registered
 trademark of Gaussian, Inc.
  
 This software contains proprietary and confidential information,
 including trade secrets, belonging to Gaussian, Inc.
  
 This software is provided under written license and may be
 used, copied, transmitted, or stored only in accord with that
 written license.
  
 The following legend is applicable only to US Government
 contracts under FAR:
  
                    RESTRICTED RIGHTS LEGEND
  
 Use, reproduction and disclosure by the US Government is
 subject to restrictions as set forth in subparagraphs (a)
 and (c) of the Commercial Computer Software - Restricted
 Rights clause in FAR 52.227-19.
  
 Gaussian, Inc.
 340 Quinnipiac St., Bldg. 40, Wallingford CT 06492
  
  
 ---------------------------------------------------------------
 Warning -- This program may not be used in any manner that
 competes with the business of Gaussian, Inc. or will provide
 assistance to any competitor of Gaussian, Inc.  The licensee
 of this program is prohibited from giving any competitor of
 Gaussian, Inc. access to this program.  By using this program,
 the user acknowledges that Gaussian, Inc. is engaged in the
 business of creating and licensing software in the field of
 computational chemistry and represents and warrants to the
 licensee that it is not a competitor of Gaussian, Inc. and that
 it will not use this program in any manner prohibited above.
 ---------------------------------------------------------------
  

 Cite this work as:
 Gaussian 09, Revision E.01,
 M. J. Frisch, G. W. Trucks, H. B. Schlegel, G. E. Scuseria, 
 M. A. Robb, J. R. Cheeseman, G. Scalmani, V. Barone, B. Mennucci, 
 G. A. Petersson, H. Nakatsuji, M. Caricato, X. Li, H. P. Hratchian, 
 A. F. Izmaylov, J. Bloino, G. Zheng, J. L. Sonnenberg, M. Hada, 
 M. Ehara, K. Toyota, R. Fukuda, J. Hasegawa, M. Ishida, T. Nakajima, 
 Y. Honda, O. Kitao, H. Nakai, T. Vreven, J. A. Montgomery, Jr., 
 J. E. Peralta, F. Ogliaro, M. Bearpark, J. J. Heyd, E. Brothers, 
 K. N. Kudin, V. N. Staroverov, T. Keith, R. Kobayashi, J. Normand, 
 K. Raghavachari, A. Rendell, J. C. Burant, S. S. Iyengar, J. Tomasi, 
 M. Cossi, N. Rega, J. M. Millam, M. Klene, J. E. Knox, J. B. Cross, 
 V. Bakken, C. Adamo, J. Jaramillo, R. Gomperts, R. E. Stratmann, 
 O. Yazyev, A. J. Austin, R. Cammi, C. Pomelli, J. W. Ochterski, 
 R. L. Martin, K. Morokuma, V. G. Zakrzewski, G. A. Voth, 
 P. Salvador, J. J. Dannenberg, S. Dapprich, A. D. Daniels, 
 O. Farkas, J. B. Foresman, J. V. Ortiz, J. Cioslowski, 
 and D. J. Fox, Gaussian, Inc., Wallingford CT, 2013.
 
 ******************************************
 Gaussian 09:  ES64L-G09RevE.01 30-Nov-2015
                26-Aug-2021 
 ******************************************
 %nproc=32
 Will use up to   32 processors via shared memory.
 %mem=180GB
 ----------------
 #P G4 OPT=calcfc
 ----------------
 1/10=4,14=-1,18=20,19=15,26=3,38=1/1,3;
 2/9=110,12=2,17=6,18=5,40=1/2;
 3/5=35,7=104,11=2,16=1,25=1,30=1,71=2,74=-5,140=1/1,2,3;
 4//1;
 5/5=2,38=5/2;
 8/6=4,10=90,11=11/1;
 11/6=1,8=1,9=11,15=111,16=1/1,2,10;
 10/6=1,13=1/2;
 6/7=2,8=2,9=2,10=2,28=1/1;
 7/10=1,18=20,25=1/1,2,3,16;
 1/10=4,14=-1,18=20,19=15,26=3/3(2);
 2/9=110/2;
 99//99;
 2/9=110/2;
 3/5=35,7=104,11=2,16=1,25=1,30=1,71=1,74=-5/1,2,3;
 4/5=5,16=3,69=1/1;
 5/5=2,38=5/2;
 7//1,2,3,16;
 1/14=-1,18=20,19=15,26=3/3(-5);
 2/9=110/2;
 6/7=2,8=2,9=2,10=2,19=2,28=1/1;
 99/9=1/99;
 Leave Link    1 at Thu Aug 26 12:21:50 2021, MaxMem= 24159191040 cpu:        13.4
 (Enter /public/home/users/caep010/software/Gaussian09/g09/l101.exe)
 ------
 DUJQOP
 ------
 Symbolic Z-matrix:
 Charge =  0 Multiplicity = 1
 O                     2.8745    4.4879    3.8369 
 C                     2.5578    3.2167    4.1313 
 C                     3.1667    2.2       3.3799 
 H                     3.7735    2.4205    2.7103 
 C                     2.8725    0.8789    3.6276 
 C                     1.955     0.5751    4.6286 
 C                     1.342     1.5515    5.389 
 H                     2.4531    4.9946    4.3247 
 H                     3.2787    0.2023    3.1355 
 H                     0.7308    1.3146    6.0487 
 C                     1.6429    2.8933    5.1634 
 C                     1.0142    3.9977    5.9406 
 O                     1.1898    5.1841    5.5763 
 N                     1.6231   -0.8222    4.8997 
 O                     0.7      -1.055     5.6819 
 N                     0.2744    3.7177    7.0022 
 H                    -0.1629    4.4071    7.4127 
 H                     0.1426    2.8903    7.2552 
 O                     2.2641   -1.7043    4.3502 
 
 NAtoms=     19 NQM=       19 NQMF=       0 NMMI=      0 NMMIF=      0
                NMic=       0 NMicF=      0.
                    Isotopes and Nuclear Properties:
 (Nuclear quadrupole moments (NQMom) in fm**2, nuclear magnetic moments (NMagM)
  in nuclear magnetons)

  Atom         1           2           3           4           5           6           7           8           9          10
 IAtWgt=          16          12          12           1          12          12          12           1           1           1
 AtmWgt=  15.9949146  12.0000000  12.0000000   1.0078250  12.0000000  12.0000000  12.0000000   1.0078250   1.0078250   1.0078250
 NucSpn=           0           0           0           1           0           0           0           1           1           1
 AtZEff=   0.0000000   0.0000000   0.0000000   0.0000000   0.0000000   0.0000000   0.0000000   0.0000000   0.0000000   0.0000000
 NQMom=    0.0000000   0.0000000   0.0000000   0.0000000   0.0000000   0.0000000   0.0000000   0.0000000   0.0000000   0.0000000
 NMagM=    0.0000000   0.0000000   0.0000000   2.7928460   0.0000000   0.0000000   0.0000000   2.7928460   2.7928460   2.7928460
 AtZNuc=   8.0000000   6.0000000   6.0000000   1.0000000   6.0000000   6.0000000   6.0000000   1.0000000   1.0000000   1.0000000

  Atom        11          12          13          14          15          16          17          18          19
 IAtWgt=          12          12          16          14          16          14           1           1          16
 AtmWgt=  12.0000000  12.0000000  15.9949146  14.0030740  15.9949146  14.0030740   1.0078250   1.0078250  15.9949146
 NucSpn=           0           0           0           2           0           2           1           1           0
 AtZEff=   0.0000000   0.0000000   0.0000000   0.0000000   0.0000000   0.0000000   0.0000000   0.0000000   0.0000000
 NQMom=    0.0000000   0.0000000   0.0000000   2.0440000   0.0000000   2.0440000   0.0000000   0.0000000   0.0000000
 NMagM=    0.0000000   0.0000000   0.0000000   0.4037610   0.0000000   0.4037610   2.7928460   2.7928460   0.0000000
 AtZNuc=   6.0000000   6.0000000   8.0000000   7.0000000   8.0000000   7.0000000   1.0000000   1.0000000   8.0000000
 Leave Link  101 at Thu Aug 26 12:21:50 2021, MaxMem= 24159191040 cpu:        10.5
 (Enter /public/home/users/caep010/software/Gaussian09/g09/l103.exe)

 GradGradGradGradGradGradGradGradGradGradGradGradGradGradGradGradGradGrad
 Berny optimization.
 Initialization pass.
                           ----------------------------
                           !    Initial Parameters    !
                           ! (Angstroms and Degrees)  !
 --------------------------                            --------------------------
 ! Name  Definition              Value          Derivative Info.                !
 --------------------------------------------------------------------------------
 ! R1    R(1,2)                  1.3427         calculate D2E/DX2 analytically  !
 ! R2    R(1,8)                  0.8199         calculate D2E/DX2 analytically  !
 ! R3    R(2,3)                  1.4032         calculate D2E/DX2 analytically  !
 ! R4    R(2,11)                 1.4166         calculate D2E/DX2 analytically  !
 ! R5    R(3,4)                  0.9302         calculate D2E/DX2 analytically  !
 ! R6    R(3,5)                  1.3759         calculate D2E/DX2 analytically  !
 ! R7    R(5,6)                  1.3914         calculate D2E/DX2 analytically  !
 ! R8    R(5,9)                  0.93           calculate D2E/DX2 analytically  !
 ! R9    R(6,7)                  1.3811         calculate D2E/DX2 analytically  !
 ! R10   R(6,14)                 1.4615         calculate D2E/DX2 analytically  !
 ! R11   R(7,10)                 0.93           calculate D2E/DX2 analytically  !
 ! R12   R(7,11)                 1.3935         calculate D2E/DX2 analytically  !
 ! R13   R(11,12)                1.4896         calculate D2E/DX2 analytically  !
 ! R14   R(12,13)                1.2534         calculate D2E/DX2 analytically  !
 ! R15   R(12,16)                1.3239         calculate D2E/DX2 analytically  !
 ! R16   R(14,15)                1.2321         calculate D2E/DX2 analytically  !
 ! R17   R(14,19)                1.221          calculate D2E/DX2 analytically  !
 ! R18   R(16,17)                0.9138         calculate D2E/DX2 analytically  !
 ! R19   R(16,18)                0.8752         calculate D2E/DX2 analytically  !
 ! A1    A(2,1,8)              109.4753         calculate D2E/DX2 analytically  !
 ! A2    A(1,2,3)              117.7875         calculate D2E/DX2 analytically  !
 ! A3    A(1,2,11)             121.8834         calculate D2E/DX2 analytically  !
 ! A4    A(3,2,11)             120.3291         calculate D2E/DX2 analytically  !
 ! A5    A(2,3,4)              119.7887         calculate D2E/DX2 analytically  !
 ! A6    A(2,3,5)              120.4301         calculate D2E/DX2 analytically  !
 ! A7    A(4,3,5)              119.7812         calculate D2E/DX2 analytically  !
 ! A8    A(3,5,6)              118.6939         calculate D2E/DX2 analytically  !
 ! A9    A(3,5,9)              120.6551         calculate D2E/DX2 analytically  !
 ! A10   A(6,5,9)              120.651          calculate D2E/DX2 analytically  !
 ! A11   A(5,6,7)              122.3039         calculate D2E/DX2 analytically  !
 ! A12   A(5,6,14)             119.4668         calculate D2E/DX2 analytically  !
 ! A13   A(7,6,14)             118.2287         calculate D2E/DX2 analytically  !
 ! A14   A(6,7,10)             120.1444         calculate D2E/DX2 analytically  !
 ! A15   A(6,7,11)             119.7211         calculate D2E/DX2 analytically  !
 ! A16   A(10,7,11)            120.1345         calculate D2E/DX2 analytically  !
 ! A17   A(2,11,7)             118.5039         calculate D2E/DX2 analytically  !
 ! A18   A(2,11,12)            118.9102         calculate D2E/DX2 analytically  !
 ! A19   A(7,11,12)            122.5667         calculate D2E/DX2 analytically  !
 ! A20   A(11,12,13)           119.4047         calculate D2E/DX2 analytically  !
 ! A21   A(11,12,16)           119.829          calculate D2E/DX2 analytically  !
 ! A22   A(13,12,16)           120.7659         calculate D2E/DX2 analytically  !
 ! A23   A(6,14,15)            117.9386         calculate D2E/DX2 analytically  !
 ! A24   A(6,14,19)            119.2077         calculate D2E/DX2 analytically  !
 ! A25   A(15,14,19)           122.8537         calculate D2E/DX2 analytically  !
 ! A26   A(12,16,17)           117.9099         calculate D2E/DX2 analytically  !
 ! A27   A(12,16,18)           121.0579         calculate D2E/DX2 analytically  !
 ! A28   A(17,16,18)           120.751          calculate D2E/DX2 analytically  !
 ! D1    D(8,1,2,3)            178.9438         calculate D2E/DX2 analytically  !
 ! D2    D(8,1,2,11)            -1.1263         calculate D2E/DX2 analytically  !
 ! D3    D(1,2,3,4)              0.6126         calculate D2E/DX2 analytically  !
 ! D4    D(1,2,3,5)           -179.4197         calculate D2E/DX2 analytically  !
 ! D5    D(11,2,3,4)          -179.3185         calculate D2E/DX2 analytically  !
 ! D6    D(11,2,3,5)             0.6492         calculate D2E/DX2 analytically  !
 ! D7    D(1,2,11,7)           178.5607         calculate D2E/DX2 analytically  !
 ! D8    D(1,2,11,12)            0.115          calculate D2E/DX2 analytically  !
 ! D9    D(3,2,11,7)            -1.5112         calculate D2E/DX2 analytically  !
 ! D10   D(3,2,11,12)         -179.9569         calculate D2E/DX2 analytically  !
 ! D11   D(2,3,5,6)              0.4474         calculate D2E/DX2 analytically  !
 ! D12   D(2,3,5,9)           -179.57           calculate D2E/DX2 analytically  !
 ! D13   D(4,3,5,6)           -179.5849         calculate D2E/DX2 analytically  !
 ! D14   D(4,3,5,9)              0.3977         calculate D2E/DX2 analytically  !
 ! D15   D(3,5,6,7)             -0.6888         calculate D2E/DX2 analytically  !
 ! D16   D(3,5,6,14)           179.5811         calculate D2E/DX2 analytically  !
 ! D17   D(9,5,6,7)            179.3286         calculate D2E/DX2 analytically  !
 ! D18   D(9,5,6,14)            -0.4015         calculate D2E/DX2 analytically  !
 ! D19   D(5,6,7,10)           179.7891         calculate D2E/DX2 analytically  !
 ! D20   D(5,6,7,11)            -0.1954         calculate D2E/DX2 analytically  !
 ! D21   D(14,6,7,10)           -0.4776         calculate D2E/DX2 analytically  !
 ! D22   D(14,6,7,11)          179.5379         calculate D2E/DX2 analytically  !
 ! D23   D(5,6,14,15)         -171.8945         calculate D2E/DX2 analytically  !
 ! D24   D(5,6,14,19)            8.1758         calculate D2E/DX2 analytically  !
 ! D25   D(7,6,14,15)            8.3644         calculate D2E/DX2 analytically  !
 ! D26   D(7,6,14,19)         -171.5653         calculate D2E/DX2 analytically  !
 ! D27   D(6,7,11,2)             1.2784         calculate D2E/DX2 analytically  !
 ! D28   D(6,7,11,12)          179.6639         calculate D2E/DX2 analytically  !
 ! D29   D(10,7,11,2)         -178.7062         calculate D2E/DX2 analytically  !
 ! D30   D(10,7,11,12)          -0.3206         calculate D2E/DX2 analytically  !
 ! D31   D(2,11,12,13)           7.7392         calculate D2E/DX2 analytically  !
 ! D32   D(2,11,12,16)        -172.506          calculate D2E/DX2 analytically  !
 ! D33   D(7,11,12,13)        -170.64           calculate D2E/DX2 analytically  !
 ! D34   D(7,11,12,16)           9.1148         calculate D2E/DX2 analytically  !
 ! D35   D(11,12,16,17)       -174.3308         calculate D2E/DX2 analytically  !
 ! D36   D(11,12,16,18)         -0.3778         calculate D2E/DX2 analytically  !
 ! D37   D(13,12,16,17)          5.4207         calculate D2E/DX2 analytically  !
 ! D38   D(13,12,16,18)        179.3736         calculate D2E/DX2 analytically  !
 --------------------------------------------------------------------------------
 Trust Radius=3.00D-01 FncErr=1.00D-07 GrdErr=1.00D-06
 Number of steps in this run=     95 maximum allowed number of steps=    114.
 GradGradGradGradGradGradGradGradGradGradGradGradGradGradGradGradGradGrad

 Leave Link  103 at Thu Aug 26 12:21:51 2021, MaxMem= 24159191040 cpu:         0.4
 (Enter /public/home/users/caep010/software/Gaussian09/g09/l202.exe)
                          Input orientation:                          
 ---------------------------------------------------------------------
 Center     Atomic      Atomic             Coordinates (Angstroms)
 Number     Number       Type             X           Y           Z
 ---------------------------------------------------------------------
      1          8           0        2.874500    4.487900    3.836900
      2          6           0        2.557800    3.216700    4.131300
      3          6           0        3.166700    2.200000    3.379900
      4          1           0        3.773500    2.420500    2.710300
      5          6           0        2.872500    0.878900    3.627600
      6          6           0        1.955000    0.575100    4.628600
      7          6           0        1.342000    1.551500    5.389000
      8          1           0        2.453100    4.994600    4.324700
      9          1           0        3.278700    0.202300    3.135500
     10          1           0        0.730800    1.314600    6.048700
     11          6           0        1.642900    2.893300    5.163400
     12          6           0        1.014200    3.997700    5.940600
     13          8           0        1.189800    5.184100    5.576300
     14          7           0        1.623100   -0.822200    4.899700
     15          8           0        0.700000   -1.055000    5.681900
     16          7           0        0.274400    3.717700    7.002200
     17          1           0       -0.162900    4.407100    7.412700
     18          1           0        0.142600    2.890300    7.255200
     19          8           0        2.264100   -1.704300    4.350200
 ---------------------------------------------------------------------
                    Distance matrix (angstroms):
                    1          2          3          4          5
     1  O    0.000000
     2  C    1.342728   0.000000
     3  C    2.351322   1.403225   0.000000
     4  H    2.520232   2.032511   0.930156   0.000000
     5  C    3.615065   2.412065   1.375941   2.007429   0.000000
     6  C    4.096617   2.754764   2.380708   3.223712   1.391439
     7  C    3.657870   2.415134   2.790442   3.720590   2.428446
     8  H    0.819922   1.791450   3.035072   3.312965   4.195334
     9  H    4.361388   3.255445   2.015708   2.312149   0.930026
    10  H    4.422368   3.260726   3.720220   4.650371   3.261662
    11  C    2.412300   1.416637   2.446120   3.283397   2.815742
    12  C    2.850713   2.503244   3.797653   4.531681   4.304667
    13  O    2.519607   2.798234   4.199662   4.746256   5.016339
    14  N    5.558121   4.216256   3.718358   4.464616   2.464342
    15  O    6.233475   4.909501   4.688159   5.509620   3.560881
    16  N    4.168075   3.702294   4.877486   5.687428   5.118284
    17  H    4.692406   4.425703   5.676355   6.446269   5.999069
    18  H    4.658366   3.962131   4.963834   5.836117   4.965639
    19  O    6.243349   4.934614   4.123073   4.688447   2.750495
                    6          7          8          9         10
     6  C    0.000000
     7  C    1.381063   0.000000
     8  H    4.457851   3.771235   0.000000
     9  H    2.029904   3.263343   5.006191   0.000000
    10  H    2.015492   0.929995   4.413716   4.026877   0.000000
    11  C    2.399473   1.393508   2.403186   3.745624   2.026814
    12  C    3.784262   2.528954   2.382305   5.234654   2.700190
    13  O    4.767237   3.640608   1.788390   5.927844   3.925159
    14  N    1.461540   2.439853   5.903786   2.627359   2.585017
    15  O    2.311210   2.700333   6.443059   3.835968   2.398019
    16  N    4.281860   2.904239   3.680518   6.027871   2.625329
    17  H    5.188539   3.809795   4.089542   6.915157   3.496105
    18  H    3.942584   2.591071   4.284194   5.833729   2.069892
    19  O    2.317048   3.539719   6.701614   2.477909   3.788096
                   11         12         13         14         15
    11  C    0.000000
    12  C    1.489632   0.000000
    13  O    2.371403   1.253433   0.000000
    14  N    3.724899   4.968467   6.059800   0.000000
    15  O    4.092307   5.069065   6.259187   1.232131   0.000000
    16  N    2.435901   1.323895   2.240865   5.181717   4.970211
    17  H    3.257584   1.928795   2.409542   6.070465   5.794377
    18  H    2.574206   1.927225   3.029332   4.639280   4.283849
    19  O    4.710107   6.050159   7.078665   1.221037   2.154396
                   16         17         18         19
    16  N    0.000000
    17  H    0.913791   0.000000
    18  H    0.875198   1.555255   0.000000
    19  O    6.355320   7.253857   5.835249   0.000000
 Stoichiometry    C7H6N2O4
 Framework group  C1[X(C7H6N2O4)]
 Deg. of freedom    51
 Full point group                 C1      NOp   1
 Largest Abelian subgroup         C1      NOp   1
 Largest concise Abelian subgroup C1      NOp   1
                         Standard orientation:                         
 ---------------------------------------------------------------------
 Center     Atomic      Atomic             Coordinates (Angstroms)
 Number     Number       Type             X           Y           Z
 ---------------------------------------------------------------------
      1          8           0        2.301163    1.876821    0.001193
      2          6           0        1.099943    1.276896   -0.007710
      3          6           0       -0.039964    2.095212   -0.010746
      4          1           0        0.055411    3.020455   -0.015246
      5          6           0       -1.297964    1.537859   -0.007777
      6          6           0       -1.414358    0.151384    0.007803
      7          6           0       -0.312929   -0.681794    0.006319
      8          1           0        2.890970    1.307464    0.016444
      9          1           0       -2.055586    2.077203   -0.015779
     10          1           0       -0.425557   -1.604843    0.019977
     11          6           0        0.968022   -0.133564   -0.015405
     12          6           0        2.199255   -0.972044   -0.010923
     13          8           0        3.315894   -0.424838    0.146483
     14          7           0       -2.742502   -0.458510    0.020487
     15          8           0       -2.816626   -1.677012    0.187540
     16          7           0        2.103680   -2.283147   -0.167685
     17          1           0        2.865256   -2.780813   -0.081985
     18          1           0        1.325350   -2.670129   -0.269753
     19          8           0       -3.724948    0.249850   -0.134294
 ---------------------------------------------------------------------
 Rotational constants (GHZ):      1.5153973      0.5430782      0.4008661
 Leave Link  202 at Thu Aug 26 12:21:51 2021, MaxMem= 24159191040 cpu:         0.7
 (Enter /public/home/users/caep010/software/Gaussian09/g09/l301.exe)
 Standard basis: GTBas3 (6D, 7F)
 Ernie: Thresh=  0.10000D-02 Tol=  0.10000D-05 Strict=F.
 There are   433 symmetry adapted cartesian basis functions of A   symmetry.
 There are   394 symmetry adapted basis functions of A   symmetry.
   394 basis functions,   614 primitive gaussians,   433 cartesian basis functions
    47 alpha electrons       47 beta electrons
       nuclear repulsion energy       777.6619732793 Hartrees.
 IExCor=  402 DFT=T Ex+Corr=B3LYP ExCW=0 ScaHFX=  0.200000
 ScaDFX=  0.800000  0.720000  1.000000  0.810000 ScalE2=  1.000000  1.000000
 IRadAn=      0 IRanWt=     -1 IRanGd=            0 ICorTp=0 IEmpDi=  4
 NAtoms=   19 NActive=   19 NUniq=   19 SFac= 1.00D+00 NAtFMM=   60 NAOKFM=F Big=F
 Integral buffers will be    131072 words long.
 Raffenetti 2 integral format.
 Two-electron integral symmetry is turned on.
 Leave Link  301 at Thu Aug 26 12:21:51 2021, MaxMem= 24159191040 cpu:         2.3
 (Enter /public/home/users/caep010/software/Gaussian09/g09/l302.exe)
 NPDir=0 NMtPBC=     1 NCelOv=     1 NCel=       1 NClECP=     1 NCelD=      1
         NCelK=      1 NCelE2=     1 NClLst=     1 CellRange=     0.0.
 One-electron integrals computed using PRISM.
 NBasis=   394 RedAO= T EigKep=  9.62D-05  NBF=   394
 NBsUse=   394 1.00D-06 EigRej= -1.00D+00 NBFU=   394
 Precomputing XC quadrature grid using
 IXCGrd= 4 IRadAn=           0 IRanWt=          -1 IRanGd=           0 AccXCQ= 0.00D+00.
 Generated NRdTot=       0 NPtTot=           0 NUsed=           0 NTot=          32
 NSgBfM=   432   432   432   432   432 MxSgAt=    19 MxSgA2=    19.
 Leave Link  302 at Thu Aug 26 12:21:52 2021, MaxMem= 24159191040 cpu:        18.8
 (Enter /public/home/users/caep010/software/Gaussian09/g09/l303.exe)
 DipDrv:  MaxL=1.
 Leave Link  303 at Thu Aug 26 12:21:52 2021, MaxMem= 24159191040 cpu:         1.3
 (Enter /public/home/users/caep010/software/Gaussian09/g09/l401.exe)
 ExpMin= 1.61D-01 ExpMax= 5.48D+03 ExpMxC= 8.25D+02 IAcc=1 IRadAn=         1 AccDes= 0.00D+00
 Harris functional with IExCor=  402 and IRadAn=       1 diagonalized for initial guess.
 HarFok:  IExCor=  402 AccDes= 0.00D+00 IRadAn=         1 IDoV= 1 UseB2=F ITyADJ=14
 ICtDFT=  3500011 ScaDFX=  1.000000  1.000000  1.000000  1.000000
 FoFCou: FMM=F IPFlag=           0 FMFlag=      100000 FMFlg1=           0
         NFxFlg=           0 DoJE=T BraDBF=F KetDBF=T FulRan=T
         wScrn=  0.000000 ICntrl=     500 IOpCl=  0 I1Cent=   200000004 NGrid=           0
         NMat0=    1 NMatS0=      1 NMatT0=    0 NMatD0=    1 NMtDS0=    0 NMtDT0=    0
 Petite list used in FoFCou.
 Harris En= -680.700851250575    
 JPrj=0 DoOrth=F DoCkMO=F.
 Leave Link  401 at Thu Aug 26 12:21:52 2021, MaxMem= 24159191040 cpu:        18.0
 (Enter /public/home/users/caep010/software/Gaussian09/g09/l502.exe)
 Closed shell SCF:
 Using DIIS extrapolation, IDIIS=  1040.
 Integral symmetry usage will be decided dynamically.
 Keep R1 ints in memory in canonical form, NReq=3069097054.
 IVT=      597999 IEndB=      597999 NGot= 24159191040 MDV= 21130967022
 LenX= 21130967022 LenY= 21130779092
 Requested convergence on RMS density matrix=1.00D-08 within 128 cycles.
 Requested convergence on MAX density matrix=1.00D-06.
 Requested convergence on             energy=1.00D-06.
 No special actions if energy rises.
 FoFCou: FMM=F IPFlag=           0 FMFlag=           0 FMFlg1=           0
         NFxFlg=           0 DoJE=F BraDBF=F KetDBF=F FulRan=T
         wScrn=  0.000000 ICntrl=     600 IOpCl=  0 I1Cent=           0 NGrid=           0
         NMat0=    1 NMatS0=  77815 NMatT0=    0 NMatD0=    1 NMtDS0=    0 NMtDT0=    0
 Symmetry not used in FoFCou.
 Integral accuracy reduced to 1.0D-05 until final iterations.

 Cycle   1  Pass 0  IDiag  1:
 E= -680.192648080707    
 DIIS: error= 2.80D-02 at cycle   1 NSaved=   1.
 NSaved= 1 IEnMin= 1 EnMin= -680.192648080707     IErMin= 1 ErrMin= 2.80D-02
 ErrMax= 2.80D-02  0.00D+00 EMaxC= 1.00D-01 BMatC= 5.61D-01 BMatP= 5.61D-01
 IDIUse=3 WtCom= 7.20D-01 WtEn= 2.80D-01
 Coeff-Com:  0.100D+01
 Coeff-En:   0.100D+01
 Coeff:      0.100D+01
 Gap=     0.214 Goal=   None    Shift=    0.000
 GapD=    0.214 DampG=1.000 DampE=0.500 DampFc=0.5000 IDamp=-1.
 Damping current iteration by 5.00D-01
 RMSDP=4.23D-03 MaxDP=2.48D-01              OVMax= 3.36D-01

 Cycle   2  Pass 0  IDiag  1:
 E= -680.294181222540     Delta-E=       -0.101533141833 Rises=F Damp=T
 DIIS: error= 9.88D-03 at cycle   2 NSaved=   2.
 NSaved= 2 IEnMin= 2 EnMin= -680.294181222540     IErMin= 2 ErrMin= 9.88D-03
 ErrMax= 9.88D-03  0.00D+00 EMaxC= 1.00D-01 BMatC= 9.60D-02 BMatP= 5.61D-01
 IDIUse=3 WtCom= 9.01D-01 WtEn= 9.88D-02
 Coeff-Com:  0.240D+00 0.760D+00
 Coeff-En:   0.376D+00 0.624D+00
 Coeff:      0.254D+00 0.746D+00
 Gap=     0.215 Goal=   None    Shift=    0.000
 RMSDP=1.22D-03 MaxDP=7.83D-02 DE=-1.02D-01 OVMax= 2.43D-01

 Cycle   3  Pass 0  IDiag  1:
 E= -680.576182506072     Delta-E=       -0.282001283532 Rises=F Damp=F
 DIIS: error= 7.07D-03 at cycle   3 NSaved=   3.
 NSaved= 3 IEnMin= 3 EnMin= -680.576182506072     IErMin= 3 ErrMin= 7.07D-03
 ErrMax= 7.07D-03  0.00D+00 EMaxC= 1.00D-01 BMatC= 4.49D-02 BMatP= 9.60D-02
 IDIUse=3 WtCom= 9.29D-01 WtEn= 7.07D-02
 Coeff-Com:  0.763D-01 0.407D+00 0.517D+00
 Coeff-En:   0.000D+00 0.000D+00 0.100D+01
 Coeff:      0.709D-01 0.378D+00 0.551D+00
 Gap=     0.175 Goal=   None    Shift=    0.000
 RMSDP=7.14D-04 MaxDP=4.61D-02 DE=-2.82D-01 OVMax= 9.70D-02

 Cycle   4  Pass 0  IDiag  1:
 E= -680.605740505533     Delta-E=       -0.029557999462 Rises=F Damp=F
 DIIS: error= 4.04D-03 at cycle   4 NSaved=   4.
 NSaved= 4 IEnMin= 4 EnMin= -680.605740505533     IErMin= 4 ErrMin= 4.04D-03
 ErrMax= 4.04D-03  0.00D+00 EMaxC= 1.00D-01 BMatC= 1.23D-02 BMatP= 4.49D-02
 IDIUse=3 WtCom= 9.60D-01 WtEn= 4.04D-02
 Coeff-Com:  0.203D-01 0.125D+00 0.354D+00 0.501D+00
 Coeff-En:   0.000D+00 0.000D+00 0.239D+00 0.761D+00
 Coeff:      0.195D-01 0.120D+00 0.349D+00 0.511D+00
 Gap=     0.175 Goal=   None    Shift=    0.000
 RMSDP=3.34D-04 MaxDP=2.41D-02 DE=-2.96D-02 OVMax= 4.45D-02

 Cycle   5  Pass 0  IDiag  1:
 E= -680.615480590351     Delta-E=       -0.009740084817 Rises=F Damp=F
 DIIS: error= 1.04D-03 at cycle   5 NSaved=   5.
 NSaved= 5 IEnMin= 5 EnMin= -680.615480590351     IErMin= 5 ErrMin= 1.04D-03
 ErrMax= 1.04D-03  0.00D+00 EMaxC= 1.00D-01 BMatC= 1.33D-03 BMatP= 1.23D-02
 IDIUse=3 WtCom= 9.90D-01 WtEn= 1.04D-02
 Coeff-Com:  0.416D-02 0.192D-01 0.146D+00 0.318D+00 0.512D+00
 Coeff-En:   0.000D+00 0.000D+00 0.000D+00 0.589D-01 0.941D+00
 Coeff:      0.412D-02 0.190D-01 0.145D+00 0.316D+00 0.516D+00
 Gap=     0.172 Goal=   None    Shift=    0.000
 RMSDP=1.11D-04 MaxDP=8.05D-03 DE=-9.74D-03 OVMax= 1.34D-02

 Cycle   6  Pass 0  IDiag  1:
 E= -680.616397772734     Delta-E=       -0.000917182384 Rises=F Damp=F
 DIIS: error= 6.46D-04 at cycle   6 NSaved=   6.
 NSaved= 6 IEnMin= 6 EnMin= -680.616397772734     IErMin= 6 ErrMin= 6.46D-04
 ErrMax= 6.46D-04  0.00D+00 EMaxC= 1.00D-01 BMatC= 2.56D-04 BMatP= 1.33D-03
 IDIUse=3 WtCom= 9.94D-01 WtEn= 6.46D-03
 Coeff-Com:  0.111D-02 0.199D-02 0.666D-01 0.167D+00 0.357D+00 0.406D+00
 Coeff-En:   0.000D+00 0.000D+00 0.000D+00 0.000D+00 0.133D+00 0.867D+00
 Coeff:      0.110D-02 0.197D-02 0.661D-01 0.166D+00 0.355D+00 0.409D+00
 Gap=     0.172 Goal=   None    Shift=    0.000
 RMSDP=5.09D-05 MaxDP=4.97D-03 DE=-9.17D-04 OVMax= 8.90D-03

 Cycle   7  Pass 0  IDiag  1:
 E= -680.616558650354     Delta-E=       -0.000160877620 Rises=F Damp=F
 DIIS: error= 2.95D-04 at cycle   7 NSaved=   7.
 NSaved= 7 IEnMin= 7 EnMin= -680.616558650354     IErMin= 7 ErrMin= 2.95D-04
 ErrMax= 2.95D-04  0.00D+00 EMaxC= 1.00D-01 BMatC= 4.56D-05 BMatP= 2.56D-04
 IDIUse=3 WtCom= 9.97D-01 WtEn= 2.95D-03
 Coeff-Com:  0.246D-03-0.945D-03 0.283D-01 0.768D-01 0.190D+00 0.308D+00
 Coeff-Com:  0.397D+00
 Coeff-En:   0.000D+00 0.000D+00 0.000D+00 0.000D+00 0.000D+00 0.179D+00
 Coeff-En:   0.821D+00
 Coeff:      0.245D-03-0.942D-03 0.283D-01 0.766D-01 0.190D+00 0.307D+00
 Coeff:      0.399D+00
 Gap=     0.173 Goal=   None    Shift=    0.000
 RMSDP=1.87D-05 MaxDP=1.81D-03 DE=-1.61D-04 OVMax= 3.27D-03

 Cycle   8  Pass 0  IDiag  1:
 E= -680.616593713893     Delta-E=       -0.000035063538 Rises=F Damp=F
 DIIS: error= 7.41D-05 at cycle   8 NSaved=   8.
 NSaved= 8 IEnMin= 8 EnMin= -680.616593713893     IErMin= 8 ErrMin= 7.41D-05
 ErrMax= 7.41D-05  0.00D+00 EMaxC= 1.00D-01 BMatC= 2.72D-06 BMatP= 4.56D-05
 IDIUse=1 WtCom= 1.00D+00 WtEn= 0.00D+00
 Coeff-Com: -0.702D-04-0.108D-02 0.680D-02 0.209D-01 0.629D-01 0.126D+00
 Coeff-Com:  0.245D+00 0.540D+00
 Coeff:     -0.702D-04-0.108D-02 0.680D-02 0.209D-01 0.629D-01 0.126D+00
 Coeff:      0.245D+00 0.540D+00
 Gap=     0.173 Goal=   None    Shift=    0.000
 RMSDP=4.79D-06 MaxDP=3.75D-04 DE=-3.51D-05 OVMax= 5.33D-04

 Initial convergence to 1.0D-05 achieved.  Increase integral accuracy.
 Cycle   9  Pass 1  IDiag  1:
 E= -680.616611996490     Delta-E=       -0.000018282598 Rises=F Damp=F
 DIIS: error= 2.30D-05 at cycle   1 NSaved=   1.
 NSaved= 1 IEnMin= 1 EnMin= -680.616611996490     IErMin= 1 ErrMin= 2.30D-05
 ErrMax= 2.30D-05  0.00D+00 EMaxC= 1.00D-01 BMatC= 3.81D-07 BMatP= 3.81D-07
 IDIUse=1 WtCom= 1.00D+00 WtEn= 0.00D+00
 Coeff-Com:  0.100D+01
 Coeff:      0.100D+01
 Gap=     0.173 Goal=   None    Shift=    0.000
 RMSDP=4.79D-06 MaxDP=3.75D-04 DE=-1.83D-05 OVMax= 3.90D-04

 Cycle  10  Pass 1  IDiag  1:
 E= -680.616611661680     Delta-E=        0.000000334810 Rises=F Damp=F
 DIIS: error= 4.22D-05 at cycle   2 NSaved=   2.
 NSaved= 2 IEnMin= 1 EnMin= -680.616611996490     IErMin= 1 ErrMin= 2.30D-05
 ErrMax= 4.22D-05  0.00D+00 EMaxC= 1.00D-01 BMatC= 7.22D-07 BMatP= 3.81D-07
 IDIUse=1 WtCom= 1.00D+00 WtEn= 0.00D+00
 Coeff-Com:  0.597D+00 0.403D+00
 Coeff:      0.597D+00 0.403D+00
 Gap=     0.173 Goal=   None    Shift=    0.000
 RMSDP=2.38D-06 MaxDP=1.27D-04 DE= 3.35D-07 OVMax= 3.10D-04

 Cycle  11  Pass 1  IDiag  1:
 E= -680.616612281715     Delta-E=       -0.000000620035 Rises=F Damp=F
 DIIS: error= 9.10D-06 at cycle   3 NSaved=   3.
 NSaved= 3 IEnMin= 3 EnMin= -680.616612281715     IErMin= 3 ErrMin= 9.10D-06
 ErrMax= 9.10D-06  0.00D+00 EMaxC= 1.00D-01 BMatC= 6.35D-08 BMatP= 3.81D-07
 IDIUse=1 WtCom= 1.00D+00 WtEn= 0.00D+00
 Coeff-Com:  0.344D-01 0.226D+00 0.740D+00
 Coeff:      0.344D-01 0.226D+00 0.740D+00
 Gap=     0.173 Goal=   None    Shift=    0.000
 RMSDP=7.78D-07 MaxDP=6.23D-05 DE=-6.20D-07 OVMax= 1.05D-04

 Cycle  12  Pass 1  IDiag  1:
 E= -680.616612318038     Delta-E=       -0.000000036323 Rises=F Damp=F
 DIIS: error= 6.03D-06 at cycle   4 NSaved=   4.
 NSaved= 4 IEnMin= 4 EnMin= -680.616612318038     IErMin= 4 ErrMin= 6.03D-06
 ErrMax= 6.03D-06  0.00D+00 EMaxC= 1.00D-01 BMatC= 2.22D-08 BMatP= 6.35D-08
 IDIUse=1 WtCom= 1.00D+00 WtEn= 0.00D+00
 Coeff-Com: -0.101D-01 0.140D+00 0.531D+00 0.340D+00
 Coeff:     -0.101D-01 0.140D+00 0.531D+00 0.340D+00
 Gap=     0.173 Goal=   None    Shift=    0.000
 RMSDP=4.14D-07 MaxDP=3.67D-05 DE=-3.63D-08 OVMax= 7.30D-05

 Cycle  13  Pass 1  IDiag  1:
 E= -680.616612334841     Delta-E=       -0.000000016803 Rises=F Damp=F
 DIIS: error= 1.72D-06 at cycle   5 NSaved=   5.
 NSaved= 5 IEnMin= 5 EnMin= -680.616612334841     IErMin= 5 ErrMin= 1.72D-06
 ErrMax= 1.72D-06  0.00D+00 EMaxC= 1.00D-01 BMatC= 1.73D-09 BMatP= 2.22D-08
 IDIUse=1 WtCom= 1.00D+00 WtEn= 0.00D+00
 Coeff-Com: -0.106D-01 0.802D-01 0.314D+00 0.244D+00 0.372D+00
 Coeff:     -0.106D-01 0.802D-01 0.314D+00 0.244D+00 0.372D+00
 Gap=     0.173 Goal=   None    Shift=    0.000
 RMSDP=1.06D-07 MaxDP=8.89D-06 DE=-1.68D-08 OVMax= 1.84D-05

 Cycle  14  Pass 1  IDiag  1:
 E= -680.616612336174     Delta-E=       -0.000000001332 Rises=F Damp=F
 DIIS: error= 2.32D-07 at cycle   6 NSaved=   6.
 NSaved= 6 IEnMin= 6 EnMin= -680.616612336174     IErMin= 6 ErrMin= 2.32D-07
 ErrMax= 2.32D-07  0.00D+00 EMaxC= 1.00D-01 BMatC= 5.43D-11 BMatP= 1.73D-09
 IDIUse=1 WtCom= 1.00D+00 WtEn= 0.00D+00
 Coeff-Com: -0.466D-02 0.292D-01 0.115D+00 0.945D-01 0.198D+00 0.568D+00
 Coeff:     -0.466D-02 0.292D-01 0.115D+00 0.945D-01 0.198D+00 0.568D+00
 Gap=     0.173 Goal=   None    Shift=    0.000
 RMSDP=2.09D-08 MaxDP=1.44D-06 DE=-1.33D-09 OVMax= 2.60D-06

 Cycle  15  Pass 1  IDiag  1:
 E= -680.616612336231     Delta-E=       -0.000000000058 Rises=F Damp=F
 DIIS: error= 1.06D-07 at cycle   7 NSaved=   7.
 NSaved= 7 IEnMin= 7 EnMin= -680.616612336231     IErMin= 7 ErrMin= 1.06D-07
 ErrMax= 1.06D-07  0.00D+00 EMaxC= 1.00D-01 BMatC= 7.68D-12 BMatP= 5.43D-11
 IDIUse=1 WtCom= 1.00D+00 WtEn= 0.00D+00
 Coeff-Com: -0.126D-02 0.665D-02 0.258D-01 0.222D-01 0.635D-01 0.324D+00
 Coeff-Com:  0.559D+00
 Coeff:     -0.126D-02 0.665D-02 0.258D-01 0.222D-01 0.635D-01 0.324D+00
 Coeff:      0.559D+00
 Gap=     0.173 Goal=   None    Shift=    0.000
 RMSDP=8.12D-09 MaxDP=5.38D-07 DE=-5.78D-11 OVMax= 1.39D-06

 SCF Done:  E(RB3LYP) =  -680.616612336     A.U. after   15 cycles
            NFock= 15  Conv=0.81D-08     -V/T= 2.0040
 KE= 6.778913743627D+02 PE=-3.148366814637D+03 EE= 1.012196854658D+03
 Leave Link  502 at Thu Aug 26 12:23:20 2021, MaxMem= 24159191040 cpu:       472.7
 (Enter /public/home/users/caep010/software/Gaussian09/g09/l801.exe)
 DoSCS=F DFT=T ScalE2(SS,OS)=  1.000000  1.000000
 Range of M.O.s used for correlation:     1   394
 NBasis=   394 NAE=    47 NBE=    47 NFC=     0 NFV=     0
 NROrb=    394 NOA=    47 NOB=    47 NVA=   347 NVB=   347

 **** Warning!!: The largest alpha MO coefficient is  0.41637861D+02

 Leave Link  801 at Thu Aug 26 12:23:21 2021, MaxMem= 24159191040 cpu:         0.6
 (Enter /public/home/users/caep010/software/Gaussian09/g09/l1101.exe)
 Using compressed storage, NAtomX=    19.
 Will process     20 centers per pass.
 Leave Link 1101 at Thu Aug 26 12:23:21 2021, MaxMem= 24159191040 cpu:        22.1
 (Enter /public/home/users/caep010/software/Gaussian09/g09/l1102.exe)
 Symmetrizing basis deriv contribution to polar:
 IMax=3 JMax=2 DiffMx= 0.00D+00
 Leave Link 1102 at Thu Aug 26 12:23:22 2021, MaxMem= 24159191040 cpu:         1.0
 (Enter /public/home/users/caep010/software/Gaussian09/g09/l1110.exe)
 Forming Gx(P) for the SCF density, NAtomX=    19.
 Integral derivatives from FoFJK, PRISM(SPDF).
 Do as many integral derivatives as possible in FoFJK.
 G2DrvN: MDV=   24159190784.
 G2DrvN: will do    20 centers at a time, making    1 passes.
 Calling FoFCou, ICntrl=  3107 FMM=F I1Cent=   0 AccDes= 0.00D+00.
 FoFJK:  IHMeth= 1 ICntrl=    3107 DoSepK=F KAlg= 0 I1Cent=   0 FoldK=F
 IRaf=         0 NMat=   1 IRICut=       1 DoRegI=T DoRafI=F ISym2E= 0.
 FoFCou: FMM=F IPFlag=           0 FMFlag=      100000 FMFlg1=           0
         NFxFlg=           0 DoJE=F BraDBF=F KetDBF=F FulRan=T
         wScrn=  0.000000 ICntrl=    3107 IOpCl=  0 I1Cent=           0 NGrid=           0
         NMat0=    1 NMatS0=      1 NMatT0=    0 NMatD0=    1 NMtDS0=    0 NMtDT0=    0
 Symmetry not used in FoFCou.
 End of G2Drv F.D. properties file   721 does not exist.
 End of G2Drv F.D. properties file   722 does not exist.
 End of G2Drv F.D. properties file   788 does not exist.
 Leave Link 1110 at Thu Aug 26 12:23:49 2021, MaxMem= 24159191040 cpu:       844.5
 (Enter /public/home/users/caep010/software/Gaussian09/g09/l1002.exe)
 Minotr:  Closed shell wavefunction.
          IDoAtm=1111111111111111111
          Direct CPHF calculation.
          Differentiating once with respect to nuclear coordinates.
          Requested convergence is 1.0D-08 RMS, and 1.0D-07 maximum.
          Secondary convergence is 1.0D-12 RMS, and 1.0D-12 maximum.
          NewPWx=T KeepS1=F KeepF1=F KeepIn=T MapXYZ=F SortEE=F KeepMc=T.
          MDV=   24159190452 using IRadAn=       2.
 Generate precomputed XC quadrature information.
 Keep R1 ints in memory in canonical form, NReq=3068506136.
 FoFCou: FMM=F IPFlag=           0 FMFlag=           0 FMFlg1=           0
         NFxFlg=           0 DoJE=F BraDBF=F KetDBF=F FulRan=T
         wScrn=  0.000000 ICntrl=     600 IOpCl=  0 I1Cent=           0 NGrid=           0
         NMat0=    1 NMatS0=  77815 NMatT0=    0 NMatD0=    1 NMtDS0=    0 NMtDT0=    0
 Symmetry not used in FoFCou.
          Solving linear equations simultaneously, MaxMat=       0.
          There are    60 degrees of freedom in the 1st order CPHF.  IDoFFX=6 NUNeed=     0.
     54 vectors produced by pass  0 Test12= 2.72D-14 1.67D-09 XBig12= 2.22D-01 1.71D-01.
 AX will form    54 AO Fock derivatives at one time.
     54 vectors produced by pass  1 Test12= 2.72D-14 1.67D-09 XBig12= 3.68D-02 7.25D-02.
     54 vectors produced by pass  2 Test12= 2.72D-14 1.67D-09 XBig12= 4.83D-04 2.98D-03.
     54 vectors produced by pass  3 Test12= 2.72D-14 1.67D-09 XBig12= 2.41D-06 2.36D-04.
     54 vectors produced by pass  4 Test12= 2.72D-14 1.67D-09 XBig12= 9.88D-09 1.44D-05.
     54 vectors produced by pass  5 Test12= 2.72D-14 1.67D-09 XBig12= 2.03D-11 4.72D-07.
     29 vectors produced by pass  6 Test12= 2.72D-14 1.67D-09 XBig12= 2.49D-14 1.74D-08.
 InvSVY:  IOpt=1 It=  1 EMax= 7.22D-16
 Solved reduced A of dimension   353 with    60 vectors.
 End of Minotr F.D. properties file   721 does not exist.
 End of Minotr F.D. properties file   722 does not exist.
 End of Minotr F.D. properties file   788 does not exist.
 Leave Link 1002 at Thu Aug 26 12:24:37 2021, MaxMem= 24159191040 cpu:      1519.7
 (Enter /public/home/users/caep010/software/Gaussian09/g09/l601.exe)
 Copying SCF densities to generalized density rwf, IOpCl= 0 IROHF=0.

 **********************************************************************

            Population analysis using the SCF density.

 **********************************************************************

 Orbital symmetries:
       Occupied  (A) (A) (A) (A) (A) (A) (A) (A) (A) (A) (A) (A)
                 (A) (A) (A) (A) (A) (A) (A) (A) (A) (A) (A) (A)
                 (A) (A) (A) (A) (A) (A) (A) (A) (A) (A) (A) (A)
                 (A) (A) (A) (A) (A) (A) (A) (A) (A) (A) (A)
       Virtual   (A) (A) (A) (A) (A) (A) (A) (A) (A) (A) (A) (A)
                 (A) (A) (A) (A) (A) (A) (A) (A) (A) (A) (A) (A)
                 (A) (A) (A) (A) (A) (A) (A) (A) (A) (A) (A) (A)
                 (A) (A) (A) (A) (A) (A) (A) (A) (A) (A) (A) (A)
                 (A) (A) (A) (A) (A) (A) (A) (A) (A) (A) (A) (A)
                 (A) (A) (A) (A) (A) (A) (A) (A) (A) (A) (A) (A)
                 (A) (A) (A) (A) (A) (A) (A) (A) (A) (A) (A) (A)
                 (A) (A) (A) (A) (A) (A) (A) (A) (A) (A) (A) (A)
                 (A) (A) (A) (A) (A) (A) (A) (A) (A) (A) (A) (A)
                 (A) (A) (A) (A) (A) (A) (A) (A) (A) (A) (A) (A)
                 (A) (A) (A) (A) (A) (A) (A) (A) (A) (A) (A) (A)
                 (A) (A) (A) (A) (A) (A) (A) (A) (A) (A) (A) (A)
                 (A) (A) (A) (A) (A) (A) (A) (A) (A) (A) (A) (A)
                 (A) (A) (A) (A) (A) (A) (A) (A) (A) (A) (A) (A)
                 (A) (A) (A) (A) (A) (A) (A) (A) (A) (A) (A) (A)
                 (A) (A) (A) (A) (A) (A) (A) (A) (A) (A) (A) (A)
                 (A) (A) (A) (A) (A) (A) (A) (A) (A) (A) (A) (A)
                 (A) (A) (A) (A) (A) (A) (A) (A) (A) (A) (A) (A)
                 (A) (A) (A) (A) (A) (A) (A) (A) (A) (A) (A) (A)
                 (A) (A) (A) (A) (A) (A) (A) (A) (A) (A) (A) (A)
                 (A) (A) (A) (A) (A) (A) (A) (A) (A) (A) (A) (A)
                 (A) (A) (A) (A) (A) (A) (A) (A) (A) (A) (A) (A)
                 (A) (A) (A) (A) (A) (A) (A) (A) (A) (A) (A) (A)
                 (A) (A) (A) (A) (A) (A) (A) (A) (A) (A) (A) (A)
                 (A) (A) (A) (A) (A) (A) (A) (A) (A) (A) (A) (A)
                 (A) (A) (A) (A) (A) (A) (A) (A) (A) (A) (A) (A)
                 (A) (A) (A) (A) (A) (A) (A) (A) (A) (A) (A) (A)
                 (A) (A) (A) (A) (A) (A) (A) (A) (A) (A) (A) (A)
                 (A) (A) (A) (A) (A) (A) (A) (A) (A) (A) (A)
 The electronic state is 1-A.
 Alpha  occ. eigenvalues --  -19.17243 -19.17120 -19.16750 -19.12810 -14.56433
 Alpha  occ. eigenvalues --  -14.36557 -10.31394 -10.28609 -10.25141 -10.22902
 Alpha  occ. eigenvalues --  -10.22075 -10.21397 -10.20064  -1.22542  -1.11505
 Alpha  occ. eigenvalues --   -1.05486  -1.04755  -0.96355  -0.90495  -0.81684
 Alpha  occ. eigenvalues --   -0.80971  -0.71682  -0.69600  -0.65826  -0.63254
 Alpha  occ. eigenvalues --   -0.61142  -0.58509  -0.55907  -0.53439  -0.52391
 Alpha  occ. eigenvalues --   -0.51599  -0.49971  -0.48599  -0.45916  -0.45170
 Alpha  occ. eigenvalues --   -0.44572  -0.42108  -0.41685  -0.38324  -0.37148
 Alpha  occ. eigenvalues --   -0.31067  -0.30929  -0.30051  -0.29208  -0.28903
 Alpha  occ. eigenvalues --   -0.27947  -0.25840
 Alpha virt. eigenvalues --   -0.08570  -0.06590  -0.00363   0.04496   0.07786
 Alpha virt. eigenvalues --    0.12426   0.12702   0.15300   0.15724   0.17288
 Alpha virt. eigenvalues --    0.19257   0.20515   0.22700   0.23245   0.25983
 Alpha virt. eigenvalues --    0.27061   0.29442   0.30713   0.31442   0.34315
 Alpha virt. eigenvalues --    0.35913   0.37549   0.38453   0.41099   0.42869
 Alpha virt. eigenvalues --    0.44680   0.45155   0.46466   0.48001   0.48329
 Alpha virt. eigenvalues --    0.49850   0.50642   0.51027   0.52258   0.53048
 Alpha virt. eigenvalues --    0.54922   0.57082   0.58198   0.59145   0.59954
 Alpha virt. eigenvalues --    0.61500   0.62723   0.64122   0.64805   0.66489
 Alpha virt. eigenvalues --    0.67465   0.68894   0.69510   0.71565   0.73963
 Alpha virt. eigenvalues --    0.74818   0.75479   0.76569   0.76791   0.77987
 Alpha virt. eigenvalues --    0.79559   0.80126   0.81334   0.83238   0.83661
 Alpha virt. eigenvalues --    0.84032   0.84710   0.86690   0.87395   0.87864
 Alpha virt. eigenvalues --    0.89216   0.89727   0.91045   0.92991   0.93870
 Alpha virt. eigenvalues --    0.94739   0.95511   0.97327   0.98221   0.98574
 Alpha virt. eigenvalues --    1.00330   1.01439   1.01815   1.03361   1.03536
 Alpha virt. eigenvalues --    1.07182   1.09078   1.09588   1.12313   1.13633
 Alpha virt. eigenvalues --    1.14336   1.14802   1.18946   1.20612   1.22425
 Alpha virt. eigenvalues --    1.23024   1.25606   1.26850   1.27441   1.31189
 Alpha virt. eigenvalues --    1.32055   1.33821   1.34306   1.35887   1.37424
 Alpha virt. eigenvalues --    1.37855   1.40742   1.41594   1.41649   1.43223
 Alpha virt. eigenvalues --    1.44146   1.45346   1.45944   1.47143   1.49984
 Alpha virt. eigenvalues --    1.51967   1.54491   1.57771   1.59679   1.59713
 Alpha virt. eigenvalues --    1.60331   1.61611   1.64356   1.66225   1.67370
 Alpha virt. eigenvalues --    1.68781   1.71512   1.74312   1.75075   1.76628
 Alpha virt. eigenvalues --    1.80043   1.81661   1.86289   1.87229   1.90424
 Alpha virt. eigenvalues --    1.92334   1.94502   1.96066   1.98224   1.99554
 Alpha virt. eigenvalues --    2.01445   2.08194   2.08869   2.14186   2.16525
 Alpha virt. eigenvalues --    2.20980   2.25097   2.25929   2.28462   2.30417
 Alpha virt. eigenvalues --    2.35610   2.36927   2.39476   2.42636   2.45784
 Alpha virt. eigenvalues --    2.53159   2.54302   2.57857   2.59158   2.67804
 Alpha virt. eigenvalues --    2.71647   2.77116   2.77960   2.84901   2.87503
 Alpha virt. eigenvalues --    2.89626   2.91780   2.92732   2.95420   2.96973
 Alpha virt. eigenvalues --    2.97414   2.99638   3.02750   3.05498   3.07151
 Alpha virt. eigenvalues --    3.08507   3.09975   3.11301   3.12683   3.14314
 Alpha virt. eigenvalues --    3.15710   3.16543   3.18401   3.19670   3.20746
 Alpha virt. eigenvalues --    3.23564   3.24282   3.27444   3.29563   3.32192
 Alpha virt. eigenvalues --    3.33222   3.34838   3.35860   3.39237   3.40578
 Alpha virt. eigenvalues --    3.42483   3.45182   3.45729   3.46605   3.47113
 Alpha virt. eigenvalues --    3.48737   3.52145   3.54591   3.57556   3.59276
 Alpha virt. eigenvalues --    3.60869   3.62377   3.63640   3.67125   3.68050
 Alpha virt. eigenvalues --    3.71042   3.72157   3.73002   3.75007   3.78373
 Alpha virt. eigenvalues --    3.81317   3.84386   3.89497   3.92088   3.96561
 Alpha virt. eigenvalues --    3.97066   3.98867   4.00543   4.01431   4.02973
 Alpha virt. eigenvalues --    4.04163   4.05759   4.07203   4.08895   4.11867
 Alpha virt. eigenvalues --    4.12090   4.17735   4.18685   4.20779   4.22594
 Alpha virt. eigenvalues --    4.23319   4.24581   4.26119   4.27071   4.30682
 Alpha virt. eigenvalues --    4.32177   4.33178   4.34004   4.37160   4.39182
 Alpha virt. eigenvalues --    4.39593   4.40632   4.41879   4.42727   4.43896
 Alpha virt. eigenvalues --    4.46181   4.47455   4.48104   4.49192   4.50575
 Alpha virt. eigenvalues --    4.51347   4.52752   4.54000   4.55704   4.56289
 Alpha virt. eigenvalues --    4.56847   4.57812   4.59388   4.60497   4.60838
 Alpha virt. eigenvalues --    4.61412   4.63237   4.68798   4.70020   4.71156
 Alpha virt. eigenvalues --    4.73303   4.74674   4.77266   4.79553   4.81621
 Alpha virt. eigenvalues --    4.85682   4.87275   4.88626   4.93289   4.95434
 Alpha virt. eigenvalues --    4.99581   5.01759   5.02903   5.03349   5.04847
 Alpha virt. eigenvalues --    5.07157   5.08405   5.08810   5.09457   5.09685
 Alpha virt. eigenvalues --    5.15517   5.16763   5.20875   5.22370   5.25551
 Alpha virt. eigenvalues --    5.27156   5.31186   5.35583   5.36526   5.41261
 Alpha virt. eigenvalues --    5.42595   5.50675   5.52993   5.56026   5.58008
 Alpha virt. eigenvalues --    5.58378   5.60526   5.62827   5.64507   5.68259
 Alpha virt. eigenvalues --    5.71630   5.71867   5.76363   5.81895   5.88753
 Alpha virt. eigenvalues --    5.90087   5.92016   5.95189   5.99561   6.00262
 Alpha virt. eigenvalues --    6.02729   6.07693   6.14964   6.25015   6.27541
 Alpha virt. eigenvalues --    6.32610   6.36393   6.45742   6.51710   6.59591
 Alpha virt. eigenvalues --    6.70631   6.73714   6.85936   6.92351   7.04304
 Alpha virt. eigenvalues --    7.34115   9.05303   9.62717  10.31785  10.74941
 Alpha virt. eigenvalues --   10.95609  11.26778  11.30433  11.64324  11.81374
 Alpha virt. eigenvalues --   12.71036  12.95925  12.97177  13.18755  13.47270
 Alpha virt. eigenvalues --   15.64115  16.74701
          Condensed to atoms (all electrons):
               1          2          3          4          5          6
     1  O    7.600857   0.478763  -0.024691  -0.001317   0.000851   0.000016
     2  C    0.478763   4.569466   0.448208  -0.013854   0.027366  -0.046269
     3  C   -0.024691   0.448208   4.878267   0.327035   0.512466   0.021435
     4  H   -0.001317  -0.013854   0.327035   0.594872  -0.025477  -0.000564
     5  C    0.000851   0.027366   0.512466  -0.025477   4.919941   0.430864
     6  C    0.000016  -0.046269   0.021435  -0.000564   0.430864   4.937009
     7  C    0.002723   0.013616  -0.086193   0.002618  -0.012555   0.389078
     8  H    0.369760  -0.059996   0.007892  -0.000125  -0.000099  -0.000006
     9  H   -0.000017   0.001646  -0.020631  -0.002705   0.327563  -0.022018
    10  H   -0.000025   0.004447   0.000666   0.000080   0.007080  -0.011592
    11  C   -0.062283   0.362088   0.046759   0.005875  -0.071327   0.002309
    12  C   -0.010099  -0.056177   0.005477  -0.000136  -0.000345   0.002052
    13  O   -0.031955  -0.009244   0.000870   0.000024  -0.000056  -0.000026
    14  N   -0.000000   0.000288   0.000856  -0.000075  -0.027962   0.332390
    15  O   -0.000000   0.000035  -0.000014   0.000001   0.008852  -0.126536
    16  N    0.000096   0.000675  -0.000018   0.000001  -0.000023   0.000427
    17  H    0.000012   0.000077  -0.000003  -0.000000   0.000002  -0.000007
    18  H    0.000010  -0.000180   0.000009  -0.000000  -0.000008   0.000385
    19  O   -0.000000   0.000002   0.001002  -0.000008   0.006023  -0.133196
               7          8          9         10         11         12
     1  O    0.002723   0.369760  -0.000017  -0.000025  -0.062283  -0.010099
     2  C    0.013616  -0.059996   0.001646   0.004447   0.362088  -0.056177
     3  C   -0.086193   0.007892  -0.020631   0.000666   0.046759   0.005477
     4  H    0.002618  -0.000125  -0.002705   0.000080   0.005875  -0.000136
     5  C   -0.012555  -0.000099   0.327563   0.007080  -0.071327  -0.000345
     6  C    0.389078  -0.000006  -0.022018  -0.011592   0.002309   0.002052
     7  C    5.217378  -0.000235   0.005933   0.288389   0.400765  -0.023718
     8  H   -0.000235   0.396029   0.000005   0.000015  -0.014209  -0.002648
     9  H    0.005933   0.000005   0.573498  -0.000414   0.001520   0.000009
    10  H    0.288389   0.000015  -0.000414   0.611086  -0.019012  -0.014724
    11  C    0.400765  -0.014209   0.001520  -0.019012   5.220562   0.277585
    12  C   -0.023718  -0.002648   0.000009  -0.014724   0.277585   4.327372
    13  O    0.001661   0.065821  -0.000000  -0.000042  -0.092835   0.708275
    14  N   -0.011355  -0.000000  -0.013634  -0.017018   0.001592  -0.000033
    15  O   -0.003867   0.000000   0.000520   0.036757   0.001270  -0.000030
    16  N   -0.008453   0.000937  -0.000000   0.003304  -0.061607   0.451096
    17  H   -0.000678  -0.000076   0.000000  -0.000048   0.009942  -0.014534
    18  H    0.005307  -0.000111  -0.000000   0.001153  -0.007645  -0.022004
    19  O    0.008583  -0.000000   0.024972   0.000664   0.000023  -0.000000
              13         14         15         16         17         18
     1  O   -0.031955  -0.000000  -0.000000   0.000096   0.000012   0.000010
     2  C   -0.009244   0.000288   0.000035   0.000675   0.000077  -0.000180
     3  C    0.000870   0.000856  -0.000014  -0.000018  -0.000003   0.000009
     4  H    0.000024  -0.000075   0.000001   0.000001  -0.000000  -0.000000
     5  C   -0.000056  -0.027962   0.008852  -0.000023   0.000002  -0.000008
     6  C   -0.000026   0.332390  -0.126536   0.000427  -0.000007   0.000385
     7  C    0.001661  -0.011355  -0.003867  -0.008453  -0.000678   0.005307
     8  H    0.065821  -0.000000   0.000000   0.000937  -0.000076  -0.000111
     9  H   -0.000000  -0.013634   0.000520  -0.000000   0.000000  -0.000000
    10  H   -0.000042  -0.017018   0.036757   0.003304  -0.000048   0.001153
    11  C   -0.092835   0.001592   0.001270  -0.061607   0.009942  -0.007645
    12  C    0.708275  -0.000033  -0.000030   0.451096  -0.014534  -0.022004
    13  O    7.826408   0.000000  -0.000000  -0.047841   0.005056   0.003756
    14  N    0.000000   5.268764   0.529192  -0.000002  -0.000000  -0.000009
    15  O   -0.000000   0.529192   8.036126   0.000007   0.000000  -0.000079
    16  N   -0.047841  -0.000002   0.000007   6.383554   0.346944   0.368132
    17  H    0.005056  -0.000000   0.000000   0.346944   0.424772  -0.025550
    18  H    0.003756  -0.000009  -0.000079   0.368132  -0.025550   0.432576
    19  O    0.000000   0.555713  -0.105373   0.000000   0.000000  -0.000000
              19
     1  O   -0.000000
     2  C    0.000002
     3  C    0.001002
     4  H   -0.000008
     5  C    0.006023
     6  C   -0.133196
     7  C    0.008583
     8  H   -0.000000
     9  H    0.024972
    10  H    0.000664
    11  C    0.000023
    12  C   -0.000000
    13  O    0.000000
    14  N    0.555713
    15  O   -0.105373
    16  N    0.000000
    17  H    0.000000
    18  H   -0.000000
    19  O    8.001312
 Mulliken charges:
               1
     1  O   -0.322701
     2  C    0.279041
     3  C   -0.119392
     4  H    0.113756
     5  C   -0.103156
     6  C    0.224247
     7  C   -0.188996
     8  H    0.237045
     9  H    0.123754
    10  H    0.109233
    11  C   -0.001372
    12  C    0.372581
    13  O   -0.429872
    14  N    0.381292
    15  O   -0.376860
    16  N   -0.437230
    17  H    0.254089
    18  H    0.244258
    19  O   -0.359718
 Sum of Mulliken charges =  -0.00000
 Mulliken charges with hydrogens summed into heavy atoms:
               1
     1  O   -0.085656
     2  C    0.279041
     3  C   -0.005636
     5  C    0.020598
     6  C    0.224247
     7  C   -0.079763
    11  C   -0.001372
    12  C    0.372581
    13  O   -0.429872
    14  N    0.381292
    15  O   -0.376860
    16  N    0.061117
    19  O   -0.359718
 APT charges:
               1
     1  O    0.138892
     2  C   -0.608497
     3  C   -0.180337
     4  H    0.525798
     5  C   -0.208747
     6  C   -0.316613
     7  C   -0.312707
     8  H    0.376924
     9  H    0.502145
    10  H    0.288355
    11  C   -0.236714
    12  C   -0.952194
    13  O    0.551910
    14  N   -1.300340
    15  O    0.366712
    16  N   -0.649845
    17  H    0.983981
    18  H    0.216966
    19  O    0.814310
 Sum of APT charges =  -0.00000
 APT charges with hydrogens summed into heavy atoms:
               1
     1  O    0.515816
     2  C   -0.608497
     3  C    0.345461
     5  C    0.293398
     6  C   -0.316613
     7  C   -0.024352
    11  C   -0.236714
    12  C   -0.952194
    13  O    0.551910
    14  N   -1.300340
    15  O    0.366712
    16  N    0.551103
    19  O    0.814310
 Electronic spatial extent (au):  <R**2>=           2521.1666
 Charge=             -0.0000 electrons
 Dipole moment (field-independent basis, Debye):
    X=              2.1430    Y=             -1.2000    Z=             -0.4092  Tot=              2.4900
 Quadrupole moment (field-independent basis, Debye-Ang):
   XX=            -93.3092   YY=            -61.6872   ZZ=            -71.5679
   XY=            -11.6487   XZ=             -1.0366   YZ=              1.1419
 Traceless Quadrupole moment (field-independent basis, Debye-Ang):
   XX=            -17.7878   YY=             13.8342   ZZ=              3.9536
   XY=            -11.6487   XZ=             -1.0366   YZ=              1.1419
 Octapole moment (field-independent basis, Debye-Ang**2):
  XXX=             34.2661  YYY=            -25.6039  ZZZ=              0.6877  XYY=             21.5828
  XXY=             -4.1316  XXZ=             -1.8822  XZZ=             -3.0724  YZZ=             -2.7342
  YYZ=             -2.3807  XYZ=             -1.2182
 Hexadecapole moment (field-independent basis, Debye-Ang**3):
 XXXX=          -2410.6055 YYYY=           -738.6503 ZZZZ=            -66.1942 XXXY=            -45.0268
 XXXZ=            -16.0808 YYYX=           -102.9347 YYYZ=              6.2548 ZZZX=              1.2736
 ZZZY=             -0.9675 XXYY=           -459.5288 XXZZ=           -347.5315 YYZZ=           -158.3914
 XXYZ=              6.4172 YYXZ=              1.6037 ZZXY=              8.7591
 N-N= 7.776619732793D+02 E-N=-3.148366822379D+03  KE= 6.778913743627D+02
  Exact polarizability:   0.000   0.000   0.000   0.000   0.000   0.000
 Approx polarizability: 246.381   9.701 211.465   4.462  -3.215  72.943
 No NMR shielding tensors so no spin-rotation constants.
 Leave Link  601 at Thu Aug 26 12:24:38 2021, MaxMem= 24159191040 cpu:        18.6
 (Enter /public/home/users/caep010/software/Gaussian09/g09/l701.exe)
 Compute integral second derivatives.
 ... and contract with generalized density number  0.
 Leave Link  701 at Thu Aug 26 12:24:39 2021, MaxMem= 24159191040 cpu:        18.3
 (Enter /public/home/users/caep010/software/Gaussian09/g09/l702.exe)
 L702 exits ... SP integral derivatives will be done elsewhere.
 Leave Link  702 at Thu Aug 26 12:24:39 2021, MaxMem= 24159191040 cpu:         0.6
 (Enter /public/home/users/caep010/software/Gaussian09/g09/l703.exe)
 Compute integral second derivatives, UseDBF=F ICtDFT=           0.
 Integral derivatives from FoFJK, PRISM(SPDF).
 Calling FoFJK, ICntrl=    100147 FMM=F ISym2X=0 I1Cent= 0 IOpClX= 0 NMat=1 NMatS=1 NMatT=0.
 FoFJK:  IHMeth= 1 ICntrl=  100147 DoSepK=F KAlg= 0 I1Cent=   0 FoldK=F
 IRaf=         0 NMat=   1 IRICut=       1 DoRegI=T DoRafI=F ISym2E= 0.
 FoFCou: FMM=F IPFlag=           0 FMFlag=      100000 FMFlg1=         800
         NFxFlg=           0 DoJE=F BraDBF=F KetDBF=F FulRan=T
         wScrn=  0.000000 ICntrl=  100147 IOpCl=  0 I1Cent=           0 NGrid=           0
         NMat0=    1 NMatS0=      1 NMatT0=    0 NMatD0=    1 NMtDS0=    0 NMtDT0=    0
 Symmetry not used in FoFCou.
 Leave Link  703 at Thu Aug 26 12:25:31 2021, MaxMem= 24159191040 cpu:      1635.1
 (Enter /public/home/users/caep010/software/Gaussian09/g09/l716.exe)
 Dipole        = 8.43140021D-01-4.72101411D-01-1.60986847D-01
 Polarizability= 0.00000000D+00 0.00000000D+00 0.00000000D+00
                 0.00000000D+00 0.00000000D+00 0.00000000D+00
 ***** Axes restored to original set *****
 -------------------------------------------------------------------
 Center     Atomic                   Forces (Hartrees/Bohr)
 Number     Number              X              Y              Z
 -------------------------------------------------------------------
      1        8           0.132981685   -0.167594544   -0.151983202
      2        6           0.001179713    0.011013054   -0.001491804
      3        6          -0.105533960   -0.034573421    0.117113719
      4        1           0.107943388    0.042765959   -0.119244051
      5        6          -0.071474923    0.116000403    0.087972539
      6        6          -0.001515413   -0.007193954    0.001708103
      7        6           0.105738182    0.046706411   -0.112735014
      8        1          -0.131595403    0.156951496    0.149681942
      9        1           0.071451318   -0.122247719   -0.087139621
     10        1          -0.108552952   -0.046370336    0.116022484
     11        6           0.000031185   -0.000868086    0.000519318
     12        6           0.021640165    0.037917544   -0.034933338
     13        8          -0.005597378   -0.022073427    0.011407999
     14        7          -0.009531521   -0.007199301    0.007713543
     15        8           0.001362462    0.007389235    0.000049348
     16        7           0.066114185    0.071516480   -0.084863266
     17        1          -0.053040209    0.085522989    0.051785165
     18        1          -0.029520874   -0.170162921    0.056227402
     19        8           0.007920349    0.002500137   -0.007811264
 -------------------------------------------------------------------
 Cartesian Forces:  Max     0.170162921 RMS     0.079606495
 FormGI is forming the generalized inverse of G from B-inverse, IUseBI=4.
 GSVD:  received Info=                   1 from GESDD.
 Leave Link  716 at Thu Aug 26 12:25:31 2021, MaxMem= 24159191040 cpu:         1.1
 (Enter /public/home/users/caep010/software/Gaussian09/g09/l103.exe)

 GradGradGradGradGradGradGradGradGradGradGradGradGradGradGradGradGradGrad
 Berny optimization.
 Red2BG is reusing G-inverse.
 Internal  Forces:  Max     0.253677090 RMS     0.047955273
 Search for a local minimum.
 Step number   1 out of a maximum of   95
 All quantities printed in internal units (Hartrees-Bohrs-Radians)
 RMS Force = .47955D-01 SwitMx=.10000D-02 MixMth= 1
 Mixed Optimization -- RFO/linear search
 Second derivative matrix not updated -- analytic derivatives used.
 ITU=  0
     Eigenvalues ---    0.00178   0.00592   0.00919   0.01250   0.01666
     Eigenvalues ---    0.01723   0.01801   0.02039   0.02130   0.02286
     Eigenvalues ---    0.02727   0.03008   0.03188   0.04342   0.05426
     Eigenvalues ---    0.10726   0.11075   0.11294   0.11449   0.12107
     Eigenvalues ---    0.12599   0.17501   0.18165   0.19611   0.20092
     Eigenvalues ---    0.21272   0.22346   0.23434   0.24261   0.25438
     Eigenvalues ---    0.28925   0.31166   0.34361   0.36546   0.40983
     Eigenvalues ---    0.42316   0.45869   0.48467   0.50969   0.53087
     Eigenvalues ---    0.53832   0.59704   0.71303   0.78533   0.85385
     Eigenvalues ---    0.85438   0.85617   0.85661   0.88254   1.08434
     Eigenvalues ---    1.36321
 RFO step:  Lambda=-1.66061058D-01 EMin= 1.78223938D-03
 Linear search not attempted -- first point.
 Maximum step size (   0.300) exceeded in Quadratic search.
    -- Step size scaled by   0.781
 Iteration  1 RMS(Cart)=  0.03227581 RMS(Int)=  0.00020652
 Iteration  2 RMS(Cart)=  0.00023455 RMS(Int)=  0.00000327
 Iteration  3 RMS(Cart)=  0.00000008 RMS(Int)=  0.00000327
 ITry= 1 IFail=0 DXMaxC= 1.15D-01 DCOld= 1.00D+10 DXMaxT= 3.00D-01 DXLimC= 3.00D+00 Rises=F
 Variable       Old X    -DE/DX   Delta X   Delta X   Delta X     New X
                                 (Linear)    (Quad)   (Total)
    R1        2.53739  -0.00924   0.00000  -0.01292  -0.01292   2.52447
    R2        1.54943   0.25368   0.00000   0.13002   0.13002   1.67944
    R3        2.65171  -0.00031   0.00000   0.00168   0.00167   2.65339
    R4        2.67706   0.00544   0.00000   0.00476   0.00476   2.68182
    R5        1.75774   0.16640   0.00000   0.12751   0.12751   1.88525
    R6        2.60015   0.00752   0.00000   0.00662   0.00662   2.60677
    R7        2.62944   0.00200   0.00000   0.00462   0.00463   2.63406
    R8        1.75749   0.16625   0.00000   0.12704   0.12704   1.88454
    R9        2.60983   0.00216   0.00000   0.00358   0.00358   2.61341
   R10        2.76191  -0.00252   0.00000  -0.00134  -0.00134   2.76057
   R11        1.75744   0.16546   0.00000   0.12662   0.12662   1.88406
   R12        2.63335   0.00445   0.00000   0.00384   0.00384   2.63719
   R13        2.81500   0.00199   0.00000   0.00185   0.00185   2.81685
   R14        2.36865  -0.02499   0.00000  -0.02436  -0.02436   2.34428
   R15        2.50180   0.03053   0.00000   0.03309   0.03309   2.53489
   R16        2.32839  -0.00238   0.00000  -0.00443  -0.00443   2.32396
   R17        2.30743   0.00587   0.00000   0.00519   0.00519   2.31262
   R18        1.72681   0.11317   0.00000   0.08699   0.08699   1.81381
   R19        1.65388   0.18157   0.00000   0.11333   0.11333   1.76721
    A1        1.91070   0.00026   0.00000  -0.00931  -0.00931   1.90140
    A2        2.05578  -0.00739   0.00000  -0.00544  -0.00544   2.05034
    A3        2.12727   0.00791   0.00000   0.00757   0.00757   2.13484
    A4        2.10014  -0.00052   0.00000  -0.00214  -0.00214   2.09800
    A5        2.09071  -0.00317   0.00000  -0.00956  -0.00956   2.08115
    A6        2.10190   0.00034   0.00000   0.00099   0.00099   2.10289
    A7        2.09058   0.00283   0.00000   0.00857   0.00857   2.09915
    A8        2.07160   0.00020   0.00000   0.00206   0.00206   2.07366
    A9        2.10583   0.00158   0.00000   0.00508   0.00508   2.11090
   A10        2.10576  -0.00178   0.00000  -0.00713  -0.00713   2.09863
   A11        2.13461  -0.00064   0.00000  -0.00476  -0.00476   2.12985
   A12        2.08509  -0.00140   0.00000  -0.00085  -0.00085   2.08424
   A13        2.06348   0.00204   0.00000   0.00561   0.00561   2.06909
   A14        2.09692  -0.00426   0.00000  -0.01504  -0.01504   2.08187
   A15        2.08953   0.00078   0.00000   0.00329   0.00329   2.09281
   A16        2.09674   0.00348   0.00000   0.01175   0.01175   2.10850
   A17        2.06828  -0.00016   0.00000   0.00054   0.00054   2.06882
   A18        2.07537   0.00774   0.00000   0.00045   0.00045   2.07582
   A19        2.13919  -0.00757   0.00000  -0.00095  -0.00095   2.13825
   A20        2.08401   0.01083   0.00000   0.01623   0.01622   2.10023
   A21        2.09141  -0.01019   0.00000  -0.01499  -0.01499   2.07642
   A22        2.10776  -0.00064   0.00000  -0.00122  -0.00122   2.10654
   A23        2.05842  -0.00349   0.00000  -0.00251  -0.00251   2.05591
   A24        2.08057  -0.00949   0.00000  -0.01492  -0.01492   2.06564
   A25        2.14420   0.01298   0.00000   0.01743   0.01743   2.16163
   A26        2.05792  -0.00231   0.00000  -0.00493  -0.00493   2.05298
   A27        2.11286   0.00502   0.00000   0.01513   0.01513   2.12798
   A28        2.10750  -0.00253   0.00000  -0.00967  -0.00968   2.09782
    D1        3.12316  -0.00132   0.00000  -0.00564  -0.00564   3.11752
    D2       -0.01966  -0.00122   0.00000  -0.00508  -0.00508  -0.02474
    D3        0.01069  -0.00001   0.00000   0.00016   0.00016   0.01085
    D4       -3.13146   0.00027   0.00000   0.00129   0.00128  -3.13018
    D5       -3.12970  -0.00011   0.00000  -0.00040  -0.00039  -3.13009
    D6        0.01133   0.00017   0.00000   0.00073   0.00073   0.01206
    D7        3.11647  -0.00020   0.00000  -0.00145  -0.00145   3.11502
    D8        0.00201  -0.00056   0.00000  -0.00311  -0.00311  -0.00110
    D9       -0.02638  -0.00011   0.00000  -0.00088  -0.00088  -0.02725
   D10       -3.14084  -0.00047   0.00000  -0.00254  -0.00254   3.13981
   D11        0.00781  -0.00007   0.00000  -0.00009  -0.00009   0.00772
   D12       -3.13409  -0.00024   0.00000  -0.00095  -0.00096  -3.13505
   D13       -3.13435   0.00020   0.00000   0.00104   0.00104  -3.13330
   D14        0.00694   0.00003   0.00000   0.00017   0.00017   0.00711
   D15       -0.01202  -0.00008   0.00000  -0.00038  -0.00037  -0.01240
   D16        3.13428  -0.00008   0.00000  -0.00055  -0.00054   3.13374
   D17        3.12987   0.00009   0.00000   0.00049   0.00049   3.13036
   D18       -0.00701   0.00009   0.00000   0.00032   0.00032  -0.00669
   D19        3.13791   0.00001   0.00000  -0.00050  -0.00050   3.13742
   D20       -0.00341   0.00012   0.00000   0.00019   0.00019  -0.00322
   D21       -0.00834   0.00000   0.00000  -0.00035  -0.00035  -0.00868
   D22        3.13353   0.00012   0.00000   0.00034   0.00034   3.13387
   D23       -3.00012  -0.00091   0.00000  -0.00383  -0.00383  -3.00395
   D24        0.14269  -0.00085   0.00000  -0.00365  -0.00364   0.13905
   D25        0.14599  -0.00091   0.00000  -0.00396  -0.00396   0.14202
   D26       -2.99438  -0.00085   0.00000  -0.00378  -0.00378  -2.99816
   D27        0.02231  -0.00002   0.00000   0.00046   0.00046   0.02278
   D28        3.13573   0.00061   0.00000   0.00221   0.00221   3.13794
   D29       -3.11901   0.00010   0.00000   0.00116   0.00117  -3.11784
   D30       -0.00560   0.00072   0.00000   0.00291   0.00291  -0.00268
   D31        0.13507  -0.00063   0.00000  -0.00389  -0.00390   0.13118
   D32       -3.01080  -0.00004   0.00000  -0.00038  -0.00037  -3.01117
   D33       -2.97823  -0.00114   0.00000  -0.00564  -0.00565  -2.98388
   D34        0.15908  -0.00054   0.00000  -0.00213  -0.00212   0.15696
   D35       -3.04265  -0.00155   0.00000  -0.00580  -0.00579  -3.04843
   D36       -0.00659   0.00013   0.00000  -0.00073  -0.00073  -0.00732
   D37        0.09461  -0.00092   0.00000  -0.00219  -0.00220   0.09241
   D38        3.13066   0.00076   0.00000   0.00287   0.00286   3.13352
         Item               Value     Threshold  Converged?
 Maximum Force            0.253677     0.000450     NO 
 RMS     Force            0.047955     0.000300     NO 
 Maximum Displacement     0.114843     0.001800     NO 
 RMS     Displacement     0.032277     0.001200     NO 
 Predicted change in Energy=-8.655913D-02
 Lowest energy point so far.  Saving SCF results.
 GradGradGradGradGradGradGradGradGradGradGradGradGradGradGradGradGradGrad

 Leave Link  103 at Thu Aug 26 12:25:31 2021, MaxMem= 24159191040 cpu:         4.3
 (Enter /public/home/users/caep010/software/Gaussian09/g09/l202.exe)
                          Input orientation:                          
 ---------------------------------------------------------------------
 Center     Atomic      Atomic             Coordinates (Angstroms)
 Number     Number       Type             X           Y           Z
 ---------------------------------------------------------------------
      1          8           0        2.889755    4.480187    3.815460
      2          6           0        2.565838    3.220755    4.121260
      3          6           0        3.172323    2.196720    3.376238
      4          1           0        3.823337    2.435822    2.659108
      5          6           0        2.872557    0.874495    3.630643
      6          6           0        1.951133    0.575399    4.632860
      7          6           0        1.341537    1.561529    5.386855
      8          1           0        2.429398    5.031642    4.338718
      9          1           0        3.303413    0.141528    3.109457
     10          1           0        0.685623    1.301396    6.091213
     11          6           0        1.647356    2.903351    5.155499
     12          6           0        1.021866    4.012716    5.930090
     13          8           0        1.192322    5.191913    5.584575
     14          7           0        1.616471   -0.819967    4.906686
     15          8           0        0.695713   -1.045780    5.690003
     16          7           0        0.273527    3.714806    7.002754
     17          1           0       -0.183628    4.436201    7.440776
     18          1           0        0.128478    2.831907    7.274768
     19          8           0        2.265781   -1.693821    4.347737
 ---------------------------------------------------------------------
                    Distance matrix (angstroms):
                    1          2          3          4          5
     1  O    0.000000
     2  C    1.335891   0.000000
     3  C    2.342430   1.404111   0.000000
     4  H    2.527479   2.082141   0.997629   0.000000
     5  C    3.610466   2.416550   1.379442   2.070170   0.000000
     6  C    4.098356   2.763604   2.387276   3.295758   1.393886
     7  C    3.658527   2.419437   2.792458   3.790029   2.429056
     8  H    0.888724   1.828993   3.084653   3.391524   4.240239
     9  H    4.415146   3.324064   2.076578   2.395188   0.997253
    10  H    4.487979   3.331645   3.788980   4.786597   3.319537
    11  C    2.413643   1.419156   2.447574   3.344464   2.818254
    12  C    2.859929   2.506575   3.800587   4.586301   4.308241
    13  O    2.552959   2.813059   4.215250   4.803814   5.028035
    14  N    5.559106   4.224408   3.723352   4.530124   2.465206
    15  O    6.234103   4.915450   4.690514   5.575833   3.559083
    16  N    4.193960   3.715076   4.884590   5.753626   5.117954
    17  H    4.752950   4.478399   5.726967   6.551460   6.045091
    18  H    4.723165   4.004565   4.986681   5.925638   4.963978
    19  O    6.228245   4.928933   4.111197   4.725611   2.734712
                    6          7          8          9         10
     6  C    0.000000
     7  C    1.382956   0.000000
     8  H    4.491476   3.784669   0.000000
     9  H    2.082706   3.324440   5.117441   0.000000
    10  H    2.062857   0.997002   4.475123   4.133883   0.000000
    11  C    2.405159   1.395541   2.410051   3.815295   2.089677
    12  C    3.789656   2.530931   2.356230   5.305424   2.736837
    13  O    4.774281   3.638824   1.763010   6.007438   3.955951
    14  N    1.460830   2.444928   5.935046   2.645804   2.601877
    15  O    2.306914   2.703156   6.462716   3.856037   2.381241
    16  N    4.276288   2.896269   3.671366   6.091493   2.612523
    17  H    5.229473   3.848176   4.099417   7.025952   3.521920
    18  H    3.923465   2.578680   4.330527   5.887968   2.013374
    19  O    2.308605   3.539957   6.727459   2.445102   3.808928
                   11         12         13         14         15
    11  C    0.000000
    12  C    1.490611   0.000000
    13  O    2.372484   1.240540   0.000000
    14  N    3.731750   4.975514   6.064828   0.000000
    15  O    4.097189   5.074683   6.258318   1.229786   0.000000
    16  N    2.440946   1.341406   2.244384   5.173119   4.956282
    17  H    3.305242   1.978567   2.431012   6.106494   5.821561
    18  H    2.608332   2.000153   3.091625   4.599795   4.227256
    19  O    4.708388   6.051093   7.077811   1.223784   2.164890
                   16         17         18         19
    16  N    0.000000
    17  H    0.959826   0.000000
    18  H    0.935169   1.642781   0.000000
    19  O    6.345978   7.289970   5.798085   0.000000
 Stoichiometry    C7H6N2O4
 Framework group  C1[X(C7H6N2O4)]
 Deg. of freedom    51
 Full point group                 C1      NOp   1
 RotChk:  IX=0 Diff= 1.31D-03
 Largest Abelian subgroup         C1      NOp   1
 Largest concise Abelian subgroup C1      NOp   1
                         Standard orientation:                         
 ---------------------------------------------------------------------
 Center     Atomic      Atomic             Coordinates (Angstroms)
 Number     Number       Type             X           Y           Z
 ---------------------------------------------------------------------
      1          8           0        2.288802    1.896850    0.003788
      2          6           0        1.100574    1.286433   -0.006757
      3          6           0       -0.044876    2.098491   -0.012596
      4          1           0        0.061034    3.090466   -0.018207
      5          6           0       -1.303309    1.533513   -0.009947
      6          6           0       -1.415935    0.144301    0.008049
      7          6           0       -0.306667   -0.681587    0.008742
      8          1           0        2.929252    1.281120    0.026791
      9          1           0       -2.121435    2.103679   -0.019656
     10          1           0       -0.434753   -1.670184    0.025588
     11          6           0        0.973779   -0.127034   -0.012846
     12          6           0        2.208630   -0.961928   -0.008736
     13          8           0        3.321357   -0.434011    0.139862
     14          7           0       -2.742212   -0.467946    0.021059
     15          8           0       -2.810542   -1.684706    0.185978
     16          7           0        2.096056   -2.289194   -0.167050
     17          1           0        2.893559   -2.816665   -0.083221
     18          1           0        1.265667   -2.705791   -0.274019
     19          8           0       -3.717543    0.254894   -0.133477
 ---------------------------------------------------------------------
 Rotational constants (GHZ):      1.5003436      0.5436111      0.4000669
 Leave Link  202 at Thu Aug 26 12:25:31 2021, MaxMem= 24159191040 cpu:         0.3
 (Enter /public/home/users/caep010/software/Gaussian09/g09/l301.exe)
 Standard basis: GTBas3 (6D, 7F)
 Ernie: Thresh=  0.10000D-02 Tol=  0.10000D-05 Strict=F.
 There are   433 symmetry adapted cartesian basis functions of A   symmetry.
 There are   394 symmetry adapted basis functions of A   symmetry.
   394 basis functions,   614 primitive gaussians,   433 cartesian basis functions
    47 alpha electrons       47 beta electrons
       nuclear repulsion energy       774.7689714686 Hartrees.
 IExCor=  402 DFT=T Ex+Corr=B3LYP ExCW=0 ScaHFX=  0.200000
 ScaDFX=  0.800000  0.720000  1.000000  0.810000 ScalE2=  1.000000  1.000000
 IRadAn=      0 IRanWt=     -1 IRanGd=            0 ICorTp=0 IEmpDi=  4
 NAtoms=   19 NActive=   19 NUniq=   19 SFac= 1.00D+00 NAtFMM=   60 NAOKFM=F Big=F
 Integral buffers will be    131072 words long.
 Raffenetti 2 integral format.
 Two-electron integral symmetry is turned on.
 Leave Link  301 at Thu Aug 26 12:25:31 2021, MaxMem= 24159191040 cpu:         1.7
 (Enter /public/home/users/caep010/software/Gaussian09/g09/l302.exe)
 NPDir=0 NMtPBC=     1 NCelOv=     1 NCel=       1 NClECP=     1 NCelD=      1
         NCelK=      1 NCelE2=     1 NClLst=     1 CellRange=     0.0.
 One-electron integrals computed using PRISM.
 NBasis=   394 RedAO= T EigKep=  9.97D-05  NBF=   394
 NBsUse=   394 1.00D-06 EigRej= -1.00D+00 NBFU=   394
 Precomputing XC quadrature grid using
 IXCGrd= 4 IRadAn=           0 IRanWt=          -1 IRanGd=           0 AccXCQ= 0.00D+00.
 Generated NRdTot=       0 NPtTot=           0 NUsed=           0 NTot=          32
 NSgBfM=   432   432   432   432   432 MxSgAt=    19 MxSgA2=    19.
 Leave Link  302 at Thu Aug 26 12:25:32 2021, MaxMem= 24159191040 cpu:        18.2
 (Enter /public/home/users/caep010/software/Gaussian09/g09/l303.exe)
 DipDrv:  MaxL=1.
 Leave Link  303 at Thu Aug 26 12:25:32 2021, MaxMem= 24159191040 cpu:         1.0
 (Enter /public/home/users/caep010/software/Gaussian09/g09/l401.exe)
 Initial guess from the checkpoint file:  "/public/home/users/caep010/.cache/gau_scr/Gau-210132.chk"
 B after Tr=     0.000000   -0.000000    0.000000
         Rot=    1.000000   -0.000077   -0.000066   -0.000482 Ang=  -0.06 deg.
 Guess basis will be translated and rotated to current coordinates.
 JPrj=2 DoOrth=T DoCkMO=T.
 Generating alternative initial guess.
 ExpMin= 1.61D-01 ExpMax= 5.48D+03 ExpMxC= 8.25D+02 IAcc=1 IRadAn=         1 AccDes= 0.00D+00
 Harris functional with IExCor=  402 and IRadAn=       1 diagonalized for initial guess.
 HarFok:  IExCor=  402 AccDes= 0.00D+00 IRadAn=         1 IDoV= 1 UseB2=F ITyADJ=14
 ICtDFT=  3500011 ScaDFX=  1.000000  1.000000  1.000000  1.000000
 FoFCou: FMM=F IPFlag=           0 FMFlag=      100000 FMFlg1=           0
         NFxFlg=           0 DoJE=T BraDBF=F KetDBF=T FulRan=T
         wScrn=  0.000000 ICntrl=     500 IOpCl=  0 I1Cent=   200000004 NGrid=           0
         NMat0=    1 NMatS0=      1 NMatT0=    0 NMatD0=    1 NMtDS0=    0 NMtDT0=    0
 Petite list used in FoFCou.
 Harris En= -680.757076481859    
 Leave Link  401 at Thu Aug 26 12:25:33 2021, MaxMem= 24159191040 cpu:        27.3
 (Enter /public/home/users/caep010/software/Gaussian09/g09/l502.exe)
 Closed shell SCF:
 Using DIIS extrapolation, IDIIS=  1040.
 Integral symmetry usage will be decided dynamically.
 Keep R1 ints in memory in canonical form, NReq=3069097054.
[...]
 44409,-0.15889318,-0.29544647,-0.02774280,0.45024149,-0.00087130,-0.00
 061174,-0.00272022,-0.00521600,-0.00606662,0.01079844,-0.16629160,-0.0
 4563736,0.14481547,0.16937687,-0.00106617,0.00234279,0.00146693,0.0160
 7371,0.00871173,-0.01780902,-0.04686580,-0.07401368,0.05043404,0.05091
 109,0.07462008,-0.00280520,0.00102193,-0.00010543,0.01221308,0.0067025
 4,-0.00862051,0.14483319,0.04936439,-0.19408982,-0.15892006,-0.0542753
 3,0.19989950,-0.00165233,0.01041121,0.00742594,0.02670188,-0.00439206,
 -0.03006500,-0.09922648,-0.03562471,0.04816674,-0.00135740,-0.02037832
 ,0.00177775,0.38102044,0.00009329,0.01375626,0.00051182,0.02360373,-0.
 05870544,-0.02965986,-0.07569215,-0.35822658,0.06670239,-0.00027818,-0
 .00380484,-0.00014061,-0.00449692,0.74779327,0.00693817,-0.01110388,-0
 .00377585,-0.02843852,0.00172482,0.03184158,0.04558466,0.02150121,-0.1
 0430660,0.00302212,0.02253032,-0.00064843,-0.26882505,0.04156218,0.441
 37880,0.00189067,-0.00937586,-0.00282542,-0.02648928,0.01825345,0.0231
 6420,0.00092890,-0.05184807,0.00400634,0.00522477,-0.00026913,0.002824
 50,-0.17356169,-0.00013326,0.12140007,0.39896717,-0.00285016,-0.010015
 06,0.00253020,0.01650341,0.00241134,-0.01798212,-0.02387347,-0.0054471
 1,0.02597237,-0.00105748,-0.00466404,0.00044734,-0.03600174,-0.1123005
 2,0.03678096,-0.02621608,0.57508633,-0.00245353,0.00990347,0.00312423,
 0.02330487,-0.01985500,-0.03357155,0.00558114,0.05729544,0.00462446,0.
 00275088,-0.00039572,0.00458551,0.11878472,-0.00343335,-0.19676047,-0.
 29394847,0.05776388,0.46568976,0.00058034,0.00082489,0.00669161,0.0000
 4195,-0.02857209,-0.00037164,-0.00409526,0.01085951,0.00019827,0.00021
 086,0.00018332,-0.00026181,-0.01494668,0.00669469,0.02933599,-0.135766
 62,0.08910311,0.08593198,0.40725699,0.00599779,-0.00084516,-0.00724926
 ,-0.05382335,0.00817080,0.06012073,0.00592545,-0.05023746,-0.00926844,
 0.00069184,-0.00131274,-0.00070923,0.03329051,0.04131574,-0.03514638,0
 .05369678,-0.20636456,-0.06878386,0.02924386,0.68414523,0.00680290,-0.
 00104076,-0.00144134,-0.00161531,0.03202707,0.00489106,-0.00003129,-0.
 01484292,-0.00535248,-0.00022602,-0.00028969,0.00023199,0.03105983,-0.
 00523983,-0.02378503,0.08344454,-0.10889338,-0.16351712,-0.29726968,0.
 00631799,0.46283514,-0.12749521,0.09175887,0.11620733,0.01248912,0.013
 55532,-0.01241127,0.00248561,-0.01055991,0.00134554,-0.00044054,0.0003
 4223,-0.00008907,0.00376328,0.00352094,-0.00218315,-0.00273943,-0.0013
 0896,0.00315058,-0.00105698,-0.00124168,0.00056983,0.11474772,0.078761
 31,-0.13678333,-0.08930470,0.01839552,-0.05591618,-0.02227392,-0.00333
 828,0.00044456,0.00348036,0.00011560,-0.00009126,-0.00010079,-0.000353
 78,-0.00245453,0.00018703,0.00126333,0.00184047,-0.00132338,0.00102023
 ,-0.00085644,-0.00126225,-0.08914359,0.20747783,0.11583119,-0.10275372
 ,-0.15309179,-0.01246349,-0.01788680,0.01349227,0.00160575,0.01149074,
 0.00278461,-0.00012364,-0.00033911,-0.00045803,-0.00234616,-0.00422358
 ,0.00409100,0.00326525,0.00162385,-0.00343835,0.00049394,0.00135467,-0
 .00121765,-0.09495366,0.10286993,0.13760044,0.00006343,-0.00042620,-0.
 00048248,0.00508774,-0.00205376,0.00485965,0.00764141,-0.00662367,-0.0
 0393091,-0.00229619,0.00037742,-0.00263548,-0.10122358,0.09102490,0.07
 300054,-0.00346943,0.01579119,0.01107717,-0.00049286,-0.00198631,0.004
 26043,-0.00035492,-0.00006837,-0.00016309,0.09648248,0.00079644,-0.001
 12359,-0.00089459,-0.00212705,-0.00289298,0.00163489,0.01261078,-0.015
 37957,-0.01530209,0.00014695,0.00126177,0.00018594,0.09229858,-0.21391
 023,-0.11330211,-0.00243659,0.00883204,0.00292911,-0.00170614,0.000243
 66,0.00165718,-0.00028041,-0.00017441,0.00032196,-0.09822023,0.2264309
 1,-0.00043054,0.00034486,0.00013069,0.00494267,0.00161174,0.00412146,-
 0.00269530,0.00639248,0.00788592,-0.00265919,-0.00008812,-0.00170649,0
 .07304462,-0.11201021,-0.12884162,0.00990134,-0.01735989,-0.00652393,0
 .00432810,0.00198993,-0.00114888,-0.00019726,0.00010683,-0.00027237,-0
 .08315614,0.12149952,0.12725542,-0.00025093,-0.00012794,-0.00007033,0.
 00453311,-0.00046245,0.00257851,0.00029380,0.00010162,-0.00031678,-0.0
 0043565,-0.00002159,-0.00034112,0.00169710,0.00257659,0.00262490,-0.00
 518308,-0.00473880,0.01238256,-0.17054152,-0.05201739,0.14170150,-0.00
 007115,0.00011825,0.00019405,0.00003705,-0.00033204,0.00075935,0.17409
 262,-0.00088098,-0.00108942,0.00102232,0.00008294,-0.00464166,-0.00095
 762,-0.00004195,-0.00094566,-0.00006779,0.00000194,0.00007597,0.000076
 22,0.00189598,-0.00394344,-0.00263495,0.01441307,0.01115585,-0.0154435
 0,-0.05477374,-0.07693942,0.05621768,-0.00066461,0.00062290,0.00073341
 ,0.00087810,0.00062520,-0.00100875,0.05651831,0.07954385,-0.00016368,0
 .00002886,-0.00017667,0.00277439,-0.00010729,0.00411622,-0.00032826,-0
 .00027510,0.00033226,-0.00034558,0.00007280,-0.00036489,0.00264726,-0.
 00354823,0.00084892,0.01404315,0.00576293,-0.00859133,0.14055578,0.052
 71323,-0.18662456,0.00011725,-0.00005026,-0.00001670,0.00088349,0.0003
 8455,-0.00018922,-0.15965122,-0.05620936,0.19483321,-0.00011507,-0.023
 35411,0.01344438,-0.15112423,-0.02231357,0.08992676,-0.00687411,0.0226
 9459,0.02129706,0.00196421,0.00129107,0.00284443,-0.01377690,-0.010510
 49,0.00966421,0.02086407,-0.00183017,-0.01404844,-0.09437792,-0.034229
 61,0.04131363,-0.00526875,0.00202832,0.00277296,-0.00034448,-0.0005370
 8,-0.00041679,-0.00014480,-0.01794332,0.00208909,0.34104062,-0.0333318
 3,-0.01287706,0.03627085,0.00428560,-0.13595459,-0.00704896,0.00842250
 ,0.04390891,-0.00759749,0.00211158,-0.00332672,-0.00289086,-0.02290263
 ,-0.02469149,0.02423040,0.02851248,-0.06018268,-0.03636664,-0.06551605
 ,-0.30637783,0.05465551,0.00181033,-0.00007799,-0.00175296,-0.00067794
 ,-0.00046019,0.00076341,-0.00060167,-0.00266329,0.00106573,0.03870044,
 0.68399319,0.01296114,0.02558487,-0.00026620,0.09151172,0.02178369,-0.
 17278543,0.01962970,-0.02324184,-0.01374359,0.00302293,-0.00186527,0.0
 0123400,0.00881967,0.01039445,-0.01381324,-0.01247731,-0.00208216,0.02
 162149,0.04026156,0.02074418,-0.09773900,0.00298510,-0.00226799,-0.006
 22976,-0.00033141,0.00061791,-0.00009572,0.00305515,0.01969502,0.00056
 200,-0.23733318,-0.00906218,0.40098582,0.00104182,0.00329542,-0.003964
 14,-0.01053496,0.01690928,0.01641930,-0.00052387,-0.00055992,0.0059426
 2,-0.00028800,0.00083956,0.00033577,-0.00244716,-0.00295463,0.00191397
 ,0.00678951,-0.00888903,0.00042180,0.00596118,0.00825796,-0.00950834,-
 0.00474370,-0.00680150,0.00568959,-0.00051091,0.00004226,-0.00020572,-
 0.00330648,-0.00142300,-0.00101043,-0.11009161,0.02333457,0.04126908,0
 .40642201,0.01160205,-0.04297669,-0.01440908,0.01389612,0.04717748,-0.
 01421443,-0.00127277,-0.00682224,0.00120314,-0.00098235,0.00091429,0.0
 0113109,0.00336362,0.00516236,-0.00336749,-0.00890575,0.00187875,0.009
 51781,0.01222159,-0.03806063,-0.01520597,-0.03319945,0.01256677,0.0373
 9152,0.00005139,-0.00021371,-0.00011110,0.00012744,0.00067591,0.000028
 96,0.02104078,-0.13382037,-0.02803986,0.07164666,0.83526886,-0.0044816
 8,-0.00447267,0.00206919,0.01526526,-0.01776019,-0.01606550,0.00626211
 ,0.00012891,-0.00173028,0.00022597,-0.00090278,-0.00037421,0.00229038,
 0.00374636,-0.00277124,0.00050350,0.00983806,0.00808668,-0.00908741,-0
 .01169284,0.00660519,0.00558326,0.00817703,-0.00616431,-0.00024473,-0.
 00000380,-0.00054031,-0.00108724,0.00205428,-0.00353326,0.04024534,-0.
 03184764,-0.12610883,-0.24886535,-0.08417926,0.51247105,-0.01604522,0.
 02552760,0.02641719,-0.00620926,-0.01803642,0.00397286,-0.00007513,0.0
 0485442,-0.00011465,0.00023964,-0.00029950,-0.00029155,-0.00139933,-0.
 00183783,0.00156678,0.00111447,0.00165338,-0.00295979,0.00011863,0.001
 75381,0.00363181,0.00420337,-0.00048609,-0.01689238,0.00008762,0.00009
 108,-0.00001496,0.00072826,0.00065030,0.00003054,0.02244979,0.00711985
 ,-0.00320759,-0.10864245,-0.07525571,0.03874570,0.10715832,0.00015641,
 0.02638915,0.00102660,-0.00865088,-0.01801192,0.00892377,-0.00077414,0
 .00488587,0.00087226,0.00027512,-0.00010114,-0.00030805,-0.00266221,-0
 .00358452,0.00273386,0.00280095,-0.00343758,-0.00360470,0.00478674,0.0
 0503021,-0.00520235,0.01674220,-0.02103637,-0.01916386,0.00006534,0.00
 013196,-0.00000104,0.00014115,0.00104823,0.00013401,0.00177845,-0.0627
 7515,-0.00346935,-0.08644676,-0.55216913,0.10358970,0.10836897,0.65710
 884,0.02586324,-0.02818408,-0.02271606,0.00476878,0.01999821,-0.006319
 58,-0.00036621,-0.00511640,-0.00002697,-0.00026700,0.00032976,0.000330
 82,0.00149763,0.00176895,-0.00150046,-0.00278248,-0.00209939,0.0013357
 8,0.00375608,-0.00168086,-0.00080296,-0.01666364,-0.00011000,0.0073091
 0,-0.00005133,-0.00009838,0.00007635,-0.00005125,-0.00083855,0.0007212
 8,-0.00276950,-0.01119398,0.02287850,0.03807509,0.09056381,-0.12264115
 ,-0.07987248,-0.12945556,0.13689609,-0.00002389,0.00256257,-0.00042495
 ,-0.00342142,-0.00151271,0.00226420,-0.00023484,0.00079868,0.00758740,
 0.00077058,-0.00112293,0.00069358,-0.00409513,-0.02511477,0.00004498,-
 0.09618398,-0.00447163,0.01605807,0.00916428,0.00226493,-0.01177231,0.
 00041039,-0.00051378,-0.00061718,-0.00311399,0.00053052,-0.00104211,-0
 .00478213,0.00229560,-0.00061808,0.00270563,0.00776357,0.00570870,0.00
 461256,-0.00094016,-0.00249664,-0.00125163,0.00104936,0.00064416,0.547
 69843,0.00159937,0.01277586,-0.00099723,-0.00296505,-0.01186409,0.0027
 8788,-0.00001164,0.01246914,0.00028044,0.00025648,0.00076357,-0.000377
 01,-0.02089409,-0.02043831,0.02220172,-0.00675393,-0.12283859,0.004760
 05,0.00113234,-0.05179238,-0.00410648,0.00236004,-0.00250781,-0.002776
 13,0.00348865,0.00041641,-0.00362003,-0.00136019,0.00216159,0.00183207
 ,0.00620970,0.01053621,-0.00698597,0.00422498,-0.00373440,-0.00538721,
 -0.00168867,0.00196769,0.00217966,-0.04589056,0.68185640,-0.00045245,-
 0.00205451,-0.00017974,0.00205102,0.00112323,-0.00348388,0.00757070,-0
 .00056825,-0.00189939,0.00077208,0.00119310,0.00063281,0.00052318,0.02
 683805,-0.00133913,0.01562266,0.00250874,-0.09850886,-0.01212190,-0.00
 625231,0.01082672,-0.00045812,0.00042253,0.00042136,-0.00084333,-0.000
 30146,-0.00317835,-0.00064908,-0.00204786,-0.00463366,0.00576077,-0.00
 815285,0.00060974,-0.00194974,0.00050438,0.00491209,0.00041895,-0.0009
 9914,-0.00141395,-0.34552382,0.08001749,0.62908976,0.00007741,-0.00279
 935,-0.00023899,0.00072461,0.00282514,-0.00031909,-0.00049705,-0.00198
 271,-0.00071278,-0.00040318,-0.00027451,-0.00026863,0.00394202,-0.0019
 2259,-0.00025111,-0.00779506,-0.02698865,0.02875071,-0.00203922,0.0086
 9540,0.00380244,-0.00072986,0.00057128,0.00083001,0.00096711,0.0007578
 2,-0.00054207,0.00108867,-0.00181336,-0.00137367,-0.00040899,-0.003747
 88,-0.00025329,-0.00198259,0.00067691,0.00215110,0.00074087,-0.0002597
 1,-0.00082015,-0.27396527,-0.05994288,0.21199249,0.30795084,-0.0003274
 3,-0.00319636,0.00020059,-0.00045355,0.00268676,0.00061593,-0.00146662
 ,-0.00240260,0.00155408,-0.00007607,-0.00074812,0.00009999,0.00305073,
 -0.00537831,-0.00400450,-0.03478366,-0.01363697,0.03646183,-0.00150267
 ,-0.00490157,0.00121881,-0.00057121,0.00069440,0.00066357,-0.00042049,
 0.00002257,0.00044311,-0.00210203,-0.00418437,0.00210095,-0.00130606,-
 0.00030890,0.00145899,-0.00126216,0.00140383,0.00159446,0.00055343,-0.
 00088085,-0.00068537,-0.06756857,-0.15575404,0.07005169,0.06677615,0.1
 5376423,-0.00009427,0.00291377,0.00030074,-0.00051451,-0.00299584,0.00
 067169,-0.00068515,0.00211014,-0.00013014,-0.00027344,0.00029687,-0.00
 033143,0.00009531,0.00151854,0.00388829,0.02827208,0.02777092,-0.00990
 498,0.00332621,-0.00997124,-0.00307135,0.00076609,-0.00059410,-0.00090
 406,-0.00062750,-0.00086611,0.00105964,-0.00150214,0.00169638,0.001553
 38,-0.00018400,0.00413586,-0.00012861,0.00191236,-0.00064050,-0.002501
 64,-0.00070934,0.00021166,0.00097141,0.21142783,0.06166698,-0.31090795
 ,-0.30466917,-0.06609408,0.36429526,-0.00231597,0.00118099,0.00235930,
 0.00207892,0.00182864,-0.00066109,-0.00039129,0.00026140,-0.00020101,-
 0.00013713,0.00010162,0.00007992,0.00026793,0.00053616,-0.00034356,-0.
 00143702,0.00273203,0.00112946,-0.00101502,-0.00498495,0.00193786,0.00
 441663,-0.00117782,-0.00353234,0.00011400,-0.00000013,-0.00000594,-0.0
 0029964,0.00086826,-0.00001211,-0.00734965,0.00767951,0.02273217,-0.16
 716481,-0.01403290,0.14237238,-0.00366697,-0.03602811,0.02794759,-0.00
 164756,-0.00279127,0.00144328,0.00121504,0.00091937,-0.00111258,0.2807
 4044,-0.00343288,0.00839380,0.00403913,-0.00093062,-0.01188750,0.00036
 018,0.00132285,0.00161490,-0.00122883,0.00029212,-0.00048381,-0.000364
 80,0.00020331,-0.00030250,-0.00016553,0.00026453,0.00145420,0.00009183
 ,0.00000342,-0.00092233,-0.00011353,0.00744341,-0.00484429,-0.00832537
 ,-0.00000886,0.00008795,-0.00006912,0.00104395,-0.00026221,-0.00177281
 ,0.02009384,0.01103335,-0.02490593,-0.01357336,-0.13916846,0.01874338,
 -0.05465517,-0.03398867,0.06592875,-0.00012909,0.00036969,0.00015038,0
 .00006634,-0.00031534,-0.00007086,-0.01783574,0.89086577,0.00244811,-0
 .00130761,-0.00290229,-0.00065310,-0.00274846,0.00206519,-0.00009946,-
 0.00026359,-0.00059165,0.00012371,-0.00014168,-0.00016493,-0.00021724,
 -0.00052426,0.00015875,0.00090345,-0.00244179,-0.00177686,0.00173330,0
 .00431680,-0.00122431,-0.00369699,0.00134249,0.00518362,0.00003119,-0.
 00000362,0.00009424,0.00045198,-0.00071032,-0.00047768,0.02309395,-0.0
 0744024,-0.01701527,0.15458057,0.02338160,-0.23599798,0.02722189,0.041
 45657,-0.01527606,0.00138482,0.00297254,-0.00149431,-0.00101072,-0.001
 02203,0.00122168,-0.35695554,-0.02669821,0.52223594,0.00042806,-0.0006
 3306,-0.00056170,0.00049202,0.00134685,0.00063968,-0.00045336,-0.00023
 164,0.00000490,-0.00003953,0.00007796,0.00004216,0.00004715,-0.0001414
 5,0.00003013,0.00032318,0.00000657,-0.00007086,-0.00029827,-0.00053050
 ,-0.00032937,-0.00082549,0.00032025,0.00076047,-0.00000361,0.00001176,
 -0.00003199,0.00004795,0.00031709,-0.00034021,0.00115453,-0.00271993,0
 .00464237,-0.00889852,0.02151631,0.01475540,-0.00039223,-0.00004142,-0
 .00675168,0.00000754,0.00027908,-0.00003563,-0.00005239,-0.00010916,0.
 00001680,-0.07352609,0.10369033,0.09877199,0.08157282,-0.00004205,-0.0
 0017712,0.00004339,0.00000169,0.00065441,-0.00004166,-0.00003065,-0.00
 009043,0.00002186,-0.00001990,0.00004080,0.00003441,0.00007581,0.00008
 510,-0.00006907,-0.00012036,0.00039258,0.00011639,-0.00013681,-0.00064
 541,0.00013889,0.00003637,0.00007314,-0.00001649,0.00001738,0.00000674
 ,-0.00001525,0.00019279,0.00022794,-0.00011254,-0.00166669,0.00014772,
 0.00206413,-0.00067624,0.01296073,0.00113372,-0.00001760,-0.00295832,0
 .00013601,-0.00012517,-0.00025964,0.00010772,0.00007268,0.00004959,-0.
 00007942,0.10842856,-0.30561490,-0.15471818,-0.11694380,0.30703415,-0.
 00057926,0.00072459,0.00058863,0.00055360,-0.00184696,0.00012028,0.000
 08846,0.00038629,-0.00044077,0.00004958,-0.00010449,-0.00006278,-0.000
 02469,0.00011986,0.00008723,-0.00006774,-0.00019493,0.00023631,-0.0001
 6943,0.00090481,0.00000470,0.00077368,-0.00034617,-0.00090925,-0.00002
 928,-0.00001295,0.00001007,-0.00035206,-0.00027126,0.00015619,0.004437
 54,0.00319093,-0.00053060,0.00911248,-0.02700494,-0.01354561,-0.005779
 02,0.00147451,0.00237919,0.00003689,-0.00018279,-0.00009233,-0.0000332
 4,0.00008632,0.00002119,0.10553466,-0.15845282,-0.15665752,-0.10470715
 ,0.16936411,0.16039642,-0.00021938,0.00092030,0.00009104,-0.00046661,-
 0.00073442,0.00026341,-0.00001780,0.00001460,-0.00011345,0.00001789,-0
 .00001858,-0.00001361,0.00018354,-0.00007071,-0.00002872,-0.00029074,0
 .00022764,-0.00035083,-0.00053462,0.00002262,0.00051255,0.00108309,-0.
 00050997,-0.00022362,0.00008148,0.00002224,0.00002968,0.00172602,0.000
 92650,0.00078571,-0.00071917,0.00001346,-0.00119213,-0.00479845,-0.021
 63945,-0.00208192,0.00064007,-0.00136250,0.00776462,0.00021139,0.00054
 885,-0.00015733,-0.00027135,-0.00029611,0.00006765,-0.03014152,-0.0438
 9679,0.05202229,0.00040007,0.01094782,-0.00881378,0.03315739,0.0000421
 6,-0.00003362,-0.00007668,-0.00042021,-0.00042775,0.00030728,-0.000047
 23,-0.00012322,0.00005722,0.00002046,-0.00002507,-0.00000370,-0.000062
 36,0.00006178,-0.00003144,-0.00013246,-0.00099096,-0.00001593,0.002161
 93,0.00075778,-0.00231141,-0.00010234,0.00016287,0.00019004,-0.0000256
 4,-0.00002838,0.00006690,0.00090503,-0.00235760,-0.00202062,0.00003406
 ,-0.00121222,-0.00035958,-0.00369876,-0.00273695,0.00442290,0.00106281
 ,0.00420340,-0.00059498,0.00068648,0.00025493,-0.00070801,-0.00041465,
 -0.00002375,0.00050142,-0.04880131,-0.41570204,0.12579256,-0.00608809,
 -0.01204850,0.01206848,0.05510945,0.43020141,0.00026582,-0.00147158,-0
 .00047862,0.00021604,0.00112092,-0.00037366,-0.00018417,-0.00020421,0.
 00006063,-0.00001960,0.00002430,0.00003068,-0.00008265,0.00025895,0.00
 015357,-0.00041877,-0.00077815,0.00013631,0.00124523,0.00136049,-0.001
 46530,-0.00070953,0.00077094,0.00162039,-0.00003235,-0.00005185,0.0001
 1496,0.00032063,-0.00279375,0.00065713,-0.00030838,-0.00096603,-0.0002
 4754,-0.00994588,0.02333253,-0.00146279,0.00771043,0.00196842,-0.00235
 532,0.00008371,-0.00050847,-0.00008821,-0.00010142,0.00035504,-0.00004
 758,0.05741485,0.13292497,-0.09750917,-0.00681082,-0.01811325,0.008193
 81,-0.04858667,-0.13753414,0.09297423,0.00030920,0.00084465,-0.0003298
 7,-0.00006448,-0.00131480,0.00029388,0.00076678,0.00148365,-0.00126456
 ,-0.00002829,0.00011855,-0.00001788,-0.00393666,-0.00489731,0.00494360
 ,0.01681360,0.01220886,0.00450798,0.00183075,-0.00102717,0.00171497,0.
 00012683,-0.00020091,-0.00012765,0.00124767,-0.00166877,-0.00160773,0.
 00077081,-0.00130715,-0.00008342,0.00041682,-0.00025594,-0.00180439,-0
 .00089358,0.00008567,-0.00005543,0.00020119,0.00006104,0.00007851,-0.1
 7686095,0.12219880,0.11603629,-0.02856163,0.04094611,0.06448776,0.0002
 5972,0.00003841,-0.00013418,0.00001617,0.00000617,-0.00003128,-0.00004
 130,-0.00022933,-0.00005646,0.18762737,-0.00083296,-0.00418437,0.00069
 869,0.00211020,0.00324291,-0.00221477,0.00052501,-0.00245968,-0.000698
 93,-0.00009348,-0.00015959,0.00010651,0.00317906,-0.00043381,-0.003627
 15,0.02177056,-0.06317347,-0.02961772,-0.00602814,-0.00040748,0.006275
 46,-0.00049754,0.00085965,0.00059834,-0.00118289,-0.00387614,0.0010647
 5,0.00003895,0.00088963,-0.00002788,-0.00018015,-0.00489093,-0.0000631
 1,-0.00226532,0.00169362,0.00281759,0.00064136,-0.00182169,-0.00084763
 ,0.12943767,-0.35438223,-0.16183293,0.01970457,0.03310979,-0.02151040,
 0.00111570,-0.00032762,-0.00124256,-0.00012717,0.00012142,0.00009742,-
 0.00022493,0.00006788,0.00030488,-0.16709050,0.39613211,-0.00044491,-0
 .00118559,0.00038772,0.00049999,0.00161418,-0.00024112,-0.00130570,-0.
 00176919,0.00093315,-0.00002646,-0.00013689,-0.00001836,0.00542777,0.0
 0535836,-0.00490606,0.00516909,-0.01916744,0.01315293,0.00142380,0.000
 93159,0.00199519,-0.00013595,0.00027644,0.00019948,-0.00158444,0.00160
 588,0.00174815,-0.00004741,0.00148839,0.00082739,-0.00182984,0.0000071
 4,0.00081225,-0.00022305,0.00011779,-0.00070710,0.00012563,-0.00018730
 ,0.00015398,0.11656074,-0.15375751,-0.21927271,0.06306758,-0.04509938,
 -0.04605554,-0.00012731,-0.00007083,0.00012861,-0.00002450,0.00000522,
 0.00004485,0.00002510,0.00024970,0.00008647,-0.18655013,0.20971944,0.2
 5073072\\0.00000144,-0.00000217,-0.00000834,-0.00000394,-0.00000364,-0
 .00000111,0.00001191,0.00000434,-0.00000765,-0.00001087,-0.00000790,0.
 00001227,-0.00000115,0.00000559,0.00000105,0.00000284,0.00000878,-0.00
 000151,0.00000478,-0.00001202,0.00000329,-0.00000647,0.00000077,0.0000
 0505,0.00000371,0.00000121,-0.00000407,-0.00000406,0.00001058,-0.00000
 734,0.00000795,0.00000374,0.00000864,-0.00006803,-0.00003615,0.0000541
 4,0.00000750,0.00001986,0.00000922,0.00001074,0.00001062,-0.00001101,-
 0.00000028,-0.00000822,-0.00000040,0.00007806,-0.00016404,-0.00008342,
 -0.00004506,0.00010420,0.00006016,0.00001711,0.00006996,-0.00003586,-0
 .00000619,-0.00000551,0.00000689\\\@
 Job cpu time:       1 days  0 hours 25 minutes 58.3 seconds.
 File lengths (MBytes):  RWF= 126651 Int=      0 D2E=      0 Chk=    124 Scr=      1
 Normal termination of Gaussian 09 at Thu Aug 26 20:01:59 2021.
