 Entering Gaussian System, Link 0=g09
 Input=G4.DMNPYO.gjf
 Output=G4.DMNPYO.log
 Initial command:
 /public/home/users/caep010/software/Gaussian09/g09/l1.exe "/public/home/users/caep010/.cache/gau_scr/Gau-106515.inp" -scrdir="/public/home/users/caep010/.cache/gau_scr/"
 Entering Link 1 = /public/home/users/caep010/software/Gaussian09/g09/l1.exe PID=    106516.
  
 Copyright (c) 1988,1990,1992,1993,1995,1998,2003,2009,2015,
            Gaussian, Inc.  All Rights Reserved.
  
 This is part of the Gaussian(R) 09 program.  It is based on
 the Gaussian(R) 03 system (copyright 2003, Gaussian, Inc.),
 the Gaussian(R) 98 system (copyright 1998, Gaussian, Inc.),
 the Gaussian(R) 94 system (copyright 1995, Gaussian, Inc.),
 the Gaussian 92(TM) system (copyright 1992, Gaussian, Inc.),
 the Gaussian 90(TM) system (copyright 1990, Gaussian, Inc.),
 the Gaussian 88(TM) system (copyright 1988, Gaussian, Inc.),
 the Gaussian 86(TM) system (copyright 1986, Carnegie Mellon
 University), and the Gaussian 82(TM) system (copyright 1983,
 Carnegie Mellon University). Gaussian is a federally registered
 trademark of Gaussian, Inc.
  
 This software contains proprietary and confidential information,
 including trade secrets, belonging to Gaussian, Inc.
  
 This software is provided under written license and may be
 used, copied, transmitted, or stored only in accord with that
 written license.
  
 The following legend is applicable only to US Government
 contracts under FAR:
  
                    RESTRICTED RIGHTS LEGEND
  
 Use, reproduction and disclosure by the US Government is
 subject to restrictions as set forth in subparagraphs (a)
 and (c) of the Commercial Computer Software - Restricted
 Rights clause in FAR 52.227-19.
  
 Gaussian, Inc.
 340 Quinnipiac St., Bldg. 40, Wallingford CT 06492
  
  
 ---------------------------------------------------------------
 Warning -- This program may not be used in any manner that
 competes with the business of Gaussian, Inc. or will provide
 assistance to any competitor of Gaussian, Inc.  The licensee
 of this program is prohibited from giving any competitor of
 Gaussian, Inc. access to this program.  By using this program,
 the user acknowledges that Gaussian, Inc. is engaged in the
 business of creating and licensing software in the field of
 computational chemistry and represents and warrants to the
 licensee that it is not a competitor of Gaussian, Inc. and that
 it will not use this program in any manner prohibited above.
 ---------------------------------------------------------------
  

 Cite this work as:
 Gaussian 09, Revision E.01,
 M. J. Frisch, G. W. Trucks, H. B. Schlegel, G. E. Scuseria, 
 M. A. Robb, J. R. Cheeseman, G. Scalmani, V. Barone, B. Mennucci, 
 G. A. Petersson, H. Nakatsuji, M. Caricato, X. Li, H. P. Hratchian, 
 A. F. Izmaylov, J. Bloino, G. Zheng, J. L. Sonnenberg, M. Hada, 
 M. Ehara, K. Toyota, R. Fukuda, J. Hasegawa, M. Ishida, T. Nakajima, 
 Y. Honda, O. Kitao, H. Nakai, T. Vreven, J. A. Montgomery, Jr., 
 J. E. Peralta, F. Ogliaro, M. Bearpark, J. J. Heyd, E. Brothers, 
 K. N. Kudin, V. N. Staroverov, T. Keith, R. Kobayashi, J. Normand, 
 K. Raghavachari, A. Rendell, J. C. Burant, S. S. Iyengar, J. Tomasi, 
 M. Cossi, N. Rega, J. M. Millam, M. Klene, J. E. Knox, J. B. Cross, 
 V. Bakken, C. Adamo, J. Jaramillo, R. Gomperts, R. E. Stratmann, 
 O. Yazyev, A. J. Austin, R. Cammi, C. Pomelli, J. W. Ochterski, 
 R. L. Martin, K. Morokuma, V. G. Zakrzewski, G. A. Voth, 
 P. Salvador, J. J. Dannenberg, S. Dapprich, A. D. Daniels, 
 O. Farkas, J. B. Foresman, J. V. Ortiz, J. Cioslowski, 
 and D. J. Fox, Gaussian, Inc., Wallingford CT, 2013.
 
 ******************************************
 Gaussian 09:  ES64L-G09RevE.01 30-Nov-2015
                24-Aug-2021 
 ******************************************
 %nproc=32
 Will use up to   32 processors via shared memory.
 %mem=180GB
 -----
 #P G4
 -----
 1/14=-1,18=20,19=15,26=3,38=1/1,3;
 2/9=110,12=2,17=6,18=5,40=1/2;
 3/5=35,7=104,11=2,16=1,25=1,30=1,71=1,74=-5/1,2,3;
 4//1;
 5/5=2,38=5/2;
 6/7=2,8=2,9=2,10=2,28=1/1;
 7//1,2,3,16;
 1/14=-1,18=20,19=15,26=3/3(2);
 2/9=110/2;
 99//99;
 2/9=110/2;
 3/5=35,7=104,11=2,16=1,25=1,30=1,71=1,74=-5/1,2,3;
 4/5=5,16=3,69=1/1;
 5/5=2,38=5/2;
 7//1,2,3,16;
 1/14=-1,18=20,19=15,26=3/3(-5);
 2/9=110/2;
 6/7=2,8=2,9=2,10=2,19=2,28=1/1;
 99/9=1/99;
 Leave Link    1 at Tue Aug 24 14:04:00 2021, MaxMem= 24159191040 cpu:         6.0
 (Enter /public/home/users/caep010/software/Gaussian09/g09/l101.exe)
 ------
 DMNPYO
 ------
 Symbolic Z-matrix:
 Charge =  0 Multiplicity = 1
 N                     2.7413    2.7413    0. 
 O                     3.6523    3.6523    0. 
 C                     0.812     0.812     0. 
 N                    -0.2263   -0.2263    0. 
 C                     0.5188    2.0625    0.5244 
 C                     2.0625    0.5188   -0.5244 
 C                     1.5072    3.0107    0.5002 
 C                     3.0107    1.5072   -0.5002 
 O                    -1.3323    0.0744   -0.4222 
 O                     0.0744   -1.3323    0.4222 
 H                     1.3918    3.8704    0.6992 
 H                     3.8704    1.3918   -0.6992 
 C                    -0.8016    2.4316    1.1578 
 C                     2.4316   -0.8016   -1.1578 
 H                    -0.722     3.3047    1.654 
 H                     3.3047   -0.722    -1.654 
 H                    -1.3546    2.6199    0.511 
 H                     2.6199   -1.3546   -0.511 
 H                    -1.0792    1.7491    1.7078 
 H                     1.7491   -1.0792   -1.7078 
 
 NAtoms=     20 NQM=       20 NQMF=       0 NMMI=      0 NMMIF=      0
                NMic=       0 NMicF=      0.
                    Isotopes and Nuclear Properties:
 (Nuclear quadrupole moments (NQMom) in fm**2, nuclear magnetic moments (NMagM)
  in nuclear magnetons)

  Atom         1           2           3           4           5           6           7           8           9          10
 IAtWgt=          14          16          12          14          12          12          12          12          16          16
 AtmWgt=  14.0030740  15.9949146  12.0000000  14.0030740  12.0000000  12.0000000  12.0000000  12.0000000  15.9949146  15.9949146
 NucSpn=           2           0           0           2           0           0           0           0           0           0
 AtZEff=   0.0000000   0.0000000   0.0000000   0.0000000   0.0000000   0.0000000   0.0000000   0.0000000   0.0000000   0.0000000
 NQMom=    2.0440000   0.0000000   0.0000000   2.0440000   0.0000000   0.0000000   0.0000000   0.0000000   0.0000000   0.0000000
 NMagM=    0.4037610   0.0000000   0.0000000   0.4037610   0.0000000   0.0000000   0.0000000   0.0000000   0.0000000   0.0000000
 AtZNuc=   7.0000000   8.0000000   6.0000000   7.0000000   6.0000000   6.0000000   6.0000000   6.0000000   8.0000000   8.0000000

  Atom        11          12          13          14          15          16          17          18          19          20
 IAtWgt=           1           1          12          12           1           1           1           1           1           1
 AtmWgt=   1.0078250   1.0078250  12.0000000  12.0000000   1.0078250   1.0078250   1.0078250   1.0078250   1.0078250   1.0078250
 NucSpn=           1           1           0           0           1           1           1           1           1           1
 AtZEff=   0.0000000   0.0000000   0.0000000   0.0000000   0.0000000   0.0000000   0.0000000   0.0000000   0.0000000   0.0000000
 NQMom=    0.0000000   0.0000000   0.0000000   0.0000000   0.0000000   0.0000000   0.0000000   0.0000000   0.0000000   0.0000000
 NMagM=    2.7928460   2.7928460   0.0000000   0.0000000   2.7928460   2.7928460   2.7928460   2.7928460   2.7928460   2.7928460
 AtZNuc=   1.0000000   1.0000000   6.0000000   6.0000000   1.0000000   1.0000000   1.0000000   1.0000000   1.0000000   1.0000000
 Leave Link  101 at Tue Aug 24 14:04:01 2021, MaxMem= 24159191040 cpu:        12.7
 (Enter /public/home/users/caep010/software/Gaussian09/g09/l103.exe)

 GradGradGradGradGradGradGradGradGradGradGradGradGradGradGradGradGradGrad
 Berny optimization.
 Initialization pass.
                           ----------------------------
                           !    Initial Parameters    !
                           ! (Angstroms and Degrees)  !
 --------------------------                            --------------------------
 ! Name  Definition              Value          Derivative Info.                !
 --------------------------------------------------------------------------------
 ! R1    R(1,2)                  1.2883         estimate D2E/DX2                !
 ! R2    R(1,7)                  1.3586         estimate D2E/DX2                !
 ! R3    R(1,8)                  1.3586         estimate D2E/DX2                !
 ! R4    R(3,4)                  1.4684         estimate D2E/DX2                !
 ! R5    R(3,5)                  1.3873         estimate D2E/DX2                !
 ! R6    R(3,6)                  1.3873         estimate D2E/DX2                !
 ! R7    R(4,9)                  1.2214         estimate D2E/DX2                !
 ! R8    R(4,10)                 1.2214         estimate D2E/DX2                !
 ! R9    R(5,7)                  1.3699         estimate D2E/DX2                !
 ! R10   R(5,13)                 1.5103         estimate D2E/DX2                !
 ! R11   R(6,8)                  1.3699         estimate D2E/DX2                !
 ! R12   R(6,14)                 1.5103         estimate D2E/DX2                !
 ! R13   R(7,11)                 0.8899         estimate D2E/DX2                !
 ! R14   R(8,12)                 0.8899         estimate D2E/DX2                !
 ! R15   R(13,15)                1.0074         estimate D2E/DX2                !
 ! R16   R(13,17)                0.8716         estimate D2E/DX2                !
 ! R17   R(13,19)                0.9194         estimate D2E/DX2                !
 ! R18   R(14,16)                1.0074         estimate D2E/DX2                !
 ! R19   R(14,18)                0.8716         estimate D2E/DX2                !
 ! R20   R(14,20)                0.9194         estimate D2E/DX2                !
 ! A1    A(2,1,7)              120.1388         estimate D2E/DX2                !
 ! A2    A(2,1,8)              120.1388         estimate D2E/DX2                !
 ! A3    A(7,1,8)              119.7224         estimate D2E/DX2                !
 ! A4    A(4,3,5)              119.2041         estimate D2E/DX2                !
 ! A5    A(4,3,6)              119.2041         estimate D2E/DX2                !
 ! A6    A(5,3,6)              121.5918         estimate D2E/DX2                !
 ! A7    A(3,4,9)              117.7879         estimate D2E/DX2                !
 ! A8    A(3,4,10)             117.7879         estimate D2E/DX2                !
 ! A9    A(9,4,10)             124.4243         estimate D2E/DX2                !
 ! A10   A(3,5,7)              117.6932         estimate D2E/DX2                !
 ! A11   A(3,5,13)             124.3043         estimate D2E/DX2                !
 ! A12   A(7,5,13)             117.9732         estimate D2E/DX2                !
 ! A13   A(3,6,8)              117.6932         estimate D2E/DX2                !
 ! A14   A(3,6,14)             124.3043         estimate D2E/DX2                !
 ! A15   A(8,6,14)             117.9732         estimate D2E/DX2                !
 ! A16   A(1,7,5)              121.6448         estimate D2E/DX2                !
 ! A17   A(1,7,11)             113.0584         estimate D2E/DX2                !
 ! A18   A(5,7,11)             124.8296         estimate D2E/DX2                !
 ! A19   A(1,8,6)              121.6448         estimate D2E/DX2                !
 ! A20   A(1,8,12)             113.0584         estimate D2E/DX2                !
 ! A21   A(6,8,12)             124.8296         estimate D2E/DX2                !
 ! A22   A(5,13,15)            110.445          estimate D2E/DX2                !
 ! A23   A(5,13,17)            107.2348         estimate D2E/DX2                !
 ! A24   A(5,13,19)            109.4773         estimate D2E/DX2                !
 ! A25   A(15,13,17)           103.2042         estimate D2E/DX2                !
 ! A26   A(15,13,19)           111.8734         estimate D2E/DX2                !
 ! A27   A(17,13,19)           114.3766         estimate D2E/DX2                !
 ! A28   A(6,14,16)            110.445          estimate D2E/DX2                !
 ! A29   A(6,14,18)            107.2348         estimate D2E/DX2                !
 ! A30   A(6,14,20)            109.4773         estimate D2E/DX2                !
 ! A31   A(16,14,18)           103.2042         estimate D2E/DX2                !
 ! A32   A(16,14,20)           111.8734         estimate D2E/DX2                !
 ! A33   A(18,14,20)           114.3766         estimate D2E/DX2                !
 ! D1    D(2,1,7,5)           -179.5187         estimate D2E/DX2                !
 ! D2    D(2,1,7,11)             7.9656         estimate D2E/DX2                !
 ! D3    D(8,1,7,5)              0.4813         estimate D2E/DX2                !
 ! D4    D(8,1,7,11)          -172.0344         estimate D2E/DX2                !
 ! D5    D(2,1,8,6)           -179.5187         estimate D2E/DX2                !
 ! D6    D(2,1,8,12)             7.9656         estimate D2E/DX2                !
 ! D7    D(7,1,8,6)              0.4813         estimate D2E/DX2                !
 ! D8    D(7,1,8,12)          -172.0344         estimate D2E/DX2                !
 ! D9    D(5,3,4,9)             48.6593         estimate D2E/DX2                !
 ! D10   D(5,3,4,10)          -131.3407         estimate D2E/DX2                !
 ! D11   D(6,3,4,9)           -131.3407         estimate D2E/DX2                !
 ! D12   D(6,3,4,10)            48.6593         estimate D2E/DX2                !
 ! D13   D(4,3,5,7)           -179.5511         estimate D2E/DX2                !
 ! D14   D(4,3,5,13)             2.4627         estimate D2E/DX2                !
 ! D15   D(6,3,5,7)              0.4489         estimate D2E/DX2                !
 ! D16   D(6,3,5,13)          -177.5373         estimate D2E/DX2                !
 ! D17   D(4,3,6,8)           -179.5511         estimate D2E/DX2                !
 ! D18   D(4,3,6,14)             2.4627         estimate D2E/DX2                !
 ! D19   D(5,3,6,8)              0.4489         estimate D2E/DX2                !
 ! D20   D(5,3,6,14)          -177.5373         estimate D2E/DX2                !
 ! D21   D(3,5,7,1)             -0.9245         estimate D2E/DX2                !
 ! D22   D(3,5,7,11)           170.6801         estimate D2E/DX2                !
 ! D23   D(13,5,7,1)           177.1921         estimate D2E/DX2                !
 ! D24   D(13,5,7,11)          -11.2034         estimate D2E/DX2                !
 ! D25   D(3,5,13,15)          166.8802         estimate D2E/DX2                !
 ! D26   D(3,5,13,17)          -81.3496         estimate D2E/DX2                !
 ! D27   D(3,5,13,19)           43.2671         estimate D2E/DX2                !
 ! D28   D(7,5,13,15)          -11.1008         estimate D2E/DX2                !
 ! D29   D(7,5,13,17)          100.6694         estimate D2E/DX2                !
 ! D30   D(7,5,13,19)         -134.714          estimate D2E/DX2                !
 ! D31   D(3,6,8,1)             -0.9245         estimate D2E/DX2                !
 ! D32   D(3,6,8,12)           170.6801         estimate D2E/DX2                !
 ! D33   D(14,6,8,1)           177.1921         estimate D2E/DX2                !
 ! D34   D(14,6,8,12)          -11.2034         estimate D2E/DX2                !
 ! D35   D(3,6,14,16)          166.8802         estimate D2E/DX2                !
 ! D36   D(3,6,14,18)          -81.3496         estimate D2E/DX2                !
 ! D37   D(3,6,14,20)           43.2671         estimate D2E/DX2                !
 ! D38   D(8,6,14,16)          -11.1008         estimate D2E/DX2                !
 ! D39   D(8,6,14,18)          100.6694         estimate D2E/DX2                !
 ! D40   D(8,6,14,20)         -134.714          estimate D2E/DX2                !
 --------------------------------------------------------------------------------
 Trust Radius=3.00D-01 FncErr=1.00D-07 GrdErr=1.00D-06
 Number of steps in this run=    103 maximum allowed number of steps=    120.
 GradGradGradGradGradGradGradGradGradGradGradGradGradGradGradGradGradGrad

 Leave Link  103 at Tue Aug 24 14:04:01 2021, MaxMem= 24159191040 cpu:         1.3
 (Enter /public/home/users/caep010/software/Gaussian09/g09/l202.exe)
                          Input orientation:                          
 ---------------------------------------------------------------------
 Center     Atomic      Atomic             Coordinates (Angstroms)
 Number     Number       Type             X           Y           Z
 ---------------------------------------------------------------------
      1          7           0        2.741300    2.741300    0.000000
      2          8           0        3.652300    3.652300    0.000000
      3          6           0        0.812000    0.812000    0.000000
      4          7           0       -0.226300   -0.226300    0.000000
      5          6           0        0.518800    2.062500    0.524400
      6          6           0        2.062500    0.518800   -0.524400
      7          6           0        1.507200    3.010700    0.500200
      8          6           0        3.010700    1.507200   -0.500200
      9          8           0       -1.332300    0.074400   -0.422200
     10          8           0        0.074400   -1.332300    0.422200
     11          1           0        1.391800    3.870400    0.699200
     12          1           0        3.870400    1.391800   -0.699200
     13          6           0       -0.801600    2.431600    1.157800
     14          6           0        2.431600   -0.801600   -1.157800
     15          1           0       -0.722000    3.304700    1.654000
     16          1           0        3.304700   -0.722000   -1.654000
     17          1           0       -1.354600    2.619900    0.511000
     18          1           0        2.619900   -1.354600   -0.511000
     19          1           0       -1.079200    1.749100    1.707800
     20          1           0        1.749100   -1.079200   -1.707800
 ---------------------------------------------------------------------
                    Distance matrix (angstroms):
                    1          2          3          4          5
     1  N    0.000000
     2  O    1.288349   0.000000
     3  C    2.728442   4.016791   0.000000
     4  N    4.196820   5.485169   1.468378   0.000000
     5  C    2.382283   3.552644   1.387340   2.463488   0.000000
     6  C    2.382283   3.552644   1.387340   2.463488   2.421983
     7  C    1.358595   2.294189   2.359615   3.705859   1.369892
     8  C    1.358595   2.294189   2.359615   3.705859   2.750951
     9  O    4.887210   6.150273   2.306584   1.221437   2.876659
    10  O    4.887210   6.150273   2.306584   1.221437   3.425289
    11  H    1.893383   2.376196   3.190432   4.459829   2.015239
    12  H    1.893383   2.376196   3.190432   4.459829   3.630463
    13  C    3.740128   4.761075   2.562676   2.955656   1.510260
    14  C    3.740128   4.761075   2.562676   2.955656   3.832971
    15  H    3.879121   4.689461   3.361908   3.930572   2.087736
    16  H    3.879121   4.689461   3.361908   3.930572   4.501123
    17  H    4.129438   5.137706   2.867713   3.104035   1.954610
    18  H    4.129438   5.137706   2.867713   3.104035   4.142855
    19  H    4.300844   5.378275   2.715028   2.747039   2.013022
    20  H    4.300844   5.378275   2.715028   2.747039   4.045570
                    6          7          8          9         10
     6  C    0.000000
     7  C    2.750951   0.000000
     8  C    1.369892   2.349856   0.000000
     9  O    3.425289   4.187534   4.573910   0.000000
    10  O    2.876659   4.573910   4.187534   2.161162   0.000000
    11  H    3.630463   0.889945   3.105497   4.804984   5.374045
    12  H    2.015239   3.105497   0.889945   5.374045   4.804984
    13  C    3.832971   2.469484   4.258769   2.886942   3.933882
    14  C    1.510260   4.258769   2.469484   3.933882   2.886942
    15  H    4.501123   2.527256   4.669543   3.888176   4.863471
    16  H    2.087736   4.669543   2.527256   4.863471   3.888176
    17  H    4.142855   2.888380   4.616976   2.711260   4.203547
    18  H    1.954610   4.616976   2.888380   4.203547   2.711260
    19  H    4.045570   3.120801   4.654145   2.721319   3.532504
    20  H    2.013022   4.654145   3.120801   3.532504   2.721319
                   11         12         13         14         15
    11  H    0.000000
    12  H    3.773916   0.000000
    13  C    2.662980   5.133928   0.000000
    14  C    5.133928   2.662980   5.125346   0.000000
    15  H    2.387427   5.503351   1.007400   5.891783   0.000000
    16  H    5.503351   2.387427   5.891783   1.007400   6.585703
    17  H    3.023555   5.502130   0.871560   5.369066   1.474986
    18  H    5.502130   3.023555   5.369066   0.871560   6.128996
    19  H    3.409256   5.515420   0.919439   5.200332   1.596990
    20  H    5.515420   3.409256   5.200332   0.919439   6.051993
                   16         17         18         19         20
    16  H    0.000000
    17  H    6.128996   0.000000
    18  H    1.474986   5.712949   0.000000
    19  H    6.051993   1.505479   5.314073   0.000000
    20  H    1.596990   5.314073   1.505479   5.259742   0.000000
 Stoichiometry    C7H8N2O3
 Framework group  C2[C2(NCNO),X(C6H8O2)]
 Deg. of freedom    26
 Full point group                 C2      NOp   2
 Largest Abelian subgroup         C2      NOp   2
 Largest concise Abelian subgroup C2      NOp   2
                         Standard orientation:                         
 ---------------------------------------------------------------------
 Center     Atomic      Atomic             Coordinates (Angstroms)
 Number     Number       Type             X           Y           Z
 ---------------------------------------------------------------------
      1          7           0        0.000000   -0.000000    2.208855
      2          8           0        0.000000   -0.000000    3.497204
      3          6           0       -0.000000    0.000000   -0.519587
      4          7           0       -0.000000    0.000000   -1.987965
      5          6           0        0.000000    1.210991    0.157326
      6          6           0       -0.000000   -1.210991    0.157326
      7          6           0        0.009504    1.174890    1.526709
      8          6           0       -0.009504   -1.174890    1.526709
      9          8           0        0.811295    0.713762   -2.557398
     10          8           0       -0.811295   -0.713762   -2.557398
     11          1           0        0.128706    1.882563    2.053009
     12          1           0       -0.128706   -1.882563    2.053009
     13          6           0       -0.053606    2.562112   -0.515344
     14          6           0        0.053606   -2.562112   -0.515344
     15          1           0       -0.257899    3.282737    0.158316
     16          1           0        0.257899   -3.282737    0.158316
     17          1           0        0.756392    2.754509   -0.773226
     18          1           0       -0.756392   -2.754509   -0.773226
     19          1           0       -0.673345    2.542209   -1.194237
     20          1           0        0.673345   -2.542209   -1.194237
 ---------------------------------------------------------------------
 Rotational constants (GHZ):      1.5660241      0.8024090      0.5569217
 Leave Link  202 at Tue Aug 24 14:04:01 2021, MaxMem= 24159191040 cpu:         1.6
 (Enter /public/home/users/caep010/software/Gaussian09/g09/l301.exe)
 Standard basis: GTBas3 (6D, 7F)
 Ernie: Thresh=  0.10000D-02 Tol=  0.10000D-05 Strict=F.
 There are   212 symmetry adapted cartesian basis functions of A   symmetry.
 There are   200 symmetry adapted cartesian basis functions of B   symmetry.
 There are   196 symmetry adapted basis functions of A   symmetry.
 There are   180 symmetry adapted basis functions of B   symmetry.
   376 basis functions,   584 primitive gaussians,   412 cartesian basis functions
    44 alpha electrons       44 beta electrons
       nuclear repulsion energy       718.7136145911 Hartrees.
 IExCor=  402 DFT=T Ex+Corr=B3LYP ExCW=0 ScaHFX=  0.200000
 ScaDFX=  0.800000  0.720000  1.000000  0.810000 ScalE2=  1.000000  1.000000
 IRadAn=      0 IRanWt=     -1 IRanGd=            0 ICorTp=0 IEmpDi=  4
 NAtoms=   20 NActive=   20 NUniq=   12 SFac= 2.78D+00 NAtFMM=   60 NAOKFM=F Big=F
 Integral buffers will be    131072 words long.
 Raffenetti 2 integral format.
 Two-electron integral symmetry is turned on.
 Leave Link  301 at Tue Aug 24 14:04:02 2021, MaxMem= 24159191040 cpu:         3.8
 (Enter /public/home/users/caep010/software/Gaussian09/g09/l302.exe)
 NPDir=0 NMtPBC=     1 NCelOv=     1 NCel=       1 NClECP=     1 NCelD=      1
         NCelK=      1 NCelE2=     1 NClLst=     1 CellRange=     0.0.
 One-electron integrals computed using PRISM.
 One-electron integral symmetry used in STVInt
 NBasis=   376 RedAO= T EigKep=  9.75D-05  NBF=   196   180
 NBsUse=   376 1.00D-06 EigRej= -1.00D+00 NBFU=   196   180
 Precomputing XC quadrature grid using
 IXCGrd= 4 IRadAn=           0 IRanWt=          -1 IRanGd=           0 AccXCQ= 0.00D+00.
 Generated NRdTot=       0 NPtTot=           0 NUsed=           0 NTot=          32
 NSgBfM=   411   411   411   411   411 MxSgAt=    20 MxSgA2=    20.
 Leave Link  302 at Tue Aug 24 14:04:02 2021, MaxMem= 24159191040 cpu:        20.9
 (Enter /public/home/users/caep010/software/Gaussian09/g09/l303.exe)
 DipDrv:  MaxL=1.
 Leave Link  303 at Tue Aug 24 14:04:03 2021, MaxMem= 24159191040 cpu:         3.8
 (Enter /public/home/users/caep010/software/Gaussian09/g09/l401.exe)
 ExpMin= 1.61D-01 ExpMax= 5.48D+03 ExpMxC= 8.25D+02 IAcc=1 IRadAn=         1 AccDes= 0.00D+00
 Harris functional with IExCor=  402 and IRadAn=       1 diagonalized for initial guess.
 HarFok:  IExCor=  402 AccDes= 0.00D+00 IRadAn=         1 IDoV= 1 UseB2=F ITyADJ=14
 ICtDFT=  3500011 ScaDFX=  1.000000  1.000000  1.000000  1.000000
 FoFCou: FMM=F IPFlag=           0 FMFlag=      100000 FMFlg1=           0
         NFxFlg=           0 DoJE=T BraDBF=F KetDBF=T FulRan=T
         wScrn=  0.000000 ICntrl=     500 IOpCl=  0 I1Cent=   200000004 NGrid=           0
         NMat0=    1 NMatS0=      1 NMatT0=    0 NMatD0=    1 NMtDS0=    0 NMtDT0=    0
 Petite list used in FoFCou.
 Harris En= -606.578562344095    
 JPrj=0 DoOrth=F DoCkMO=F.
 Initial guess orbital symmetries:
       Occupied  (A) (B) (A) (A) (A) (B) (A) (B) (A) (A) (B) (A)
                 (A) (A) (B) (A) (B) (A) (B) (A) (A) (B) (A) (B)
                 (A) (B) (A) (A) (B) (A) (A) (B) (B) (B) (A) (B)
                 (B) (B) (A) (A) (A) (B) (B) (B)
       Virtual   (B) (A) (B) (A) (B) (A) (B) (A) (B) (A) (B) (A)
                 (A) (B) (A) (B) (A) (B) (A) (B) (A) (A) (B) (A)
                 (A) (B) (B) (A) (B) (A) (B) (A) (B) (B) (A) (B)
                 (A) (B) (B) (A) (A) (B) (A) (A) (B) (A) (B) (A)
                 (B) (A) (A) (B) (A) (B) (A) (B) (A) (B) (A) (A)
                 (B) (B) (A) (A) (B) (B) (A) (B) (A) (B) (A) (B)
                 (B) (A) (B) (B) (A) (A) (B) (B) (A) (A) (B) (A)
                 (B) (A) (B) (A) (A) (B) (A) (B) (B) (A) (A) (B)
                 (A) (B) (B) (A) (B) (A) (A) (A) (B) (B) (A) (A)
                 (B) (A) (B) (A) (B) (B) (A) (B) (B) (A) (A) (B)
                 (B) (A) (A) (A) (B) (A) (B) (B) (A) (B) (A) (A)
                 (A) (B) (B) (A) (A) (A) (B) (A) (B) (A) (B) (B)
                 (B) (A) (B) (A) (A) (B) (B) (A) (A) (A) (B) (B)
                 (A) (B) (A) (B) (A) (B) (B) (A) (A) (B) (A) (B)
                 (B) (A) (B) (B) (A) (B) (B) (A) (A) (A) (A) (B)
                 (A) (B) (B) (A) (B) (A) (A) (B) (B) (A) (B) (B)
                 (A) (B) (B) (A) (A) (B) (A) (B) (B) (A) (A) (A)
                 (B) (A) (A) (B) (B) (A) (A) (B) (B) (A) (A) (B)
                 (A) (B) (B) (A) (B) (A) (B) (A) (B) (A) (B) (A)
                 (A) (A) (B) (B) (B) (A) (A) (B) (A) (A) (B) (A)
                 (B) (A) (A) (B) (A) (B) (A) (B) (A) (B) (B) (A)
                 (A) (B) (A) (A) (B) (B) (B) (A) (B) (A) (B) (A)
                 (B) (A) (B) (A) (B) (A) (B) (A) (A) (B) (B) (A)
                 (B) (B) (B) (A) (B) (A) (A) (B) (A) (B) (A) (B)
                 (A) (B) (A) (A) (B) (B) (B) (A) (A) (A) (B) (A)
                 (B) (A) (A) (B) (B) (A) (B) (A) (A) (B) (B) (A)
                 (A) (B) (A) (B) (B) (A) (A) (B) (A) (A) (A) (B)
                 (A) (B) (A) (A) (A) (B) (A) (A)
 The electronic state of the initial guess is 1-A.
 Leave Link  401 at Tue Aug 24 14:04:04 2021, MaxMem= 24159191040 cpu:        21.8
 (Enter /public/home/users/caep010/software/Gaussian09/g09/l502.exe)
 Closed shell SCF:
 Using DIIS extrapolation, IDIIS=  1040.
 Integral symmetry usage will be decided dynamically.
 Keep R1 ints in memory in symmetry-blocked form, NReq=3768341230.
 IVT=      544426 IEndB=      544426 NGot= 24159191040 MDV= 22902589313
 LenX= 22902589313 LenY= 22902419128
 Requested convergence on RMS density matrix=1.00D-08 within 128 cycles.
 Requested convergence on MAX density matrix=1.00D-06.
 Requested convergence on             energy=1.00D-06.
 No special actions if energy rises.
 FoFCou: FMM=F IPFlag=           0 FMFlag=           0 FMFlg1=           0
         NFxFlg=           0 DoJE=F BraDBF=F KetDBF=F FulRan=T
         wScrn=  0.000000 ICntrl=     600 IOpCl=  0 I1Cent=           0 NGrid=           0
         NMat0=    1 NMatS0=  70876 NMatT0=    0 NMatD0=    1 NMtDS0=    0 NMtDT0=    0
 Petite list used in FoFCou.
 Integral accuracy reduced to 1.0D-05 until final iterations.

 Cycle   1  Pass 0  IDiag  1:
 E= -605.885720616336    
 DIIS: error= 3.51D-02 at cycle   1 NSaved=   1.
 NSaved= 1 IEnMin= 1 EnMin= -605.885720616336     IErMin= 1 ErrMin= 3.51D-02
 ErrMax= 3.51D-02  0.00D+00 EMaxC= 1.00D-01 BMatC= 6.08D-01 BMatP= 6.08D-01
 IDIUse=3 WtCom= 6.49D-01 WtEn= 3.51D-01
 Coeff-Com:  0.100D+01
 Coeff-En:   0.100D+01
 Coeff:      0.100D+01
 Gap=     0.070 Goal=   None    Shift=    0.000
 GapD=    0.070 DampG=0.500 DampE=0.500 DampFc=0.2500 IDamp=-1.
 Damping current iteration by 2.50D-01
 RMSDP=4.62D-03 MaxDP=2.36D-01              OVMax= 3.77D-01

 Cycle   2  Pass 0  IDiag  1:
 E= -606.059786790046     Delta-E=       -0.174066173710 Rises=F Damp=T
 DIIS: error= 1.47D-02 at cycle   2 NSaved=   2.
 NSaved= 2 IEnMin= 2 EnMin= -606.059786790046     IErMin= 2 ErrMin= 1.47D-02
 ErrMax= 1.47D-02  0.00D+00 EMaxC= 1.00D-01 BMatC= 1.20D-01 BMatP= 6.08D-01
 IDIUse=3 WtCom= 8.53D-01 WtEn= 1.47D-01
 Coeff-Com: -0.505D+00 0.150D+01
 Coeff-En:   0.000D+00 0.100D+01
 Coeff:     -0.431D+00 0.143D+01
 Gap=     0.183 Goal=   None    Shift=    0.000
 RMSDP=1.69D-03 MaxDP=8.36D-02 DE=-1.74D-01 OVMax= 3.64D-01

 Cycle   3  Pass 0  IDiag  1:
 E= -606.280472235214     Delta-E=       -0.220685445168 Rises=F Damp=F
 DIIS: error= 2.13D-02 at cycle   3 NSaved=   3.
 NSaved= 3 IEnMin= 3 EnMin= -606.280472235214     IErMin= 2 ErrMin= 1.47D-02
 ErrMax= 2.13D-02  0.00D+00 EMaxC= 1.00D-01 BMatC= 1.07D-01 BMatP= 1.20D-01
 IDIUse=3 WtCom= 7.87D-01 WtEn= 2.13D-01
 Coeff-Com: -0.356D+00 0.938D+00 0.418D+00
 Coeff-En:   0.000D+00 0.000D+00 0.100D+01
 Coeff:     -0.280D+00 0.739D+00 0.542D+00
 Gap=     0.135 Goal=   None    Shift=    0.000
 RMSDP=1.91D-03 MaxDP=1.54D-01 DE=-2.21D-01 OVMax= 3.62D-01

 Cycle   4  Pass 0  IDiag  1:
 E= -606.301118434954     Delta-E=       -0.020646199740 Rises=F Damp=F
 DIIS: error= 2.18D-02 at cycle   4 NSaved=   4.
 NSaved= 4 IEnMin= 4 EnMin= -606.301118434954     IErMin= 2 ErrMin= 1.47D-02
 ErrMax= 2.18D-02  0.00D+00 EMaxC= 1.00D-01 BMatC= 8.65D-02 BMatP= 1.07D-01
 IDIUse=3 WtCom= 7.82D-01 WtEn= 2.18D-01
 Coeff-Com: -0.126D+00 0.368D+00 0.417D+00 0.341D+00
 Coeff-En:   0.000D+00 0.000D+00 0.460D+00 0.540D+00
 Coeff:     -0.986D-01 0.288D+00 0.427D+00 0.384D+00
 Gap=     0.181 Goal=   None    Shift=    0.000
 RMSDP=1.14D-03 MaxDP=9.49D-02 DE=-2.06D-02 OVMax= 2.17D-01

 Cycle   5  Pass 0  IDiag  1:
 E= -606.382602871680     Delta-E=       -0.081484436726 Rises=F Damp=F
 DIIS: error= 3.51D-03 at cycle   5 NSaved=   5.
 NSaved= 5 IEnMin= 5 EnMin= -606.382602871680     IErMin= 5 ErrMin= 3.51D-03
 ErrMax= 3.51D-03  0.00D+00 EMaxC= 1.00D-01 BMatC= 3.04D-03 BMatP= 8.65D-02
 IDIUse=3 WtCom= 9.65D-01 WtEn= 3.51D-02
 Coeff-Com:  0.462D-02 0.848D-02 0.141D+00 0.224D+00 0.622D+00
 Coeff-En:   0.000D+00 0.000D+00 0.000D+00 0.503D-02 0.995D+00
 Coeff:      0.445D-02 0.818D-02 0.136D+00 0.216D+00 0.635D+00
 Gap=     0.139 Goal=   None    Shift=    0.000
 RMSDP=2.15D-04 MaxDP=1.44D-02 DE=-8.15D-02 OVMax= 3.26D-02

 Cycle   6  Pass 0  IDiag  1:
 E= -606.385119684550     Delta-E=       -0.002516812870 Rises=F Damp=F
 DIIS: error= 9.67D-04 at cycle   6 NSaved=   6.
 NSaved= 6 IEnMin= 6 EnMin= -606.385119684550     IErMin= 6 ErrMin= 9.67D-04
 ErrMax= 9.67D-04  0.00D+00 EMaxC= 1.00D-01 BMatC= 3.62D-04 BMatP= 3.04D-03
 IDIUse=3 WtCom= 9.90D-01 WtEn= 9.67D-03
 Coeff-Com:  0.422D-02-0.130D-01 0.197D-01 0.555D-01 0.326D+00 0.607D+00
 Coeff-En:   0.000D+00 0.000D+00 0.000D+00 0.000D+00 0.472D-01 0.953D+00
 Coeff:      0.418D-02-0.128D-01 0.195D-01 0.550D-01 0.324D+00 0.610D+00
 Gap=     0.140 Goal=   None    Shift=    0.000
 RMSDP=4.55D-05 MaxDP=3.52D-03 DE=-2.52D-03 OVMax= 4.03D-03

 Cycle   7  Pass 0  IDiag  1:
 E= -606.385313273087     Delta-E=       -0.000193588536 Rises=F Damp=F
 DIIS: error= 5.53D-04 at cycle   7 NSaved=   7.
 NSaved= 7 IEnMin= 7 EnMin= -606.385313273087     IErMin= 7 ErrMin= 5.53D-04
 ErrMax= 5.53D-04  0.00D+00 EMaxC= 1.00D-01 BMatC= 7.95D-05 BMatP= 3.62D-04
 IDIUse=3 WtCom= 9.94D-01 WtEn= 5.53D-03
 Coeff-Com: -0.167D-02-0.828D-03-0.256D-02 0.580D-02 0.134D+00 0.394D+00
 Coeff-Com:  0.471D+00
 Coeff-En:   0.000D+00 0.000D+00 0.000D+00 0.000D+00 0.000D+00 0.157D+00
 Coeff-En:   0.843D+00
 Coeff:     -0.166D-02-0.823D-03-0.254D-02 0.577D-02 0.133D+00 0.393D+00
 Coeff:      0.473D+00
 Gap=     0.141 Goal=   None    Shift=    0.000
 RMSDP=2.11D-05 MaxDP=1.89D-03 DE=-1.94D-04 OVMax= 2.53D-03

 Cycle   8  Pass 0  IDiag  1:
 E= -606.385376458907     Delta-E=       -0.000063185821 Rises=F Damp=F
 DIIS: error= 8.48D-05 at cycle   8 NSaved=   8.
 NSaved= 8 IEnMin= 8 EnMin= -606.385376458907     IErMin= 8 ErrMin= 8.48D-05
 ErrMax= 8.48D-05  0.00D+00 EMaxC= 1.00D-01 BMatC= 3.98D-06 BMatP= 7.95D-05
 IDIUse=1 WtCom= 1.00D+00 WtEn= 0.00D+00
 Coeff-Com: -0.173D-02 0.141D-02-0.280D-02-0.163D-02 0.471D-01 0.165D+00
 Coeff-Com:  0.256D+00 0.537D+00
 Coeff:     -0.173D-02 0.141D-02-0.280D-02-0.163D-02 0.471D-01 0.165D+00
 Coeff:      0.256D+00 0.537D+00
 Gap=     0.141 Goal=   None    Shift=    0.000
 RMSDP=6.77D-06 MaxDP=2.95D-04 DE=-6.32D-05 OVMax= 8.10D-04

 Initial convergence to 1.0D-05 achieved.  Increase integral accuracy.
 Cycle   9  Pass 1  IDiag  1:
 E= -606.385302095654     Delta-E=        0.000074363253 Rises=F Damp=F
 DIIS: error= 2.44D-05 at cycle   1 NSaved=   1.
 NSaved= 1 IEnMin= 1 EnMin= -606.385302095654     IErMin= 1 ErrMin= 2.44D-05
 ErrMax= 2.44D-05  0.00D+00 EMaxC= 1.00D-01 BMatC= 5.35D-07 BMatP= 5.35D-07
 IDIUse=1 WtCom= 1.00D+00 WtEn= 0.00D+00
 Coeff-Com:  0.100D+01
 Coeff:      0.100D+01
 Gap=     0.141 Goal=   None    Shift=    0.000
 RMSDP=6.77D-06 MaxDP=2.95D-04 DE= 7.44D-05 OVMax= 6.54D-04

 Cycle  10  Pass 1  IDiag  1:
 E= -606.385301728304     Delta-E=        0.000000367350 Rises=F Damp=F
 DIIS: error= 5.56D-05 at cycle   2 NSaved=   2.
 NSaved= 2 IEnMin= 1 EnMin= -606.385302095654     IErMin= 1 ErrMin= 2.44D-05
 ErrMax= 5.56D-05  0.00D+00 EMaxC= 1.00D-01 BMatC= 8.34D-07 BMatP= 5.35D-07
 IDIUse=1 WtCom= 1.00D+00 WtEn= 0.00D+00
 Coeff-Com:  0.567D+00 0.433D+00
 Coeff:      0.567D+00 0.433D+00
 Gap=     0.141 Goal=   None    Shift=    0.000
 RMSDP=3.04D-06 MaxDP=2.05D-04 DE= 3.67D-07 OVMax= 5.29D-04

 Cycle  11  Pass 1  IDiag  1:
 E= -606.385302512733     Delta-E=       -0.000000784429 Rises=F Damp=F
 DIIS: error= 2.27D-05 at cycle   3 NSaved=   3.
 NSaved= 3 IEnMin= 3 EnMin= -606.385302512733     IErMin= 3 ErrMin= 2.27D-05
 ErrMax= 2.27D-05  0.00D+00 EMaxC= 1.00D-01 BMatC= 1.00D-07 BMatP= 5.35D-07
 IDIUse=1 WtCom= 1.00D+00 WtEn= 0.00D+00
 Coeff-Com:  0.984D-01 0.254D+00 0.648D+00
 Coeff:      0.984D-01 0.254D+00 0.648D+00
 Gap=     0.141 Goal=   None    Shift=    0.000
 RMSDP=1.26D-06 MaxDP=7.37D-05 DE=-7.84D-07 OVMax= 2.41D-04

 Cycle  12  Pass 1  IDiag  1:
 E= -606.385302575982     Delta-E=       -0.000000063249 Rises=F Damp=F
 DIIS: error= 1.22D-05 at cycle   4 NSaved=   4.
 NSaved= 4 IEnMin= 4 EnMin= -606.385302575982     IErMin= 4 ErrMin= 1.22D-05
 ErrMax= 1.22D-05  0.00D+00 EMaxC= 1.00D-01 BMatC= 4.64D-08 BMatP= 1.00D-07
 IDIUse=1 WtCom= 1.00D+00 WtEn= 0.00D+00
 Coeff-Com: -0.634D-02 0.134D+00 0.479D+00 0.393D+00
 Coeff:     -0.634D-02 0.134D+00 0.479D+00 0.393D+00
 Gap=     0.141 Goal=   None    Shift=    0.000
 RMSDP=7.69D-07 MaxDP=5.95D-05 DE=-6.32D-08 OVMax= 1.40D-04

 Cycle  13  Pass 1  IDiag  1:
 E= -606.385302613282     Delta-E=       -0.000000037300 Rises=F Damp=F
 DIIS: error= 4.18D-06 at cycle   5 NSaved=   5.
 NSaved= 5 IEnMin= 5 EnMin= -606.385302613282     IErMin= 5 ErrMin= 4.18D-06
 ErrMax= 4.18D-06  0.00D+00 EMaxC= 1.00D-01 BMatC= 3.40D-09 BMatP= 4.64D-08
 IDIUse=1 WtCom= 1.00D+00 WtEn= 0.00D+00
 Coeff-Com: -0.871D-02 0.773D-01 0.289D+00 0.276D+00 0.367D+00
 Coeff:     -0.871D-02 0.773D-01 0.289D+00 0.276D+00 0.367D+00
 Gap=     0.141 Goal=   None    Shift=    0.000
 RMSDP=1.86D-07 MaxDP=1.68D-05 DE=-3.73D-08 OVMax= 3.18D-05

 Cycle  14  Pass 1  IDiag  1:
 E= -606.385302616081     Delta-E=       -0.000000002799 Rises=F Damp=F
 DIIS: error= 7.14D-07 at cycle   6 NSaved=   6.
 NSaved= 6 IEnMin= 6 EnMin= -606.385302616081     IErMin= 6 ErrMin= 7.14D-07
 ErrMax= 7.14D-07  0.00D+00 EMaxC= 1.00D-01 BMatC= 1.53D-10 BMatP= 3.40D-09
 IDIUse=1 WtCom= 1.00D+00 WtEn= 0.00D+00
 Coeff-Com: -0.466D-02 0.265D-01 0.104D+00 0.110D+00 0.213D+00 0.552D+00
 Coeff:     -0.466D-02 0.265D-01 0.104D+00 0.110D+00 0.213D+00 0.552D+00
 Gap=     0.141 Goal=   None    Shift=    0.000
 RMSDP=3.22D-08 MaxDP=1.95D-06 DE=-2.80D-09 OVMax= 2.50D-06

 Cycle  15  Pass 1  IDiag  1:
 E= -606.385302616174     Delta-E=       -0.000000000093 Rises=F Damp=F
 DIIS: error= 1.48D-07 at cycle   7 NSaved=   7.
 NSaved= 7 IEnMin= 7 EnMin= -606.385302616174     IErMin= 7 ErrMin= 1.48D-07
 ErrMax= 1.48D-07  0.00D+00 EMaxC= 1.00D-01 BMatC= 4.78D-12 BMatP= 1.53D-10
 IDIUse=1 WtCom= 1.00D+00 WtEn= 0.00D+00
 Coeff-Com: -0.114D-02 0.464D-02 0.197D-01 0.222D-01 0.610D-01 0.200D+00
 Coeff-Com:  0.693D+00
 Coeff:     -0.114D-02 0.464D-02 0.197D-01 0.222D-01 0.610D-01 0.200D+00
 Coeff:      0.693D+00
 Gap=     0.141 Goal=   None    Shift=    0.000
 RMSDP=7.82D-09 MaxDP=5.56D-07 DE=-9.28D-11 OVMax= 7.00D-07

 SCF Done:  E(RB3LYP) =  -606.385302616     A.U. after   15 cycles
            NFock= 15  Conv=0.78D-08     -V/T= 2.0023
 KE= 6.049742334470D+02 PE=-2.854729406523D+03 EE= 9.246562558690D+02
 Leave Link  502 at Tue Aug 24 14:04:35 2021, MaxMem= 24159191040 cpu:       473.9
 (Enter /public/home/users/caep010/software/Gaussian09/g09/l601.exe)
 Copying SCF densities to generalized density rwf, IOpCl= 0 IROHF=0.

 **********************************************************************

            Population analysis using the SCF density.

 **********************************************************************

 Orbital symmetries:
       Occupied  (B) (A) (A) (A) (A) (A) (B) (A) (B) (A) (B) (A)
                 (A) (A) (B) (A) (A) (B) (A) (B) (A) (B) (A) (B)
                 (A) (B) (B) (A) (B) (A) (B) (A) (B) (A) (B) (A)
                 (B) (B) (A) (A) (B) (A) (B) (B)
       Virtual   (B) (B) (A) (A) (B) (A) (B) (A) (B) (A) (B) (A)
                 (A) (B) (A) (B) (A) (A) (B) (B) (A) (A) (B) (A)
                 (A) (B) (B) (B) (A) (A) (B) (B) (A) (B) (A) (B)
                 (A) (B) (A) (B) (A) (B) (A) (B) (A) (A) (B) (A)
                 (A) (B) (A) (B) (A) (B) (A) (B) (A) (B) (A) (B)
                 (A) (A) (B) (B) (B) (A) (A) (A) (B) (A) (B) (B)
                 (B) (B) (A) (B) (A) (A) (B) (B) (A) (A) (A) (B)
                 (B) (A) (B) (A) (A) (B) (A) (B) (A) (B) (A) (B)
                 (B) (A) (A) (B) (B) (A) (A) (A) (B) (A) (B) (A)
                 (B) (A) (B) (A) (B) (B) (A) (B) (B) (A) (A) (B)
                 (A) (B) (A) (A) (B) (A) (B) (B) (A) (B) (A) (A)
                 (A) (B) (B) (A) (A) (A) (B) (B) (A) (B) (A) (B)
                 (B) (A) (B) (A) (B) (A) (B) (A) (A) (B) (A) (B)
                 (A) (B) (A) (B) (B) (A) (A) (B) (A) (B) (A) (B)
                 (B) (A) (B) (B) (A) (B) (A) (B) (A) (A) (B) (A)
                 (A) (B) (B) (A) (B) (A) (B) (A) (B) (B) (A) (B)
                 (A) (B) (B) (B) (A) (A) (B) (A) (A) (B) (A) (A)
                 (B) (A) (A) (B) (B) (A) (A) (B) (A) (B) (B) (A)
                 (B) (A) (B) (A) (B) (A) (B) (A) (B) (A) (B) (A)
                 (B) (A) (B) (A) (A) (B) (A) (B) (A) (A) (A) (B)
                 (B) (A) (A) (B) (A) (B) (B) (A) (B) (A) (B) (A)
                 (A) (B) (A) (A) (B) (B) (B) (A) (A) (B) (B) (A)
                 (A) (B) (B) (A) (B) (A) (A) (B) (B) (B) (A) (A)
                 (B) (B) (B) (A) (A) (B) (A) (B) (A) (A) (B) (B)
                 (A) (B) (A) (A) (B) (B) (B) (A) (A) (A) (B) (A)
                 (B) (A) (A) (B) (B) (A) (B) (A) (A) (B) (B) (A)
                 (A) (B) (A) (B) (B) (A) (A) (B) (A) (A) (A) (B)
                 (A) (B) (A) (A) (A) (B) (A) (A)
 The electronic state is 1-A.
 Alpha  occ. eigenvalues --  -19.18319 -19.18318 -19.12557 -14.57447 -14.48823
 Alpha  occ. eigenvalues --  -10.25699 -10.24269 -10.24268 -10.22478 -10.22477
 Alpha  occ. eigenvalues --  -10.16564 -10.16564  -1.24045  -1.11539  -1.06458
 Alpha  occ. eigenvalues --   -0.93078  -0.85259  -0.85225  -0.78880  -0.77656
 Alpha  occ. eigenvalues --   -0.71610  -0.66361  -0.64706  -0.57895  -0.57554
 Alpha  occ. eigenvalues --   -0.53191  -0.51696  -0.51303  -0.50200  -0.49274
 Alpha  occ. eigenvalues --   -0.48369  -0.48335  -0.46674  -0.45267  -0.43082
 Alpha  occ. eigenvalues --   -0.41539  -0.40087  -0.35836  -0.32085  -0.31503
 Alpha  occ. eigenvalues --   -0.30254  -0.29290  -0.25886  -0.23132
 Alpha virt. eigenvalues --   -0.09024  -0.03924  -0.03867   0.10247   0.10533
 Alpha virt. eigenvalues --    0.11001   0.12892   0.15189   0.16339   0.18142
 Alpha virt. eigenvalues --    0.19258   0.19497   0.20289   0.20916   0.21304
 Alpha virt. eigenvalues --    0.22770   0.24242   0.27412   0.27441   0.31780
 Alpha virt. eigenvalues --    0.32622   0.34525   0.38194   0.38559   0.40878
 Alpha virt. eigenvalues --    0.41490   0.42415   0.44279   0.44279   0.48188
 Alpha virt. eigenvalues --    0.48362   0.49559   0.50318   0.51325   0.53307
 Alpha virt. eigenvalues --    0.54744   0.55690   0.56378   0.57965   0.60384
 Alpha virt. eigenvalues --    0.62228   0.62741   0.66327   0.66967   0.68047
 Alpha virt. eigenvalues --    0.69040   0.70731   0.73021   0.73617   0.74098
 Alpha virt. eigenvalues --    0.75429   0.76931   0.77522   0.78054   0.79129
 Alpha virt. eigenvalues --    0.80760   0.81648   0.81648   0.82600   0.84746
 Alpha virt. eigenvalues --    0.85445   0.87510   0.88293   0.90260   0.91329
 Alpha virt. eigenvalues --    0.91846   0.92492   0.93914   0.94503   0.96121
 Alpha virt. eigenvalues --    0.96128   0.97380   0.98079   0.98941   1.00543
 Alpha virt. eigenvalues --    1.01851   1.04382   1.06646   1.08915   1.11018
 Alpha virt. eigenvalues --    1.11226   1.12318   1.13906   1.15263   1.16598
 Alpha virt. eigenvalues --    1.19660   1.20059   1.22426   1.25317   1.26797
 Alpha virt. eigenvalues --    1.28756   1.28951   1.32055   1.33651   1.35870
 Alpha virt. eigenvalues --    1.37173   1.40225   1.40717   1.41270   1.41847
 Alpha virt. eigenvalues --    1.44021   1.45668   1.45877   1.47248   1.48415
 Alpha virt. eigenvalues --    1.51538   1.52472   1.57109   1.58985   1.59601
 Alpha virt. eigenvalues --    1.60846   1.61072   1.61872   1.64339   1.68645
 Alpha virt. eigenvalues --    1.68906   1.72380   1.72580   1.79246   1.79911
 Alpha virt. eigenvalues --    1.81130   1.81320   1.85122   1.87441   1.93225
 Alpha virt. eigenvalues --    1.93719   1.96091   1.99027   2.01035   2.03953
 Alpha virt. eigenvalues --    2.04773   2.09424   2.10210   2.12688   2.17686
 Alpha virt. eigenvalues --    2.18519   2.21313   2.24109   2.27269   2.29791
 Alpha virt. eigenvalues --    2.30186   2.35869   2.39129   2.43267   2.44265
 Alpha virt. eigenvalues --    2.48606   2.51782   2.55419   2.58649   2.59724
 Alpha virt. eigenvalues --    2.61212   2.73027   2.77461   2.79180   2.79979
 Alpha virt. eigenvalues --    2.83795   2.85967   2.86915   2.90958   2.92667
 Alpha virt. eigenvalues --    2.98309   2.99596   3.03862   3.05811   3.05960
 Alpha virt. eigenvalues --    3.07016   3.11563   3.11952   3.16383   3.17278
 Alpha virt. eigenvalues --    3.19217   3.20078   3.20784   3.22825   3.25230
 Alpha virt. eigenvalues --    3.25999   3.26737   3.29976   3.33264   3.34114
 Alpha virt. eigenvalues --    3.38041   3.38814   3.42804   3.43509   3.46083
 Alpha virt. eigenvalues --    3.47669   3.50610   3.51624   3.54998   3.55659
 Alpha virt. eigenvalues --    3.56396   3.57490   3.59391   3.59888   3.63533
 Alpha virt. eigenvalues --    3.66246   3.66370   3.67102   3.68669   3.69363
 Alpha virt. eigenvalues --    3.73376   3.74988   3.77724   3.78122   3.80629
 Alpha virt. eigenvalues --    3.80873   3.82766   3.84475   3.87068   3.88367
 Alpha virt. eigenvalues --    3.92057   3.94512   3.96024   3.96830   4.02237
 Alpha virt. eigenvalues --    4.03767   4.04842   4.08893   4.11435   4.11798
 Alpha virt. eigenvalues --    4.14186   4.15276   4.17261   4.19529   4.20719
 Alpha virt. eigenvalues --    4.21087   4.21999   4.23695   4.28297   4.28482
 Alpha virt. eigenvalues --    4.32117   4.32989   4.34401   4.36374   4.37621
 Alpha virt. eigenvalues --    4.38579   4.38749   4.39913   4.41899   4.42331
 Alpha virt. eigenvalues --    4.46180   4.46472   4.48517   4.50927   4.51666
 Alpha virt. eigenvalues --    4.52292   4.55262   4.55559   4.58576   4.58815
 Alpha virt. eigenvalues --    4.60015   4.60557   4.61302   4.64660   4.68344
 Alpha virt. eigenvalues --    4.73569   4.73974   4.76633   4.79131   4.80142
 Alpha virt. eigenvalues --    4.81980   4.84285   4.89892   4.92789   4.94138
 Alpha virt. eigenvalues --    4.95167   4.99115   4.99797   5.01393   5.02131
 Alpha virt. eigenvalues --    5.03110   5.04337   5.06536   5.07128   5.07654
 Alpha virt. eigenvalues --    5.08690   5.09349   5.11723   5.17385   5.20754
 Alpha virt. eigenvalues --    5.21611   5.22407   5.32846   5.36229   5.37429
 Alpha virt. eigenvalues --    5.38555   5.40713   5.43187   5.47741   5.50098
 Alpha virt. eigenvalues --    5.50411   5.55847   5.57944   5.61923   5.69160
 Alpha virt. eigenvalues --    5.70838   5.76825   5.81574   5.88745   5.90010
 Alpha virt. eigenvalues --    5.94264   5.94654   6.09401   6.10388   6.14811
 Alpha virt. eigenvalues --    6.23122   6.24919   6.26781   6.31034   6.46815
 Alpha virt. eigenvalues --    6.69625   6.71074   6.80748   6.86199   6.99056
 Alpha virt. eigenvalues --    7.04209   7.25733   8.27604   9.94478  10.46304
 Alpha virt. eigenvalues --   11.01745  11.31191  11.33635  11.51307  11.78974
 Alpha virt. eigenvalues --   12.10394  12.29473  12.95321  13.08779  13.19747
 Alpha virt. eigenvalues --   18.26105  21.84130
          Condensed to atoms (all electrons):
               1          2          3          4          5          6
     1  N    5.564957   0.424640  -0.071042  -0.000080   0.031374   0.031374
     2  O    0.424640   8.130780   0.002062   0.000001   0.003699   0.003699
     3  C   -0.071042   0.002062   5.097595   0.335677   0.380500   0.380500
     4  N   -0.000080   0.000001   0.335677   5.485539  -0.052656  -0.052656
     5  C    0.031374   0.003699   0.380500  -0.052656   4.801129   0.032257
     6  C    0.031374   0.003699   0.380500  -0.052656   0.032257   4.801129
     7  C    0.458712  -0.035629   0.004993   0.002706   0.438374  -0.079169
     8  C    0.458712  -0.035629   0.004993   0.002706  -0.079169   0.438374
     9  O   -0.000004  -0.000000  -0.092592   0.477639  -0.005381   0.001038
    10  O   -0.000004  -0.000000  -0.092592   0.477639   0.001038  -0.005381
    11  H   -0.020582   0.009280   0.003364  -0.000056   0.009479   0.002700
    12  H   -0.020582   0.009280   0.003364  -0.000056   0.002700   0.009479
    13  C    0.003490  -0.000118  -0.043791  -0.015035   0.387037   0.007335
    14  C    0.003490  -0.000118  -0.043791  -0.015035   0.007335   0.387037
    15  H    0.000083  -0.000001   0.003249   0.000105  -0.016475  -0.000202
    16  H    0.000083  -0.000001   0.003249   0.000105  -0.000202  -0.016475
    17  H   -0.000083   0.000002  -0.003109   0.001496  -0.004869  -0.000047
    18  H   -0.000083   0.000002  -0.003109   0.001496  -0.000047  -0.004869
    19  H   -0.000079   0.000001  -0.008155   0.005394  -0.008320   0.000074
    20  H   -0.000079   0.000001  -0.008155   0.005394   0.000074  -0.008320
               7          8          9         10         11         12
     1  N    0.458712   0.458712  -0.000004  -0.000004  -0.020582  -0.020582
     2  O   -0.035629  -0.035629  -0.000000  -0.000000   0.009280   0.009280
     3  C    0.004993   0.004993  -0.092592  -0.092592   0.003364   0.003364
     4  N    0.002706   0.002706   0.477639   0.477639  -0.000056  -0.000056
     5  C    0.438374  -0.079169  -0.005381   0.001038   0.009479   0.002700
     6  C   -0.079169   0.438374   0.001038  -0.005381   0.002700   0.009479
     7  C    4.923678  -0.043603  -0.000027  -0.000041   0.297605   0.003563
     8  C   -0.043603   4.923678  -0.000041  -0.000027   0.003563   0.297605
     9  O   -0.000027  -0.000041   8.031236  -0.070920   0.000002   0.000002
    10  O   -0.000041  -0.000027  -0.070920   8.031236   0.000002   0.000002
    11  H    0.297605   0.003563   0.000002   0.000002   0.587343  -0.000938
    12  H    0.003563   0.297605   0.000002   0.000002  -0.000938   0.587343
    13  C   -0.037117   0.000432   0.002714   0.000442  -0.009256   0.000044
    14  C    0.000432  -0.037117   0.000442   0.002714   0.000044  -0.009256
    15  H   -0.007032   0.000012   0.000628  -0.000003   0.004409  -0.000000
    16  H    0.000012  -0.007032  -0.000003   0.000628  -0.000000   0.004409
    17  H   -0.001465  -0.000016   0.006443   0.000084   0.000468  -0.000001
    18  H   -0.000016  -0.001465   0.000084   0.006443  -0.000001   0.000468
    19  H    0.001737   0.000027  -0.001246  -0.000201  -0.000133  -0.000000
    20  H    0.000027   0.001737  -0.000201  -0.001246  -0.000000  -0.000133
              13         14         15         16         17         18
     1  N    0.003490   0.003490   0.000083   0.000083  -0.000083  -0.000083
     2  O   -0.000118  -0.000118  -0.000001  -0.000001   0.000002   0.000002
     3  C   -0.043791  -0.043791   0.003249   0.003249  -0.003109  -0.003109
     4  N   -0.015035  -0.015035   0.000105   0.000105   0.001496   0.001496
     5  C    0.387037   0.007335  -0.016475  -0.000202  -0.004869  -0.000047
     6  C    0.007335   0.387037  -0.000202  -0.016475  -0.000047  -0.004869
     7  C   -0.037117   0.000432  -0.007032   0.000012  -0.001465  -0.000016
     8  C    0.000432  -0.037117   0.000012  -0.007032  -0.000016  -0.001465
     9  O    0.002714   0.000442   0.000628  -0.000003   0.006443   0.000084
    10  O    0.000442   0.002714  -0.000003   0.000628   0.000084   0.006443
    11  H   -0.009256   0.000044   0.004409  -0.000000   0.000468  -0.000001
    12  H    0.000044  -0.009256  -0.000000   0.004409  -0.000001   0.000468
    13  C    4.903827  -0.000113   0.374506   0.000001   0.382618   0.000004
    14  C   -0.000113   4.903827   0.000001   0.374506   0.000004   0.382618
    15  H    0.374506   0.000001   0.589905  -0.000000  -0.039781  -0.000000
    16  H    0.000001   0.374506  -0.000000   0.589905  -0.000000  -0.039781
    17  H    0.382618   0.000004  -0.039781  -0.000000   0.557558  -0.000000
    18  H    0.000004   0.382618  -0.000000  -0.039781  -0.000000   0.557558
    19  H    0.396127  -0.000001  -0.034089  -0.000000  -0.039464  -0.000001
    20  H   -0.000001   0.396127  -0.000000  -0.034089  -0.000001  -0.039464
              19         20
     1  N   -0.000079  -0.000079
     2  O    0.000001   0.000001
     3  C   -0.008155  -0.008155
     4  N    0.005394   0.005394
     5  C   -0.008320   0.000074
     6  C    0.000074  -0.008320
     7  C    0.001737   0.000027
     8  C    0.000027   0.001737
     9  O   -0.001246  -0.000201
    10  O   -0.000201  -0.001246
    11  H   -0.000133  -0.000000
    12  H   -0.000000  -0.000133
    13  C    0.396127  -0.000001
    14  C   -0.000001   0.396127
    15  H   -0.034089  -0.000000
    16  H   -0.000000  -0.034089
    17  H   -0.039464  -0.000001
    18  H   -0.000001  -0.039464
    19  H    0.562410   0.000001
    20  H    0.000001   0.562410
 Mulliken charges:
               1
     1  N    0.135701
     2  O   -0.511950
     3  C    0.146788
     4  N    0.339675
     5  C    0.072122
     6  C    0.072122
     7  C    0.072259
     8  C    0.072259
     9  O   -0.349814
    10  O   -0.349814
    11  H    0.112708
    12  H    0.112708
    13  C   -0.353145
    14  C   -0.353145
    15  H    0.124684
    16  H    0.124684
    17  H    0.140162
    18  H    0.140162
    19  H    0.125917
    20  H    0.125917
 Sum of Mulliken charges =  -0.00000
 Mulliken charges with hydrogens summed into heavy atoms:
               1
     1  N    0.135701
     2  O   -0.511950
     3  C    0.146788
     4  N    0.339675
     5  C    0.072122
     6  C    0.072122
     7  C    0.184967
     8  C    0.184967
     9  O   -0.349814
    10  O   -0.349814
    13  C    0.037618
    14  C    0.037618
 Electronic spatial extent (au):  <R**2>=           1947.6152
 Charge=             -0.0000 electrons
 Dipole moment (field-independent basis, Debye):
    X=              0.0000    Y=             -0.0000    Z=             -0.2957  Tot=              0.2957
 Quadrupole moment (field-independent basis, Debye-Ang):
   XX=            -68.2140   YY=            -55.5050   ZZ=            -91.7950
   XY=             -1.3670   XZ=             -0.0000   YZ=              0.0000
 Traceless Quadrupole moment (field-independent basis, Debye-Ang):
   XX=              3.6240   YY=             16.3330   ZZ=            -19.9570
   XY=             -1.3670   XZ=             -0.0000   YZ=              0.0000
 Octapole moment (field-independent basis, Debye-Ang**2):
  XXX=              0.0000  YYY=              0.0000  ZZZ=            -42.0414  XYY=              0.0000
  XXY=             -0.0000  XXZ=              0.1323  XZZ=              0.0000  YZZ=              0.0000
  YYZ=              3.8102  XYZ=              6.6157
 Hexadecapole moment (field-independent basis, Debye-Ang**3):
 XXXX=           -108.9644 YYYY=           -791.5410 ZZZZ=          -1703.0484 XXXY=            -12.4213
 XXXZ=             -0.0000 YYYX=             -7.1736 YYYZ=             -0.0000 ZZZX=             -0.0000
 ZZZY=             -0.0000 XXYY=           -161.8827 XXZZ=           -251.9678 YYZZ=           -359.6669
 XXYZ=             -0.0000 YYXZ=             -0.0000 ZZXY=            -16.5128
 N-N= 7.187136145911D+02 E-N=-2.854729441876D+03  KE= 6.049742334470D+02
 Symmetry A    KE= 3.936439775546D+02
 Symmetry B    KE= 2.113302558924D+02
 No NMR shielding tensors so no spin-rotation constants.
 Leave Link  601 at Tue Aug 24 14:04:38 2021, MaxMem= 24159191040 cpu:        67.4
 (Enter /public/home/users/caep010/software/Gaussian09/g09/l701.exe)
 Compute integral first derivatives.
 ... and contract with generalized density number  0.
 Leave Link  701 at Tue Aug 24 14:04:40 2021, MaxMem= 24159191040 cpu:        32.9
 (Enter /public/home/users/caep010/software/Gaussian09/g09/l702.exe)
 L702 exits ... SP integral derivatives will be done elsewhere.
 Leave Link  702 at Tue Aug 24 14:04:42 2021, MaxMem= 24159191040 cpu:         2.0
 (Enter /public/home/users/caep010/software/Gaussian09/g09/l703.exe)
 Compute integral first derivatives, UseDBF=F ICtDFT=           0.
 Integral derivatives from FoFJK, PRISM(SPDF).
 Calling FoFJK, ICntrl=      2127 FMM=F ISym2X=1 I1Cent= 0 IOpClX= 0 NMat=1 NMatS=1 NMatT=0.
 FoFJK:  IHMeth= 1 ICntrl=    2127 DoSepK=F KAlg= 0 I1Cent=   0 FoldK=F
 IRaf=         0 NMat=   1 IRICut=       1 DoRegI=T DoRafI=F ISym2E= 1.
 FoFCou: FMM=F IPFlag=           0 FMFlag=      100000 FMFlg1=         800
         NFxFlg=           0 DoJE=F BraDBF=F KetDBF=F FulRan=T
         wScrn=  0.000000 ICntrl=    2127 IOpCl=  0 I1Cent=           0 NGrid=           0
         NMat0=    1 NMatS0=      1 NMatT0=    0 NMatD0=    1 NMtDS0=    0 NMtDT0=    0
 Petite list used in FoFCou.
 Leave Link  703 at Tue Aug 24 14:04:47 2021, MaxMem= 24159191040 cpu:       154.6
 (Enter /public/home/users/caep010/software/Gaussian09/g09/l716.exe)
 Dipole        = 6.66133815D-16 2.66453526D-15-1.16330124D-01
 ***** Axes restored to original set *****
 -------------------------------------------------------------------
 Center     Atomic                   Forces (Hartrees/Bohr)
 Number     Number              X              Y              Z
 -------------------------------------------------------------------
      1        7           0.019182756    0.019182756    0.000000000
      2        8          -0.014797527   -0.014797527    0.000000000
      3        6          -0.008867431   -0.008867431    0.000000000
      4        7           0.001173783    0.001173783   -0.000000000
      5        6          -0.002051844    0.004613567    0.007440711
      6        6           0.004613567   -0.002051844   -0.007440711
      7        6           0.033680120   -0.215170320   -0.062276857
      8        6          -0.215170320    0.033680120    0.062276857
      9        8          -0.005390118    0.005108451   -0.000945438
     10        8           0.005108451   -0.005390118    0.000945438
     11        1          -0.031693502    0.227622680    0.063012279
     12        1           0.227622680   -0.031693502   -0.063012279
     13        6           0.226567014    0.028693068    0.049419448
     14        6           0.028693068    0.226567014   -0.049419448
     15        1           0.013275387    0.057345319    0.043343300
     16        1           0.057345319    0.013275387   -0.043343300
     17        1          -0.187843178    0.047562292   -0.208161830
     18        1           0.047562292   -0.187843178    0.208161830
     19        1          -0.062977638   -0.136032880    0.111553008
     20        1          -0.136032880   -0.062977638   -0.111553008
 -------------------------------------------------------------------
 Cartesian Forces:  Max     0.227622680 RMS     0.097405907
 Leave Link  716 at Tue Aug 24 14:04:49 2021, MaxMem= 24159191040 cpu:        10.0
 (Enter /public/home/users/caep010/software/Gaussian09/g09/l103.exe)

 GradGradGradGradGradGradGradGradGradGradGradGradGradGradGradGradGradGrad
 Berny optimization.
 FormGI is forming the generalized inverse of G from B-inverse, IUseBI=4.
 Internal  Forces:  Max     0.283940320 RMS     0.061977134
 Search for a local minimum.
 Step number   1 out of a maximum of  103
 All quantities printed in internal units (Hartrees-Bohrs-Radians)
 RMS Force = .61977D-01 SwitMx=.10000D-02 MixMth= 1
 Mixed Optimization -- RFO/linear search
 Second derivative matrix not updated -- first step.
 ITU=  0
     Eigenvalues ---    0.00630   0.00630   0.00787   0.00787   0.01611
     Eigenvalues ---    0.01673   0.01830   0.02239   0.02250   0.02336
     Eigenvalues ---    0.02392   0.02407   0.02431   0.07223   0.07223
     Eigenvalues ---    0.07800   0.07800   0.15845   0.15876   0.16000
     Eigenvalues ---    0.16000   0.16000   0.16000   0.16000   0.16000
     Eigenvalues ---    0.23443   0.23505   0.24983   0.24985   0.24993
     Eigenvalues ---    0.25000   0.25000   0.25000   0.25000   0.31324
     Eigenvalues ---    0.31324   0.35935   0.44660   0.45417   0.46411
     Eigenvalues ---    0.46411   0.48784   0.50992   0.51567   0.52917
     Eigenvalues ---    0.65199   0.65199   0.70536   0.73746   0.73746
     Eigenvalues ---    0.79842   0.79842   0.94749   0.94749
 RFO step:  Lambda=-3.35446081D-01 EMin= 6.30221779D-03
 Linear search not attempted -- first point.
 Maximum step size (   0.300) exceeded in Quadratic search.
    -- Step size scaled by   0.533
 Iteration  1 RMS(Cart)=  0.03337970 RMS(Int)=  0.00022805
 Iteration  2 RMS(Cart)=  0.00018881 RMS(Int)=  0.00000395
 Iteration  3 RMS(Cart)=  0.00000006 RMS(Int)=  0.00000395
 ITry= 1 IFail=0 DXMaxC= 1.25D-01 DCOld= 1.00D+10 DXMaxT= 3.00D-01 DXLimC= 3.00D+00 Rises=F
 ClnCor:  largest displacement from symmetrization is 4.92D-12 for atom    10.
 Variable       Old X    -DE/DX   Delta X   Delta X   Delta X     New X
                                 (Linear)    (Quad)   (Total)
    R1        2.43463  -0.02093   0.00000  -0.01072  -0.01072   2.42391
    R2        2.56737   0.01044   0.00000   0.00646   0.00646   2.57383
    R3        2.56737   0.01044   0.00000   0.00646   0.00646   2.57383
    R4        2.77483  -0.00126   0.00000  -0.00097  -0.00097   2.77386
    R5        2.62169   0.00971   0.00000   0.00632   0.00632   2.62801
    R6        2.62169   0.00971   0.00000   0.00632   0.00632   2.62801
    R7        2.30818   0.00647   0.00000   0.00269   0.00269   2.31087
    R8        2.30818   0.00647   0.00000   0.00269   0.00269   2.31087
    R9        2.58872   0.01340   0.00000   0.00845   0.00845   2.59717
   R10        2.85398   0.00739   0.00000   0.00607   0.00607   2.86005
   R11        2.58872   0.01340   0.00000   0.00845   0.00845   2.59717
   R12        2.85398   0.00739   0.00000   0.00607   0.00607   2.86005
   R13        1.68175   0.23809   0.00000   0.11828   0.11828   1.80003
   R14        1.68175   0.23809   0.00000   0.11828   0.11828   1.80003
   R15        1.90371   0.07210   0.00000   0.04806   0.04806   1.95177
   R16        1.64701   0.28394   0.00000   0.13348   0.13348   1.78049
   R17        1.73749   0.18672   0.00000   0.10079   0.10079   1.83828
   R18        1.90371   0.07210   0.00000   0.04806   0.04806   1.95177
   R19        1.64701   0.28394   0.00000   0.13348   0.13348   1.78049
   R20        1.73749   0.18672   0.00000   0.10079   0.10079   1.83828
    A1        2.09682  -0.00070   0.00000  -0.00070  -0.00071   2.09611
    A2        2.09682  -0.00070   0.00000  -0.00070  -0.00071   2.09611
    A3        2.08955   0.00139   0.00000   0.00141   0.00141   2.09096
    A4        2.08050  -0.00069   0.00000  -0.00056  -0.00056   2.07995
    A5        2.08050  -0.00069   0.00000  -0.00056  -0.00056   2.07995
    A6        2.12218   0.00137   0.00000   0.00111   0.00111   2.12329
    A7        2.05579  -0.00245   0.00000  -0.00223  -0.00223   2.05356
    A8        2.05579  -0.00245   0.00000  -0.00223  -0.00223   2.05356
    A9        2.17161   0.00490   0.00000   0.00446   0.00446   2.17607
   A10        2.05413  -0.00032   0.00000  -0.00036  -0.00036   2.05378
   A11        2.16952  -0.00502   0.00000  -0.00453  -0.00453   2.16499
   A12        2.05902   0.00536   0.00000   0.00491   0.00491   2.06393
   A13        2.05413  -0.00032   0.00000  -0.00036  -0.00036   2.05378
   A14        2.16952  -0.00502   0.00000  -0.00453  -0.00453   2.16499
   A15        2.05902   0.00536   0.00000   0.00491   0.00491   2.06393
   A16        2.12310  -0.00105   0.00000  -0.00089  -0.00089   2.12221
   A17        1.97324   0.00356   0.00000   0.00378   0.00377   1.97702
   A18        2.17869  -0.00221   0.00000  -0.00244  -0.00244   2.17625
   A19        2.12310  -0.00105   0.00000  -0.00089  -0.00089   2.12221
   A20        1.97324   0.00356   0.00000   0.00378   0.00377   1.97702
   A21        2.17869  -0.00221   0.00000  -0.00244  -0.00244   2.17625
   A22        1.92763  -0.00760   0.00000  -0.00796  -0.00795   1.91968
   A23        1.87160   0.00652   0.00000   0.00741   0.00741   1.87901
   A24        1.91074   0.00523   0.00000   0.00496   0.00496   1.91569
   A25        1.80125   0.00841   0.00000   0.01054   0.01055   1.81181
   A26        1.95256  -0.00324   0.00000  -0.00423  -0.00423   1.94833
   A27        1.99625  -0.00930   0.00000  -0.01054  -0.01054   1.98571
   A28        1.92763  -0.00760   0.00000  -0.00796  -0.00795   1.91968
   A29        1.87160   0.00652   0.00000   0.00741   0.00741   1.87901
   A30        1.91074   0.00523   0.00000   0.00496   0.00496   1.91569
   A31        1.80125   0.00841   0.00000   0.01054   0.01055   1.81181
   A32        1.95256  -0.00324   0.00000  -0.00423  -0.00423   1.94833
   A33        1.99625  -0.00930   0.00000  -0.01054  -0.01054   1.98571
    D1       -3.13319  -0.00048   0.00000  -0.00070  -0.00070  -3.13390
    D2        0.13903  -0.00273   0.00000  -0.00412  -0.00413   0.13490
    D3        0.00840  -0.00048   0.00000  -0.00070  -0.00070   0.00770
    D4       -3.00257  -0.00273   0.00000  -0.00412  -0.00413  -3.00670
    D5       -3.13319  -0.00048   0.00000  -0.00070  -0.00070  -3.13390
    D6        0.13903  -0.00273   0.00000  -0.00412  -0.00413   0.13490
    D7        0.00840  -0.00048   0.00000  -0.00070  -0.00070   0.00770
    D8       -3.00257  -0.00273   0.00000  -0.00412  -0.00413  -3.00670
    D9        0.84926  -0.00207   0.00000  -0.00322  -0.00322   0.84605
   D10       -2.29233  -0.00207   0.00000  -0.00322  -0.00322  -2.29555
   D11       -2.29233  -0.00207   0.00000  -0.00322  -0.00322  -2.29555
   D12        0.84926  -0.00207   0.00000  -0.00322  -0.00322   0.84605
   D13       -3.13376  -0.00044   0.00000  -0.00065  -0.00065  -3.13441
   D14        0.04298  -0.00099   0.00000  -0.00144  -0.00144   0.04154
   D15        0.00784  -0.00044   0.00000  -0.00065  -0.00065   0.00718
   D16       -3.09861  -0.00099   0.00000  -0.00144  -0.00144  -3.10005
   D17       -3.13376  -0.00044   0.00000  -0.00065  -0.00065  -3.13441
   D18        0.04298  -0.00099   0.00000  -0.00144  -0.00144   0.04154
   D19        0.00784  -0.00044   0.00000  -0.00065  -0.00065   0.00718
   D20       -3.09861  -0.00099   0.00000  -0.00144  -0.00144  -3.10005
   D21       -0.01614   0.00092   0.00000   0.00135   0.00135  -0.01478
   D22        2.97893   0.00390   0.00000   0.00568   0.00567   2.98460
   D23        3.09258   0.00122   0.00000   0.00190   0.00190   3.09449
   D24       -0.19554   0.00421   0.00000   0.00623   0.00622  -0.18931
   D25        2.91261  -0.00472   0.00000  -0.00602  -0.00601   2.90660
   D26       -1.41982   0.00488   0.00000   0.00638   0.00637  -1.41345
   D27        0.75515   0.00090   0.00000   0.00128   0.00128   0.75644
   D28       -0.19375  -0.00517   0.00000  -0.00671  -0.00670  -0.20045
   D29        1.75701   0.00444   0.00000   0.00569   0.00568   1.76269
   D30       -2.35120   0.00045   0.00000   0.00059   0.00059  -2.35061
   D31       -0.01614   0.00092   0.00000   0.00135   0.00135  -0.01478
   D32        2.97893   0.00390   0.00000   0.00568   0.00567   2.98460
   D33        3.09258   0.00122   0.00000   0.00190   0.00190   3.09449
   D34       -0.19554   0.00421   0.00000   0.00623   0.00622  -0.18931
   D35        2.91261  -0.00472   0.00000  -0.00602  -0.00601   2.90660
   D36       -1.41982   0.00488   0.00000   0.00638   0.00637  -1.41345
   D37        0.75515   0.00090   0.00000   0.00128   0.00128   0.75644
   D38       -0.19375  -0.00517   0.00000  -0.00671  -0.00670  -0.20045
   D39        1.75701   0.00444   0.00000   0.00569   0.00568   1.76269
   D40       -2.35120   0.00045   0.00000   0.00059   0.00059  -2.35061
         Item               Value     Threshold  Converged?
 Maximum Force            0.283940     0.000450     NO 
 RMS     Force            0.061977     0.000300     NO 
 Maximum Displacement     0.125293     0.001800     NO 
 RMS     Displacement     0.033398     0.001200     NO 
 Predicted change in Energy=-1.463397D-01
 Lowest energy point so far.  Saving SCF results.
 GradGradGradGradGradGradGradGradGradGradGradGradGradGradGradGradGradGrad

 Leave Link  103 at Tue Aug 24 14:04:50 2021, MaxMem= 24159191040 cpu:        34.2
 (Enter /public/home/users/caep010/software/Gaussian09/g09/l202.exe)
                          Input orientation:                          
 ---------------------------------------------------------------------
 Center     Atomic      Atomic             Coordinates (Angstroms)
 Number     Number       Type             X           Y           Z
 ---------------------------------------------------------------------
      1          7           0        2.747729    2.747729    0.000000
      2          8           0        3.654719    3.654719    0.000000
      3          6           0        0.813958    0.813958   -0.000000
      4          7           0       -0.223980   -0.223980   -0.000000
      5          6           0        0.519789    2.066778    0.527165
      6          6           0        2.066778    0.519789   -0.527165
      7          6           0        1.511475    3.018031    0.503682
      8          6           0        3.018031    1.511475   -0.503682
      9          8           0       -1.331709    0.080924   -0.418753
     10          8           0        0.080924   -1.331709    0.418753
     11          1           0        1.386754    3.936702    0.722346
     12          1           0        3.936702    1.386754   -0.722346
     13          6           0       -0.806109    2.429524    1.160420
     14          6           0        2.429524   -0.806109   -1.160420
     15          1           0       -0.719649    3.321113    1.674559
     16          1           0        3.321113   -0.719649   -1.674559
     17          1           0       -1.410005    2.628520    0.465123
     18          1           0        2.628520   -1.410005   -0.465123
     19          1           0       -1.101439    1.707573    1.741678
     20          1           0        1.707573   -1.101439   -1.741678
 ---------------------------------------------------------------------
                    Distance matrix (angstroms):
                    1          2          3          4          5
     1  N    0.000000
     2  O    1.282677   0.000000
     3  C    2.734766   4.017443   0.000000
     4  N    4.202631   5.485309   1.467866   0.000000
     5  C    2.388580   3.553483   1.390682   2.465495   0.000000
     6  C    2.388580   3.553483   1.390682   2.465495   2.428571
     7  C    1.362014   2.291847   2.366044   3.711621   1.374363
     8  C    1.362014   2.291847   2.366044   3.711621   2.759025
     9  O    4.891730   6.149132   2.305771   1.222859   2.875139
    10  O    4.891730   6.149132   2.305771   1.222859   3.428420
    11  H    1.946200   2.396866   3.255981   4.519681   2.070348
    12  H    1.946200   2.396866   3.255981   4.519681   3.701217
    13  C    3.752013   4.769347   2.565394   2.954070   1.513474
    14  C    3.752013   4.769347   2.565394   2.954070   3.840379
    15  H    3.893023   4.695800   3.382592   3.951901   2.103824
    16  H    3.893023   4.695800   3.382592   3.951901   4.523182
    17  H    4.185368   5.188531   2.907746   3.124060   2.010848
    18  H    4.185368   5.188531   2.907746   3.124060   4.185618
    19  H    4.351030   5.426404   2.738747   2.744863   2.057292
    20  H    4.351030   5.426404   2.738747   2.744863   4.073828
                    6          7          8          9         10
     6  C    0.000000
     7  C    2.759025   0.000000
     8  C    1.374363   2.356735   0.000000
     9  O    3.428420   4.190606   4.579730   0.000000
    10  O    2.875139   4.579730   4.190606   2.166213   0.000000
    11  H    3.701217   0.952537   3.169532   4.853779   5.436314
    12  H    2.070348   3.169532   0.952537   5.436314   4.853779
    13  C    3.840379   2.479686   4.270374   2.878535   3.934942
    14  C    1.513474   4.270374   2.479686   3.934942   2.878535
    15  H    4.523182   2.537859   4.689325   3.905816   4.885357
    16  H    2.103824   4.689325   2.537859   4.885357   3.905816
    17  H    4.185618   2.947584   4.668391   2.697705   4.231835
    18  H    2.010848   4.668391   2.947584   4.231835   2.697705
    19  H    4.073828   3.174469   4.695756   2.714125   3.519281
    20  H    2.057292   4.695756   3.174469   3.519281   2.714125
                   11         12         13         14         15
    11  H    0.000000
    12  H    3.884792   0.000000
    13  C    2.696691   5.208305   0.000000
    14  C    5.208305   2.696691   5.130784   0.000000
    15  H    2.392194   5.582876   1.032834   5.915096   0.000000
    16  H    5.582876   2.392194   5.915096   1.032834   6.623602
    17  H    3.098284   5.615990   0.942193   5.401949   1.555318
    18  H    5.615990   3.098284   5.401949   0.942193   6.178345
    19  H    3.492729   5.617580   0.972776   5.216174   1.659452
    20  H    5.617580   3.492729   5.216174   0.972776   6.092704
                   16         17         18         19         20
    16  H    0.000000
    17  H    6.178345   0.000000
    18  H    1.555318   5.786599   0.000000
    19  H    6.092704   1.604042   5.338713   0.000000
    20  H    1.659452   5.338713   1.604042   5.283451   0.000000
 Stoichiometry    C7H8N2O3
 Framework group  C2[C2(NCNO),X(C6H8O2)]
 Deg. of freedom    26
 Full point group                 C2      NOp   2
 RotChk:  IX=0 Diff= 1.73D-03
 Largest Abelian subgroup         C2      NOp   2
 Largest concise Abelian subgroup C2      NOp   2
                         Standard orientation:                         
 ---------------------------------------------------------------------
 Center     Atomic      Atomic             Coordinates (Angstroms)
 Number     Number       Type             X           Y           Z
 ---------------------------------------------------------------------
      1          7           0       -0.000000   -0.000000    2.215048
      2          8           0       -0.000000   -0.000000    3.497725
      3          6           0        0.000000    0.000000   -0.519718
      4          7           0        0.000000    0.000000   -1.987584
      5          6           0        0.000000    1.214286    0.158151
      6          6           0       -0.000000   -1.214286    0.158151
      7          6           0        0.008743    1.178335    1.532016
      8          6           0       -0.008743   -1.178335    1.532016
      9          8           0        0.810883    0.718044   -2.555267
     10          8           0       -0.810883   -0.718044   -2.555267
     11          1           0        0.132061    1.937902    2.093423
     12          1           0       -0.132061   -1.937902    2.093423
     13          6           0       -0.052085    2.564863   -0.522901
     14          6           0        0.052085   -2.564863   -0.522901
     15          1           0       -0.268088    3.300933    0.168685
     16          1           0        0.268088   -3.300933    0.168685
     17          1           0        0.820744    2.774448   -0.809208
     18          1           0       -0.820744   -2.774448   -0.809208
     19          1           0       -0.706674    2.545452   -1.242227
     20          1           0        0.706674   -2.545452   -1.242227
 ---------------------------------------------------------------------
 Rotational constants (GHZ):      1.5557634      0.8003688      0.5549468
 Leave Link  202 at Tue Aug 24 14:04:50 2021, MaxMem= 24159191040 cpu:         0.6
 (Enter /public/home/users/caep010/software/Gaussian09/g09/l301.exe)
 Standard basis: GTBas3 (6D, 7F)
 Ernie: Thresh=  0.10000D-02 Tol=  0.10000D-05 Strict=F.
 There are   212 symmetry adapted cartesian basis functions of A   symmetry.
 There are   200 symmetry adapted cartesian basis functions of B   symmetry.
 There are   196 symmetry adapted basis functions of A   symmetry.
 There are   180 symmetry adapted basis functions of B   symmetry.
   376 basis functions,   584 primitive gaussians,   412 cartesian basis functions
    44 alpha electrons       44 beta electrons
       nuclear repulsion energy       715.4077620053 Hartrees.
 IExCor=  402 DFT=T Ex+Corr=B3LYP ExCW=0 ScaHFX=  0.200000
 ScaDFX=  0.800000  0.720000  1.000000  0.810000 ScalE2=  1.000000  1.000000
 IRadAn=      0 IRanWt=     -1 IRanGd=            0 ICorTp=0 IEmpDi=  4
 NAtoms=   20 NActive=   20 NUniq=   12 SFac= 2.78D+00 NAtFMM=   60 NAOKFM=F Big=F
 Integral buffers will be    131072 words long.
 Raffenetti 2 integral format.
 Two-electron integral symmetry is turned on.
 Leave Link  301 at Tue Aug 24 14:04:50 2021, MaxMem= 24159191040 cpu:         1.8
 (Enter /public/home/users/caep010/software/Gaussian09/g09/l302.exe)
 NPDir=0 NMtPBC=     1 NCelOv=     1 NCel=       1 NClECP=     1 NCelD=      1
         NCelK=      1 NCelE2=     1 NClLst=     1 CellRange=     0.0.
 One-electron integrals computed using PRISM.
 One-electron integral symmetry used in STVInt
 NBasis=   376 RedAO= T EigKep=  1.00D-04  NBF=   196   180
 NBsUse=   376 1.00D-06 EigRej= -1.00D+00 NBFU=   196   180
 Precomputing XC quadrature grid using
 IXCGrd= 4 IRadAn=           0 IRanWt=          -1 IRanGd=           0 AccXCQ= 0.00D+00.
 Generated NRdTot=       0 NPtTot=           0 NUsed=           0 NTot=          32
 NSgBfM=   411   411   411   411   411 MxSgAt=    20 MxSgA2=    20.
 Leave Link  302 at Tue Aug 24 14:04:51 2021, MaxMem= 24159191040 cpu:        16.5
 (Enter /public/home/users/caep010/software/Gaussian09/g09/l303.exe)
 DipDrv:  MaxL=1.
 Leave Link  303 at Tue Aug 24 14:04:51 2021, MaxMem= 24159191040 cpu:         1.1
 (Enter /public/home/users/caep010/software/Gaussian09/g09/l401.exe)
 Initial guess from the checkpoint file:  "/public/home/users/caep010/.cache/gau_scr/Gau-106516.chk"
 B after Tr=    -0.000000   -0.000000   -0.000000
         Rot=    1.000000   -0.000000    0.000000    0.000202 Ang=   0.02 deg.
 Guess basis will be translated and rotated to current coordinates.
 JPrj=2 DoOrth=T DoCkMO=T.
 Initial guess orbital symmetries:
       Occupied  (B) (A) (A) (A) (A) (A) (B) (A) (B) (A) (B) (A)
                 (A) (A) (B) (A) (A) (B) (A) (B) (A) (B) (A) (B)
                 (A) (B) (B) (A) (B) (A) (B) (A) (B) (A) (B) (A)
                 (B) (B) (A) (A) (B) (A) (B) (B)
       Virtual   (A) (A) (A) (A) (A) (A) (A) (A) (A) (A) (A) (A)
                 (A) (A) (A) (A) (A) (A) (A) (A) (A) (A) (A) (A)
                 (A) (A) (A) (A) (A) (A) (A) (A) (A) (A) (A) (A)
                 (A) (A) (A) (A) (A) (A) (A) (A) (A) (A) (A) (A)
                 (A) (A) (A) (A) (A) (A) (A) (A) (A) (A) (A) (A)
                 (A) (A) (A) (A) (A) (A) (A) (A) (A) (A) (A) (A)
                 (A) (A) (A) (A) (A) (A) (A) (A) (A) (A) (A) (A)
                 (A) (A) (A) (A) (A) (A) (A) (A) (A) (A) (A) (A)
                 (A) (A) (A) (A) (A) (A) (A) (A) (A) (A) (A) (A)
                 (A) (A) (A) (A) (A) (A) (A) (A) (A) (A) (A) (A)
                 (A) (A) (A) (A) (A) (A) (A) (A) (A) (A) (A) (A)
                 (A) (A) (A) (A) (A) (A) (A) (A) (A) (A) (A) (A)
                 (A) (A) (A) (A) (A) (A) (A) (A) (A) (A) (A) (A)
                 (A) (A) (A) (A) (A) (A) (A) (A) (A) (A) (A) (A)
                 (A) (A) (A) (A) (B) (B) (B) (B) (B) (B) (B) (B)
                 (B) (B) (B) (B) (B) (B) (B) (B) (B) (B) (B) (B)
                 (B) (B) (B) (B) (B) (B) (B) (B) (B) (B) (B) (B)
                 (B) (B) (B) (B) (B) (B) (B) (B) (B) (B) (B) (B)
                 (B) (B) (B) (B) (B) (B) (B) (B) (B) (B) (B) (B)
[...]
 ,-0.00574102,0.00480217,0.00500840,-0.03128877,-0.07246076,0.01086814,
 0.00467170,-0.00453101,-0.13169865,0.18648866,0.23254651,-0.15840721,0
 .06187261,0.05071165,0.01324643,-0.04838242,-0.01549112,-0.04740025,-0
 .01149895,0.01606458,-0.00302611,0.00433126,0.00436235,-0.00421493,-0.
 01658940,-0.00445527,-0.23354649,-0.14756930,0.01267645,0.00641503,0.0
 3445999,0.01304888,0.73107606,0.00763260,-0.21384310,-0.05055394,-0.02
 479482,-0.07142200,-0.02219420,-0.05004110,0.03616850,0.02435080,0.007
 31918,0.00628861,-0.00370695,-0.01607903,-0.05147588,-0.01216382,-0.09
 527775,-0.22864125,-0.02089536,0.06856527,0.00641503,-0.02425850,0.098
 11221,0.60347230,0.03229645,-0.07017631,-0.11175574,-0.00738761,-0.013
 91251,0.01500105,0.00019901,0.01362888,0.01331420,0.00574102,-0.000610
 62,0.00480217,-0.00467170,-0.01086814,-0.00453101,0.03128877,-0.005008
 40,-0.07246076,0.02425850,-0.01304888,-0.00411787,-0.18648866,0.131698
 65,0.23254651,0.00168799,0.00331497,0.00031788,-0.00271576,-0.00350291
 ,-0.00035078,-0.06841579,-0.00736713,-0.00642097,-0.50516138,0.0990123
 6,-0.05342628,-0.00457499,0.00758164,0.00138143,0.00418866,-0.00579278
 ,-0.00325390,-0.00161266,-0.00070433,0.00127632,-0.00112112,-0.0028825
 2,0.00088039,0.60721922,0.00038088,0.00145573,0.00018263,-0.00091662,-
 0.00090134,0.00002909,-0.01856044,0.01847230,0.00038144,0.08022638,-0.
 14988632,0.01605566,0.00151948,-0.00215671,-0.00100566,-0.00176216,-0.
 00431515,-0.00273625,0.00042788,0.00093901,-0.00001522,-0.00102180,0.0
 0003993,0.00097734,-0.15123519,0.17698000,0.00018641,-0.00094203,-0.00
 030106,0.00052655,0.00053966,0.00016327,-0.00514084,0.00322038,0.02052
 642,-0.05527014,0.01308847,-0.08357634,0.00297210,0.00045857,-0.000308
 80,-0.00123318,-0.00285141,0.00212689,-0.00104479,0.00005173,-0.000611
 75,-0.00069593,0.00186342,-0.00035946,0.07760048,-0.02560884,0.0412529
 8,0.00145573,0.00038088,-0.00018263,-0.00090134,-0.00091662,-0.0000290
 9,0.01847230,-0.01856044,-0.00038144,-0.14988632,0.08022638,-0.0160556
 6,-0.00431515,-0.00176216,0.00273625,-0.00215671,0.00151948,0.00100566
 ,0.00003993,-0.00102180,-0.00097734,0.00093901,0.00042788,0.00001522,-
 0.03185181,0.09597410,-0.01597396,0.17698000,0.00331497,0.00168799,-0.
 00031788,-0.00350291,-0.00271576,0.00035078,-0.00736713,-0.06841579,0.
 00642097,0.09901236,-0.50516138,0.05342628,-0.00579278,0.00418866,0.00
 325390,0.00758164,-0.00457499,-0.00138143,-0.00288252,-0.00112112,-0.0
 0088039,-0.00070433,-0.00161266,-0.00127632,0.06237187,-0.03185181,0.0
 1609237,-0.15123519,0.60721922,0.00094203,-0.00018641,-0.00030106,-0.0
 0053966,-0.00052655,0.00016327,-0.00322038,0.00514084,0.02052642,-0.01
 308847,0.05527014,-0.08357634,0.00285141,0.00123318,0.00212689,-0.0004
 5857,-0.00297210,-0.00030880,-0.00186342,0.00069593,-0.00035946,-0.000
 05173,0.00104479,-0.00061175,-0.01609237,0.01597396,0.02271063,0.02560
 884,-0.07760048,0.04125298,-0.00768268,0.03407635,0.01632843,0.0032911
 1,0.00046377,-0.00254637,-0.00276594,-0.00236169,0.00189355,0.00087510
 ,-0.00081203,-0.00030502,0.00518220,-0.01895378,-0.00759612,-0.0006950
 1,-0.00005338,-0.00007859,-0.05251805,0.01807960,0.01379154,-0.0047989
 6,-0.00237846,0.00235702,-0.00015846,-0.00003638,0.00008083,-0.0003485
 2,-0.00062298,0.00002080,0.05967102,-0.00078302,-0.00654225,-0.0035286
 8,-0.00087507,0.00099411,0.00220983,-0.00354794,0.00056818,-0.00102228
 ,0.00084765,-0.00016032,-0.00061895,0.00375269,-0.01182502,-0.00655909
 ,-0.00004918,0.00015831,0.00035601,0.02703148,-0.30663757,-0.10857031,
 0.00048574,0.00198934,-0.00099448,-0.00025595,0.00008203,0.00011182,-0
 .00018346,-0.00029608,0.00017778,-0.02785748,0.32084419,0.00357309,-0.
 01559471,-0.00254204,-0.00285076,0.00178382,-0.00266383,0.00184585,-0.
 00085156,0.00500364,0.00020603,-0.00029404,0.00103921,0.00086328,0.000
 86496,0.00270307,0.00005182,0.00043016,-0.00064952,0.01709794,-0.10552
 005,-0.07634754,0.00324623,-0.00005695,0.00314512,0.00009489,0.0000668
 2,-0.00007376,-0.00022031,0.00003396,-0.00025804,-0.02275179,0.1172509
 1,0.07348591,-0.00654225,-0.00078302,0.00352868,0.00099411,-0.00087507
 ,-0.00220983,0.00056818,-0.00354794,0.00102228,-0.00016032,0.00084765,
 0.00061895,0.00015831,-0.00004918,-0.00035601,-0.01182502,0.00375269,0
 .00655909,0.00198934,0.00048574,0.00099448,-0.30663757,0.02703148,0.10
 857031,-0.00029608,-0.00018346,-0.00017778,0.00008203,-0.00025595,-0.0
 0011182,-0.00004161,-0.00002475,0.00018508,0.32084419,0.03407635,-0.00
 768268,-0.01632843,0.00046377,0.00329111,0.00254637,-0.00236169,-0.002
 76594,-0.00189355,-0.00081203,0.00087510,0.00030502,-0.00005338,-0.000
 69501,0.00007859,-0.01895378,0.00518220,0.00759612,-0.00237846,-0.0047
 9896,-0.00235702,0.01807960,-0.05251805,-0.01379154,-0.00062298,-0.000
 34852,-0.00002080,-0.00003638,-0.00015846,-0.00008083,0.00140719,-0.00
 004161,-0.00067403,-0.02785748,0.05967102,0.01559471,-0.00357309,-0.00
 254204,-0.00178382,0.00285076,-0.00266383,0.00085156,-0.00184585,0.005
 00364,0.00029404,-0.00020603,0.00103921,-0.00043016,-0.00005182,-0.000
 64952,-0.00086496,-0.00086328,0.00270307,0.00005695,-0.00324623,0.0031
 4512,0.10552005,-0.01709794,-0.07634754,-0.00003396,0.00022031,-0.0002
 5804,-0.00006682,-0.00009489,-0.00007376,0.00067403,-0.00018508,0.0001
 4705,-0.11725091,0.02275179,0.07348591,0.00320000,-0.00410443,0.001221
 21,-0.00042095,0.00068479,-0.00005836,-0.00026848,0.01015549,0.0059268
 1,-0.00266559,-0.00072798,-0.00151427,-0.17041937,0.02296782,0.0417952
 1,0.00153776,-0.00288493,0.00050034,-0.03301515,0.00161727,0.01320824,
 -0.00151868,0.00098097,0.00060684,0.00011683,-0.00107378,-0.00072215,-
 0.00001002,0.00067804,0.00015738,0.00066449,0.00201127,-0.00117436,-0.
 00001820,0.00013902,-0.00020777,0.49712027,-0.00432193,-0.00285440,-0.
 00497227,-0.00091868,0.00031686,0.00105925,0.02571969,-0.00340032,-0.0
 1051573,-0.00139528,-0.00023194,0.00034183,0.03164390,-0.09360822,-0.0
 1792428,-0.00178449,-0.00460695,-0.00237890,-0.01743561,0.00957561,0.0
 0658433,-0.00015295,0.00013283,0.00034804,0.00186206,-0.00717973,-0.00
 340841,0.00079027,-0.00020893,0.00012517,-0.00126497,-0.00040108,0.002
 68808,0.00014087,0.00001834,0.00029472,0.03633782,0.57378829,0.0022615
 7,-0.00382823,0.00850426,-0.00068388,0.00031341,-0.00084322,0.01073272
 ,-0.00443277,-0.00165676,-0.00188030,0.00181697,-0.00413856,0.04959638
 ,-0.01767731,-0.09398353,0.00057262,-0.00272734,0.00325338,0.00620688,
 0.00088044,0.00343350,-0.00024902,0.00011180,-0.00052896,0.00082016,-0
 .00223951,-0.00222631,0.00058698,-0.00000446,0.00137345,-0.00252438,0.
 00052916,-0.00313338,-0.00007899,0.00010704,-0.00038846,0.02655140,0.0
 0129219,0.53959028,-0.00285440,-0.00432193,0.00497227,0.00031686,-0.00
 091868,-0.00105925,-0.00340032,0.02571969,0.01051573,-0.00023194,-0.00
 139529,-0.00034183,-0.00460695,-0.00178449,0.00237890,-0.09360822,0.03
 164390,0.01792428,0.00013283,-0.00015295,-0.00034804,0.00957561,-0.017
 43561,-0.00658433,-0.00020893,0.00079027,-0.00012517,-0.00717973,0.001
 86206,0.00340841,0.00001834,0.00014087,-0.00029472,-0.00040108,-0.0012
 6497,-0.00268808,0.00045073,0.00104662,0.00034254,0.57378829,-0.004104
 43,0.00320000,-0.00122121,0.00068479,-0.00042095,0.00005836,0.01015549
 ,-0.00026848,-0.00592681,-0.00072798,-0.00266559,0.00151427,-0.0028849
 3,0.00153776,-0.00050034,0.02296782,-0.17041937,-0.04179521,0.00098097
 ,-0.00151868,-0.00060684,0.00161727,-0.03301515,-0.01320824,0.00067804
 ,-0.00001002,-0.00015738,-0.00107378,0.00011683,0.00072215,0.00013902,
 -0.00001820,0.00020777,0.00201127,0.00066449,0.00117436,-0.00019575,0.
 00045073,0.00010246,0.03633782,0.49712027,0.00382823,-0.00226157,0.008
 50426,-0.00031341,0.00068388,-0.00084322,0.00443277,-0.01073272,-0.001
 65676,-0.00181697,0.00188030,-0.00413856,0.00272734,-0.00057262,0.0032
 5338,0.01767731,-0.04959638,-0.09398353,-0.00011180,0.00024902,-0.0005
 2896,-0.00088044,-0.00620688,0.00343350,0.00000446,-0.00058698,0.00137
 345,0.00223951,-0.00082016,-0.00222631,-0.00010704,0.00007899,-0.00038
 846,-0.00052916,0.00252438,-0.00313338,-0.00010246,-0.00034254,0.00021
 218,-0.00129219,-0.02655140,0.53959028,0.00024098,0.00029517,-0.000024
 64,0.00007556,-0.00015800,-0.00008962,-0.00444818,-0.00077210,0.001797
 29,-0.00224165,-0.00034035,-0.00038649,0.00001769,0.02783553,0.0160113
 7,0.00006821,0.00154576,0.00020575,0.00026779,0.00206553,0.00060543,0.
 00003711,-0.00001164,0.00004753,0.00155743,-0.00145089,-0.00076057,0.0
 0060361,-0.00030564,0.00030836,-0.00045745,-0.00067447,0.00016103,-0.0
 0000416,-0.00004565,-0.00003841,-0.05094884,-0.02923994,-0.01620723,-0
 .00037988,-0.00013706,0.00002954,0.05887582,0.00021379,-0.00002765,0.0
 0043110,0.00023236,0.00024731,0.00000379,0.00084960,0.00123392,-0.0007
 7860,-0.00162757,0.00087936,-0.00028452,0.00009145,-0.00876089,-0.0036
 3581,-0.00050365,-0.00050753,-0.00017229,-0.00221409,0.00014085,0.0011
 4430,-0.00014395,0.00036161,0.00016907,0.00100872,-0.00088396,-0.00098
 633,0.00034930,-0.00047621,0.00037281,0.00000180,0.00082747,-0.0001633
 4,-0.00002017,0.00007714,-0.00004600,-0.02512950,-0.24635906,-0.113410
 10,0.00011579,0.00006276,0.00001505,0.02862094,0.26606885,-0.00011483,
 -0.00000024,-0.00001662,0.00008544,0.00022712,-0.00000777,0.00232383,0
 .00044624,0.00037720,-0.00043555,0.00020953,-0.00005264,-0.00166986,-0
 .01055413,-0.00744459,-0.00042877,-0.00069489,0.00035005,-0.00099556,-
 0.00083929,0.00012619,0.00006099,0.00026626,0.00002945,0.00004265,-0.0
 0111746,0.00040956,0.00011424,-0.00017276,-0.00007623,0.00057774,0.000
 53852,0.00023075,-0.00000176,0.00004542,0.00004795,-0.01321871,-0.1122
 6067,-0.11382657,0.00013234,0.00011704,-0.00009914,0.01326364,0.126242
 56,0.11881300,-0.00002765,0.00021379,-0.00043110,0.00024731,0.00023236
 ,-0.00000379,0.00123392,0.00084960,0.00077860,0.00087936,-0.00162757,0
 .00028452,-0.00050753,-0.00050365,0.00017229,-0.00876089,0.00009145,0.
 00363581,0.00036161,-0.00014395,-0.00016907,0.00014085,-0.00221409,-0.
 00114430,-0.00047621,0.00034930,-0.00037281,-0.00088396,0.00100872,0.0
 0098633,0.00007714,-0.00002017,0.00004600,0.00082747,0.00000180,0.0001
 6334,0.00006276,0.00011579,-0.00001505,-0.24635906,-0.02512950,0.11341
 010,-0.00002652,0.00004513,0.00002117,0.26606885,0.00029517,0.00024098
 ,0.00002464,-0.00015800,0.00007556,0.00008962,-0.00077210,-0.00444818,
 -0.00179729,-0.00034035,-0.00224165,0.00038649,0.00154576,0.00006821,-
 0.00020575,0.02783553,0.00001769,-0.01601137,-0.00001164,0.00003711,-0
 .00004753,0.00206553,0.00026779,-0.00060543,-0.00030564,0.00060361,-0.
 00030836,-0.00145089,0.00155743,0.00076057,-0.00004565,-0.00000416,0.0
 0003841,-0.00067447,-0.00045745,-0.00016103,-0.00013706,-0.00037988,-0
 .00002954,-0.02923994,-0.05094884,0.01620723,0.00012366,-0.00002652,-0
 .00004670,0.02862094,0.05887582,0.00000024,0.00011483,-0.00001662,-0.0
 0022712,-0.00008544,-0.00000777,-0.00044624,-0.00232383,0.00037720,-0.
 00020953,0.00043555,-0.00005264,0.00069489,0.00042877,0.00035005,0.010
 55413,0.00166986,-0.00744459,-0.00026626,-0.00006099,0.00002945,0.0008
 3929,0.00099556,0.00012619,0.00017276,-0.00011424,-0.00007623,0.001117
 46,-0.00004265,0.00040956,-0.00004542,0.00000176,0.00004795,-0.0005385
 2,-0.00057774,0.00023075,-0.00011704,-0.00013234,-0.00009914,0.1122606
 7,0.01321871,-0.11382657,0.00004670,-0.00002117,-0.00003921,-0.1262425
 6,-0.01326364,0.11881300,0.00004054,-0.00104977,0.00174523,-0.00020989
 ,0.00023011,-0.00008638,0.00093246,-0.00120662,0.00010003,-0.00236923,
 0.00052718,-0.00094720,-0.02387321,0.00378639,-0.01768616,-0.00067717,
 -0.00030436,0.00080720,-0.00081454,0.00204459,0.00094454,0.00005837,0.
 00025305,-0.00006544,0.00132670,-0.00206692,0.00035163,0.00058775,0.00
 000191,0.00011190,-0.00036308,0.00019364,-0.00060826,-0.00001095,0.000
 03995,-0.00004144,-0.17043402,0.02275788,-0.13611089,0.00000393,-0.000
 04486,0.00002380,-0.00145049,0.00002580,-0.00121897,-0.00001085,0.0000
 2414,-0.00001579,0.18957801,0.00027714,-0.00011407,0.00005023,-0.00018
 344,-0.00017061,0.00001038,0.00019361,-0.00091323,-0.00112447,0.004710
 96,-0.00051066,0.00082162,0.00439988,-0.00136046,0.00704430,-0.0003465
 7,0.00010700,-0.00038409,-0.00044623,-0.00033266,0.00018410,0.00031249
 ,0.00012380,-0.00002623,-0.00250251,-0.00097888,-0.00022231,-0.0012936
 5,0.00083354,-0.00052311,-0.00008074,0.00019754,-0.00024958,-0.0000413
 6,0.00000276,-0.00001897,0.02257616,-0.04557998,0.02013732,0.00004315,
 0.00005658,0.00003233,-0.01944567,0.00431763,-0.01986994,-0.00001928,-
 0.00002314,0.00001293,-0.02353553,0.04793765,-0.00049352,0.00079203,-0
 .00087712,0.00020016,-0.00010944,0.00011252,-0.00024438,-0.00083895,-0
 .00000382,0.00065041,-0.00042224,0.00027112,0.01004090,-0.00139517,0.0
 1241060,-0.00013323,0.00047385,-0.00055547,0.00137487,-0.00028639,-0.0
 0047814,0.00027444,-0.00020228,-0.00011492,0.00028029,-0.00191589,-0.0
 0093283,-0.00010307,-0.00016615,0.00002144,0.00014379,0.00006355,0.000
 16783,-0.00000252,-0.00001363,0.00005277,-0.13410978,0.02178106,-0.185
 18549,-0.00000601,0.00002184,0.00000558,-0.00847951,0.00279373,-0.0103
 1704,0.00000443,0.00000127,0.00001290,0.14487375,-0.02258773,0.2006779
 7,-0.00011407,0.00027714,-0.00005023,-0.00017061,-0.00018344,-0.000010
 38,-0.00091323,0.00019361,0.00112447,-0.00051066,0.00471096,-0.0008216
 2,0.00010700,-0.00034657,0.00038409,-0.00136046,0.00439988,-0.00704430
 ,0.00012380,0.00031249,0.00002623,-0.00033266,-0.00044623,-0.00018410,
 0.00083354,-0.00129365,0.00052311,-0.00097888,-0.00250251,0.00022231,0
 .00000276,-0.00004136,0.00001897,0.00019754,-0.00008074,0.00024958,0.0
 0005658,0.00004315,-0.00003233,-0.04557998,0.02257616,-0.02013732,-0.0
 0002314,-0.00001928,-0.00001293,0.00431763,-0.01944567,0.01986994,-0.0
 0001257,0.00003363,-0.00000480,0.04793765,-0.00104977,0.00004054,-0.00
 174523,0.00023011,-0.00020989,0.00008638,-0.00120662,0.00093246,-0.000
 10003,0.00052718,-0.00236923,0.00094720,-0.00030436,-0.00067717,-0.000
 80720,0.00378639,-0.02387321,0.01768616,0.00025305,0.00005837,0.000065
 44,0.00204459,-0.00081454,-0.00094454,0.00000191,0.00058775,-0.0001119
 0,-0.00206692,0.00132670,-0.00035163,0.00003995,-0.00001095,0.00004144
 ,0.00019364,-0.00036308,0.00060826,-0.00004486,0.00000393,-0.00002380,
 0.02275788,-0.17043402,0.13611089,0.00002414,-0.00001085,0.00001579,0.
 00002580,-0.00145049,0.00121897,0.00001667,-0.00001257,-0.00000925,-0.
 02353553,0.18957801,-0.00079203,0.00049352,-0.00087712,0.00010944,-0.0
 0020016,0.00011252,0.00083895,0.00024438,-0.00000382,0.00042224,-0.000
 65042,0.00027112,-0.00047385,0.00013323,-0.00055547,0.00139517,-0.0100
 4090,0.01241060,0.00020228,-0.00027444,-0.00011492,0.00028639,-0.00137
 487,-0.00047814,0.00016615,0.00010307,0.00002144,0.00191589,-0.0002802
 9,-0.00093283,0.00001363,0.00000252,0.00005277,-0.00006355,-0.00014379
 ,0.00016783,-0.00002184,0.00000601,0.00000558,-0.02178106,0.13410978,-
 0.18518549,-0.00000127,-0.00000443,0.00001290,-0.00279373,0.00847951,-
 0.01031704,0.00000925,0.00000480,-0.00000531,0.02258773,-0.14487375,0.
 20067797,-0.00157888,-0.00014380,-0.00130688,-0.00022950,0.00004707,0.
 00027566,0.00062839,-0.00096299,-0.00137804,0.00020710,0.00035670,0.00
 113444,-0.01409232,-0.02057125,0.01895835,-0.00050144,-0.00004128,-0.0
 0044187,-0.00173953,0.00247807,0.00214184,0.00001592,-0.00009955,0.000
 05164,0.00021138,0.00005357,-0.00028290,-0.00004192,0.00024951,-0.0001
 8123,0.00004307,-0.00012889,0.00054210,0.00001773,0.00001819,0.0000738
 8,-0.07351500,-0.06390273,0.06014723,0.00003144,-0.00000479,-0.0000407
 2,-0.00178664,-0.00188721,0.00148018,0.00000723,-0.00001186,0.00000084
 ,0.00769522,0.01535272,-0.01426549,-0.00000703,0.00003053,0.00001297,0
 .08463174,0.00019042,0.00045486,0.00083448,-0.00004585,-0.00011800,-0.
 00019179,-0.00057935,-0.00091333,-0.00089137,0.00248460,0.00018811,-0.
 00149338,0.00145696,0.00852343,-0.00743210,0.00017083,0.00020069,0.000
 45063,0.00133814,-0.00050042,-0.00021344,0.00020375,-0.00017757,-0.000
 20851,-0.00090915,-0.00060599,-0.00098989,-0.00012056,-0.00054857,0.00
 044090,0.00024166,0.00025833,0.00007181,-0.00002159,0.00000453,0.00003
 211,-0.06384558,-0.17950755,0.11904154,-0.00004146,0.00002487,0.000036
 39,-0.00791746,-0.01717145,0.01744845,-0.00000927,0.00002275,0.0000052
 8,-0.00172378,-0.00357322,0.00203275,-0.00000477,0.00000302,0.00000074
 ,0.06915095,0.19343245,-0.00036707,0.00068649,0.00086025,-0.00002869,-
 0.00028453,-0.00018348,-0.00005884,-0.00004195,0.00094060,0.00421912,-
 0.00118408,0.00012871,0.00233616,0.00776485,-0.00763461,0.00078439,0.0
 0009397,0.00016326,0.00109225,-0.00118142,-0.00083196,0.00003945,-0.00
 052734,-0.00026007,-0.00287167,0.00049889,0.00078662,-0.00085084,0.000
 58793,-0.00064669,0.00005122,0.00012860,0.00002549,-0.00002942,-0.0000
 2217,0.00000779,0.06132544,0.11740602,-0.15040511,-0.00000842,0.000046
 12,0.00004285,-0.00649510,-0.01170128,0.01148032,-0.00003146,-0.000006
 21,0.00000244,0.00779071,0.01674486,-0.01526214,0.00003643,-0.00002249
 ,-0.00000044,-0.06693352,-0.12897473,0.16084277,0.00045486,0.00019042,
 -0.00083448,-0.00011800,-0.00004585,0.00019179,-0.00091333,-0.00057935
 ,0.00089137,0.00018811,0.00248460,0.00149338,0.00020069,0.00017083,-0.
 00045063,0.00852343,0.00145696,0.00743210,-0.00017757,0.00020375,0.000
 20851,-0.00050042,0.00133814,0.00021344,-0.00054857,-0.00012056,-0.000
 44090,-0.00060599,-0.00090915,0.00098989,0.00000453,-0.00002159,-0.000
 03211,0.00025833,0.00024166,-0.00007181,0.00002487,-0.00004146,-0.0000
 3639,-0.17950755,-0.06384558,-0.11904154,0.00002275,-0.00000927,-0.000
 00528,-0.01717145,-0.00791746,-0.01744845,0.00000302,-0.00000477,-0.00
 000074,-0.00357322,-0.00172378,-0.00203275,0.00000304,-0.00001849,-0.0
 0000015,0.19343245,-0.00014381,-0.00157888,0.00130688,0.00004707,-0.00
 022950,-0.00027566,-0.00096299,0.00062839,0.00137804,0.00035670,0.0002
 0710,-0.00113444,-0.00004128,-0.00050144,0.00044187,-0.02057125,-0.014
 09232,-0.01895835,-0.00009955,0.00001592,-0.00005164,0.00247807,-0.001
 73953,-0.00214184,0.00024951,-0.00004192,0.00018123,0.00005357,0.00021
 138,0.00028290,0.00001819,0.00001773,-0.00007388,-0.00012889,0.0000430
 7,-0.00054210,-0.00000479,0.00003144,0.00004072,-0.06390273,-0.0735150
 0,-0.06014723,-0.00001186,0.00000723,-0.00000084,-0.00188721,-0.001786
 64,-0.00148018,0.00003053,-0.00000703,-0.00001297,0.01535272,0.0076952
 2,0.01426549,0.00001707,0.00000304,-0.00001152,0.06915095,0.08463174,-
 0.00068649,0.00036707,0.00086025,0.00028453,0.00002869,-0.00018348,0.0
 0004195,0.00005884,0.00094060,0.00118408,-0.00421912,0.00012871,-0.000
 09397,-0.00078439,0.00016326,-0.00776485,-0.00233616,-0.00763461,0.000
 52734,-0.00003945,-0.00026007,0.00118142,-0.00109225,-0.00083196,-0.00
 058793,0.00085084,-0.00064669,-0.00049889,0.00287167,0.00078662,0.0000
 2217,0.00002942,0.00000779,-0.00012860,-0.00005122,0.00002549,-0.00004
 612,0.00000842,0.00004285,-0.11740602,-0.06132544,-0.15040511,0.000006
 21,0.00003146,0.00000244,0.01170128,0.00649510,0.01148032,0.00002249,-
 0.00003643,-0.00000044,-0.01674486,-0.00779071,-0.01526214,0.00001152,
 0.00000015,-0.00005660,0.12897473,0.06693352,0.16084277\\-0.00001061,-
 0.00001061,0.,0.00001020,0.00001020,0.,0.00002932,0.00002932,0.,0.0000
 1962,0.00001962,0.,-0.00001690,-0.00004046,-0.00000092,-0.00004046,-0.
 00001690,0.00000092,0.00001436,0.00008924,0.00002273,0.00008924,0.0000
 1436,-0.00002273,0.00000248,-0.00003272,0.00000423,-0.00003272,0.00000
 248,-0.00000423,0.00000725,-0.00007072,-0.00003137,-0.00007072,0.00000
 725,0.00003137,-0.00000891,-0.00000167,0.00001837,-0.00000167,-0.00000
 891,-0.00001837,-0.00000830,-0.00000727,-0.00002305,-0.00000727,-0.000
 00830,0.00002305,0.00001385,0.00000967,0.00000870,0.00000967,0.0000138
 5,-0.00000870,-0.00000227,0.00000384,-0.00001275,0.00000384,-0.0000022
 7,0.00001275\\\@
 Job cpu time:       0 days 11 hours 41 minutes 57.2 seconds.
 File lengths (MBytes):  RWF=  27618 Int=      0 D2E=      0 Chk=    105 Scr=      1
 Normal termination of Gaussian 09 at Tue Aug 24 19:51:06 2021.
