 Entering Gaussian System, Link 0=g09
 Input=G4.EWUKAI.gjf
 Output=G4.EWUKAI.log
 Initial command:
 /public/home/users/caep010/software/Gaussian09/g09/l1.exe "/public/home/users/caep010/.cache/gau_scr/Gau-118146.inp" -scrdir="/public/home/users/caep010/.cache/gau_scr/"
 Entering Link 1 = /public/home/users/caep010/software/Gaussian09/g09/l1.exe PID=    118147.
  
 Copyright (c) 1988,1990,1992,1993,1995,1998,2003,2009,2015,
            Gaussian, Inc.  All Rights Reserved.
  
 This is part of the Gaussian(R) 09 program.  It is based on
 the Gaussian(R) 03 system (copyright 2003, Gaussian, Inc.),
 the Gaussian(R) 98 system (copyright 1998, Gaussian, Inc.),
 the Gaussian(R) 94 system (copyright 1995, Gaussian, Inc.),
 the Gaussian 92(TM) system (copyright 1992, Gaussian, Inc.),
 the Gaussian 90(TM) system (copyright 1990, Gaussian, Inc.),
 the Gaussian 88(TM) system (copyright 1988, Gaussian, Inc.),
 the Gaussian 86(TM) system (copyright 1986, Carnegie Mellon
 University), and the Gaussian 82(TM) system (copyright 1983,
 Carnegie Mellon University). Gaussian is a federally registered
 trademark of Gaussian, Inc.
  
 This software contains proprietary and confidential information,
 including trade secrets, belonging to Gaussian, Inc.
  
 This software is provided under written license and may be
 used, copied, transmitted, or stored only in accord with that
 written license.
  
 The following legend is applicable only to US Government
 contracts under FAR:
  
                    RESTRICTED RIGHTS LEGEND
  
 Use, reproduction and disclosure by the US Government is
 subject to restrictions as set forth in subparagraphs (a)
 and (c) of the Commercial Computer Software - Restricted
 Rights clause in FAR 52.227-19.
  
 Gaussian, Inc.
 340 Quinnipiac St., Bldg. 40, Wallingford CT 06492
  
  
 ---------------------------------------------------------------
 Warning -- This program may not be used in any manner that
 competes with the business of Gaussian, Inc. or will provide
 assistance to any competitor of Gaussian, Inc.  The licensee
 of this program is prohibited from giving any competitor of
 Gaussian, Inc. access to this program.  By using this program,
 the user acknowledges that Gaussian, Inc. is engaged in the
 business of creating and licensing software in the field of
 computational chemistry and represents and warrants to the
 licensee that it is not a competitor of Gaussian, Inc. and that
 it will not use this program in any manner prohibited above.
 ---------------------------------------------------------------
  

 Cite this work as:
 Gaussian 09, Revision E.01,
 M. J. Frisch, G. W. Trucks, H. B. Schlegel, G. E. Scuseria, 
 M. A. Robb, J. R. Cheeseman, G. Scalmani, V. Barone, B. Mennucci, 
 G. A. Petersson, H. Nakatsuji, M. Caricato, X. Li, H. P. Hratchian, 
 A. F. Izmaylov, J. Bloino, G. Zheng, J. L. Sonnenberg, M. Hada, 
 M. Ehara, K. Toyota, R. Fukuda, J. Hasegawa, M. Ishida, T. Nakajima, 
 Y. Honda, O. Kitao, H. Nakai, T. Vreven, J. A. Montgomery, Jr., 
 J. E. Peralta, F. Ogliaro, M. Bearpark, J. J. Heyd, E. Brothers, 
 K. N. Kudin, V. N. Staroverov, T. Keith, R. Kobayashi, J. Normand, 
 K. Raghavachari, A. Rendell, J. C. Burant, S. S. Iyengar, J. Tomasi, 
 M. Cossi, N. Rega, J. M. Millam, M. Klene, J. E. Knox, J. B. Cross, 
 V. Bakken, C. Adamo, J. Jaramillo, R. Gomperts, R. E. Stratmann, 
 O. Yazyev, A. J. Austin, R. Cammi, C. Pomelli, J. W. Ochterski, 
 R. L. Martin, K. Morokuma, V. G. Zakrzewski, G. A. Voth, 
 P. Salvador, J. J. Dannenberg, S. Dapprich, A. D. Daniels, 
 O. Farkas, J. B. Foresman, J. V. Ortiz, J. Cioslowski, 
 and D. J. Fox, Gaussian, Inc., Wallingford CT, 2013.
 
 ******************************************
 Gaussian 09:  ES64L-G09RevE.01 30-Nov-2015
                 2-Oct-2021 
 ******************************************
 %nproc=32
 Will use up to   32 processors via shared memory.
 %mem=180GB
 -----
 #P G4
 -----
 1/14=-1,18=20,19=15,26=3,38=1/1,3;
 2/9=110,12=2,17=6,18=5,40=1/2;
 3/5=35,7=104,11=2,16=1,25=1,30=1,71=1,74=-5/1,2,3;
 4//1;
 5/5=2,38=5/2;
 6/7=2,8=2,9=2,10=2,28=1/1;
 7//1,2,3,16;
 1/14=-1,18=20,19=15,26=3/3(2);
 2/9=110/2;
 99//99;
 2/9=110/2;
 3/5=35,7=104,11=2,16=1,25=1,30=1,71=1,74=-5/1,2,3;
 4/5=5,16=3,69=1/1;
 5/5=2,38=5/2;
 7//1,2,3,16;
 1/14=-1,18=20,19=15,26=3/3(-5);
 2/9=110/2;
 6/7=2,8=2,9=2,10=2,19=2,28=1/1;
 99/9=1/99;
 Leave Link    1 at Sat Oct  2 10:10:08 2021, MaxMem= 24159191040 cpu:         4.5
 (Enter /public/home/users/caep010/software/Gaussian09/g09/l101.exe)
 ----------------------
 B3LYP6-31GxxGD3.EWUKAI
 ----------------------
 Symbolic Z-matrix:
 Charge =  0 Multiplicity = 1
 O                     0.40836   5.81554   1.63256 
 C                     0.77825   5.08251   2.68427 
 C                     1.34528   5.73445   3.77987 
 C                     1.75507   5.02337   4.91302 
 C                     1.59437   3.61209   4.95107 
 C                     1.03896   2.95803   3.87884 
 H                     1.90696   3.05846   5.83031 
 N                     2.27309   5.67862   6.00089 
 H                     2.58731   6.62885   5.88274 
 C                     0.62495   3.66882   2.73886 
 N                     0.05643   2.94493   1.64964 
 O                    -0.06282   1.72345   1.72546 
 O                    -0.31135   3.5883    0.62948 
 H                     0.90628   1.88368   3.88104 
 H                     0.03837   5.17107   0.9754 
 H                     2.77993   5.13988   6.68521 
 H                     1.45446   6.81214   3.72534 
 
 NAtoms=     17 NQM=       17 NQMF=       0 NMMI=      0 NMMIF=      0
                NMic=       0 NMicF=      0.
                    Isotopes and Nuclear Properties:
 (Nuclear quadrupole moments (NQMom) in fm**2, nuclear magnetic moments (NMagM)
  in nuclear magnetons)

  Atom         1           2           3           4           5           6           7           8           9          10
 IAtWgt=          16          12          12          12          12          12           1          14           1          12
 AtmWgt=  15.9949146  12.0000000  12.0000000  12.0000000  12.0000000  12.0000000   1.0078250  14.0030740   1.0078250  12.0000000
 NucSpn=           0           0           0           0           0           0           1           2           1           0
 AtZEff=   0.0000000   0.0000000   0.0000000   0.0000000   0.0000000   0.0000000   0.0000000   0.0000000   0.0000000   0.0000000
 NQMom=    0.0000000   0.0000000   0.0000000   0.0000000   0.0000000   0.0000000   0.0000000   2.0440000   0.0000000   0.0000000
 NMagM=    0.0000000   0.0000000   0.0000000   0.0000000   0.0000000   0.0000000   2.7928460   0.4037610   2.7928460   0.0000000
 AtZNuc=   8.0000000   6.0000000   6.0000000   6.0000000   6.0000000   6.0000000   1.0000000   7.0000000   1.0000000   6.0000000

  Atom        11          12          13          14          15          16          17
 IAtWgt=          14          16          16           1           1           1           1
 AtmWgt=  14.0030740  15.9949146  15.9949146   1.0078250   1.0078250   1.0078250   1.0078250
 NucSpn=           2           0           0           1           1           1           1
 AtZEff=   0.0000000   0.0000000   0.0000000   0.0000000   0.0000000   0.0000000   0.0000000
 NQMom=    2.0440000   0.0000000   0.0000000   0.0000000   0.0000000   0.0000000   0.0000000
 NMagM=    0.4037610   0.0000000   0.0000000   2.7928460   2.7928460   2.7928460   2.7928460
 AtZNuc=   7.0000000   8.0000000   8.0000000   1.0000000   1.0000000   1.0000000   1.0000000
 Leave Link  101 at Sat Oct  2 10:10:08 2021, MaxMem= 24159191040 cpu:        11.6
 (Enter /public/home/users/caep010/software/Gaussian09/g09/l103.exe)

 GradGradGradGradGradGradGradGradGradGradGradGradGradGradGradGradGradGrad
 Berny optimization.
 Initialization pass.
                           ----------------------------
                           !    Initial Parameters    !
                           ! (Angstroms and Degrees)  !
 --------------------------                            --------------------------
 ! Name  Definition              Value          Derivative Info.                !
 --------------------------------------------------------------------------------
 ! R1    R(1,2)                  1.3343         estimate D2E/DX2                !
 ! R2    R(1,15)                 0.992          estimate D2E/DX2                !
 ! R3    R(2,3)                  1.3953         estimate D2E/DX2                !
 ! R4    R(2,10)                 1.423          estimate D2E/DX2                !
 ! R5    R(3,4)                  1.3992         estimate D2E/DX2                !
 ! R6    R(3,17)                 1.0846         estimate D2E/DX2                !
 ! R7    R(4,5)                  1.4209         estimate D2E/DX2                !
 ! R8    R(4,8)                  1.3715         estimate D2E/DX2                !
 ! R9    R(5,6)                  1.3733         estimate D2E/DX2                !
 ! R10   R(5,7)                  1.085          estimate D2E/DX2                !
 ! R11   R(6,10)                 1.4058         estimate D2E/DX2                !
 ! R12   R(6,14)                 1.0825         estimate D2E/DX2                !
 ! R13   R(8,9)                  1.0078         estimate D2E/DX2                !
 ! R14   R(8,16)                 1.0077         estimate D2E/DX2                !
 ! R15   R(10,11)                1.4261         estimate D2E/DX2                !
 ! R16   R(11,12)                1.2296         estimate D2E/DX2                !
 ! R17   R(11,13)                1.2609         estimate D2E/DX2                !
 ! A1    A(2,1,15)             105.5836         estimate D2E/DX2                !
 ! A2    A(1,2,3)              118.3518         estimate D2E/DX2                !
 ! A3    A(1,2,10)             123.1042         estimate D2E/DX2                !
 ! A4    A(3,2,10)             118.5437         estimate D2E/DX2                !
 ! A5    A(2,3,4)              121.1638         estimate D2E/DX2                !
 ! A6    A(2,3,17)             117.756          estimate D2E/DX2                !
 ! A7    A(4,3,17)             121.0798         estimate D2E/DX2                !
 ! A8    A(3,4,5)              119.5607         estimate D2E/DX2                !
 ! A9    A(3,4,8)              120.6765         estimate D2E/DX2                !
 ! A10   A(5,4,8)              119.7349         estimate D2E/DX2                !
 ! A11   A(4,5,6)              119.8593         estimate D2E/DX2                !
 ! A12   A(4,5,7)              119.7292         estimate D2E/DX2                !
 ! A13   A(6,5,7)              120.4108         estimate D2E/DX2                !
 ! A14   A(5,6,10)             120.7604         estimate D2E/DX2                !
 ! A15   A(5,6,14)             121.3764         estimate D2E/DX2                !
 ! A16   A(10,6,14)            117.8632         estimate D2E/DX2                !
 ! A17   A(4,8,9)              118.3747         estimate D2E/DX2                !
 ! A18   A(4,8,16)             118.2417         estimate D2E/DX2                !
 ! A19   A(9,8,16)             115.2704         estimate D2E/DX2                !
 ! A20   A(2,10,6)             120.112          estimate D2E/DX2                !
 ! A21   A(2,10,11)            121.1936         estimate D2E/DX2                !
 ! A22   A(6,10,11)            118.6943         estimate D2E/DX2                !
 ! A23   A(10,11,12)           119.7238         estimate D2E/DX2                !
 ! A24   A(10,11,13)           118.3749         estimate D2E/DX2                !
 ! A25   A(12,11,13)           121.9014         estimate D2E/DX2                !
 ! D1    D(15,1,2,3)           179.8557         estimate D2E/DX2                !
 ! D2    D(15,1,2,10)            0.0333         estimate D2E/DX2                !
 ! D3    D(1,2,3,4)           -179.95           estimate D2E/DX2                !
 ! D4    D(1,2,3,17)             0.2764         estimate D2E/DX2                !
 ! D5    D(10,2,3,4)            -0.1194         estimate D2E/DX2                !
 ! D6    D(10,2,3,17)         -179.8929         estimate D2E/DX2                !
 ! D7    D(1,2,10,6)           179.8899         estimate D2E/DX2                !
 ! D8    D(1,2,10,11)            0.0231         estimate D2E/DX2                !
 ! D9    D(3,2,10,6)             0.0679         estimate D2E/DX2                !
 ! D10   D(3,2,10,11)         -179.799          estimate D2E/DX2                !
 ! D11   D(2,3,4,5)              0.1038         estimate D2E/DX2                !
 ! D12   D(2,3,4,8)           -177.9689         estimate D2E/DX2                !
 ! D13   D(17,3,4,5)           179.8699         estimate D2E/DX2                !
 ! D14   D(17,3,4,8)             1.7972         estimate D2E/DX2                !
 ! D15   D(3,4,5,6)             -0.0345         estimate D2E/DX2                !
 ! D16   D(3,4,5,7)           -179.7159         estimate D2E/DX2                !
 ! D17   D(8,4,5,6)            178.0566         estimate D2E/DX2                !
 ! D18   D(8,4,5,7)             -1.6248         estimate D2E/DX2                !
 ! D19   D(3,4,8,9)            -16.5738         estimate D2E/DX2                !
 ! D20   D(3,4,8,16)          -163.8049         estimate D2E/DX2                !
 ! D21   D(5,4,8,9)            165.3568         estimate D2E/DX2                !
 ! D22   D(5,4,8,16)            18.1257         estimate D2E/DX2                !
 ! D23   D(4,5,6,10)            -0.0158         estimate D2E/DX2                !
 ! D24   D(4,5,6,14)           179.9175         estimate D2E/DX2                !
 ! D25   D(7,5,6,10)           179.6634         estimate D2E/DX2                !
 ! D26   D(7,5,6,14)            -0.4032         estimate D2E/DX2                !
 ! D27   D(5,6,10,2)            -0.0012         estimate D2E/DX2                !
 ! D28   D(5,6,10,11)          179.869          estimate D2E/DX2                !
 ! D29   D(14,6,10,2)         -179.9368         estimate D2E/DX2                !
 ! D30   D(14,6,10,11)          -0.0666         estimate D2E/DX2                !
 ! D31   D(2,10,11,12)         179.9683         estimate D2E/DX2                !
 ! D32   D(2,10,11,13)          -0.0459         estimate D2E/DX2                !
 ! D33   D(6,10,11,12)           0.0997         estimate D2E/DX2                !
 ! D34   D(6,10,11,13)        -179.9146         estimate D2E/DX2                !
 --------------------------------------------------------------------------------
 Trust Radius=3.00D-01 FncErr=1.00D-07 GrdErr=1.00D-06
 Number of steps in this run=     86 maximum allowed number of steps=    102.
 GradGradGradGradGradGradGradGradGradGradGradGradGradGradGradGradGradGrad

 Leave Link  103 at Sat Oct  2 10:10:08 2021, MaxMem= 24159191040 cpu:         0.4
 (Enter /public/home/users/caep010/software/Gaussian09/g09/l202.exe)
                          Input orientation:                          
 ---------------------------------------------------------------------
 Center     Atomic      Atomic             Coordinates (Angstroms)
 Number     Number       Type             X           Y           Z
 ---------------------------------------------------------------------
      1          8           0        0.408363    5.815541    1.632564
      2          6           0        0.778254    5.082511    2.684267
      3          6           0        1.345280    5.734453    3.779866
      4          6           0        1.755073    5.023365    4.913024
      5          6           0        1.594368    3.612087    4.951072
      6          6           0        1.038962    2.958033    3.878839
      7          1           0        1.906959    3.058460    5.830312
      8          7           0        2.273090    5.678619    6.000886
      9          1           0        2.587311    6.628853    5.882736
     10          6           0        0.624951    3.668824    2.738861
     11          7           0        0.056428    2.944934    1.649638
     12          8           0       -0.062818    1.723449    1.725457
     13          8           0       -0.311350    3.588299    0.629483
     14          1           0        0.906277    1.883683    3.881040
     15          1           0        0.038370    5.171068    0.975402
     16          1           0        2.779928    5.139882    6.685208
     17          1           0        1.454458    6.812140    3.725344
 ---------------------------------------------------------------------
                    Distance matrix (angstroms):
                    1          2          3          4          5
     1  O    0.000000
     2  C    1.334253   0.000000
     3  C    2.344204   1.395308   0.000000
     4  C    3.633537   2.434139   1.399151   0.000000
     5  C    4.156238   2.822515   2.436843   1.420908   0.000000
     6  C    3.689005   2.451199   2.795020   2.418253   1.373298
     7  H    5.241028   3.907474   3.417711   2.173784   1.085025
     8  N    4.751651   3.686440   2.407671   1.371548   2.415228
     9  H    4.844920   3.986736   2.600895   2.051963   3.309805
    10  C    2.424706   1.423023   2.422682   2.799811   2.415961
    11  N    2.892150   2.482081   3.739041   4.225513   3.702677
    12  O    4.120177   3.593051   4.721386   4.935054   4.088742
    13  O    2.546520   2.764425   4.156358   4.967720   4.723183
    14  H    4.556651   3.417771   3.877034   3.412191   2.146117
    15  H    0.992019   1.864267   3.144906   4.298110   4.545053
    16  H    5.622281   4.474094   3.294350   2.050498   2.597487
    17  H    2.543079   2.129016   1.084574   2.168103   3.429624
                    6          7          8          9         10
     6  C    0.000000
     7  H    2.138165   0.000000
     8  N    3.664389   2.651109   0.000000
     9  H    4.459586   3.635015   1.007789   0.000000
    10  C    1.405766   3.401934   4.170905   4.743056   0.000000
    11  N    2.436161   4.573334   5.596426   6.155952   1.426058
    12  O    2.715727   4.744693   6.275279   6.954793   2.298804
    13  O    3.574758   5.678930   6.316703   6.726356   2.309246
    14  H    1.082515   2.486187   4.556694   5.417499   2.137860
    15  H    3.785321   5.614703   5.523321   5.718755   2.389687
    16  H    3.958173   2.413553   1.007680   1.702380   4.730919
    17  H    3.879477   4.327327   2.670790   2.443622   3.397303
                   11         12         13         14         15
    11  N    0.000000
    12  O    1.229632   0.000000
    13  O    1.260911   2.177290   0.000000
    14  H    2.612978   2.368831   3.867939   0.000000
    15  H    2.326068   3.529716   1.657444   4.472460   0.000000
    16  H    6.131249   6.659756   6.973895   4.687938   6.333956
    17  H    4.606335   5.674192   4.805787   4.961293   3.501514
                   16         17
    16  H    0.000000
    17  H    3.648851   0.000000
 Stoichiometry    C6H6N2O3
 Framework group  C1[X(C6H6N2O3)]
 Deg. of freedom    45
 Full point group                 C1      NOp   1
 Largest Abelian subgroup         C1      NOp   1
 Largest concise Abelian subgroup C1      NOp   1
                         Standard orientation:                         
 ---------------------------------------------------------------------
 Center     Atomic      Atomic             Coordinates (Angstroms)
 Number     Number       Type             X           Y           Z
 ---------------------------------------------------------------------
      1          8           0        0.673949    2.157099   -0.000269
      2          6           0       -0.002204    1.006863   -0.002955
      3          6           0       -1.396578    1.057915   -0.003057
      4          6           0       -2.163939   -0.112032   -0.004756
      5          6           0       -1.514917   -1.376053   -0.004170
      6          6           0       -0.143123   -1.440282   -0.002663
      7          1           0       -2.107308   -2.285072   -0.010156
      8          7           0       -3.533467   -0.050544   -0.046649
      9          1           0       -3.980680    0.824376    0.177305
     10          6           0        0.631565   -0.267236   -0.002020
     11          7           0        2.052726   -0.385243    0.002412
     12          8           0        2.571942   -1.499876    0.003707
     13          8           0        2.741705    0.670786    0.004619
     14          1           0        0.376653   -2.389844   -0.000857
     15          1           0        1.632766    1.902600    0.001716
     16          1           0       -4.055625   -0.876195    0.200473
     17          1           0       -1.866217    2.035531   -0.005567
 ---------------------------------------------------------------------
 Rotational constants (GHZ):      2.3582325      0.8122835      0.6043214
 Leave Link  202 at Sat Oct  2 10:10:09 2021, MaxMem= 24159191040 cpu:         0.4
 (Enter /public/home/users/caep010/software/Gaussian09/g09/l301.exe)
 Standard basis: GTBas3 (6D, 7F)
 Ernie: Thresh=  0.10000D-02 Tol=  0.10000D-05 Strict=F.
 There are   371 symmetry adapted cartesian basis functions of A   symmetry.
 There are   338 symmetry adapted basis functions of A   symmetry.
   338 basis functions,   526 primitive gaussians,   371 cartesian basis functions
    40 alpha electrons       40 beta electrons
       nuclear repulsion energy       600.6570319821 Hartrees.
 IExCor=  402 DFT=T Ex+Corr=B3LYP ExCW=0 ScaHFX=  0.200000
 ScaDFX=  0.800000  0.720000  1.000000  0.810000 ScalE2=  1.000000  1.000000
 IRadAn=      0 IRanWt=     -1 IRanGd=            0 ICorTp=0 IEmpDi=  4
 NAtoms=   17 NActive=   17 NUniq=   17 SFac= 1.00D+00 NAtFMM=   60 NAOKFM=F Big=F
 Integral buffers will be    131072 words long.
 Raffenetti 2 integral format.
 Two-electron integral symmetry is turned on.
 Leave Link  301 at Sat Oct  2 10:10:09 2021, MaxMem= 24159191040 cpu:         2.8
 (Enter /public/home/users/caep010/software/Gaussian09/g09/l302.exe)
 NPDir=0 NMtPBC=     1 NCelOv=     1 NCel=       1 NClECP=     1 NCelD=      1
         NCelK=      1 NCelE2=     1 NClLst=     1 CellRange=     0.0.
 One-electron integrals computed using PRISM.
 NBasis=   338 RedAO= T EigKep=  1.06D-04  NBF=   338
 NBsUse=   338 1.00D-06 EigRej= -1.00D+00 NBFU=   338
 Precomputing XC quadrature grid using
 IXCGrd= 4 IRadAn=           0 IRanWt=          -1 IRanGd=           0 AccXCQ= 0.00D+00.
 Generated NRdTot=       0 NPtTot=           0 NUsed=           0 NTot=          32
 NSgBfM=   370   370   370   370   370 MxSgAt=    17 MxSgA2=    17.
 Leave Link  302 at Sat Oct  2 10:10:10 2021, MaxMem= 24159191040 cpu:        18.1
 (Enter /public/home/users/caep010/software/Gaussian09/g09/l303.exe)
 DipDrv:  MaxL=1.
 Leave Link  303 at Sat Oct  2 10:10:10 2021, MaxMem= 24159191040 cpu:         1.3
 (Enter /public/home/users/caep010/software/Gaussian09/g09/l401.exe)
 ExpMin= 1.61D-01 ExpMax= 5.48D+03 ExpMxC= 8.25D+02 IAcc=1 IRadAn=         1 AccDes= 0.00D+00
 Harris functional with IExCor=  402 and IRadAn=       1 diagonalized for initial guess.
 HarFok:  IExCor=  402 AccDes= 0.00D+00 IRadAn=         1 IDoV= 1 UseB2=F ITyADJ=14
 ICtDFT=  3500011 ScaDFX=  1.000000  1.000000  1.000000  1.000000
 FoFCou: FMM=F IPFlag=           0 FMFlag=      100000 FMFlg1=           0
         NFxFlg=           0 DoJE=T BraDBF=F KetDBF=T FulRan=T
         wScrn=  0.000000 ICntrl=     500 IOpCl=  0 I1Cent=   200000004 NGrid=           0
         NMat0=    1 NMatS0=      1 NMatT0=    0 NMatD0=    1 NMtDS0=    0 NMtDT0=    0
 Petite list used in FoFCou.
 Harris En= -567.411606999166    
 JPrj=0 DoOrth=F DoCkMO=F.
 Leave Link  401 at Sat Oct  2 10:10:11 2021, MaxMem= 24159191040 cpu:        17.3
 (Enter /public/home/users/caep010/software/Gaussian09/g09/l502.exe)
 Closed shell SCF:
 Using DIIS extrapolation, IDIIS=  1040.
 Integral symmetry usage will be decided dynamically.
 Keep R1 ints in memory in canonical form, NReq=1667343251.
 IVT=      446027 IEndB=      446027 NGot= 24159191040 MDV= 22517587028
 LenX= 22517587028 LenY= 22517448946
 Requested convergence on RMS density matrix=1.00D-08 within 128 cycles.
 Requested convergence on MAX density matrix=1.00D-06.
 Requested convergence on             energy=1.00D-06.
 No special actions if energy rises.
 FoFCou: FMM=F IPFlag=           0 FMFlag=           0 FMFlg1=           0
         NFxFlg=           0 DoJE=F BraDBF=F KetDBF=F FulRan=T
         wScrn=  0.000000 ICntrl=     600 IOpCl=  0 I1Cent=           0 NGrid=           0
         NMat0=    1 NMatS0=  57291 NMatT0=    0 NMatD0=    1 NMtDS0=    0 NMtDT0=    0
 Symmetry not used in FoFCou.
 Integral accuracy reduced to 1.0D-05 until final iterations.

 Cycle   1  Pass 0  IDiag  1:
 E= -567.063441583822    
 DIIS: error= 3.50D-02 at cycle   1 NSaved=   1.
 NSaved= 1 IEnMin= 1 EnMin= -567.063441583822     IErMin= 1 ErrMin= 3.50D-02
 ErrMax= 3.50D-02  0.00D+00 EMaxC= 1.00D-01 BMatC= 4.10D-01 BMatP= 4.10D-01
 IDIUse=3 WtCom= 6.50D-01 WtEn= 3.50D-01
 Coeff-Com:  0.100D+01
 Coeff-En:   0.100D+01
 Coeff:      0.100D+01
 Gap=     0.100 Goal=   None    Shift=    0.000
 GapD=    0.100 DampG=1.000 DampE=0.500 DampFc=0.5000 IDamp=-1.
 Damping current iteration by 5.00D-01
 RMSDP=3.69D-03 MaxDP=2.68D-01              OVMax= 3.40D-01

 Cycle   2  Pass 0  IDiag  1:
 E= -567.131456836683     Delta-E=       -0.068015252861 Rises=F Damp=T
 DIIS: error= 1.68D-02 at cycle   2 NSaved=   2.
 NSaved= 2 IEnMin= 2 EnMin= -567.131456836683     IErMin= 2 ErrMin= 1.68D-02
 ErrMax= 1.68D-02  0.00D+00 EMaxC= 1.00D-01 BMatC= 7.25D-02 BMatP= 4.10D-01
 IDIUse=3 WtCom= 8.32D-01 WtEn= 1.68D-01
 Coeff-Com:  0.246D+00 0.754D+00
 Coeff-En:   0.396D+00 0.604D+00
 Coeff:      0.272D+00 0.728D+00
 Gap=     0.170 Goal=   None    Shift=    0.000
 RMSDP=1.22D-03 MaxDP=8.81D-02 DE=-6.80D-02 OVMax= 3.04D-01

 Cycle   3  Pass 0  IDiag  1:
 E= -567.354214440064     Delta-E=       -0.222757603382 Rises=F Damp=F
 DIIS: error= 8.23D-03 at cycle   3 NSaved=   3.
 NSaved= 3 IEnMin= 3 EnMin= -567.354214440064     IErMin= 3 ErrMin= 8.23D-03
 ErrMax= 8.23D-03  0.00D+00 EMaxC= 1.00D-01 BMatC= 3.11D-02 BMatP= 7.25D-02
 IDIUse=3 WtCom= 9.18D-01 WtEn= 8.23D-02
 Coeff-Com:  0.919D-01 0.393D+00 0.515D+00
 Coeff-En:   0.000D+00 0.000D+00 0.100D+01
 Coeff:      0.844D-01 0.361D+00 0.555D+00
 Gap=     0.153 Goal=   None    Shift=    0.000
 RMSDP=8.55D-04 MaxDP=4.07D-02 DE=-2.23D-01 OVMax= 1.16D-01

 Cycle   4  Pass 0  IDiag  1:
 E= -567.375176357723     Delta-E=       -0.020961917658 Rises=F Damp=F
 DIIS: error= 6.94D-03 at cycle   4 NSaved=   4.
 NSaved= 4 IEnMin= 4 EnMin= -567.375176357723     IErMin= 4 ErrMin= 6.94D-03
 ErrMax= 6.94D-03  0.00D+00 EMaxC= 1.00D-01 BMatC= 1.22D-02 BMatP= 3.11D-02
 IDIUse=3 WtCom= 9.31D-01 WtEn= 6.94D-02
 Coeff-Com:  0.296D-01 0.128D+00 0.375D+00 0.467D+00
 Coeff-En:   0.000D+00 0.000D+00 0.287D+00 0.713D+00
 Coeff:      0.275D-01 0.119D+00 0.369D+00 0.484D+00
 Gap=     0.148 Goal=   None    Shift=    0.000
 RMSDP=3.88D-04 MaxDP=2.88D-02 DE=-2.10D-02 OVMax= 6.43D-02

 Cycle   5  Pass 0  IDiag  1:
 E= -567.383772618369     Delta-E=       -0.008596260647 Rises=F Damp=F
 DIIS: error= 4.49D-03 at cycle   5 NSaved=   5.
 NSaved= 5 IEnMin= 5 EnMin= -567.383772618369     IErMin= 5 ErrMin= 4.49D-03
 ErrMax= 4.49D-03  0.00D+00 EMaxC= 1.00D-01 BMatC= 3.16D-03 BMatP= 1.22D-02
 IDIUse=3 WtCom= 9.55D-01 WtEn= 4.49D-02
 Coeff-Com:  0.695D-02 0.210D-01 0.183D+00 0.369D+00 0.419D+00
 Coeff-En:   0.000D+00 0.000D+00 0.000D+00 0.206D+00 0.794D+00
 Coeff:      0.664D-02 0.201D-01 0.175D+00 0.362D+00 0.436D+00
 Gap=     0.151 Goal=   None    Shift=    0.000
 RMSDP=1.84D-04 MaxDP=1.46D-02 DE=-8.60D-03 OVMax= 2.94D-02

 Cycle   6  Pass 0  IDiag  1:
 E= -567.386013761470     Delta-E=       -0.002241143100 Rises=F Damp=F
 DIIS: error= 1.24D-03 at cycle   6 NSaved=   6.
 NSaved= 6 IEnMin= 6 EnMin= -567.386013761470     IErMin= 6 ErrMin= 1.24D-03
 ErrMax= 1.24D-03  0.00D+00 EMaxC= 1.00D-01 BMatC= 3.55D-04 BMatP= 3.16D-03
 IDIUse=3 WtCom= 9.88D-01 WtEn= 1.24D-02
 Coeff-Com:  0.138D-02 0.145D-02 0.842D-01 0.197D+00 0.306D+00 0.410D+00
 Coeff-En:   0.000D+00 0.000D+00 0.000D+00 0.000D+00 0.112D+00 0.888D+00
 Coeff:      0.136D-02 0.144D-02 0.832D-01 0.195D+00 0.303D+00 0.416D+00
 Gap=     0.151 Goal=   None    Shift=    0.000
 RMSDP=5.58D-05 MaxDP=3.16D-03 DE=-2.24D-03 OVMax= 6.65D-03

 Cycle   7  Pass 0  IDiag  1:
 E= -567.386319651709     Delta-E=       -0.000305890239 Rises=F Damp=F
 DIIS: error= 1.39D-04 at cycle   7 NSaved=   7.
 NSaved= 7 IEnMin= 7 EnMin= -567.386319651709     IErMin= 7 ErrMin= 1.39D-04
 ErrMax= 1.39D-04  0.00D+00 EMaxC= 1.00D-01 BMatC= 1.36D-05 BMatP= 3.55D-04
 IDIUse=3 WtCom= 9.99D-01 WtEn= 1.39D-03
 Coeff-Com: -0.113D-03-0.142D-02 0.185D-01 0.470D-01 0.993D-01 0.220D+00
 Coeff-Com:  0.616D+00
 Coeff-En:   0.000D+00 0.000D+00 0.000D+00 0.000D+00 0.000D+00 0.000D+00
 Coeff-En:   0.100D+01
 Coeff:     -0.113D-03-0.142D-02 0.185D-01 0.470D-01 0.992D-01 0.220D+00
 Coeff:      0.617D+00
 Gap=     0.151 Goal=   None    Shift=    0.000
 RMSDP=1.27D-05 MaxDP=6.42D-04 DE=-3.06D-04 OVMax= 1.90D-03

 Cycle   8  Pass 0  IDiag  1:
 E= -567.386332959964     Delta-E=       -0.000013308256 Rises=F Damp=F
 DIIS: error= 3.74D-05 at cycle   8 NSaved=   8.
 NSaved= 8 IEnMin= 8 EnMin= -567.386332959964     IErMin= 8 ErrMin= 3.74D-05
 ErrMax= 3.74D-05  0.00D+00 EMaxC= 1.00D-01 BMatC= 1.20D-06 BMatP= 1.36D-05
 IDIUse=1 WtCom= 1.00D+00 WtEn= 0.00D+00
 Coeff-Com: -0.207D-03-0.102D-02 0.486D-02 0.137D-01 0.363D-01 0.948D-01
 Coeff-Com:  0.341D+00 0.510D+00
 Coeff:     -0.207D-03-0.102D-02 0.486D-02 0.137D-01 0.363D-01 0.948D-01
 Coeff:      0.341D+00 0.510D+00
 Gap=     0.151 Goal=   None    Shift=    0.000
 RMSDP=3.71D-06 MaxDP=2.38D-04 DE=-1.33D-05 OVMax= 5.26D-04

 Initial convergence to 1.0D-05 achieved.  Increase integral accuracy.
 Cycle   9  Pass 1  IDiag  1:
 E= -567.386320851976     Delta-E=        0.000012107989 Rises=F Damp=F
 DIIS: error= 1.91D-05 at cycle   1 NSaved=   1.
 NSaved= 1 IEnMin= 1 EnMin= -567.386320851976     IErMin= 1 ErrMin= 1.91D-05
 ErrMax= 1.91D-05  0.00D+00 EMaxC= 1.00D-01 BMatC= 1.97D-07 BMatP= 1.97D-07
 IDIUse=1 WtCom= 1.00D+00 WtEn= 0.00D+00
 Coeff-Com:  0.100D+01
 Coeff:      0.100D+01
 Gap=     0.151 Goal=   None    Shift=    0.000
 RMSDP=3.71D-06 MaxDP=2.38D-04 DE= 1.21D-05 OVMax= 2.52D-04

 Cycle  10  Pass 1  IDiag  1:
 E= -567.386320884310     Delta-E=       -0.000000032335 Rises=F Damp=F
 DIIS: error= 1.35D-05 at cycle   2 NSaved=   2.
 NSaved= 2 IEnMin= 2 EnMin= -567.386320884310     IErMin= 2 ErrMin= 1.35D-05
 ErrMax= 1.35D-05  0.00D+00 EMaxC= 1.00D-01 BMatC= 1.54D-07 BMatP= 1.97D-07
 IDIUse=1 WtCom= 1.00D+00 WtEn= 0.00D+00
 Coeff-Com:  0.458D+00 0.542D+00
 Coeff:      0.458D+00 0.542D+00
 Gap=     0.151 Goal=   None    Shift=    0.000
 RMSDP=1.73D-06 MaxDP=9.25D-05 DE=-3.23D-08 OVMax= 2.38D-04

 Cycle  11  Pass 1  IDiag  1:
 E= -567.386320979105     Delta-E=       -0.000000094794 Rises=F Damp=F
 DIIS: error= 1.01D-05 at cycle   3 NSaved=   3.
 NSaved= 3 IEnMin= 3 EnMin= -567.386320979105     IErMin= 3 ErrMin= 1.01D-05
 ErrMax= 1.01D-05  0.00D+00 EMaxC= 1.00D-01 BMatC= 5.16D-08 BMatP= 1.54D-07
 IDIUse=1 WtCom= 1.00D+00 WtEn= 0.00D+00
 Coeff-Com:  0.309D-01 0.361D+00 0.608D+00
 Coeff:      0.309D-01 0.361D+00 0.608D+00
 Gap=     0.151 Goal=   None    Shift=    0.000
 RMSDP=7.77D-07 MaxDP=5.43D-05 DE=-9.48D-08 OVMax= 9.80D-05

 Cycle  12  Pass 1  IDiag  1:
 E= -567.386321016239     Delta-E=       -0.000000037134 Rises=F Damp=F
 DIIS: error= 9.48D-06 at cycle   4 NSaved=   4.
 NSaved= 4 IEnMin= 4 EnMin= -567.386321016239     IErMin= 4 ErrMin= 9.48D-06
 ErrMax= 9.48D-06  0.00D+00 EMaxC= 1.00D-01 BMatC= 1.38D-08 BMatP= 5.16D-08
 IDIUse=1 WtCom= 1.00D+00 WtEn= 0.00D+00
 Coeff-Com: -0.937D-02 0.224D+00 0.444D+00 0.341D+00
 Coeff:     -0.937D-02 0.224D+00 0.444D+00 0.341D+00
 Gap=     0.151 Goal=   None    Shift=    0.000
 RMSDP=3.54D-07 MaxDP=2.98D-05 DE=-3.71D-08 OVMax= 6.22D-05

 Cycle  13  Pass 1  IDiag  1:
 E= -567.386321026635     Delta-E=       -0.000000010396 Rises=F Damp=F
 DIIS: error= 1.89D-06 at cycle   5 NSaved=   5.
 NSaved= 5 IEnMin= 5 EnMin= -567.386321026635     IErMin= 5 ErrMin= 1.89D-06
 ErrMax= 1.89D-06  0.00D+00 EMaxC= 1.00D-01 BMatC= 8.65D-10 BMatP= 1.38D-08
 IDIUse=1 WtCom= 1.00D+00 WtEn= 0.00D+00
 Coeff-Com: -0.910D-02 0.107D+00 0.229D+00 0.234D+00 0.439D+00
 Coeff:     -0.910D-02 0.107D+00 0.229D+00 0.234D+00 0.439D+00
 Gap=     0.151 Goal=   None    Shift=    0.000
 RMSDP=7.86D-08 MaxDP=5.65D-06 DE=-1.04D-08 OVMax= 1.09D-05

 Cycle  14  Pass 1  IDiag  1:
 E= -567.386321027289     Delta-E=       -0.000000000654 Rises=F Damp=F
 DIIS: error= 2.46D-07 at cycle   6 NSaved=   6.
 NSaved= 6 IEnMin= 6 EnMin= -567.386321027289     IErMin= 6 ErrMin= 2.46D-07
 ErrMax= 2.46D-07  0.00D+00 EMaxC= 1.00D-01 BMatC= 3.92D-11 BMatP= 8.65D-10
 IDIUse=1 WtCom= 1.00D+00 WtEn= 0.00D+00
 Coeff-Com: -0.446D-02 0.393D-01 0.891D-01 0.104D+00 0.242D+00 0.530D+00
 Coeff:     -0.446D-02 0.393D-01 0.891D-01 0.104D+00 0.242D+00 0.530D+00
 Gap=     0.151 Goal=   None    Shift=    0.000
 RMSDP=1.67D-08 MaxDP=8.15D-07 DE=-6.54D-10 OVMax= 1.26D-06

 Cycle  15  Pass 1  IDiag  1:
 E= -567.386321027329     Delta-E=       -0.000000000040 Rises=F Damp=F
 DIIS: error= 7.67D-08 at cycle   7 NSaved=   7.
 NSaved= 7 IEnMin= 7 EnMin= -567.386321027329     IErMin= 7 ErrMin= 7.67D-08
 ErrMax= 7.67D-08  0.00D+00 EMaxC= 1.00D-01 BMatC= 2.54D-12 BMatP= 3.92D-11
 IDIUse=1 WtCom= 1.00D+00 WtEn= 0.00D+00
 Coeff-Com: -0.114D-02 0.724D-02 0.181D-01 0.264D-01 0.664D-01 0.241D+00
 Coeff-Com:  0.642D+00
 Coeff:     -0.114D-02 0.724D-02 0.181D-01 0.264D-01 0.664D-01 0.241D+00
 Coeff:      0.642D+00
 Gap=     0.151 Goal=   None    Shift=    0.000
 RMSDP=5.95D-09 MaxDP=3.27D-07 DE=-4.05D-11 OVMax= 5.37D-07

 SCF Done:  E(RB3LYP) =  -567.386321027     A.U. after   15 cycles
            NFock= 15  Conv=0.59D-08     -V/T= 2.0069
 KE= 5.635166010103D+02 PE=-2.527936898367D+03 EE= 7.963769443473D+02
 Leave Link  502 at Sat Oct  2 10:11:01 2021, MaxMem= 24159191040 cpu:       295.8
 (Enter /public/home/users/caep010/software/Gaussian09/g09/l601.exe)
 Copying SCF densities to generalized density rwf, IOpCl= 0 IROHF=0.

 **********************************************************************

            Population analysis using the SCF density.

 **********************************************************************

 Orbital symmetries:
       Occupied  (A) (A) (A) (A) (A) (A) (A) (A) (A) (A) (A) (A)
                 (A) (A) (A) (A) (A) (A) (A) (A) (A) (A) (A) (A)
                 (A) (A) (A) (A) (A) (A) (A) (A) (A) (A) (A) (A)
                 (A) (A) (A) (A)
       Virtual   (A) (A) (A) (A) (A) (A) (A) (A) (A) (A) (A) (A)
                 (A) (A) (A) (A) (A) (A) (A) (A) (A) (A) (A) (A)
                 (A) (A) (A) (A) (A) (A) (A) (A) (A) (A) (A) (A)
                 (A) (A) (A) (A) (A) (A) (A) (A) (A) (A) (A) (A)
                 (A) (A) (A) (A) (A) (A) (A) (A) (A) (A) (A) (A)
                 (A) (A) (A) (A) (A) (A) (A) (A) (A) (A) (A) (A)
                 (A) (A) (A) (A) (A) (A) (A) (A) (A) (A) (A) (A)
                 (A) (A) (A) (A) (A) (A) (A) (A) (A) (A) (A) (A)
                 (A) (A) (A) (A) (A) (A) (A) (A) (A) (A) (A) (A)
                 (A) (A) (A) (A) (A) (A) (A) (A) (A) (A) (A) (A)
                 (A) (A) (A) (A) (A) (A) (A) (A) (A) (A) (A) (A)
                 (A) (A) (A) (A) (A) (A) (A) (A) (A) (A) (A) (A)
                 (A) (A) (A) (A) (A) (A) (A) (A) (A) (A) (A) (A)
                 (A) (A) (A) (A) (A) (A) (A) (A) (A) (A) (A) (A)
                 (A) (A) (A) (A) (A) (A) (A) (A) (A) (A) (A) (A)
                 (A) (A) (A) (A) (A) (A) (A) (A) (A) (A) (A) (A)
                 (A) (A) (A) (A) (A) (A) (A) (A) (A) (A) (A) (A)
                 (A) (A) (A) (A) (A) (A) (A) (A) (A) (A) (A) (A)
                 (A) (A) (A) (A) (A) (A) (A) (A) (A) (A) (A) (A)
                 (A) (A) (A) (A) (A) (A) (A) (A) (A) (A) (A) (A)
                 (A) (A) (A) (A) (A) (A) (A) (A) (A) (A) (A) (A)
                 (A) (A) (A) (A) (A) (A) (A) (A) (A) (A) (A) (A)
                 (A) (A) (A) (A) (A) (A) (A) (A) (A) (A) (A) (A)
                 (A) (A) (A) (A) (A) (A) (A) (A) (A) (A) (A) (A)
                 (A) (A) (A) (A) (A) (A) (A) (A) (A) (A)
 The electronic state is 1-A.
 Alpha  occ. eigenvalues --  -19.16968 -19.16547 -19.16359 -14.55762 -14.36845
 Alpha  occ. eigenvalues --  -10.27391 -10.25917 -10.23455 -10.21308 -10.20002
 Alpha  occ. eigenvalues --  -10.19327  -1.20953  -1.07157  -1.03132  -0.94977
 Alpha  occ. eigenvalues --   -0.86885  -0.79585  -0.76229  -0.68910  -0.63450
 Alpha  occ. eigenvalues --   -0.61972  -0.55902  -0.55267  -0.54430  -0.52335
 Alpha  occ. eigenvalues --   -0.50507  -0.49547  -0.46310  -0.44651  -0.42882
 Alpha  occ. eigenvalues --   -0.42347  -0.40134  -0.38329  -0.36258  -0.32309
 Alpha  occ. eigenvalues --   -0.30259  -0.30206  -0.28592  -0.24425  -0.23034
 Alpha virt. eigenvalues --   -0.07933  -0.00762   0.01967   0.05929   0.09472
 Alpha virt. eigenvalues --    0.10040   0.14685   0.15221   0.15916   0.16690
 Alpha virt. eigenvalues --    0.19857   0.22995   0.25194   0.27641   0.28025
 Alpha virt. eigenvalues --    0.31390   0.32552   0.34023   0.36568   0.37599
 Alpha virt. eigenvalues --    0.38801   0.43966   0.45708   0.47420   0.48088
 Alpha virt. eigenvalues --    0.49273   0.50819   0.51692   0.52193   0.52741
 Alpha virt. eigenvalues --    0.54371   0.56357   0.56604   0.57550   0.59309
 Alpha virt. eigenvalues --    0.60135   0.61294   0.63841   0.65685   0.68122
 Alpha virt. eigenvalues --    0.69348   0.70400   0.71750   0.73094   0.73481
 Alpha virt. eigenvalues --    0.75090   0.76807   0.78015   0.78147   0.79339
 Alpha virt. eigenvalues --    0.79750   0.80921   0.82081   0.82839   0.85189
 Alpha virt. eigenvalues --    0.86169   0.88119   0.88327   0.88899   0.89978
 Alpha virt. eigenvalues --    0.91751   0.93054   0.95464   0.96891   0.97770
 Alpha virt. eigenvalues --    0.99012   1.00112   1.01373   1.02267   1.06176
 Alpha virt. eigenvalues --    1.06571   1.07369   1.11923   1.14709   1.14730
 Alpha virt. eigenvalues --    1.18831   1.21263   1.22503   1.22831   1.28270
 Alpha virt. eigenvalues --    1.28857   1.30950   1.33589   1.35094   1.35784
 Alpha virt. eigenvalues --    1.38951   1.39233   1.40379   1.41151   1.43282
 Alpha virt. eigenvalues --    1.44695   1.44911   1.46796   1.47624   1.51374
 Alpha virt. eigenvalues --    1.54501   1.55401   1.56929   1.58060   1.59983
 Alpha virt. eigenvalues --    1.62725   1.64006   1.65707   1.69029   1.69132
 Alpha virt. eigenvalues --    1.71963   1.74890   1.77262   1.78019   1.82959
 Alpha virt. eigenvalues --    1.86234   1.88847   1.90163   1.94345   1.96349
 Alpha virt. eigenvalues --    1.97139   2.01393   2.08811   2.12439   2.15156
 Alpha virt. eigenvalues --    2.17633   2.19697   2.21477   2.23358   2.25527
 Alpha virt. eigenvalues --    2.27501   2.29988   2.35981   2.38362   2.40655
 Alpha virt. eigenvalues --    2.47214   2.51015   2.51677   2.53456   2.65700
 Alpha virt. eigenvalues --    2.71178   2.73997   2.78575   2.82165   2.83411
 Alpha virt. eigenvalues --    2.85000   2.90500   2.91173   2.91720   2.93922
 Alpha virt. eigenvalues --    2.97798   3.00008   3.02046   3.03917   3.05063
 Alpha virt. eigenvalues --    3.06547   3.07478   3.08982   3.10225   3.11279
 Alpha virt. eigenvalues --    3.14076   3.15036   3.16333   3.19222   3.20829
 Alpha virt. eigenvalues --    3.21745   3.25579   3.29011   3.32019   3.34152
 Alpha virt. eigenvalues --    3.36135   3.38538   3.41432   3.46517   3.47835
 Alpha virt. eigenvalues --    3.49094   3.50809   3.52775   3.56467   3.58840
 Alpha virt. eigenvalues --    3.61324   3.63580   3.66111   3.69905   3.71597
 Alpha virt. eigenvalues --    3.74396   3.74629   3.75771   3.78728   3.81783
 Alpha virt. eigenvalues --    3.82819   3.87803   3.89476   3.98759   4.01983
 Alpha virt. eigenvalues --    4.03113   4.05207   4.07653   4.08574   4.10482
 Alpha virt. eigenvalues --    4.12155   4.13384   4.15546   4.17222   4.20027
 Alpha virt. eigenvalues --    4.21613   4.24019   4.26971   4.29968   4.30539
 Alpha virt. eigenvalues --    4.31475   4.33319   4.34873   4.36272   4.39455
 Alpha virt. eigenvalues --    4.40181   4.41863   4.44859   4.46817   4.47458
 Alpha virt. eigenvalues --    4.48673   4.49692   4.50966   4.51365   4.52173
 Alpha virt. eigenvalues --    4.53306   4.55542   4.56852   4.57399   4.59728
 Alpha virt. eigenvalues --    4.61595   4.62739   4.64388   4.64988   4.67499
 Alpha virt. eigenvalues --    4.69192   4.69911   4.76141   4.79409   4.80074
 Alpha virt. eigenvalues --    4.84216   4.86891   4.90225   4.93849   4.95497
 Alpha virt. eigenvalues --    4.96417   5.02631   5.03385   5.04948   5.08046
 Alpha virt. eigenvalues --    5.08322   5.09523   5.13687   5.15144   5.18471
 Alpha virt. eigenvalues --    5.19323   5.21900   5.26983   5.33072   5.34643
 Alpha virt. eigenvalues --    5.35334   5.41190   5.45227   5.46058   5.53526
 Alpha virt. eigenvalues --    5.55252   5.58689   5.62784   5.66959   5.70437
 Alpha virt. eigenvalues --    5.73882   5.77746   5.82118   5.86499   5.87992
 Alpha virt. eigenvalues --    5.92747   5.99361   6.03885   6.05487   6.07150
 Alpha virt. eigenvalues --    6.22501   6.24112   6.29066   6.43233   6.49930
 Alpha virt. eigenvalues --    6.73303   6.93228   7.01429   7.18607   8.48436
 Alpha virt. eigenvalues --    9.64278  10.57548  10.64223  11.17307  11.30968
 Alpha virt. eigenvalues --   11.56832  11.70901  12.63521  12.95369  13.25389
 Alpha virt. eigenvalues --   13.37583  13.66535  17.59525
          Condensed to atoms (all electrons):
               1          2          3          4          5          6
     1  O    7.762866   0.471650  -0.019142   0.001731   0.000023   0.003097
     2  C    0.471650   4.461715   0.490812  -0.002906  -0.031552  -0.013084
     3  C   -0.019142   0.490812   5.020501   0.526267  -0.016861  -0.051920
     4  C    0.001731  -0.002906   0.526267   4.339704   0.518511   0.005370
     5  C    0.000023  -0.031552  -0.016861   0.518511   4.904200   0.554312
     6  C    0.003097  -0.013084  -0.051920   0.005370   0.554312   4.952088
     7  H   -0.000000   0.001111   0.002971  -0.040593   0.356172  -0.025028
     8  N   -0.000009   0.002393  -0.040890   0.431818  -0.043969   0.001806
     9  H   -0.000002  -0.000025  -0.005146  -0.032659   0.004201  -0.000048
    10  C   -0.054415   0.391061   0.016151  -0.041980  -0.010568   0.376595
    11  N   -0.007725  -0.031283  -0.000147  -0.000012   0.001544  -0.018911
    12  O   -0.000047   0.003125  -0.000018  -0.000010   0.001381   0.004225
    13  O   -0.035825  -0.009138   0.000712  -0.000033   0.000032   0.007192
    14  H   -0.000020   0.002466   0.000979   0.002204  -0.029219   0.351567
    15  H    0.302331  -0.061292   0.006687  -0.000078  -0.000051  -0.000919
    16  H    0.000000  -0.000070   0.003895  -0.034469  -0.005558   0.000059
    17  H   -0.002098  -0.019206   0.346440  -0.043848   0.003600   0.000763
               7          8          9         10         11         12
     1  O   -0.000000  -0.000009  -0.000002  -0.054415  -0.007725  -0.000047
     2  C    0.001111   0.002393  -0.000025   0.391061  -0.031283   0.003125
     3  C    0.002971  -0.040890  -0.005146   0.016151  -0.000147  -0.000018
     4  C   -0.040593   0.431818  -0.032659  -0.041980  -0.000012  -0.000010
     5  C    0.356172  -0.043969   0.004201  -0.010568   0.001544   0.001381
     6  C   -0.025028   0.001806  -0.000048   0.376595  -0.018911   0.004225
     7  H    0.611791  -0.006626  -0.000207   0.002622  -0.000024  -0.000005
     8  N   -0.006626   6.541760   0.353253   0.000381  -0.000001   0.000000
     9  H   -0.000207   0.353253   0.440809  -0.000030  -0.000000  -0.000000
    10  C    0.002622   0.000381  -0.000030   5.028995   0.394958  -0.130040
    11  N   -0.000024  -0.000001  -0.000000   0.394958   5.277443   0.554589
    12  O   -0.000005   0.000000  -0.000000  -0.130040   0.554589   7.999540
    13  O    0.000001   0.000000   0.000000  -0.102009   0.444673  -0.085731
    14  H   -0.005452  -0.000069   0.000004  -0.027475  -0.010616   0.022051
    15  H   -0.000000   0.000001   0.000000  -0.001118  -0.007920   0.001057
    16  H    0.005129   0.354854  -0.028980  -0.000011   0.000000   0.000000
    17  H   -0.000179  -0.007403   0.004830   0.005422  -0.000009   0.000000
              13         14         15         16         17
     1  O   -0.035825  -0.000020   0.302331   0.000000  -0.002098
     2  C   -0.009138   0.002466  -0.061292  -0.000070  -0.019206
     3  C    0.000712   0.000979   0.006687   0.003895   0.346440
     4  C   -0.000033   0.002204  -0.000078  -0.034469  -0.043848
     5  C    0.000032  -0.029219  -0.000051  -0.005558   0.003600
     6  C    0.007192   0.351567  -0.000919   0.000059   0.000763
     7  H    0.000001  -0.005452  -0.000000   0.005129  -0.000179
     8  N    0.000000  -0.000069   0.000001   0.354854  -0.007403
     9  H    0.000000   0.000004   0.000000  -0.028980   0.004830
    10  C   -0.102009  -0.027475  -0.001118  -0.000011   0.005422
    11  N    0.444673  -0.010616  -0.007920   0.000000  -0.000009
    12  O   -0.085731   0.022051   0.001057   0.000000   0.000000
    13  O    8.167447   0.000415   0.068413   0.000000   0.000010
    14  H    0.000415   0.549747  -0.000027  -0.000006   0.000021
    15  H    0.068413  -0.000027   0.365298  -0.000000  -0.000177
    16  H    0.000000  -0.000006  -0.000000   0.442329  -0.000142
    17  H    0.000010   0.000021  -0.000177  -0.000142   0.607937
 Mulliken charges:
               1
     1  O   -0.422415
     2  C    0.344219
     3  C   -0.281292
     4  C    0.370982
     5  C   -0.206198
     6  C   -0.147167
     7  H    0.098317
     8  N   -0.587301
     9  H    0.264000
    10  C    0.151460
    11  N    0.403441
    12  O   -0.370117
    13  O   -0.456160
    14  H    0.143431
    15  H    0.327793
    16  H    0.262970
    17  H    0.104037
 Sum of Mulliken charges =  -0.00000
 Mulliken charges with hydrogens summed into heavy atoms:
               1
     1  O   -0.094622
     2  C    0.344219
     3  C   -0.177255
     4  C    0.370982
     5  C   -0.107881
     6  C   -0.003736
     8  N   -0.060331
    10  C    0.151460
    11  N    0.403441
    12  O   -0.370117
    13  O   -0.456160
 Electronic spatial extent (au):  <R**2>=           1740.2552
 Charge=             -0.0000 electrons
 Dipole moment (field-independent basis, Debye):
    X=             -6.2911    Y=             -0.4717    Z=              0.6538  Tot=              6.3426
 Quadrupole moment (field-independent basis, Debye-Ang):
   XX=            -55.4041   YY=            -61.1769   ZZ=            -63.1128
   XY=              2.8933   XZ=             -2.9307   YZ=             -0.0384
 Traceless Quadrupole moment (field-independent basis, Debye-Ang):
   XX=              4.4938   YY=             -1.2790   ZZ=             -3.2149
   XY=              2.8933   XZ=             -2.9307   YZ=             -0.0384
 Octapole moment (field-independent basis, Debye-Ang**2):
  XXX=            -86.3000  YYY=             -4.6906  ZZZ=              0.5202  XYY=            -11.4611
  XXY=             10.7174  XXZ=             12.1888  XZZ=             12.9086  YZZ=              2.2571
  YYZ=              0.4336  XYZ=              0.2325
 Hexadecapole moment (field-independent basis, Debye-Ang**3):
 XXXX=          -1299.9548 YYYY=           -563.3599 ZZZZ=            -57.1044 XXXY=             26.1654
 XXXZ=            -51.7363 YYYX=             13.2798 YYYZ=              0.0335 ZZZX=             -2.0005
 ZZZY=             -0.0555 XXYY=           -308.8989 XXZZ=           -267.3844 YYZZ=           -107.3526
 XXYZ=             -0.9983 YYXZ=             -2.1459 ZZXY=             -2.0487
 N-N= 6.006570319821D+02 E-N=-2.527936907438D+03  KE= 5.635166010103D+02
 No NMR shielding tensors so no spin-rotation constants.
 Leave Link  601 at Sat Oct  2 10:11:01 2021, MaxMem= 24159191040 cpu:        15.0
 (Enter /public/home/users/caep010/software/Gaussian09/g09/l701.exe)
 Compute integral first derivatives.
 ... and contract with generalized density number  0.
 Leave Link  701 at Sat Oct  2 10:11:02 2021, MaxMem= 24159191040 cpu:        16.0
 (Enter /public/home/users/caep010/software/Gaussian09/g09/l702.exe)
 L702 exits ... SP integral derivatives will be done elsewhere.
 Leave Link  702 at Sat Oct  2 10:11:02 2021, MaxMem= 24159191040 cpu:         0.7
 (Enter /public/home/users/caep010/software/Gaussian09/g09/l703.exe)
 Compute integral first derivatives, UseDBF=F ICtDFT=           0.
 Integral derivatives from FoFJK, PRISM(SPDF).
 Calling FoFJK, ICntrl=      2127 FMM=F ISym2X=0 I1Cent= 0 IOpClX= 0 NMat=1 NMatS=1 NMatT=0.
 FoFJK:  IHMeth= 1 ICntrl=    2127 DoSepK=F KAlg= 0 I1Cent=   0 FoldK=F
 IRaf=         0 NMat=   1 IRICut=       1 DoRegI=T DoRafI=F ISym2E= 0.
 FoFCou: FMM=F IPFlag=           0 FMFlag=      100000 FMFlg1=         800
         NFxFlg=           0 DoJE=F BraDBF=F KetDBF=F FulRan=T
         wScrn=  0.000000 ICntrl=    2127 IOpCl=  0 I1Cent=           0 NGrid=           0
         NMat0=    1 NMatS0=      1 NMatT0=    0 NMatD0=    1 NMtDS0=    0 NMtDT0=    0
 Symmetry not used in FoFCou.
 Leave Link  703 at Sat Oct  2 10:11:08 2021, MaxMem= 24159191040 cpu:       174.4
 (Enter /public/home/users/caep010/software/Gaussian09/g09/l716.exe)
 Dipole        =-2.47512699D+00-1.85575500D-01 2.57208454D-01
 ***** Axes restored to original set *****
 -------------------------------------------------------------------
 Center     Atomic                   Forces (Hartrees/Bohr)
 Number     Number              X              Y              Z
 -------------------------------------------------------------------
      1        8           0.000216045   -0.002986182    0.001337861
      2        6          -0.000492130    0.001567664   -0.001442443
      3        6          -0.000284055   -0.002412472    0.000207546
      4        6          -0.000175194   -0.000445109   -0.000729355
      5        6          -0.000594919    0.000929269   -0.001511977
      6        6           0.000325987    0.001741713    0.000383482
      7        1          -0.000055584    0.000335286   -0.000387415
      8        7           0.000046953    0.000039165    0.000046109
      9        1          -0.000086187   -0.001193393    0.000289068
     10        6           0.000656286    0.000195381    0.001224629
     11        7          -0.002875961   -0.004035564   -0.005242688
     12        8           0.000762864    0.008203254   -0.000646649
     13        8           0.002050579   -0.003798111    0.005725458
     14        1           0.000013914    0.000551233   -0.000152684
     15        1           0.000880076    0.000810967    0.001773028
     16        1          -0.000432930    0.000848223   -0.000890559
     17        1           0.000044256   -0.000351324    0.000016589
 -------------------------------------------------------------------
 Cartesian Forces:  Max     0.008203254 RMS     0.002035282
 Leave Link  716 at Sat Oct  2 10:11:08 2021, MaxMem= 24159191040 cpu:         1.1
 (Enter /public/home/users/caep010/software/Gaussian09/g09/l103.exe)

 GradGradGradGradGradGradGradGradGradGradGradGradGradGradGradGradGradGrad
 Berny optimization.
 FormGI is forming the generalized inverse of G from B-inverse, IUseBI=4.
 Internal  Forces:  Max     0.008261649 RMS     0.001506750
 Search for a local minimum.
 Step number   1 out of a maximum of   86
 All quantities printed in internal units (Hartrees-Bohrs-Radians)
 RMS Force = .15067D-02 SwitMx=.10000D-02 MixMth= 1
 Mixed Optimization -- RFO/linear search
 Second derivative matrix not updated -- first step.
 ITU=  0
     Eigenvalues ---    0.01347   0.01347   0.01739   0.01894   0.01960
     Eigenvalues ---    0.02035   0.02068   0.02078   0.02117   0.02127
     Eigenvalues ---    0.02197   0.02269   0.02561   0.03195   0.16000
     Eigenvalues ---    0.16000   0.16000   0.16000   0.16000   0.16000
     Eigenvalues ---    0.22364   0.23477   0.24601   0.24985   0.25000
     Eigenvalues ---    0.25000   0.25000   0.25000   0.35394   0.35447
     Eigenvalues ---    0.35692   0.39562   0.41561   0.41969   0.42173
     Eigenvalues ---    0.45128   0.45676   0.46345   0.46363   0.49119
     Eigenvalues ---    0.49401   0.50680   0.58512   0.79332   0.91240
 RFO step:  Lambda=-2.61967358D-04 EMin= 1.34708080D-02
 Linear search not attempted -- first point.
 Iteration  1 RMS(Cart)=  0.00509605 RMS(Int)=  0.00001159
 Iteration  2 RMS(Cart)=  0.00001344 RMS(Int)=  0.00000157
 Iteration  3 RMS(Cart)=  0.00000000 RMS(Int)=  0.00000157
 ITry= 1 IFail=0 DXMaxC= 2.19D-02 DCOld= 1.00D+10 DXMaxT= 3.00D-01 DXLimC= 3.00D+00 Rises=F
 Variable       Old X    -DE/DX   Delta X   Delta X   Delta X     New X
                                 (Linear)    (Quad)   (Total)
    R1        2.52137  -0.00395   0.00000  -0.00675  -0.00675   2.51462
    R2        1.87464  -0.00203   0.00000  -0.00413  -0.00413   1.87052
    R3        2.63675  -0.00203   0.00000  -0.00437  -0.00437   2.63238
    R4        2.68912  -0.00196   0.00000  -0.00462  -0.00462   2.68450
    R5        2.64401  -0.00219   0.00000  -0.00482  -0.00482   2.63919
    R6        2.04955  -0.00035   0.00000  -0.00097  -0.00097   2.04858
    R7        2.68513  -0.00218   0.00000  -0.00520  -0.00520   2.67993
    R8        2.59185  -0.00077   0.00000  -0.00151  -0.00151   2.59034
    R9        2.59516  -0.00197   0.00000  -0.00391  -0.00391   2.59124
   R10        2.05040  -0.00050   0.00000  -0.00141  -0.00141   2.04899
   R11        2.65651  -0.00191   0.00000  -0.00424  -0.00424   2.65228
   R12        2.04566  -0.00055   0.00000  -0.00154  -0.00154   2.04412
   R13        1.90445  -0.00118   0.00000  -0.00255  -0.00255   1.90189
   R14        1.90424  -0.00128   0.00000  -0.00275  -0.00275   1.90149
   R15        2.69486  -0.00004   0.00000  -0.00009  -0.00009   2.69477
   R16        2.32367  -0.00826   0.00000  -0.00905  -0.00905   2.31461
   R17        2.38278  -0.00717   0.00000  -0.00903  -0.00903   2.37374
    A1        1.84278  -0.00127   0.00000  -0.00791  -0.00791   1.83487
    A2        2.06563   0.00066   0.00000   0.00261   0.00261   2.06824
    A3        2.14857  -0.00063   0.00000  -0.00254  -0.00254   2.14604
    A4        2.06898  -0.00002   0.00000  -0.00007  -0.00007   2.06891
    A5        2.11471   0.00033   0.00000   0.00140   0.00140   2.11611
    A6        2.05523  -0.00014   0.00000  -0.00051  -0.00051   2.05472
    A7        2.11324  -0.00020   0.00000  -0.00089  -0.00089   2.11235
    A8        2.08673  -0.00031   0.00000  -0.00141  -0.00141   2.08532
    A9        2.10620   0.00014   0.00000   0.00063   0.00063   2.10683
   A10        2.08977   0.00016   0.00000   0.00073   0.00073   2.09050
   A11        2.09194   0.00015   0.00000   0.00056   0.00056   2.09250
   A12        2.08967  -0.00018   0.00000  -0.00094  -0.00094   2.08873
   A13        2.10156   0.00003   0.00000   0.00038   0.00038   2.10195
   A14        2.10767   0.00013   0.00000   0.00059   0.00059   2.10825
   A15        2.11842   0.00010   0.00000   0.00072   0.00072   2.11914
   A16        2.05710  -0.00023   0.00000  -0.00131  -0.00131   2.05579
   A17        2.06603   0.00016   0.00000  -0.00003  -0.00004   2.06599
   A18        2.06371   0.00005   0.00000  -0.00070  -0.00070   2.06300
   A19        2.01185  -0.00030   0.00000  -0.00304  -0.00305   2.00880
   A20        2.09635  -0.00029   0.00000  -0.00107  -0.00107   2.09528
   A21        2.11523  -0.00036   0.00000  -0.00149  -0.00149   2.11374
   A22        2.07161   0.00065   0.00000   0.00256   0.00256   2.07417
   A23        2.08957   0.00009   0.00000   0.00034   0.00034   2.08991
   A24        2.06603   0.00015   0.00000   0.00061   0.00061   2.06664
   A25        2.12758  -0.00024   0.00000  -0.00096  -0.00096   2.12662
    D1        3.13907  -0.00000   0.00000  -0.00016  -0.00016   3.13891
    D2        0.00058   0.00001   0.00000   0.00024   0.00024   0.00082
    D3       -3.14072  -0.00000   0.00000  -0.00022  -0.00022  -3.14094
    D4        0.00482  -0.00001   0.00000  -0.00065  -0.00065   0.00418
    D5       -0.00208  -0.00001   0.00000  -0.00061  -0.00061  -0.00269
    D6       -3.13972  -0.00002   0.00000  -0.00104  -0.00104  -3.14076
    D7        3.13967  -0.00001   0.00000  -0.00029  -0.00029   3.13938
    D8        0.00040  -0.00001   0.00000  -0.00078  -0.00078  -0.00038
    D9        0.00118   0.00000   0.00000   0.00011   0.00011   0.00129
   D10       -3.13808  -0.00001   0.00000  -0.00039  -0.00039  -3.13847
   D11        0.00181   0.00002   0.00000   0.00096   0.00096   0.00277
   D12       -3.10614   0.00005   0.00000   0.00261   0.00260  -3.10354
   D13        3.13932   0.00003   0.00000   0.00141   0.00141   3.14073
   D14        0.03137   0.00006   0.00000   0.00305   0.00305   0.03442
   D15       -0.00060  -0.00002   0.00000  -0.00081  -0.00081  -0.00141
   D16       -3.13663  -0.00003   0.00000  -0.00138  -0.00138  -3.13801
   D17        3.10767  -0.00005   0.00000  -0.00244  -0.00244   3.10523
   D18       -0.02836  -0.00006   0.00000  -0.00301  -0.00300  -0.03136
   D19       -0.28927  -0.00016   0.00000  -0.00542  -0.00542  -0.29469
   D20       -2.85894   0.00009   0.00000   0.00247   0.00247  -2.85647
   D21        2.88602  -0.00012   0.00000  -0.00373  -0.00373   2.88229
   D22        0.31635   0.00013   0.00000   0.00416   0.00415   0.32051
   D23       -0.00028   0.00001   0.00000   0.00032   0.00032   0.00005
   D24        3.14015  -0.00000   0.00000  -0.00011  -0.00011   3.14004
   D25        3.13572   0.00002   0.00000   0.00089   0.00089   3.13661
   D26       -0.00704   0.00001   0.00000   0.00045   0.00045  -0.00658
   D27       -0.00002   0.00000   0.00000   0.00003   0.00003   0.00001
   D28        3.13931   0.00001   0.00000   0.00050   0.00050   3.13981
   D29       -3.14049   0.00001   0.00000   0.00045   0.00045  -3.14004
   D30       -0.00116   0.00002   0.00000   0.00092   0.00092  -0.00024
   D31        3.14104  -0.00002   0.00000  -0.00117  -0.00116   3.13988
   D32       -0.00080   0.00001   0.00000   0.00087   0.00088   0.00007
   D33        0.00174  -0.00002   0.00000  -0.00165  -0.00165   0.00009
   D34       -3.14010   0.00000   0.00000   0.00039   0.00039  -3.13971
         Item               Value     Threshold  Converged?
 Maximum Force            0.008262     0.000450     NO 
 RMS     Force            0.001507     0.000300     NO 
 Maximum Displacement     0.021914     0.001800     NO 
 RMS     Displacement     0.005094     0.001200     NO 
 Predicted change in Energy=-1.310571D-04
 Lowest energy point so far.  Saving SCF results.
 GradGradGradGradGradGradGradGradGradGradGradGradGradGradGradGradGradGrad

 Leave Link  103 at Sat Oct  2 10:11:08 2021, MaxMem= 24159191040 cpu:         3.5
 (Enter /public/home/users/caep010/software/Gaussian09/g09/l202.exe)
                          Input orientation:                          
 ---------------------------------------------------------------------
 Center     Atomic      Atomic             Coordinates (Angstroms)
 Number     Number       Type             X           Y           Z
 ---------------------------------------------------------------------
      1          8           0        0.409173    5.809941    1.635414
      2          6           0        0.778799    5.081246    2.685696
      3          6           0        1.345348    5.731477    3.779613
      4          6           0        1.754399    5.022842    4.911429
      5          6           0        1.594006    3.614274    4.948666
      6          6           0        1.039204    2.961136    3.878213
      7          1           0        1.907416    3.061347    5.827131
      8          7           0        2.269669    5.678307    5.999462
      9          1           0        2.586409    6.626223    5.880941
     10          6           0        0.625410    3.670008    2.739725
     11          7           0        0.055763    2.948551    1.649538
     12          8           0       -0.063080    1.731650    1.722102
     13          8           0       -0.309896    3.590812    0.633834
     14          1           0        0.906635    1.887591    3.879651
     15          1           0        0.041635    5.159472    0.986123
     16          1           0        2.777565    5.140796    6.681817
     17          1           0        1.455449    6.808529    3.724644
 ---------------------------------------------------------------------
                    Distance matrix (angstroms):
                    1          2          3          4          5
     1  O    0.000000
     2  C    1.330681   0.000000
     3  C    2.340977   1.392995   0.000000
     4  C    3.627869   2.430863   1.396601   0.000000
     5  C    4.147580   2.817375   2.431268   1.418159   0.000000
     6  C    3.680051   2.446379   2.788948   2.414471   1.371228
     7  H    5.231634   3.901587   3.411428   2.170112   1.084276
     8  N    4.745913   3.682421   2.405187   1.370749   2.412659
     9  H    4.840576   3.982964   2.599304   2.050128   3.305425
    10  C    2.417762   1.420576   2.418539   2.796618   2.412614
    11  N    2.883167   2.478869   3.734291   4.222319   3.700490
    12  O    4.106457   3.585674   4.713347   4.930211   4.086676
    13  O    2.538652   2.759852   4.149483   4.960831   4.716267
    14  H    4.546306   3.411935   3.870134   3.407795   2.143994
    15  H    0.989835   1.854206   3.135354   4.284887   4.527609
    16  H    5.614555   4.468512   3.289824   2.048184   2.595167
    17  H    2.541014   2.126212   1.084059   2.164835   3.423549
                    6          7          8          9         10
     6  C    0.000000
     7  H    2.135911   0.000000
     8  N    3.660158   2.647528   0.000000
     9  H    4.453944   3.629361   1.006437   0.000000
    10  C    1.403524   3.397953   4.166862   4.738350   0.000000
    11  N    2.436043   4.570955   5.592387   6.150952   1.426010
    12  O    2.715783   4.743650   6.270058   6.947847   2.294952
    13  O    3.569672   5.671609   6.308864   6.718216   2.305612
    14  H    1.081701   2.484340   4.552031   5.411232   2.134370
    15  H    3.767228   5.596305   5.510617   5.708457   2.373692
    16  H    3.953861   2.410758   1.006223   1.698363   4.726001
    17  H    3.872889   4.320428   2.667425   2.441705   3.392542
                   11         12         13         14         15
    11  N    0.000000
    12  O    1.224841   0.000000
    13  O    1.256130   2.168347   0.000000
    14  H    2.612092   2.370587   3.862155   0.000000
    15  H    2.308352   3.507505   1.645714   4.452633   0.000000
    16  H    6.126824   6.655097   6.965125   4.683573   6.318750
    17  H    4.600501   5.664874   4.798255   4.953873   3.495391
                   16         17
    16  H    0.000000
    17  H    3.643378   0.000000
 Stoichiometry    C6H6N2O3
 Framework group  C1[X(C6H6N2O3)]
 Deg. of freedom    45
 Full point group                 C1      NOp   1
 RotChk:  IX=0 Diff= 8.02D-04
 Largest Abelian subgroup         C1      NOp   1
 Largest concise Abelian subgroup C1      NOp   1
                         Standard orientation:                         
 ---------------------------------------------------------------------
 Center     Atomic      Atomic             Coordinates (Angstroms)
 Number     Number       Type             X           Y           Z
 ---------------------------------------------------------------------
      1          8           0        0.675326    2.149692    0.000109
      2          6           0       -0.002107    1.004359   -0.002680
      3          6           0       -1.394165    1.055447   -0.002241
      4          6           0       -2.161869   -0.111223   -0.004286
      5          6           0       -1.514212   -1.372855   -0.003434
      6          6           0       -0.144527   -1.437871   -0.002300
      7          1           0       -2.107133   -2.280641   -0.008391
      8          7           0       -3.530469   -0.048625   -0.048667
      9          1           0       -3.976900    0.824433    0.178014
     10          6           0        0.630370   -0.267651   -0.001909
     11          7           0        2.051641   -0.383766    0.001505
     12          8           0        2.570686   -1.493191    0.003924
     13          8           0        2.737255    0.668749    0.003913
     14          1           0        0.374930   -2.386680   -0.000202
     15          1           0        1.629285    1.885618    0.001780
     16          1           0       -4.052461   -0.872104    0.200115
     17          1           0       -1.862999    2.032881   -0.003636
 ---------------------------------------------------------------------
 Rotational constants (GHZ):      2.3728392      0.8137604      0.6060993
 Leave Link  202 at Sat Oct  2 10:11:08 2021, MaxMem= 24159191040 cpu:         0.3
 (Enter /public/home/users/caep010/software/Gaussian09/g09/l301.exe)
 Standard basis: GTBas3 (6D, 7F)
 Ernie: Thresh=  0.10000D-02 Tol=  0.10000D-05 Strict=F.
 There are   371 symmetry adapted cartesian basis functions of A   symmetry.
 There are   338 symmetry adapted basis functions of A   symmetry.
   338 basis functions,   526 primitive gaussians,   371 cartesian basis functions
    40 alpha electrons       40 beta electrons
       nuclear repulsion energy       601.7673140733 Hartrees.
 IExCor=  402 DFT=T Ex+Corr=B3LYP ExCW=0 ScaHFX=  0.200000
 ScaDFX=  0.800000  0.720000  1.000000  0.810000 ScalE2=  1.000000  1.000000
 IRadAn=      0 IRanWt=     -1 IRanGd=            0 ICorTp=0 IEmpDi=  4
 NAtoms=   17 NActive=   17 NUniq=   17 SFac= 1.00D+00 NAtFMM=   60 NAOKFM=F Big=F
 Integral buffers will be    131072 words long.
 Raffenetti 2 integral format.
 Two-electron integral symmetry is turned on.
 Leave Link  301 at Sat Oct  2 10:11:09 2021, MaxMem= 24159191040 cpu:         1.8
 (Enter /public/home/users/caep010/software/Gaussian09/g09/l302.exe)
 NPDir=0 NMtPBC=     1 NCelOv=     1 NCel=       1 NClECP=     1 NCelD=      1
         NCelK=      1 NCelE2=     1 NClLst=     1 CellRange=     0.0.
 One-electron integrals computed using PRISM.
 NBasis=   338 RedAO= T EigKep=  1.04D-04  NBF=   338
 NBsUse=   338 1.00D-06 EigRej= -1.00D+00 NBFU=   338
 Precomputing XC quadrature grid using
 IXCGrd= 4 IRadAn=           0 IRanWt=          -1 IRanGd=           0 AccXCQ= 0.00D+00.
 Generated NRdTot=       0 NPtTot=           0 NUsed=           0 NTot=          32
 NSgBfM=   370   370   370   370   370 MxSgAt=    17 MxSgA2=    17.
 Leave Link  302 at Sat Oct  2 10:11:09 2021, MaxMem= 24159191040 cpu:        16.5
 (Enter /public/home/users/caep010/software/Gaussian09/g09/l303.exe)
 DipDrv:  MaxL=1.
 Leave Link  303 at Sat Oct  2 10:11:09 2021, MaxMem= 24159191040 cpu:         0.9
 (Enter /public/home/users/caep010/software/Gaussian09/g09/l401.exe)
 Initial guess from the checkpoint file:  "/public/home/users/caep010/.cache/gau_scr/Gau-118147.chk"
 B after Tr=    -0.000000    0.000000   -0.000000
         Rot=    1.000000    0.000002   -0.000000    0.000097 Ang=   0.01 deg.
 Guess basis will be translated and rotated to current coordinates.
 JPrj=2 DoOrth=T DoCkMO=T.
 Generating alternative initial guess.
 ExpMin= 1.61D-01 ExpMax= 5.48D+03 ExpMxC= 8.25D+02 IAcc=1 IRadAn=         1 AccDes= 0.00D+00
 Harris functional with IExCor=  402 and IRadAn=       1 diagonalized for initial guess.
 HarFok:  IExCor=  402 AccDes= 0.00D+00 IRadAn=         1 IDoV= 1 UseB2=F ITyADJ=14
 ICtDFT=  3500011 ScaDFX=  1.000000  1.000000  1.000000  1.000000
 FoFCou: FMM=F IPFlag=           0 FMFlag=      100000 FMFlg1=           0
         NFxFlg=           0 DoJE=T BraDBF=F KetDBF=T FulRan=T
         wScrn=  0.000000 ICntrl=     500 IOpCl=  0 I1Cent=   200000004 NGrid=           0
         NMat0=    1 NMatS0=      1 NMatT0=    0 NMatD0=    1 NMtDS0=    0 NMtDT0=    0
 Petite list used in FoFCou.
 Harris En= -567.412674007591    
 Leave Link  401 at Sat Oct  2 10:11:10 2021, MaxMem= 24159191040 cpu:        19.9
 (Enter /public/home/users/caep010/software/Gaussian09/g09/l502.exe)
 Closed shell SCF:
 Using DIIS extrapolation, IDIIS=  1040.
 Integral symmetry usage will be decided dynamically.
 Keep R1 ints in memory in canonical form, NReq=1667343251.
 IVT=      446027 IEndB=      446027 NGot= 24159191040 MDV= 22517587028
 LenX= 22517587028 LenY= 22517448946
 Requested convergence on RMS density matrix=1.00D-08 within 128 cycles.
 Requested convergence on MAX density matrix=1.00D-06.
 Requested convergence on             energy=1.00D-06.
 No special actions if energy rises.
 FoFCou: FMM=F IPFlag=           0 FMFlag=           0 FMFlg1=           0
         NFxFlg=           0 DoJE=F BraDBF=F KetDBF=F FulRan=T
         wScrn=  0.000000 ICntrl=     600 IOpCl=  0 I1Cent=           0 NGrid=           0
         NMat0=    1 NMatS0=  57291 NMatT0=    0 NMatD0=    1 NMtDS0=    0 NMtDT0=    0
 Symmetry not used in FoFCou.
 Integral accuracy reduced to 1.0D-05 until final iterations.

 Cycle   1  Pass 0  IDiag  1:
 E= -567.386383300600    
 DIIS: error= 2.84D-04 at cycle   1 NSaved=   1.
 NSaved= 1 IEnMin= 1 EnMin= -567.386383300600     IErMin= 1 ErrMin= 2.84D-04
 ErrMax= 2.84D-04  0.00D+00 EMaxC= 1.00D-01 BMatC= 7.82D-05 BMatP= 7.82D-05
 IDIUse=3 WtCom= 9.97D-01 WtEn= 2.84D-03
 Coeff-Com:  0.100D+01
 Coeff-En:   0.100D+01
 Coeff:      0.100D+01
 Gap=     0.999 Goal=   None    Shift=    0.000
 RMSDP=5.27D-05 MaxDP=1.96D-03              OVMax= 2.14D-03

 Cycle   2  Pass 0  IDiag  1:
 E= -567.386456030614     Delta-E=       -0.000072730015 Rises=F Damp=F
 DIIS: error= 1.26D-04 at cycle   2 NSaved=   2.
 NSaved= 2 IEnMin= 2 EnMin= -567.386456030614     IErMin= 2 ErrMin= 1.26D-04
 ErrMax= 1.26D-04  0.00D+00 EMaxC= 1.00D-01 BMatC= 6.25D-06 BMatP= 7.82D-05
 IDIUse=3 WtCom= 9.99D-01 WtEn= 1.26D-03
 Coeff-Com:  0.114D+00 0.886D+00
 Coeff-En:   0.000D+00 0.100D+01
 Coeff:      0.114D+00 0.886D+00
 Gap=     0.152 Goal=   None    Shift=    0.000
 RMSDP=1.60D-05 MaxDP=1.13D-03 DE=-7.27D-05 OVMax= 1.94D-03

 Cycle   3  Pass 0  IDiag  1:
 E= -567.386450842286     Delta-E=        0.000005188328 Rises=F Damp=F
 DIIS: error= 2.69D-04 at cycle   3 NSaved=   3.
 NSaved= 3 IEnMin= 2 EnMin= -567.386456030614     IErMin= 2 ErrMin= 1.26D-04
 ErrMax= 2.69D-04  0.00D+00 EMaxC= 1.00D-01 BMatC= 1.30D-05 BMatP= 6.25D-06
 IDIUse=3 WtCom= 3.79D-01 WtEn= 6.21D-01
 Coeff-Com:  0.211D-01 0.594D+00 0.385D+00
 Coeff-En:   0.000D+00 0.645D+00 0.355D+00
 Coeff:      0.799D-02 0.625D+00 0.367D+00
 Gap=     0.152 Goal=   None    Shift=    0.000
 RMSDP=1.10D-05 MaxDP=8.75D-04 DE= 5.19D-06 OVMax= 1.90D-03

 Cycle   4  Pass 0  IDiag  1:
 E= -567.386460324611     Delta-E=       -0.000009482324 Rises=F Damp=F
 DIIS: error= 9.31D-05 at cycle   4 NSaved=   4.
 NSaved= 4 IEnMin= 4 EnMin= -567.386460324611     IErMin= 4 ErrMin= 9.31D-05
 ErrMax= 9.31D-05  0.00D+00 EMaxC= 1.00D-01 BMatC= 1.54D-06 BMatP= 6.25D-06
 IDIUse=1 WtCom= 1.00D+00 WtEn= 0.00D+00
 Coeff-Com: -0.911D-02 0.278D+00 0.259D+00 0.471D+00
 Coeff:     -0.911D-02 0.278D+00 0.259D+00 0.471D+00
 Gap=     0.152 Goal=   None    Shift=    0.000
 RMSDP=4.06D-06 MaxDP=3.08D-04 DE=-9.48D-06 OVMax= 5.68D-04

 Initial convergence to 1.0D-05 achieved.  Increase integral accuracy.
 Cycle   5  Pass 1  IDiag  1:
 E= -567.386448417709     Delta-E=        0.000011906902 Rises=F Damp=F
 DIIS: error= 1.93D-05 at cycle   1 NSaved=   1.
 NSaved= 1 IEnMin= 1 EnMin= -567.386448417709     IErMin= 1 ErrMin= 1.93D-05
 ErrMax= 1.93D-05  0.00D+00 EMaxC= 1.00D-01 BMatC= 2.40D-07 BMatP= 2.40D-07
 IDIUse=1 WtCom= 1.00D+00 WtEn= 0.00D+00
 Coeff-Com:  0.100D+01
 Coeff:      0.100D+01
 Gap=     0.152 Goal=   None    Shift=    0.000
 RMSDP=4.06D-06 MaxDP=3.08D-04 DE= 1.19D-05 OVMax= 3.32D-04

 Cycle   6  Pass 1  IDiag  1:
 E= -567.386448137690     Delta-E=        0.000000280019 Rises=F Damp=F
 DIIS: error= 4.41D-05 at cycle   2 NSaved=   2.
 NSaved= 2 IEnMin= 1 EnMin= -567.386448417709     IErMin= 1 ErrMin= 1.93D-05
 ErrMax= 4.41D-05  0.00D+00 EMaxC= 1.00D-01 BMatC= 5.36D-07 BMatP= 2.40D-07
 IDIUse=1 WtCom= 1.00D+00 WtEn= 0.00D+00
 Coeff-Com:  0.621D+00 0.379D+00
 Coeff:      0.621D+00 0.379D+00
 Gap=     0.152 Goal=   None    Shift=    0.000
 RMSDP=2.55D-06 MaxDP=1.52D-04 DE= 2.80D-07 OVMax= 3.49D-04

 Cycle   7  Pass 1  IDiag  1:
 E= -567.386448575763     Delta-E=       -0.000000438073 Rises=F Damp=F
 DIIS: error= 2.18D-05 at cycle   3 NSaved=   3.
 NSaved= 3 IEnMin= 3 EnMin= -567.386448575763     IErMin= 1 ErrMin= 1.93D-05
 ErrMax= 2.18D-05  0.00D+00 EMaxC= 1.00D-01 BMatC= 7.29D-08 BMatP= 2.40D-07
 IDIUse=1 WtCom= 1.00D+00 WtEn= 0.00D+00
 Coeff-Com:  0.121D+00 0.259D+00 0.620D+00
 Coeff:      0.121D+00 0.259D+00 0.620D+00
 Gap=     0.152 Goal=   None    Shift=    0.000
 RMSDP=1.02D-06 MaxDP=8.55D-05 DE=-4.38D-07 OVMax= 1.81D-04

 Cycle   8  Pass 1  IDiag  1:
 E= -567.386448607345     Delta-E=       -0.000000031582 Rises=F Damp=F
 DIIS: error= 1.21D-05 at cycle   4 NSaved=   4.
 NSaved= 4 IEnMin= 4 EnMin= -567.386448607345     IErMin= 4 ErrMin= 1.21D-05
 ErrMax= 1.21D-05  0.00D+00 EMaxC= 1.00D-01 BMatC= 3.51D-08 BMatP= 7.29D-08
 IDIUse=1 WtCom= 1.00D+00 WtEn= 0.00D+00
 Coeff-Com: -0.993D-02 0.138D+00 0.484D+00 0.388D+00
 Coeff:     -0.993D-02 0.138D+00 0.484D+00 0.388D+00
 Gap=     0.152 Goal=   None    Shift=    0.000
 RMSDP=5.21D-07 MaxDP=3.54D-05 DE=-3.16D-08 OVMax= 6.72D-05

 Cycle   9  Pass 1  IDiag  1:
 E= -567.386448635700     Delta-E=       -0.000000028355 Rises=F Damp=F
 DIIS: error= 9.44D-07 at cycle   5 NSaved=   5.
 NSaved= 5 IEnMin= 5 EnMin= -567.386448635700     IErMin= 5 ErrMin= 9.44D-07
 ErrMax= 9.44D-07  0.00D+00 EMaxC= 1.00D-01 BMatC= 6.75D-10 BMatP= 3.51D-08
 IDIUse=1 WtCom= 1.00D+00 WtEn= 0.00D+00
 Coeff-Com: -0.105D-01 0.683D-01 0.254D+00 0.222D+00 0.465D+00
 Coeff:     -0.105D-01 0.683D-01 0.254D+00 0.222D+00 0.465D+00
 Gap=     0.152 Goal=   None    Shift=    0.000
 RMSDP=9.19D-08 MaxDP=4.16D-06 DE=-2.84D-08 OVMax= 1.06D-05

 Cycle  10  Pass 1  IDiag  1:
 E= -567.386448636375     Delta-E=       -0.000000000676 Rises=F Damp=F
 DIIS: error= 2.57D-07 at cycle   6 NSaved=   6.
 NSaved= 6 IEnMin= 6 EnMin= -567.386448636375     IErMin= 6 ErrMin= 2.57D-07
 ErrMax= 2.57D-07  0.00D+00 EMaxC= 1.00D-01 BMatC= 5.39D-11 BMatP= 6.75D-10
 IDIUse=1 WtCom= 1.00D+00 WtEn= 0.00D+00
 Coeff-Com: -0.569D-02 0.319D-01 0.122D+00 0.106D+00 0.277D+00 0.469D+00
 Coeff:     -0.569D-02 0.319D-01 0.122D+00 0.106D+00 0.277D+00 0.469D+00
 Gap=     0.152 Goal=   None    Shift=    0.000
 RMSDP=2.10D-08 MaxDP=1.05D-06 DE=-6.76D-10 OVMax= 2.35D-06

 Cycle  11  Pass 1  IDiag  1:
 E= -567.386448636402     Delta-E=       -0.000000000026 Rises=F Damp=F
 DIIS: error= 8.22D-08 at cycle   7 NSaved=   7.
 NSaved= 7 IEnMin= 7 EnMin= -567.386448636402     IErMin= 7 ErrMin= 8.22D-08
 ErrMax= 8.22D-08  0.00D+00 EMaxC= 1.00D-01 BMatC= 4.66D-12 BMatP= 5.39D-11
 IDIUse=1 WtCom= 1.00D+00 WtEn= 0.00D+00
 Coeff-Com: -0.118D-02 0.502D-02 0.207D-01 0.173D-01 0.700D-01 0.252D+00
 Coeff-Com:  0.636D+00
 Coeff:     -0.118D-02 0.502D-02 0.207D-01 0.173D-01 0.700D-01 0.252D+00
 Coeff:      0.636D+00
 Gap=     0.152 Goal=   None    Shift=    0.000
 RMSDP=6.84D-09 MaxDP=4.16D-07 DE=-2.61D-11 OVMax= 7.00D-07

 SCF Done:  E(RB3LYP) =  -567.386448636     A.U. after   11 cycles
            NFock= 11  Conv=0.68D-08     -V/T= 2.0067
 KE= 5.636109074175D+02 PE=-2.530206952569D+03 EE= 7.974422824418D+02
 Leave Link  502 at Sat Oct  2 10:11:47 2021, MaxMem= 24159191040 cpu:       246.7
 (Enter /public/home/users/caep010/software/Gaussian09/g09/l701.exe)
 Compute integral first derivatives.
 ... and contract with generalized density number  0.
 Leave Link  701 at Sat Oct  2 10:11:48 2021, MaxMem= 24159191040 cpu:        17.1
 (Enter /public/home/users/caep010/software/Gaussian09/g09/l702.exe)
 L702 exits ... SP integral derivatives will be done elsewhere.
 Leave Link  702 at Sat Oct  2 10:11:48 2021, MaxMem= 24159191040 cpu:         0.6
 (Enter /public/home/users/caep010/software/Gaussian09/g09/l703.exe)
 Compute integral first derivatives, UseDBF=F ICtDFT=           0.
 Integral derivatives from FoFJK, PRISM(SPDF).
 Calling FoFJK, ICntrl=      2127 FMM=F ISym2X=0 I1Cent= 0 IOpClX= 0 NMat=1 NMatS=1 NMatT=0.
 FoFJK:  IHMeth= 1 ICntrl=    2127 DoSepK=F KAlg= 0 I1Cent=   0 FoldK=F
 IRaf=         0 NMat=   1 IRICut=       1 DoRegI=T DoRafI=F ISym2E= 0.
 FoFCou: FMM=F IPFlag=           0 FMFlag=      100000 FMFlg1=         800
         NFxFlg=           0 DoJE=F BraDBF=F KetDBF=F FulRan=T
         wScrn=  0.000000 ICntrl=    2127 IOpCl=  0 I1Cent=           0 NGrid=           0
         NMat0=    1 NMatS0=      1 NMatT0=    0 NMatD0=    1 NMtDS0=    0 NMtDT0=    0
 Symmetry not used in FoFCou.
 Leave Link  703 at Sat Oct  2 10:11:54 2021, MaxMem= 24159191040 cpu:       182.7
 (Enter /public/home/users/caep010/software/Gaussian09/g09/l716.exe)
 Dipole        =-2.45261020D+00-1.92149325D-01 2.59750467D-01
 ***** Axes restored to original set *****
 -------------------------------------------------------------------
 Center     Atomic                   Forces (Hartrees/Bohr)
 Number     Number              X              Y              Z
 -------------------------------------------------------------------
      1        8           0.000218940   -0.000329290    0.000595307
      2        6          -0.000062127    0.001065771   -0.000462350
      3        6           0.000105307   -0.000281136    0.000335901
      4        6          -0.000001027    0.000025613   -0.000085930
      5        6           0.000030233    0.000002042    0.000052768
      6        6          -0.000108879   -0.000036505   -0.000216043
      7        1           0.000029805   -0.000053411    0.000036041
      8        7          -0.000255938    0.000110938    0.000231953
      9        1           0.000164528    0.000059725    0.000019144
     10        6           0.000333650    0.000013910    0.000912980
     11        7          -0.000884659   -0.002189304   -0.002092944
     12        8           0.000225798    0.001675501    0.000297004
     13        8           0.000369550   -0.000511192    0.001225479
     14        1          -0.000008869   -0.000111527    0.000012213
     15        1          -0.000347031    0.000474959   -0.000898171
     16        1           0.000169852   -0.000003491    0.000060361
     17        1           0.000020869    0.000087397   -0.000023712
 -------------------------------------------------------------------
 Cartesian Forces:  Max     0.002189304 RMS     0.000614535
 Leave Link  716 at Sat Oct  2 10:11:54 2021, MaxMem= 24159191040 cpu:         0.7
 (Enter /public/home/users/caep010/software/Gaussian09/g09/l103.exe)

 GradGradGradGradGradGradGradGradGradGradGradGradGradGradGradGradGradGrad
 Berny optimization.
 Using GEDIIS/GDIIS optimizer.
 FormGI is forming the generalized inverse of G from B-inverse, IUseBI=4.
 Internal  Forces:  Max     0.001857682 RMS     0.000459614
 Search for a local minimum.
 Step number   2 out of a maximum of   86
 All quantities printed in internal units (Hartrees-Bohrs-Radians)
 RMS Force = .45961D-03 SwitMx=.10000D-02 MixMth= 2
 Mixed Optimization -- En-DIIS/RFO-DIIS
 Update second derivatives using D2CorX and points    1    2
 DE= -1.28D-04 DEPred=-1.31D-04 R= 9.74D-01
 TightC=F SS=  1.41D+00  RLast= 2.43D-02 DXNew= 5.0454D-01 7.2995D-02
 Trust test= 9.74D-01 RLast= 2.43D-02 DXMaxT set to 3.00D-01
 ITU=  1  0
 Use linear search instead of GDIIS.
     Eigenvalues ---    0.01347   0.01351   0.01739   0.01894   0.01959
     Eigenvalues ---    0.02035   0.02068   0.02079   0.02117   0.02125
     Eigenvalues ---    0.02197   0.02270   0.02561   0.03187   0.15914
     Eigenvalues ---    0.16000   0.16000   0.16000   0.16000   0.17273
[...]
 ,3.0605432731,5.8274399538\N,0,2.2672638834,5.6792206417,6.0017642023\
 H,0,2.5889408345,6.6253292111,5.880097631\C,0,0.6255715141,3.669842350
 3,2.7394179799\N,0,0.0552985126,2.9444398551,1.6481644915\O,0,-0.06239
 0902,1.7293067699,1.7251013\O,0,-0.3107123758,3.5853028377,0.634016800
 4\H,0,0.9070955189,1.8876444034,3.879037569\H,0,0.0413278924,5.1694534
 057,0.9817333893\H,0,2.7794890606,5.1413749679,6.6810055454\H,0,1.4551
 337367,6.8080058897,3.7255090928\\Version=ES64L-G09RevE.01\State=1-A\H
 F=-564.3254868\RMSD=4.621e-09\Dipole=1.3263373,0.7937821,2.0865105\Qua
 drupole=0.3603697,-1.4318403,1.0714706,0.8161275,3.5383527,-0.964236\P
 G=C01 [X(C6H6N2O3)]\\@


 THE GREAT THING ABOUT BEING IMPERFECT IS THE JOY IT BRINGS OTHERS.
   -- SIGN OUTSIDE LAKE AGASSIZ JR. HIGH SCHOOL, FARGO, N.D.
 Diagonal vibrational polarizability:
        0.0000000       0.0000000       0.0000000

 Temperature=              298.150000 Pressure=                      1.000000
 E(ZPE)=                     0.122697 E(Thermal)=                    0.131785
 E(CCSD(T))=              -565.797293 E(Empiric)=                   -0.201463
 DE(Plus)=                  -0.042185 DE(2DF)=                      -0.413132
 E(Delta-G3XP)=             -0.711610 DE(HF)=                       -0.056826
 G4(0 K)=                 -567.099811 G4 Energy=                  -567.090723
 G4 Enthalpy=             -567.089779 G4 Free Energy=             -567.133907
 1\1\GINC-B1716\Mixed\G4\G4\C6H6N2O3\ROOT\02-Oct-2021\0\\#P Geom=AllChe
 ck Guess=TCheck SCRF=Check HF/GFHFB2 SCF=Tight\\B3LYP6-31GxxGD3.EWUKAI
 \\0,1\O,0,0.4101556026,5.8128875882,1.6358821601\C,0,0.7785177001,5.08
 18248506,2.6847666208\C,0,1.3448117766,5.73072521,3.7802570895\C,0,1.7
 534507305,5.0226770109,4.9126862411\C,0,1.5936328822,3.6141926319,4.94
 92837072\C,0,1.0392506149,2.9614301029,3.8778352258\H,0,1.9070670177,3
 .0605432731,5.8274399538\N,0,2.2672638834,5.6792206417,6.0017642023\H,
 0,2.5889408345,6.6253292111,5.880097631\C,0,0.6255715141,3.6698423503,
 2.7394179799\N,0,0.0552985126,2.9444398551,1.6481644915\O,0,-0.0623909
 02,1.7293067699,1.7251013\O,0,-0.3107123758,3.5853028377,0.6340168004\
 H,0,0.9070955189,1.8876444034,3.879037569\H,0,0.0413278924,5.169453405
 7,0.9817333893\H,0,2.7794890606,5.1413749679,6.6810055454\H,0,1.455133
 7367,6.8080058897,3.7255090928\\Version=ES64L-G09RevE.01\State=1-A\MP2
 /GTBas1=-565.7013667\MP4/GTBas1=-565.8114298\CCSD(T)/G3Bas1=-565.79729
 28\MP2/GTBas2=-565.7411403\MP4/GTBas2=-565.8536146\MP2/GTBas3=-566.092
 4906\MP4/GTBas3=-566.2245615\HF/GTLargeXP=-564.270834\MP2/GTLargeXP=-5
 66.8438739\HF/GFHFB1=-564.316567\HF/GFHFB2=-564.3254868\G4=-567.099811
 1\FreqCoord=0.7750817609,10.984765583,3.0913692682,1.4711852429,9.6032
 57223,5.0734736441,2.5413259581,10.8295011898,7.1436506111,3.313541668
 2,9.4914840045,9.2836315726,3.0115297036,6.8298342658,9.3527907607,1.9
 638990455,5.5962918561,7.3280465653,3.6038343805,5.783588604,11.012265
 5685,4.2845078107,10.732171661,11.3416906565,4.8923891514,12.520057749
 2,11.1117741572,1.1821588381,6.9349969929,5.1767497454,0.1044990443,5.
 5641849409,3.114579511,-0.1179017181,3.2679161948,3.2599690084,-0.5871
 612963,6.7752404667,1.1981181164,1.7141621071,3.5671309587,7.330318664
 5,0.0780983983,9.7688511934,1.8552072412,5.2524731138,9.7157906358,12.
 6252707732,2.7498042491,12.8652666426,7.040191891\PG=C01 [X(C6H6N2O3)]
 \NImag=0\\0.13777931,0.05688314,0.43274131,0.19976153,0.01740683,0.492
 02316,-0.08052851,0.02444671,-0.07008558,0.26934860,0.03557270,-0.1924
 3404,0.12126055,0.04857836,0.64932368,-0.07339613,0.09596711,-0.247239
 42,0.21130629,-0.02721959,0.65894980,-0.00357774,-0.00221068,-0.028215
 73,-0.10390740,-0.04087331,-0.08197749,0.21139037,0.01230264,0.0223278
 6,0.02410733,-0.06443302,-0.18179988,-0.11131882,0.06282544,0.71901998
 ,-0.03220018,-0.00918130,-0.06131233,-0.07610192,-0.05919279,-0.218916
 27,0.21587524,-0.03140627,0.61039723,0.00535525,-0.00284885,0.00012484
 ,-0.01557960,-0.00003844,-0.01856030,-0.08823530,0.03750729,-0.0669921
 4,0.27287847,-0.00923824,-0.00478429,-0.01799340,0.01852268,0.05679083
 ,0.02386639,0.01276395,-0.18870972,0.06599477,0.05723486,0.66916803,0.
 00196260,-0.00369132,0.01100639,-0.02559213,-0.01962310,-0.05775216,-0
 .05946871,0.11875580,-0.23075441,0.20881755,-0.01729064,0.63728298,0.0
 0015905,0.00148457,0.00263945,-0.00685252,-0.01424817,-0.00704990,0.01
 537637,0.00783382,0.01067472,-0.07689233,-0.00412271,-0.02138523,0.219
 54891,0.00575756,0.00080021,0.01248453,-0.01394293,-0.03096268,-0.0233
 0421,0.01671537,-0.02257836,0.04736327,-0.02903675,-0.27145273,-0.0049
 9320,0.05607607,0.63725041,0.00140257,0.00256275,0.00129398,-0.0069616
 6,-0.02319225,-0.01115435,0.00810013,0.02679155,0.02032965,-0.01333929
 ,0.04944095,-0.11236854,0.24014300,-0.02218642,0.66263918,0.00240861,-
 0.00362980,-0.00620675,0.01135065,0.02039268,0.01401318,-0.01050057,-0
 .00070648,-0.01623012,0.00025478,-0.03386726,0.00657131,-0.10579414,-0
 .04799891,-0.11569660,0.23528395,-0.00097784,-0.00405093,0.00052999,0.
 00746158,-0.02663133,0.02544946,0.00134216,-0.00186839,0.00259168,-0.0
 1648027,-0.02659119,-0.03069763,-0.07024317,-0.17985655,-0.12303932,0.
 08099719,0.73288566,-0.00693392,-0.00544618,-0.00862607,0.01778947,0.0
 5439705,0.02733771,-0.01699458,-0.00196926,-0.04064339,0.00221551,-0.0
 6775936,0.02539253,-0.10833224,-0.07258384,-0.27664542,0.20829972,0.01
 544890,0.60194790,-0.00019338,0.00014565,0.00023026,-0.00071487,-0.000
 35248,0.00001720,0.00316491,-0.00119301,-0.00088544,0.00213632,-0.0026
 5886,0.00243465,-0.05540218,0.03810032,-0.07491281,-0.00389748,0.00774
 564,-0.00938389,0.05298691,0.00019838,0.00038354,0.00025746,-0.0005699
 9,-0.00127157,-0.00116253,-0.00171616,-0.00513874,-0.00138571,0.010122
 19,-0.01164194,0.02671305,0.03819189,-0.13135721,0.11803095,-0.0048448
 5,0.01102295,-0.01456518,-0.04029651,0.13634963,0.00014247,0.00017949,
 -0.00003504,0.00020868,-0.00055135,-0.00006978,-0.00090005,-0.00017022
 ,0.00174023,-0.00097205,-0.00281585,-0.00008020,-0.07542201,0.11801944
 ,-0.23393307,-0.00558711,0.01411886,-0.01761726,0.08326515,-0.12625455
 ,0.24859996,-0.00037159,-0.00040933,-0.00062876,0.00532926,0.00263123,
 -0.00060323,0.00048862,-0.00867612,-0.02121768,-0.09588453,-0.06030199
 ,-0.11891836,0.00383876,-0.00843733,-0.00998081,0.00312227,0.00006410,
 -0.00064534,-0.00130215,0.00127594,0.00140091,0.28550462,0.00134372,0.
 00162841,0.00245703,-0.00033291,-0.00432176,0.00412525,0.00530318,0.01
 862309,0.01127899,-0.04217384,-0.17252360,-0.07558326,-0.02378498,-0.0
 3548322,-0.04542338,0.00467171,-0.00351820,0.01158651,0.00000048,0.002
 21923,-0.00056332,0.09831727,0.78025138,-0.00138981,-0.00037357,-0.003
 10061,0.00471461,0.01393481,0.01165503,-0.02907301,-0.01673217,-0.0544
 1096,-0.08483308,-0.07171780,-0.23840873,-0.00650419,-0.01780931,-0.00
 109130,0.00040036,0.00592772,0.00392677,0.00211328,0.00071360,0.001129
 84,0.31084297,-0.11097278,0.55197570,0.00007056,0.00013706,0.00007895,
 -0.00036834,0.00054807,0.00051119,-0.00119266,-0.00002179,-0.00001952,
 -0.00448802,-0.00681481,0.01077781,0.00159267,-0.00138290,-0.00324088,
 0.00216954,-0.00030618,0.00071761,-0.00045722,-0.00008492,0.00035302,-
 0.06703805,-0.14761141,-0.01526607,0.06584805,0.00012058,-0.00010852,0
 .00041949,0.00018669,-0.00139007,-0.00160249,0.00277055,0.00221974,0.0
 0315604,-0.00654017,-0.01710070,-0.00057087,-0.00167208,0.00268740,-0.
 00185965,-0.00033764,-0.00101047,-0.00038719,0.00004173,0.00028708,0.0
 0007696,-0.11972395,-0.40239688,0.05572161,0.13399753,0.42722439,0.000
 10019,0.00005215,0.00026084,0.00026850,0.00017052,-0.00060155,0.001512
 79,-0.00183263,0.00135037,-0.00833210,-0.03355205,0.00408877,-0.003376
 37,0.00002556,-0.00409618,-0.00053425,-0.00153351,0.00059939,0.0002696
 5,-0.00021977,0.00002635,-0.01015370,0.06897062,-0.05791175,0.00745991
 ,-0.05387885,0.05799909,0.01391612,0.01158249,0.00244346,-0.07470815,-
 0.02542686,-0.02136441,0.00664623,-0.01213458,-0.00162174,-0.00246042,
 0.01233393,0.00172972,-0.00580532,-0.00802637,-0.02385146,-0.07722589,
 0.03457974,-0.05825713,0.00605501,-0.00200660,-0.00374527,-0.00143360,
 -0.00411737,-0.00563677,-0.00039100,0.00070978,0.00010353,0.19888609,0
 .00676885,-0.03053114,0.02722438,-0.01264685,-0.25427958,0.02591419,-0
 .02455468,-0.01688976,-0.04729599,0.00591317,-0.03147526,0.02330376,0.
 00851326,0.03580899,0.01003394,0.01847232,-0.17426686,0.07528265,-0.00
 265141,-0.00082477,-0.00341262,-0.00174809,-0.00115103,-0.01008563,-0.
 00032973,0.00107589,0.00009944,0.02860352,0.65635666,0.00385961,0.0383
 7728,0.00915442,-0.02521181,-0.00319668,-0.11854092,0.00187829,-0.0202
 4546,0.01896495,0.00208851,0.03566551,-0.00708773,-0.02905814,-0.02663
 766,-0.05105170,-0.05369081,0.11161024,-0.20951632,-0.00365052,-0.0019
 1634,0.00035989,-0.00129260,-0.00911791,-0.01011570,-0.00119422,0.0014
 2533,0.00051766,0.17666236,-0.08782379,0.54356381,-0.00926113,-0.00008
 193,-0.01746055,-0.00516045,-0.02137178,0.00929146,0.00554359,-0.00102
 751,-0.00080312,-0.00271437,-0.00694553,-0.00236357,0.00815541,0.00851
 938,0.00162473,-0.01582086,-0.00223854,-0.02318826,0.00174629,-0.00033
 668,-0.00075414,0.00057388,0.00373859,0.00569343,0.00042891,-0.0009155
 0,-0.00001714,-0.08756221,-0.01057653,-0.02441372,0.31279869,0.0023410
 9,0.00929050,0.00226095,-0.01901670,-0.02283561,-0.03872218,0.00041172
 ,-0.00757710,0.00463441,-0.00200385,-0.01117663,-0.00342967,0.00540242
 ,0.00511317,0.01197610,-0.00287820,0.02252812,-0.01423557,0.00052918,0
 .00094284,0.00147063,0.00099236,0.00455096,0.00698220,0.00069369,-0.00
 096536,-0.00026362,-0.01052612,-0.12675696,-0.00938460,0.03447620,0.87
 400133,-0.01812111,-0.00326893,-0.04185843,0.00855262,-0.04401056,0.02
 546065,-0.00094852,0.00156078,0.00299004,-0.00241303,-0.01303507,-0.00
 574718,0.00288147,0.01980482,0.00660701,-0.02312650,-0.01299817,-0.054
 04073,-0.00096239,-0.00041410,-0.00002729,0.00162093,0.00699772,0.0104
 3517,0.00105720,-0.00136914,-0.00028988,-0.02444453,-0.00956340,-0.128
 30963,0.15625203,-0.10153221,0.62381029,0.00048794,0.00037233,0.003932
 24,0.00355207,0.00297246,-0.00673205,-0.00159411,-0.00075922,0.0003343
 9,0.00028234,0.00046385,0.00096201,-0.00055442,-0.00142532,0.00019065,
 0.00035358,-0.00130319,-0.00075706,-0.00010444,0.00002762,-0.00004841,
 -0.00010462,-0.00076353,-0.00122946,-0.00010381,0.00019164,0.00003330,
 0.01310978,-0.02630277,-0.00820756,-0.09586417,-0.05490553,-0.01547095
 ,0.05476577,-0.00179934,-0.00568222,-0.00283921,-0.00013142,0.00852352
 ,-0.00099897,-0.00120463,-0.00016702,-0.00294110,0.00197825,0.00453587
 ,0.00444483,-0.00249960,-0.00431135,-0.00422704,0.00573678,-0.00386314
 ,0.01425225,-0.00010147,-0.00005827,-0.00021830,-0.00076233,-0.0027667
 1,-0.00550523,-0.00040083,0.00075291,0.00030381,-0.02345907,-0.0628924
 2,-0.02980453,-0.04836108,-0.53395056,0.01806235,0.06124874,0.66423146
 ,0.00453294,0.00208032,0.00843287,-0.00580335,0.00611090,-0.00882144,0
 .00037761,-0.00215040,-0.00011063,0.00029855,-0.00022408,0.00089708,0.
 00045151,-0.00218003,0.00114700,-0.00273548,-0.00163332,-0.00485272,-0
 .00002029,0.00005741,-0.00013480,-0.00029802,-0.00083197,-0.00112353,-
 0.00008224,0.00007932,-0.00000648,-0.00904465,-0.03632447,0.00974871,-
 0.01730920,0.00332203,-0.12253341,0.03458001,-0.04006349,0.12188591,0.
 00533930,-0.00798619,0.00094779,-0.00094071,0.00464015,-0.00083955,-0.
 00033037,0.00025276,-0.00011575,0.00105469,0.00268159,0.00067547,-0.00
 158092,-0.00162763,-0.00141965,0.00449445,-0.00403734,0.00013928,-0.00
 095872,-0.00008610,0.00004766,-0.00029998,-0.00134670,-0.00179879,-0.0
 0018817,0.00026501,0.00002521,0.00546081,0.00574352,-0.03241187,-0.116
 08291,0.04163440,-0.10156625,0.02626633,0.00999084,0.00070628,0.088945
 63,-0.02109648,-0.02782266,-0.03834650,0.00666517,-0.02073153,0.020798
 74,-0.00197627,0.00117114,-0.00491047,0.00015855,-0.00578074,0.0017985
 3,0.00134146,0.00615051,0.00094098,-0.00317504,-0.00080792,-0.00553811
 ,0.00001965,-0.00002916,-0.00026586,0.00003530,0.00175260,0.00088849,0
 .00024284,-0.00021789,0.00010079,0.00557401,0.02675702,0.01044436,0.02
 812611,-0.19475014,0.09752182,0.02509381,-0.07218789,0.08449532,-0.044
 80514,0.26574305,0.00468398,-0.00851423,0.01902717,-0.00143618,0.01614
 974,-0.00900870,0.00045149,0.00013627,0.00084611,0.00091481,0.00789268
 ,0.00154666,-0.00238894,-0.00567520,-0.00419879,-0.00003658,-0.0075370
 2,0.00685137,-0.00000887,-0.00047335,-0.00076823,-0.00055007,-0.003599
 34,-0.00429046,-0.00048241,0.00062498,0.00008405,-0.03240279,0.0108347
 0,-0.05770353,-0.09767352,0.12817229,-0.33516100,-0.00359504,0.0502574
 4,0.00234923,0.14093709,-0.16808493,0.40063631,0.00032637,0.00052975,-
 0.00046453,0.00235004,-0.00002261,-0.00291523,-0.00038868,0.00012703,-
 0.00015822,0.00660249,-0.00141944,-0.00506471,0.00216672,-0.01233638,0
 .00053768,-0.04521738,-0.03565097,-0.00547589,-0.00370732,0.00073781,0
 .00210629,-0.00017294,-0.00054652,0.00031578,-0.00040641,-0.00002381,-
 0.00002193,0.00588559,0.00884112,-0.00050126,-0.00297006,0.00180853,0.
 00212539,-0.00080340,-0.00140881,-0.00129508,0.00038310,-0.00070065,0.
 00029984,0.03610313,-0.00019102,-0.00058523,-0.00013855,0.00089402,0.0
 0071406,0.00283819,-0.00003288,0.00059170,-0.00034878,-0.00155400,0.00
 073715,-0.00123684,-0.00050744,-0.00784669,0.00200844,-0.03495878,-0.3
 4220997,0.00589204,0.00062732,0.00080340,-0.00015296,-0.00002814,-0.00
 043978,0.00015941,0.00003070,-0.00004144,-0.00013727,-0.00212062,-0.01
 285240,0.00018905,-0.00038326,-0.00385282,-0.00092185,-0.00153426,0.00
 155733,-0.00393649,0.00007358,0.00038451,0.00014927,0.03974048,0.36320
 446,-0.00024998,0.00148739,-0.00053135,-0.00318261,0.00080219,-0.00381
 924,-0.00011592,0.00011851,-0.00062876,-0.00506472,-0.00107088,-0.0023
 3212,-0.00267850,-0.02457747,0.00420290,-0.00568327,0.00418410,-0.0523
 6015,0.00217370,0.00008989,0.00016989,-0.00001118,-0.00117304,0.000313
 82,0.00004342,-0.00021147,-0.00037271,0.00252857,0.02510344,0.00371781
 ,0.00276874,0.00406415,0.00099865,-0.00125515,-0.00366711,-0.00187052,
 0.00007391,-0.00157910,0.00095453,0.01008818,-0.00420186,0.05075339,-0
 .06877190,-0.07942185,-0.08952277,-0.00893399,-0.00017174,-0.02239613,
 0.00368634,0.00074515,0.00110012,0.00146534,0.00156837,-0.00220535,-0.
 00048451,-0.00173235,-0.00035666,-0.00018021,-0.00106017,0.00124111,-0
 .00000843,-0.00005714,-0.00002307,-0.00026155,-0.00024463,0.00020078,0
 .00000242,-0.00002873,-0.00010610,-0.00296268,-0.00249873,-0.00094860,
 0.00486788,0.00140314,0.01391189,0.00083283,0.00175640,-0.00417658,-0.
 01135319,0.00431666,-0.00849477,0.00015856,-0.00007866,0.00039012,0.08
 269917,-0.08894900,-0.20236663,-0.14975597,0.00503348,0.03380291,0.002
 06214,0.00396131,-0.00405161,0.01096299,-0.00034506,0.00807906,-0.0019
 6758,-0.00163510,-0.00597606,-0.00193712,0.00192065,-0.00225547,0.0047
 9374,-0.00012986,-0.00022041,-0.00015938,0.00005135,-0.00212148,-0.000
 63360,-0.00026142,0.00014570,-0.00011444,-0.00359602,-0.00832057,-0.00
 647198,0.01654710,-0.01458371,0.04132970,-0.00314754,0.00701094,-0.008
 41079,-0.00522601,0.01987327,-0.01987494,0.00031823,-0.00006951,0.0007
 2327,0.07551122,0.17124331,-0.08677335,-0.12809683,-0.17995281,-0.0239
 5999,-0.00983063,-0.05070848,0.00029096,0.00378397,0.00249561,-0.00174
 789,0.00185948,-0.00222494,-0.00039626,-0.00227085,-0.00035557,0.00039
 879,-0.00193943,0.00084768,-0.00002476,-0.00005604,0.00001353,0.000125
 85,-0.00012842,0.00020418,-0.00007456,-0.00000082,-0.00006873,-0.00063
 485,-0.00394750,-0.00255286,0.00959936,0.00695425,0.01840302,-0.002790
 11,0.00267487,-0.00463225,-0.00577383,0.00180217,-0.02180939,0.0002844
 0,-0.00016122,0.00067478,0.11114818,0.12952323,0.23992536,-0.00042605,
 -0.00013391,-0.00015645,0.00303632,0.00130065,0.00002954,0.00115513,-0
 .00178408,-0.00287528,-0.00761855,0.01066951,0.00134387,-0.00067609,0.
 00031387,0.00082704,-0.00038718,0.00005690,0.00014473,0.00008706,-0.00
 102306,0.00008040,-0.13004123,0.10620470,-0.18034419,0.00450522,-0.008
 23577,0.01302881,-0.00041365,-0.00088954,-0.00032917,0.00028341,0.0003
 9251,0.00066544,-0.00002250,-0.00036703,-0.00008121,-0.00011393,0.0000
 1079,-0.00018440,0.00004879,-0.00000898,-0.00002942,-0.00012711,0.0000
 4951,0.00009280,0.13141735,-0.00009028,-0.00032000,-0.00017009,0.00012
 102,0.00165553,0.00007754,-0.00172207,-0.00208938,-0.00321268,-0.00871
 819,0.01426208,-0.01300028,-0.00084400,0.00117214,-0.00263426,0.000081
 33,-0.00014112,0.00078248,0.00031014,-0.00089908,0.00073119,0.09673595
 ,-0.18577454,0.15066187,0.02092811,-0.01135375,0.02054704,-0.00039232,
 -0.00053751,-0.00061433,0.00049076,0.00045509,0.00059569,-0.00007205,-
 0.00040258,-0.00000008,-0.00010427,0.00003719,-0.00015386,-0.00002024,
 -0.00003161,-0.00004100,-0.00002049,-0.00000544,-0.00005533,-0.1067592
 2,0.18376762,0.00002653,-0.00055564,-0.00017628,-0.00142489,0.00057817
 ,-0.00138665,-0.00218886,-0.00453938,0.00078241,-0.01529515,0.01530020
 ,-0.02577559,0.00300457,0.00267543,0.00197557,0.00030315,-0.00031685,-
 0.00137615,-0.00066811,-0.00076552,0.00044118,-0.15197959,0.14175875,-
 0.21064155,0.00008282,-0.00148854,-0.00124663,0.00082341,0.00085135,0.
 00151487,-0.00089180,-0.00101765,-0.00142989,0.00015188,0.00072905,0.0
 0015162,0.00033650,-0.00029589,0.00072590,-0.00006424,0.00002492,0.000
 09486,0.00004540,0.00032390,-0.00009301,0.16746328,-0.15326550,0.23634
 592,-0.00271220,0.00114084,0.00258260,0.00272761,-0.01413091,0.0006655
 5,-0.03772472,-0.03085832,-0.00876335,0.00384344,0.00913008,-0.0002769
 3,0.00320454,0.00046431,-0.00306598,-0.00041411,0.00005037,-0.00057912
 ,0.00056969,0.00046818,-0.00015248,-0.00194716,0.00134223,0.00179416,0
 .00001631,-0.00080585,-0.00026031,0.00300329,-0.00065742,-0.00357849,0
 .00103809,-0.00075486,-0.00001368,-0.00049916,-0.00021538,-0.00010080,
 -0.00009539,0.00016921,-0.00003363,-0.00035861,0.00003193,0.00020410,-
 0.00062897,-0.00010282,0.00023527,-0.00070699,0.00007584,0.00027508,0.
 03068434,0.00105355,0.00151385,0.00083518,-0.00083589,-0.01415246,0.00
 322976,-0.03180299,-0.33308354,0.01389294,-0.00317489,-0.01233620,-0.0
 0293157,0.00071377,0.00084202,0.00271376,0.00012429,0.00063480,0.00004
 907,-0.00013651,-0.00056751,-0.00003217,-0.00001623,0.00147153,-0.0011
 5960,0.00063598,0.00019198,0.00126223,-0.00157751,0.00077971,-0.002498
 49,0.00034019,-0.00043311,0.00124055,-0.00015705,-0.00032986,-0.000390
 17,-0.00006249,0.00045865,-0.00030450,0.00002649,-0.00006316,-0.000051
 00,0.00001355,-0.00018428,-0.00011091,0.00020317,0.00020540,0.00000320
 ,0.03465256,0.35505220,0.00259205,0.00101468,0.00163350,-0.00308006,-0
 .02658698,0.00461578,-0.00860364,0.01511040,-0.05311985,0.00308996,0.0
 2543916,0.00231719,-0.00320294,0.00184513,-0.00330037,-0.00045905,-0.0
 0016571,-0.00122513,0.00001320,0.00135074,0.00018481,0.00228869,0.0002
 1857,0.00145409,-0.00072204,-0.00013471,-0.00033259,-0.00328747,-0.000
 19445,-0.00266373,-0.00035473,-0.00125150,0.00069260,-0.00009869,-0.00
 045962,-0.00052664,0.00003649,0.00022964,-0.00008124,0.00020354,-0.000
 02550,0.00003422,0.00019243,-0.00039317,-0.00016610,0.00032422,-0.0002
 4840,0.00009345,0.01106802,-0.01574828,0.05039000\\0.00006077,-0.00001
 862,0.00014776,-0.00008263,0.00022796,-0.00025196,-0.00000102,-0.00002
 718,-0.00000559,0.00001152,0.00014736,0.00017735,-0.00001786,-0.000082
 07,-0.00002438,0.00005392,0.00003081,0.00010067,0.00001127,-0.00000136
 ,0.00002394,0.00013463,-0.00006904,-0.00016833,-0.00005436,0.00001085,
 0.00003553,-0.00007893,-0.00012971,-0.00014271,-0.00003726,-0.00015868
 ,-0.00004653,0.00001703,0.00020230,-0.00001228,-0.00002735,-0.00011301
 ,-0.00001670,-0.00000920,-0.00001595,-0.00001124,0.00007430,-0.0000419
 0,0.00016897,-0.00005908,0.00001261,0.00002921,0.00000424,0.00002563,-
 0.00000372\\\@
 Job cpu time:       0 days 16 hours 45 minutes  2.8 seconds.
 File lengths (MBytes):  RWF=  57931 Int=      0 D2E=      0 Chk=     84 Scr=      1
 Normal termination of Gaussian 09 at Sat Oct  2 13:09:13 2021.
