 Entering Gaussian System, Link 0=g09
 Input=G4.FOHMUK.gjf
 Output=G4.FOHMUK.log
 Initial command:
 /public/home/users/caep010/software/Gaussian09/g09/l1.exe "/public/home/users/caep010/.cache/gau_scr/Gau-135482.inp" -scrdir="/public/home/users/caep010/.cache/gau_scr/"
 Entering Link 1 = /public/home/users/caep010/software/Gaussian09/g09/l1.exe PID=    135483.
  
 Copyright (c) 1988,1990,1992,1993,1995,1998,2003,2009,2015,
            Gaussian, Inc.  All Rights Reserved.
  
 This is part of the Gaussian(R) 09 program.  It is based on
 the Gaussian(R) 03 system (copyright 2003, Gaussian, Inc.),
 the Gaussian(R) 98 system (copyright 1998, Gaussian, Inc.),
 the Gaussian(R) 94 system (copyright 1995, Gaussian, Inc.),
 the Gaussian 92(TM) system (copyright 1992, Gaussian, Inc.),
 the Gaussian 90(TM) system (copyright 1990, Gaussian, Inc.),
 the Gaussian 88(TM) system (copyright 1988, Gaussian, Inc.),
 the Gaussian 86(TM) system (copyright 1986, Carnegie Mellon
 University), and the Gaussian 82(TM) system (copyright 1983,
 Carnegie Mellon University). Gaussian is a federally registered
 trademark of Gaussian, Inc.
  
 This software contains proprietary and confidential information,
 including trade secrets, belonging to Gaussian, Inc.
  
 This software is provided under written license and may be
 used, copied, transmitted, or stored only in accord with that
 written license.
  
 The following legend is applicable only to US Government
 contracts under FAR:
  
                    RESTRICTED RIGHTS LEGEND
  
 Use, reproduction and disclosure by the US Government is
 subject to restrictions as set forth in subparagraphs (a)
 and (c) of the Commercial Computer Software - Restricted
 Rights clause in FAR 52.227-19.
  
 Gaussian, Inc.
 340 Quinnipiac St., Bldg. 40, Wallingford CT 06492
  
  
 ---------------------------------------------------------------
 Warning -- This program may not be used in any manner that
 competes with the business of Gaussian, Inc. or will provide
 assistance to any competitor of Gaussian, Inc.  The licensee
 of this program is prohibited from giving any competitor of
 Gaussian, Inc. access to this program.  By using this program,
 the user acknowledges that Gaussian, Inc. is engaged in the
 business of creating and licensing software in the field of
 computational chemistry and represents and warrants to the
 licensee that it is not a competitor of Gaussian, Inc. and that
 it will not use this program in any manner prohibited above.
 ---------------------------------------------------------------
  

 Cite this work as:
 Gaussian 09, Revision E.01,
 M. J. Frisch, G. W. Trucks, H. B. Schlegel, G. E. Scuseria, 
 M. A. Robb, J. R. Cheeseman, G. Scalmani, V. Barone, B. Mennucci, 
 G. A. Petersson, H. Nakatsuji, M. Caricato, X. Li, H. P. Hratchian, 
 A. F. Izmaylov, J. Bloino, G. Zheng, J. L. Sonnenberg, M. Hada, 
 M. Ehara, K. Toyota, R. Fukuda, J. Hasegawa, M. Ishida, T. Nakajima, 
 Y. Honda, O. Kitao, H. Nakai, T. Vreven, J. A. Montgomery, Jr., 
 J. E. Peralta, F. Ogliaro, M. Bearpark, J. J. Heyd, E. Brothers, 
 K. N. Kudin, V. N. Staroverov, T. Keith, R. Kobayashi, J. Normand, 
 K. Raghavachari, A. Rendell, J. C. Burant, S. S. Iyengar, J. Tomasi, 
 M. Cossi, N. Rega, J. M. Millam, M. Klene, J. E. Knox, J. B. Cross, 
 V. Bakken, C. Adamo, J. Jaramillo, R. Gomperts, R. E. Stratmann, 
 O. Yazyev, A. J. Austin, R. Cammi, C. Pomelli, J. W. Ochterski, 
 R. L. Martin, K. Morokuma, V. G. Zakrzewski, G. A. Voth, 
 P. Salvador, J. J. Dannenberg, S. Dapprich, A. D. Daniels, 
 O. Farkas, J. B. Foresman, J. V. Ortiz, J. Cioslowski, 
 and D. J. Fox, Gaussian, Inc., Wallingford CT, 2013.
 
 ******************************************
 Gaussian 09:  ES64L-G09RevE.01 30-Nov-2015
                26-Aug-2021 
 ******************************************
 %nproc=32
 Will use up to   32 processors via shared memory.
 %mem=180GB
 ----------------
 #P G4 OPT=calcfc
 ----------------
 1/10=4,14=-1,18=20,19=15,26=3,38=1/1,3;
 2/9=110,12=2,17=6,18=5,40=1/2;
 3/5=35,7=104,11=2,16=1,25=1,30=1,71=2,74=-5,140=1/1,2,3;
 4//1;
 5/5=2,38=5/2;
 8/6=4,10=90,11=11/1;
 11/6=1,8=1,9=11,15=111,16=1/1,2,10;
 10/6=1,13=1/2;
 6/7=2,8=2,9=2,10=2,28=1/1;
 7/10=1,18=20,25=1/1,2,3,16;
 1/10=4,14=-1,18=20,19=15,26=3/3(2);
 2/9=110/2;
 99//99;
 2/9=110/2;
 3/5=35,7=104,11=2,16=1,25=1,30=1,71=1,74=-5/1,2,3;
 4/5=5,16=3,69=1/1;
 5/5=2,38=5/2;
 7//1,2,3,16;
 1/14=-1,18=20,19=15,26=3/3(-5);
 2/9=110/2;
 6/7=2,8=2,9=2,10=2,19=2,28=1/1;
 99/9=1/99;
 Leave Link    1 at Thu Aug 26 19:47:15 2021, MaxMem= 24159191040 cpu:         2.9
 (Enter /public/home/users/caep010/software/Gaussian09/g09/l101.exe)
 ------
 FOHMUK
 ------
 Symbolic Z-matrix:
 Charge =  0 Multiplicity = 1
 C                     2.8324    3.055     3.4379 
 C                     2.4768    1.7346    2.89 
 H                     2.6827    1.5719    2.0016 
 H                     1.8027    1.4425    3.1422 
 C                     3.6302    1.8308    3.8064 
 H                     4.5283    1.6829    3.3767 
 N                     3.5332    3.9963    2.5455 
 O                     3.2835    5.1799    2.7339 
 O                     4.2919    3.5618    1.7019 
 H                     2.2403    3.4582    4.0906 
 N                     3.4433    1.3592    5.1665 
 O                     2.3455    1.4776    5.6931 
 O                     4.4127    0.8266    5.6963 
 
 NAtoms=     13 NQM=       13 NQMF=       0 NMMI=      0 NMMIF=      0
                NMic=       0 NMicF=      0.
                    Isotopes and Nuclear Properties:
 (Nuclear quadrupole moments (NQMom) in fm**2, nuclear magnetic moments (NMagM)
  in nuclear magnetons)

  Atom         1           2           3           4           5           6           7           8           9          10
 IAtWgt=          12          12           1           1          12           1          14          16          16           1
 AtmWgt=  12.0000000  12.0000000   1.0078250   1.0078250  12.0000000   1.0078250  14.0030740  15.9949146  15.9949146   1.0078250
 NucSpn=           0           0           1           1           0           1           2           0           0           1
 AtZEff=   0.0000000   0.0000000   0.0000000   0.0000000   0.0000000   0.0000000   0.0000000   0.0000000   0.0000000   0.0000000
 NQMom=    0.0000000   0.0000000   0.0000000   0.0000000   0.0000000   0.0000000   2.0440000   0.0000000   0.0000000   0.0000000
 NMagM=    0.0000000   0.0000000   2.7928460   2.7928460   0.0000000   2.7928460   0.4037610   0.0000000   0.0000000   2.7928460
 AtZNuc=   6.0000000   6.0000000   1.0000000   1.0000000   6.0000000   1.0000000   7.0000000   8.0000000   8.0000000   1.0000000

  Atom        11          12          13
 IAtWgt=          14          16          16
 AtmWgt=  14.0030740  15.9949146  15.9949146
 NucSpn=           2           0           0
 AtZEff=   0.0000000   0.0000000   0.0000000
 NQMom=    2.0440000   0.0000000   0.0000000
 NMagM=    0.4037610   0.0000000   0.0000000
 AtZNuc=   7.0000000   8.0000000   8.0000000
 Leave Link  101 at Thu Aug 26 19:47:15 2021, MaxMem= 24159191040 cpu:        10.0
 (Enter /public/home/users/caep010/software/Gaussian09/g09/l103.exe)

 GradGradGradGradGradGradGradGradGradGradGradGradGradGradGradGradGradGrad
 Berny optimization.
 Initialization pass.
                           ----------------------------
                           !    Initial Parameters    !
                           ! (Angstroms and Degrees)  !
 --------------------------                            --------------------------
 ! Name  Definition              Value          Derivative Info.                !
 --------------------------------------------------------------------------------
 ! R1    R(1,2)                  1.4731         calculate D2E/DX2 analytically  !
 ! R2    R(1,5)                  1.507          calculate D2E/DX2 analytically  !
 ! R3    R(1,7)                  1.4743         calculate D2E/DX2 analytically  !
 ! R4    R(1,10)                 0.9691         calculate D2E/DX2 analytically  !
 ! R5    R(2,3)                  0.9263         calculate D2E/DX2 analytically  !
 ! R6    R(2,4)                  0.7767         calculate D2E/DX2 analytically  !
 ! R7    R(2,5)                  1.4763         calculate D2E/DX2 analytically  !
 ! R8    R(5,6)                  1.0065         calculate D2E/DX2 analytically  !
 ! R9    R(5,11)                 1.4516         calculate D2E/DX2 analytically  !
 ! R10   R(7,8)                  1.2242         calculate D2E/DX2 analytically  !
 ! R11   R(7,9)                  1.2149         calculate D2E/DX2 analytically  !
 ! R12   R(11,12)                1.2233         calculate D2E/DX2 analytically  !
 ! R13   R(11,13)                1.2264         calculate D2E/DX2 analytically  !
 ! A1    A(2,1,7)              117.5094         calculate D2E/DX2 analytically  !
 ! A2    A(2,1,10)             118.42           calculate D2E/DX2 analytically  !
 ! A3    A(5,1,7)              114.5216         calculate D2E/DX2 analytically  !
 ! A4    A(5,1,10)             119.785          calculate D2E/DX2 analytically  !
 ! A5    A(7,1,10)             115.6239         calculate D2E/DX2 analytically  !
 ! A6    A(1,2,3)              117.4172         calculate D2E/DX2 analytically  !
 ! A7    A(1,2,4)              115.2012         calculate D2E/DX2 analytically  !
 ! A8    A(3,2,4)              115.9913         calculate D2E/DX2 analytically  !
 ! A9    A(3,2,5)              115.6651         calculate D2E/DX2 analytically  !
 ! A10   A(4,2,5)              120.0661         calculate D2E/DX2 analytically  !
 ! A11   A(1,5,6)              119.1668         calculate D2E/DX2 analytically  !
 ! A12   A(1,5,11)             115.1424         calculate D2E/DX2 analytically  !
 ! A13   A(2,5,6)              114.9954         calculate D2E/DX2 analytically  !
 ! A14   A(2,5,11)             117.3775         calculate D2E/DX2 analytically  !
 ! A15   A(6,5,11)             117.8489         calculate D2E/DX2 analytically  !
 ! A16   A(1,7,8)              115.2885         calculate D2E/DX2 analytically  !
 ! A17   A(1,7,9)              119.2618         calculate D2E/DX2 analytically  !
 ! A18   A(8,7,9)              125.4496         calculate D2E/DX2 analytically  !
 ! A19   A(5,11,12)            119.1717         calculate D2E/DX2 analytically  !
 ! A20   A(5,11,13)            116.3639         calculate D2E/DX2 analytically  !
 ! A21   A(12,11,13)           124.4307         calculate D2E/DX2 analytically  !
 ! D1    D(7,1,2,3)             -2.2356         calculate D2E/DX2 analytically  !
 ! D2    D(7,1,2,4)           -144.3958         calculate D2E/DX2 analytically  !
 ! D3    D(10,1,2,3)           144.5081         calculate D2E/DX2 analytically  !
 ! D4    D(10,1,2,4)             2.3478         calculate D2E/DX2 analytically  !
 ! D5    D(7,1,5,6)             -5.3357         calculate D2E/DX2 analytically  !
 ! D6    D(7,1,5,11)           143.194          calculate D2E/DX2 analytically  !
 ! D7    D(10,1,5,6)          -149.3133         calculate D2E/DX2 analytically  !
 ! D8    D(10,1,5,11)           -0.7836         calculate D2E/DX2 analytically  !
 ! D9    D(2,1,7,8)            147.6221         calculate D2E/DX2 analytically  !
 ! D10   D(2,1,7,9)            -32.3265         calculate D2E/DX2 analytically  !
 ! D11   D(5,1,7,8)           -145.563          calculate D2E/DX2 analytically  !
 ! D12   D(5,1,7,9)             34.4884         calculate D2E/DX2 analytically  !
 ! D13   D(10,1,7,8)            -0.0406         calculate D2E/DX2 analytically  !
 ! D14   D(10,1,7,9)          -179.9892         calculate D2E/DX2 analytically  !
 ! D15   D(3,2,5,6)             -1.6898         calculate D2E/DX2 analytically  !
 ! D16   D(3,2,5,11)          -146.9604         calculate D2E/DX2 analytically  !
 ! D17   D(4,2,5,6)            145.4461         calculate D2E/DX2 analytically  !
 ! D18   D(4,2,5,11)             0.1755         calculate D2E/DX2 analytically  !
 ! D19   D(1,5,11,12)           33.968          calculate D2E/DX2 analytically  !
 ! D20   D(1,5,11,13)         -148.0484         calculate D2E/DX2 analytically  !
 ! D21   D(2,5,11,12)          -32.7988         calculate D2E/DX2 analytically  !
 ! D22   D(2,5,11,13)          145.1848         calculate D2E/DX2 analytically  !
 ! D23   D(6,5,11,12)         -177.0679         calculate D2E/DX2 analytically  !
 ! D24   D(6,5,11,13)            0.9157         calculate D2E/DX2 analytically  !
 --------------------------------------------------------------------------------
 Trust Radius=3.00D-01 FncErr=1.00D-07 GrdErr=1.00D-06
 Number of steps in this run=     68 maximum allowed number of steps=    100.
 GradGradGradGradGradGradGradGradGradGradGradGradGradGradGradGradGradGrad

 Leave Link  103 at Thu Aug 26 19:47:16 2021, MaxMem= 24159191040 cpu:         0.6
 (Enter /public/home/users/caep010/software/Gaussian09/g09/l202.exe)
                          Input orientation:                          
 ---------------------------------------------------------------------
 Center     Atomic      Atomic             Coordinates (Angstroms)
 Number     Number       Type             X           Y           Z
 ---------------------------------------------------------------------
      1          6           0        2.832400    3.055000    3.437900
      2          6           0        2.476800    1.734600    2.890000
      3          1           0        2.682700    1.571900    2.001600
      4          1           0        1.802700    1.442500    3.142200
      5          6           0        3.630200    1.830800    3.806400
      6          1           0        4.528300    1.682900    3.376700
      7          7           0        3.533200    3.996300    2.545500
      8          8           0        3.283500    5.179900    2.733900
      9          8           0        4.291900    3.561800    1.701900
     10          1           0        2.240300    3.458200    4.090600
     11          7           0        3.443300    1.359200    5.166500
     12          8           0        2.345500    1.477600    5.693100
     13          8           0        4.412700    0.826600    5.696300
 ---------------------------------------------------------------------
                    Distance matrix (angstroms):
                    1          2          3          4          5
     1  C    0.000000
     2  C    1.473127   0.000000
     3  H    2.070013   0.926348   0.000000
     4  H    1.935943   0.776748   1.446414   0.000000
     5  C    1.506965   1.476271   2.054772   1.982850   0.000000
     6  H    2.182311   2.109076   2.304227   2.746212   1.006529
     7  N    1.474294   2.519910   2.626194   3.142065   2.507722
     8  O    2.283486   3.541924   3.730266   4.040747   3.533685
     9  O    2.323937   2.836341   2.576635   3.572396   2.804127
    10  H    0.969108   2.113805   2.849169   2.270243   2.158940
    11  N    2.497398   2.501499   3.261954   2.606971   1.451623
    12  O    2.794851   2.817917   3.708068   2.608247   2.309728
    13  O    3.544501   3.528100   4.147189   3.703358   2.278694
                    6          7          8          9         10
     6  H    0.000000
     7  N    2.651969   0.000000
     8  O    3.767191   1.224236   0.000000
     9  O    2.528064   1.214939   2.167981   0.000000
    10  H    2.982664   2.085300   2.427582   3.150505   0.000000
    11  N    2.117874   3.719142   4.532199   4.192257   2.647748
    12  O    3.189431   4.202602   4.831535   4.905307   2.549872
    13  O    2.475310   4.555004   5.385362   4.842638   3.771328
                   11         12         13
    11  N    0.000000
    12  O    1.223311   0.000000
    13  O    1.226412   2.167286   0.000000
 Stoichiometry    C3H4N2O4
 Framework group  C1[X(C3H4N2O4)]
 Deg. of freedom    33
 Full point group                 C1      NOp   1
 Largest Abelian subgroup         C1      NOp   1
 Largest concise Abelian subgroup C1      NOp   1
                         Standard orientation:                         
 ---------------------------------------------------------------------
 Center     Atomic      Atomic             Coordinates (Angstroms)
 Number     Number       Type             X           Y           Z
 ---------------------------------------------------------------------
      1          6           0       -0.542357    0.518859    0.228546
      2          6           0        0.010431   -0.048285    1.470671
      3          1           0       -0.514143   -0.656395    1.932347
      4          1           0        0.421005    0.446750    1.906226
      5          6           0        0.548935   -0.519216    0.179311
      6          1           0        0.312896   -1.468145   -0.059268
      7          7           0       -1.864979    0.037513   -0.210229
      8          8           0       -2.553463    0.862406   -0.796995
      9          8           0       -2.188116   -1.109456    0.026671
     10          1           0       -0.339258    1.441467    0.012410
     11          7           0        1.853641   -0.024000   -0.220331
     12          8           0        2.186978    1.107435    0.104064
     13          8           0        2.566702   -0.806186   -0.839861
 ---------------------------------------------------------------------
 Rotational constants (GHZ):      3.8805728      0.9633953      0.9351988
 Leave Link  202 at Thu Aug 26 19:47:16 2021, MaxMem= 24159191040 cpu:         0.4
 (Enter /public/home/users/caep010/software/Gaussian09/g09/l301.exe)
 Standard basis: GTBas3 (6D, 7F)
 Ernie: Thresh=  0.10000D-02 Tol=  0.10000D-05 Strict=F.
 There are   299 symmetry adapted cartesian basis functions of A   symmetry.
 There are   272 symmetry adapted basis functions of A   symmetry.
   272 basis functions,   424 primitive gaussians,   299 cartesian basis functions
    34 alpha electrons       34 beta electrons
       nuclear repulsion energy       463.6316844231 Hartrees.
 IExCor=  402 DFT=T Ex+Corr=B3LYP ExCW=0 ScaHFX=  0.200000
 ScaDFX=  0.800000  0.720000  1.000000  0.810000 ScalE2=  1.000000  1.000000
 IRadAn=      0 IRanWt=     -1 IRanGd=            0 ICorTp=0 IEmpDi=  4
 NAtoms=   13 NActive=   13 NUniq=   13 SFac= 1.00D+00 NAtFMM=   60 NAOKFM=F Big=F
 Integral buffers will be    131072 words long.
 Raffenetti 2 integral format.
 Two-electron integral symmetry is turned on.
 Leave Link  301 at Thu Aug 26 19:47:16 2021, MaxMem= 24159191040 cpu:         2.5
 (Enter /public/home/users/caep010/software/Gaussian09/g09/l302.exe)
 NPDir=0 NMtPBC=     1 NCelOv=     1 NCel=       1 NClECP=     1 NCelD=      1
         NCelK=      1 NCelE2=     1 NClLst=     1 CellRange=     0.0.
 One-electron integrals computed using PRISM.
 NBasis=   272 RedAO= T EigKep=  3.06D-04  NBF=   272
 NBsUse=   272 1.00D-06 EigRej= -1.00D+00 NBFU=   272
 Precomputing XC quadrature grid using
 IXCGrd= 4 IRadAn=           0 IRanWt=          -1 IRanGd=           0 AccXCQ= 0.00D+00.
 Generated NRdTot=       0 NPtTot=           0 NUsed=           0 NTot=          32
 NSgBfM=   299   299   299   299   299 MxSgAt=    13 MxSgA2=    13.
 Leave Link  302 at Thu Aug 26 19:47:16 2021, MaxMem= 24159191040 cpu:        15.4
 (Enter /public/home/users/caep010/software/Gaussian09/g09/l303.exe)
 DipDrv:  MaxL=1.
 Leave Link  303 at Thu Aug 26 19:47:16 2021, MaxMem= 24159191040 cpu:         1.1
 (Enter /public/home/users/caep010/software/Gaussian09/g09/l401.exe)
 ExpMin= 1.61D-01 ExpMax= 5.48D+03 ExpMxC= 8.25D+02 IAcc=1 IRadAn=         1 AccDes= 0.00D+00
 Harris functional with IExCor=  402 and IRadAn=       1 diagonalized for initial guess.
 HarFok:  IExCor=  402 AccDes= 0.00D+00 IRadAn=         1 IDoV= 1 UseB2=F ITyADJ=14
 ICtDFT=  3500011 ScaDFX=  1.000000  1.000000  1.000000  1.000000
 FoFCou: FMM=F IPFlag=           0 FMFlag=      100000 FMFlg1=           0
         NFxFlg=           0 DoJE=T BraDBF=F KetDBF=T FulRan=T
         wScrn=  0.000000 ICntrl=     500 IOpCl=  0 I1Cent=   200000004 NGrid=           0
         NMat0=    1 NMatS0=      1 NMatT0=    0 NMatD0=    1 NMtDS0=    0 NMtDT0=    0
 Petite list used in FoFCou.
 Harris En= -526.883745252443    
 JPrj=0 DoOrth=F DoCkMO=F.
 Leave Link  401 at Thu Aug 26 19:47:17 2021, MaxMem= 24159191040 cpu:        14.8
 (Enter /public/home/users/caep010/software/Gaussian09/g09/l502.exe)
 Closed shell SCF:
 Using DIIS extrapolation, IDIIS=  1040.
 Integral symmetry usage will be decided dynamically.
 Keep R1 ints in memory in canonical form, NReq=703061085.
 IVT=      298479 IEndB=      298479 NGot= 24159191040 MDV= 23469629806
 LenX= 23469629806 LenY= 23469539964
 Requested convergence on RMS density matrix=1.00D-08 within 128 cycles.
 Requested convergence on MAX density matrix=1.00D-06.
 Requested convergence on             energy=1.00D-06.
 No special actions if energy rises.
 FoFCou: FMM=F IPFlag=           0 FMFlag=           0 FMFlg1=           0
         NFxFlg=           0 DoJE=F BraDBF=F KetDBF=F FulRan=T
         wScrn=  0.000000 ICntrl=     600 IOpCl=  0 I1Cent=           0 NGrid=           0
         NMat0=    1 NMatS0=  37128 NMatT0=    0 NMatD0=    1 NMtDS0=    0 NMtDT0=    0
 Symmetry not used in FoFCou.
 Integral accuracy reduced to 1.0D-05 until final iterations.

 Cycle   1  Pass 0  IDiag  1:
 E= -526.374429356212    
 DIIS: error= 2.49D-02 at cycle   1 NSaved=   1.
 NSaved= 1 IEnMin= 1 EnMin= -526.374429356212     IErMin= 1 ErrMin= 2.49D-02
 ErrMax= 2.49D-02  0.00D+00 EMaxC= 1.00D-01 BMatC= 5.46D-01 BMatP= 5.46D-01
 IDIUse=3 WtCom= 7.51D-01 WtEn= 2.49D-01
 Coeff-Com:  0.100D+01
 Coeff-En:   0.100D+01
 Coeff:      0.100D+01
 Gap=     0.100 Goal=   None    Shift=    0.000
 GapD=    0.100 DampG=0.500 DampE=0.500 DampFc=0.2500 IDamp=-1.
 Damping current iteration by 2.50D-01
 RMSDP=4.67D-03 MaxDP=2.31D-01              OVMax= 3.37D-01

 Cycle   2  Pass 0  IDiag  1:
 E= -526.524182614640     Delta-E=       -0.149753258428 Rises=F Damp=T
 DIIS: error= 1.07D-02 at cycle   2 NSaved=   2.
 NSaved= 2 IEnMin= 2 EnMin= -526.524182614640     IErMin= 2 ErrMin= 1.07D-02
 ErrMax= 1.07D-02  0.00D+00 EMaxC= 1.00D-01 BMatC= 7.78D-02 BMatP= 5.46D-01
 IDIUse=3 WtCom= 8.93D-01 WtEn= 1.07D-01
 Coeff-Com: -0.450D+00 0.145D+01
 Coeff-En:   0.000D+00 0.100D+01
 Coeff:     -0.402D+00 0.140D+01
 Gap=     0.194 Goal=   None    Shift=    0.000
 RMSDP=1.43D-03 MaxDP=7.12D-02 DE=-1.50D-01 OVMax= 2.25D-01

 Cycle   3  Pass 0  IDiag  1:
 E= -526.762086409134     Delta-E=       -0.237903794495 Rises=F Damp=F
 DIIS: error= 7.45D-03 at cycle   3 NSaved=   3.
 NSaved= 3 IEnMin= 3 EnMin= -526.762086409134     IErMin= 3 ErrMin= 7.45D-03
 ErrMax= 7.45D-03  0.00D+00 EMaxC= 1.00D-01 BMatC= 1.42D-02 BMatP= 7.78D-02
 IDIUse=3 WtCom= 9.26D-01 WtEn= 7.45D-02
 Coeff-Com: -0.184D+00 0.580D+00 0.604D+00
 Coeff-En:   0.000D+00 0.000D+00 0.100D+01
 Coeff:     -0.170D+00 0.536D+00 0.634D+00
 Gap=     0.212 Goal=   None    Shift=    0.000
 RMSDP=6.81D-04 MaxDP=2.71D-02 DE=-2.38D-01 OVMax= 4.79D-02

 Cycle   4  Pass 0  IDiag  1:
 E= -526.771109592740     Delta-E=       -0.009023183605 Rises=F Damp=F
 DIIS: error= 3.67D-03 at cycle   4 NSaved=   4.
 NSaved= 4 IEnMin= 4 EnMin= -526.771109592740     IErMin= 4 ErrMin= 3.67D-03
 ErrMax= 3.67D-03  0.00D+00 EMaxC= 1.00D-01 BMatC= 5.42D-03 BMatP= 1.42D-02
 IDIUse=3 WtCom= 9.63D-01 WtEn= 3.67D-02
 Coeff-Com: -0.360D-01 0.137D+00 0.379D+00 0.519D+00
 Coeff-En:   0.000D+00 0.000D+00 0.259D+00 0.741D+00
 Coeff:     -0.347D-01 0.132D+00 0.375D+00 0.528D+00
 Gap=     0.215 Goal=   None    Shift=    0.000
 RMSDP=3.42D-04 MaxDP=1.91D-02 DE=-9.02D-03 OVMax= 3.75D-02

 Cycle   5  Pass 0  IDiag  1:
 E= -526.774161942988     Delta-E=       -0.003052350248 Rises=F Damp=F
 DIIS: error= 1.51D-03 at cycle   5 NSaved=   5.
 NSaved= 5 IEnMin= 5 EnMin= -526.774161942988     IErMin= 5 ErrMin= 1.51D-03
 ErrMax= 1.51D-03  0.00D+00 EMaxC= 1.00D-01 BMatC= 2.07D-03 BMatP= 5.42D-03
 IDIUse=3 WtCom= 9.85D-01 WtEn= 1.51D-02
 Coeff-Com: -0.283D-02 0.307D-01 0.215D+00 0.404D+00 0.353D+00
 Coeff-En:   0.000D+00 0.000D+00 0.000D+00 0.264D+00 0.736D+00
 Coeff:     -0.279D-02 0.302D-01 0.211D+00 0.402D+00 0.359D+00
 Gap=     0.211 Goal=   None    Shift=    0.000
 RMSDP=1.64D-04 MaxDP=1.02D-02 DE=-3.05D-03 OVMax= 2.09D-02

 Cycle   6  Pass 0  IDiag  1:
 E= -526.775667612723     Delta-E=       -0.001505669735 Rises=F Damp=F
 DIIS: error= 4.19D-04 at cycle   6 NSaved=   6.
 NSaved= 6 IEnMin= 6 EnMin= -526.775667612723     IErMin= 6 ErrMin= 4.19D-04
 ErrMax= 4.19D-04  0.00D+00 EMaxC= 1.00D-01 BMatC= 1.51D-04 BMatP= 2.07D-03
 IDIUse=3 WtCom= 9.96D-01 WtEn= 4.19D-03
 Coeff-Com:  0.417D-02-0.366D-02 0.684D-01 0.159D+00 0.239D+00 0.533D+00
 Coeff-En:   0.000D+00 0.000D+00 0.000D+00 0.000D+00 0.810D-01 0.919D+00
 Coeff:      0.415D-02-0.365D-02 0.681D-01 0.158D+00 0.238D+00 0.535D+00
 Gap=     0.210 Goal=   None    Shift=    0.000
 RMSDP=4.41D-05 MaxDP=2.56D-03 DE=-1.51D-03 OVMax= 3.63D-03

 Cycle   7  Pass 0  IDiag  1:
 E= -526.775782769626     Delta-E=       -0.000115156903 Rises=F Damp=F
 DIIS: error= 5.63D-05 at cycle   7 NSaved=   7.
 NSaved= 7 IEnMin= 7 EnMin= -526.775782769626     IErMin= 7 ErrMin= 5.63D-05
 ErrMax= 5.63D-05  0.00D+00 EMaxC= 1.00D-01 BMatC= 3.16D-06 BMatP= 1.51D-04
 IDIUse=1 WtCom= 1.00D+00 WtEn= 0.00D+00
 Coeff-Com:  0.186D-02-0.350D-02 0.167D-01 0.446D-01 0.821D-01 0.228D+00
 Coeff-Com:  0.631D+00
 Coeff:      0.186D-02-0.350D-02 0.167D-01 0.446D-01 0.821D-01 0.228D+00
 Coeff:      0.631D+00
 Gap=     0.210 Goal=   None    Shift=    0.000
 RMSDP=9.50D-06 MaxDP=5.23D-04 DE=-1.15D-04 OVMax= 9.44D-04

 Initial convergence to 1.0D-05 achieved.  Increase integral accuracy.
 Cycle   8  Pass 1  IDiag  1:
 E= -526.775798886489     Delta-E=       -0.000016116863 Rises=F Damp=F
 DIIS: error= 5.27D-05 at cycle   1 NSaved=   1.
 NSaved= 1 IEnMin= 1 EnMin= -526.775798886489     IErMin= 1 ErrMin= 5.27D-05
 ErrMax= 5.27D-05  0.00D+00 EMaxC= 1.00D-01 BMatC= 2.14D-06 BMatP= 2.14D-06
 IDIUse=1 WtCom= 1.00D+00 WtEn= 0.00D+00
 Coeff-Com:  0.100D+01
 Coeff:      0.100D+01
 Gap=     0.210 Goal=   None    Shift=    0.000
 RMSDP=9.50D-06 MaxDP=5.23D-04 DE=-1.61D-05 OVMax= 2.37D-03

 Cycle   9  Pass 1  IDiag  1:
 E= -526.775785924555     Delta-E=        0.000012961934 Rises=F Damp=F
 DIIS: error= 1.60D-04 at cycle   2 NSaved=   2.
 NSaved= 2 IEnMin= 1 EnMin= -526.775798886489     IErMin= 1 ErrMin= 5.27D-05
 ErrMax= 1.60D-04  0.00D+00 EMaxC= 1.00D-01 BMatC= 1.88D-05 BMatP= 2.14D-06
 IDIUse=3 WtCom= 4.42D-01 WtEn= 5.58D-01
 Coeff-Com:  0.751D+00 0.249D+00
 Coeff-En:   0.834D+00 0.166D+00
 Coeff:      0.797D+00 0.203D+00
 Gap=     0.210 Goal=   None    Shift=    0.000
 RMSDP=1.06D-05 MaxDP=6.77D-04 DE= 1.30D-05 OVMax= 1.47D-03

 Cycle  10  Pass 1  IDiag  1:
 E= -526.775800098744     Delta-E=       -0.000014174189 Rises=F Damp=F
 DIIS: error= 2.80D-05 at cycle   3 NSaved=   3.
 NSaved= 3 IEnMin= 3 EnMin= -526.775800098744     IErMin= 3 ErrMin= 2.80D-05
 ErrMax= 2.80D-05  0.00D+00 EMaxC= 1.00D-01 BMatC= 5.94D-07 BMatP= 2.14D-06
 IDIUse=1 WtCom= 1.00D+00 WtEn= 0.00D+00
 Coeff-Com:  0.286D+00-0.364D-01 0.751D+00
 Coeff:      0.286D+00-0.364D-01 0.751D+00
 Gap=     0.210 Goal=   None    Shift=    0.000
 RMSDP=2.26D-06 MaxDP=1.51D-04 DE=-1.42D-05 OVMax= 2.82D-04

 Cycle  11  Pass 1  IDiag  1:
 E= -526.775800541338     Delta-E=       -0.000000442593 Rises=F Damp=F
 DIIS: error= 5.51D-06 at cycle   4 NSaved=   4.
 NSaved= 4 IEnMin= 4 EnMin= -526.775800541338     IErMin= 4 ErrMin= 5.51D-06
 ErrMax= 5.51D-06  0.00D+00 EMaxC= 1.00D-01 BMatC= 2.21D-08 BMatP= 5.94D-07
 IDIUse=1 WtCom= 1.00D+00 WtEn= 0.00D+00
 Coeff-Com:  0.169D-01-0.871D-01 0.527D+00 0.544D+00
 Coeff:      0.169D-01-0.871D-01 0.527D+00 0.544D+00
 Gap=     0.210 Goal=   None    Shift=    0.000
 RMSDP=4.40D-07 MaxDP=2.63D-05 DE=-4.43D-07 OVMax= 3.46D-05

 Cycle  12  Pass 1  IDiag  1:
 E= -526.775800554951     Delta-E=       -0.000000013613 Rises=F Damp=F
 DIIS: error= 1.68D-06 at cycle   5 NSaved=   5.
 NSaved= 5 IEnMin= 5 EnMin= -526.775800554951     IErMin= 5 ErrMin= 1.68D-06
 ErrMax= 1.68D-06  0.00D+00 EMaxC= 1.00D-01 BMatC= 3.07D-09 BMatP= 2.21D-08
 IDIUse=1 WtCom= 1.00D+00 WtEn= 0.00D+00
 Coeff-Com: -0.827D-02-0.590D-01 0.319D+00 0.381D+00 0.368D+00
 Coeff:     -0.827D-02-0.590D-01 0.319D+00 0.381D+00 0.368D+00
 Gap=     0.210 Goal=   None    Shift=    0.000
 RMSDP=2.00D-07 MaxDP=1.13D-05 DE=-1.36D-08 OVMax= 2.15D-05

 Cycle  13  Pass 1  IDiag  1:
 E= -526.775800557166     Delta-E=       -0.000000002216 Rises=F Damp=F
 DIIS: error= 5.79D-07 at cycle   6 NSaved=   6.
 NSaved= 6 IEnMin= 6 EnMin= -526.775800557166     IErMin= 6 ErrMin= 5.79D-07
 ErrMax= 5.79D-07  0.00D+00 EMaxC= 1.00D-01 BMatC= 3.42D-10 BMatP= 3.07D-09
 IDIUse=1 WtCom= 1.00D+00 WtEn= 0.00D+00
 Coeff-Com: -0.792D-02-0.341D-01 0.178D+00 0.221D+00 0.267D+00 0.376D+00
 Coeff:     -0.792D-02-0.341D-01 0.178D+00 0.221D+00 0.267D+00 0.376D+00
 Gap=     0.210 Goal=   None    Shift=    0.000
 RMSDP=6.05D-08 MaxDP=3.94D-06 DE=-2.22D-09 OVMax= 6.08D-06

 Cycle  14  Pass 1  IDiag  1:
 E= -526.775800557438     Delta-E=       -0.000000000272 Rises=F Damp=F
 DIIS: error= 1.31D-07 at cycle   7 NSaved=   7.
 NSaved= 7 IEnMin= 7 EnMin= -526.775800557438     IErMin= 7 ErrMin= 1.31D-07
 ErrMax= 1.31D-07  0.00D+00 EMaxC= 1.00D-01 BMatC= 1.26D-11 BMatP= 3.42D-10
 IDIUse=1 WtCom= 1.00D+00 WtEn= 0.00D+00
 Coeff-Com: -0.277D-02-0.891D-02 0.448D-01 0.584D-01 0.802D-01 0.196D+00
 Coeff-Com:  0.632D+00
 Coeff:     -0.277D-02-0.891D-02 0.448D-01 0.584D-01 0.802D-01 0.196D+00
 Coeff:      0.632D+00
 Gap=     0.210 Goal=   None    Shift=    0.000
 RMSDP=1.22D-08 MaxDP=5.31D-07 DE=-2.72D-10 OVMax= 8.71D-07

 Cycle  15  Pass 1  IDiag  1:
 E= -526.775800557421     Delta-E=        0.000000000017 Rises=F Damp=F
 DIIS: error= 1.93D-08 at cycle   8 NSaved=   8.
 NSaved= 8 IEnMin= 7 EnMin= -526.775800557438     IErMin= 8 ErrMin= 1.93D-08
 ErrMax= 1.93D-08  0.00D+00 EMaxC= 1.00D-01 BMatC= 3.06D-13 BMatP= 1.26D-11
 IDIUse=1 WtCom= 1.00D+00 WtEn= 0.00D+00
 Coeff-Com: -0.130D-04 0.757D-03-0.436D-02-0.478D-02-0.633D-02 0.890D-02
 Coeff-Com:  0.145D+00 0.861D+00
 Coeff:     -0.130D-04 0.757D-03-0.436D-02-0.478D-02-0.633D-02 0.890D-02
 Coeff:      0.145D+00 0.861D+00
 Gap=     0.210 Goal=   None    Shift=    0.000
 RMSDP=2.47D-09 MaxDP=9.71D-08 DE= 1.71D-11 OVMax= 1.69D-07

 SCF Done:  E(RB3LYP) =  -526.775800557     A.U. after   15 cycles
            NFock= 15  Conv=0.25D-08     -V/T= 2.0034
 KE= 5.250066838532D+02 PE=-2.162564135579D+03 EE= 6.471499667448D+02
 Leave Link  502 at Thu Aug 26 19:47:37 2021, MaxMem= 24159191040 cpu:       154.4
 (Enter /public/home/users/caep010/software/Gaussian09/g09/l801.exe)
 DoSCS=F DFT=T ScalE2(SS,OS)=  1.000000  1.000000
 Range of M.O.s used for correlation:     1   272
 NBasis=   272 NAE=    34 NBE=    34 NFC=     0 NFV=     0
 NROrb=    272 NOA=    34 NOB=    34 NVA=   238 NVB=   238

 **** Warning!!: The largest alpha MO coefficient is  0.21895509D+02

 Leave Link  801 at Thu Aug 26 19:47:37 2021, MaxMem= 24159191040 cpu:         0.6
 (Enter /public/home/users/caep010/software/Gaussian09/g09/l1101.exe)
 Using compressed storage, NAtomX=    13.
 Will process     14 centers per pass.
 Leave Link 1101 at Thu Aug 26 19:47:38 2021, MaxMem= 24159191040 cpu:        17.4
 (Enter /public/home/users/caep010/software/Gaussian09/g09/l1102.exe)
 Symmetrizing basis deriv contribution to polar:
 IMax=3 JMax=2 DiffMx= 0.00D+00
 Leave Link 1102 at Thu Aug 26 19:47:38 2021, MaxMem= 24159191040 cpu:         1.1
 (Enter /public/home/users/caep010/software/Gaussian09/g09/l1110.exe)
 Forming Gx(P) for the SCF density, NAtomX=    13.
 Integral derivatives from FoFJK, PRISM(SPDF).
 Do as many integral derivatives as possible in FoFJK.
 G2DrvN: MDV=   24159190832.
 G2DrvN: will do    14 centers at a time, making    1 passes.
 Calling FoFCou, ICntrl=  3107 FMM=F I1Cent=   0 AccDes= 0.00D+00.
 FoFJK:  IHMeth= 1 ICntrl=    3107 DoSepK=F KAlg= 0 I1Cent=   0 FoldK=F
 IRaf=         0 NMat=   1 IRICut=       1 DoRegI=T DoRafI=F ISym2E= 0.
 FoFCou: FMM=F IPFlag=           0 FMFlag=      100000 FMFlg1=           0
         NFxFlg=           0 DoJE=F BraDBF=F KetDBF=F FulRan=T
         wScrn=  0.000000 ICntrl=    3107 IOpCl=  0 I1Cent=           0 NGrid=           0
         NMat0=    1 NMatS0=      1 NMatT0=    0 NMatD0=    1 NMtDS0=    0 NMtDT0=    0
 Symmetry not used in FoFCou.
 End of G2Drv F.D. properties file   721 does not exist.
 End of G2Drv F.D. properties file   722 does not exist.
 End of G2Drv F.D. properties file   788 does not exist.
 Leave Link 1110 at Thu Aug 26 19:47:48 2021, MaxMem= 24159191040 cpu:       303.3
 (Enter /public/home/users/caep010/software/Gaussian09/g09/l1002.exe)
 Minotr:  Closed shell wavefunction.
          IDoAtm=1111111111111
          Direct CPHF calculation.
          Differentiating once with respect to nuclear coordinates.
          Requested convergence is 1.0D-08 RMS, and 1.0D-07 maximum.
          Secondary convergence is 1.0D-12 RMS, and 1.0D-12 maximum.
          NewPWx=T KeepS1=F KeepF1=F KeepIn=T MapXYZ=F SortEE=F KeepMc=T.
          MDV=   24159190634 using IRadAn=       2.
 Generate precomputed XC quadrature information.
 Keep R1 ints in memory in canonical form, NReq=702767503.
 FoFCou: FMM=F IPFlag=           0 FMFlag=           0 FMFlg1=           0
         NFxFlg=           0 DoJE=F BraDBF=F KetDBF=F FulRan=T
         wScrn=  0.000000 ICntrl=     600 IOpCl=  0 I1Cent=           0 NGrid=           0
         NMat0=    1 NMatS0=  37128 NMatT0=    0 NMatD0=    1 NMtDS0=    0 NMtDT0=    0
 Symmetry not used in FoFCou.
          Solving linear equations simultaneously, MaxMat=       0.
          There are    42 degrees of freedom in the 1st order CPHF.  IDoFFX=6 NUNeed=     0.
     36 vectors produced by pass  0 Test12= 1.93D-14 2.38D-09 XBig12= 2.55D-01 1.31D-01.
 AX will form    36 AO Fock derivatives at one time.
     36 vectors produced by pass  1 Test12= 1.93D-14 2.38D-09 XBig12= 2.81D-02 5.50D-02.
     36 vectors produced by pass  2 Test12= 1.93D-14 2.38D-09 XBig12= 4.10D-04 2.79D-03.
     36 vectors produced by pass  3 Test12= 1.93D-14 2.38D-09 XBig12= 6.62D-06 4.08D-04.
     36 vectors produced by pass  4 Test12= 1.93D-14 2.38D-09 XBig12= 3.09D-08 3.60D-05.
     36 vectors produced by pass  5 Test12= 1.93D-14 2.38D-09 XBig12= 6.61D-11 1.21D-06.
     18 vectors produced by pass  6 Test12= 1.93D-14 2.38D-09 XBig12= 1.10D-13 4.49D-08.
 InvSVY:  IOpt=1 It=  1 EMax= 2.11D-15
 Solved reduced A of dimension   234 with    36 vectors.
 End of Minotr F.D. properties file   721 does not exist.
 End of Minotr F.D. properties file   722 does not exist.
 End of Minotr F.D. properties file   788 does not exist.
 Leave Link 1002 at Thu Aug 26 19:48:02 2021, MaxMem= 24159191040 cpu:       424.2
 (Enter /public/home/users/caep010/software/Gaussian09/g09/l601.exe)
 Copying SCF densities to generalized density rwf, IOpCl= 0 IROHF=0.

 **********************************************************************

            Population analysis using the SCF density.

 **********************************************************************

 Orbital symmetries:
       Occupied  (A) (A) (A) (A) (A) (A) (A) (A) (A) (A) (A) (A)
                 (A) (A) (A) (A) (A) (A) (A) (A) (A) (A) (A) (A)
                 (A) (A) (A) (A) (A) (A) (A) (A) (A) (A)
       Virtual   (A) (A) (A) (A) (A) (A) (A) (A) (A) (A) (A) (A)
                 (A) (A) (A) (A) (A) (A) (A) (A) (A) (A) (A) (A)
                 (A) (A) (A) (A) (A) (A) (A) (A) (A) (A) (A) (A)
                 (A) (A) (A) (A) (A) (A) (A) (A) (A) (A) (A) (A)
                 (A) (A) (A) (A) (A) (A) (A) (A) (A) (A) (A) (A)
                 (A) (A) (A) (A) (A) (A) (A) (A) (A) (A) (A) (A)
                 (A) (A) (A) (A) (A) (A) (A) (A) (A) (A) (A) (A)
                 (A) (A) (A) (A) (A) (A) (A) (A) (A) (A) (A) (A)
                 (A) (A) (A) (A) (A) (A) (A) (A) (A) (A) (A) (A)
                 (A) (A) (A) (A) (A) (A) (A) (A) (A) (A) (A) (A)
                 (A) (A) (A) (A) (A) (A) (A) (A) (A) (A) (A) (A)
                 (A) (A) (A) (A) (A) (A) (A) (A) (A) (A) (A) (A)
                 (A) (A) (A) (A) (A) (A) (A) (A) (A) (A) (A) (A)
                 (A) (A) (A) (A) (A) (A) (A) (A) (A) (A) (A) (A)
                 (A) (A) (A) (A) (A) (A) (A) (A) (A) (A) (A) (A)
                 (A) (A) (A) (A) (A) (A) (A) (A) (A) (A) (A) (A)
                 (A) (A) (A) (A) (A) (A) (A) (A) (A) (A) (A) (A)
                 (A) (A) (A) (A) (A) (A) (A) (A) (A) (A) (A) (A)
                 (A) (A) (A) (A) (A) (A) (A) (A) (A) (A) (A) (A)
                 (A) (A) (A) (A) (A) (A) (A) (A) (A) (A)
 The electronic state is 1-A.
 Alpha  occ. eigenvalues --  -19.19976 -19.19708 -19.19556 -19.19520 -14.59092
 Alpha  occ. eigenvalues --  -14.59046 -10.28687 -10.28327 -10.21528  -1.25578
 Alpha  occ. eigenvalues --   -1.25190  -1.08141  -1.07629  -0.97233  -0.80968
 Alpha  occ. eigenvalues --   -0.77429  -0.66901  -0.65123  -0.59352  -0.58558
 Alpha  occ. eigenvalues --   -0.56423  -0.55824  -0.54165  -0.53032  -0.50662
 Alpha  occ. eigenvalues --   -0.49995  -0.40110  -0.38258  -0.33571  -0.33422
 Alpha  occ. eigenvalues --   -0.33222  -0.32846  -0.31505  -0.31051
 Alpha virt. eigenvalues --   -0.10021  -0.07549   0.06616   0.09761   0.11528
 Alpha virt. eigenvalues --    0.13912   0.14852   0.15662   0.18235   0.21165
 Alpha virt. eigenvalues --    0.22588   0.24172   0.25447   0.31627   0.33343
 Alpha virt. eigenvalues --    0.36926   0.38154   0.41359   0.45377   0.46595
 Alpha virt. eigenvalues --    0.47163   0.49585   0.50595   0.51664   0.53203
 Alpha virt. eigenvalues --    0.54815   0.57593   0.64951   0.65455   0.68126
 Alpha virt. eigenvalues --    0.68916   0.69545   0.72021   0.72970   0.74852
 Alpha virt. eigenvalues --    0.77882   0.79244   0.79952   0.81842   0.84338
 Alpha virt. eigenvalues --    0.85277   0.86089   0.86450   0.87288   0.89117
 Alpha virt. eigenvalues --    0.90787   0.91489   0.95239   0.95454   0.96623
 Alpha virt. eigenvalues --    0.97501   0.98216   1.00716   1.03055   1.06017
 Alpha virt. eigenvalues --    1.07652   1.10801   1.11062   1.13568   1.14064
 Alpha virt. eigenvalues --    1.15526   1.16377   1.22094   1.22610   1.27223
 Alpha virt. eigenvalues --    1.29132   1.30743   1.33978   1.34957   1.39668
 Alpha virt. eigenvalues --    1.40189   1.44101   1.45728   1.46538   1.49274
 Alpha virt. eigenvalues --    1.49675   1.53209   1.54011   1.55081   1.56106
 Alpha virt. eigenvalues --    1.62054   1.63150   1.66036   1.66657   1.68410
 Alpha virt. eigenvalues --    1.73707   1.77296   1.78596   1.79957   1.81315
 Alpha virt. eigenvalues --    1.89301   1.91486   1.99868   2.05349   2.12255
 Alpha virt. eigenvalues --    2.15134   2.18578   2.21346   2.22073   2.31341
 Alpha virt. eigenvalues --    2.38297   2.48910   2.50578   2.56119   2.69892
 Alpha virt. eigenvalues --    2.77304   2.80095   2.81587   2.89911   2.99959
 Alpha virt. eigenvalues --    3.00994   3.02991   3.07526   3.11476   3.13781
 Alpha virt. eigenvalues --    3.16842   3.19151   3.26303   3.32449   3.34130
 Alpha virt. eigenvalues --    3.36790   3.39599   3.42524   3.44941   3.45981
 Alpha virt. eigenvalues --    3.49172   3.50365   3.55213   3.57072   3.60263
 Alpha virt. eigenvalues --    3.60733   3.62149   3.65120   3.68771   3.69432
 Alpha virt. eigenvalues --    3.70838   3.76650   3.82488   3.91483   3.94269
 Alpha virt. eigenvalues --    3.97551   4.01855   4.02213   4.05325   4.06084
 Alpha virt. eigenvalues --    4.09983   4.11356   4.12383   4.14476   4.16516
 Alpha virt. eigenvalues --    4.17563   4.19813   4.21981   4.25619   4.28180
 Alpha virt. eigenvalues --    4.30065   4.31053   4.32955   4.35343   4.35668
 Alpha virt. eigenvalues --    4.36038   4.38441   4.42901   4.43248   4.48662
 Alpha virt. eigenvalues --    4.49760   4.53448   4.53757   4.58965   4.60700
 Alpha virt. eigenvalues --    4.61831   4.63282   4.65248   4.67483   4.70430
 Alpha virt. eigenvalues --    4.74274   4.75720   4.86884   4.89025   4.89499
 Alpha virt. eigenvalues --    4.93409   4.98215   4.99132   4.99827   5.00745
 Alpha virt. eigenvalues --    5.01503   5.04598   5.06264   5.06919   5.09358
 Alpha virt. eigenvalues --    5.10523   5.14123   5.20684   5.22751   5.23902
 Alpha virt. eigenvalues --    5.28234   5.29152   5.34150   5.38196   5.39244
 Alpha virt. eigenvalues --    5.43150   5.49807   5.57484   5.58549   5.61176
 Alpha virt. eigenvalues --    5.62225   5.66963   5.77841   5.82680   5.87338
 Alpha virt. eigenvalues --    5.88917   6.01430   6.05237   6.05588   6.21211
 Alpha virt. eigenvalues --    6.22948   6.23078   6.24001   6.28523   6.34233
 Alpha virt. eigenvalues --    6.68784   6.70464   6.82058   6.83111   6.94631
 Alpha virt. eigenvalues --    7.01684   7.40986  10.46242  11.13945  11.28728
 Alpha virt. eigenvalues --   11.58485  11.88430  12.78329  12.90515  13.07689
 Alpha virt. eigenvalues --   13.16007  14.61548  14.93760
          Condensed to atoms (all electrons):
               1          2          3          4          5          6
     1  C    5.067464   0.303211  -0.020899  -0.004966   0.198077  -0.038278
     2  C    0.303211   4.785581   0.387718   0.344273   0.295156  -0.037475
     3  H   -0.020899   0.387718   0.560671  -0.054844  -0.013336  -0.005279
     4  H   -0.004966   0.344273  -0.054844   0.662497  -0.006903   0.006281
     5  C    0.198077   0.295156  -0.013336  -0.006903   5.097345   0.383458
     6  H   -0.038278  -0.037475  -0.005279   0.006281   0.383458   0.524403
     7  N    0.339116  -0.007486  -0.006616   0.002572  -0.019680  -0.001360
     8  O   -0.102843   0.004284   0.000449  -0.000144   0.004905   0.000320
     9  O   -0.122689   0.001698   0.013683   0.000817   0.004419   0.014989
    10  H    0.381237  -0.035180   0.004136  -0.003631  -0.035900   0.002091
    11  N   -0.017078   0.000028   0.002378  -0.010383   0.318071  -0.018788
    12  O    0.005859  -0.000310   0.000397   0.016221  -0.119918   0.003647
    13  O    0.005281   0.003384  -0.000094   0.000513  -0.097333   0.003143
               7          8          9         10         11         12
     1  C    0.339116  -0.102843  -0.122689   0.381237  -0.017078   0.005859
     2  C   -0.007486   0.004284   0.001698  -0.035180   0.000028  -0.000310
     3  H   -0.006616   0.000449   0.013683   0.004136   0.002378   0.000397
     4  H    0.002572  -0.000144   0.000817  -0.003631  -0.010383   0.016221
     5  C   -0.019680   0.004905   0.004419  -0.035900   0.318071  -0.119918
     6  H   -0.001360   0.000320   0.014989   0.002091  -0.018788   0.003647
     7  N    5.151238   0.530248   0.528966  -0.015607   0.001058   0.000193
     8  O    0.530248   7.996841  -0.082257   0.004394  -0.000044  -0.000002
     9  O    0.528966  -0.082257   7.996300   0.004064   0.000162  -0.000002
    10  H   -0.015607   0.004394   0.004064   0.534269  -0.001618   0.014300
    11  N    0.001058  -0.000044   0.000162  -0.001618   5.161096   0.529087
    12  O    0.000193  -0.000002  -0.000002   0.014300   0.529087   8.002014
    13  O   -0.000042  -0.000000  -0.000002   0.000336   0.534569  -0.084819
              13
     1  C    0.005281
     2  C    0.003384
     3  H   -0.000094
     4  H    0.000513
     5  C   -0.097333
     6  H    0.003143
     7  N   -0.000042
     8  O   -0.000000
     9  O   -0.000002
    10  H    0.000336
    11  N    0.534569
    12  O   -0.084819
    13  O    7.993513
 Mulliken charges:
               1
     1  C    0.006508
     2  C   -0.044881
     3  H    0.131634
     4  H    0.047697
     5  C   -0.008360
     6  H    0.162847
     7  N    0.497400
     8  O   -0.356151
     9  O   -0.360149
    10  H    0.147109
    11  N    0.501462
    12  O   -0.366667
    13  O   -0.358449
 Sum of Mulliken charges =  -0.00000
 Mulliken charges with hydrogens summed into heavy atoms:
               1
     1  C    0.153617
     2  C    0.134450
     5  C    0.154487
     7  N    0.497400
     8  O   -0.356151
     9  O   -0.360149
    11  N    0.501462
    12  O   -0.366667
    13  O   -0.358449
 APT charges:
               1
     1  C   -0.350504
     2  C   -0.241560
     3  H    0.380573
     4  H    0.244503
     5  C   -0.397759
     6  H    0.354537
     7  N   -0.939348
     8  O    0.524470
     9  O    0.252849
    10  H    0.331239
    11  N   -0.945916
    12  O    0.247962
    13  O    0.538954
 Sum of APT charges =  -0.00000
 APT charges with hydrogens summed into heavy atoms:
               1
     1  C   -0.019265
     2  C    0.383516
     5  C   -0.043222
     7  N   -0.939348
     8  O    0.524470
     9  O    0.252849
    11  N   -0.945916
    12  O    0.247962
    13  O    0.538954
 Electronic spatial extent (au):  <R**2>=           1211.7510
 Charge=             -0.0000 electrons
 Dipole moment (field-independent basis, Debye):
    X=             -0.1196    Y=             -0.1564    Z=              2.3795  Tot=              2.3876
 Quadrupole moment (field-independent basis, Debye-Ang):
   XX=            -65.5691   YY=            -51.1799   ZZ=            -46.6259
   XY=             -1.4739   XZ=             -0.2376   YZ=             -0.2680
 Traceless Quadrupole moment (field-independent basis, Debye-Ang):
   XX=            -11.1108   YY=              3.2784   ZZ=              7.8323
   XY=             -1.4739   XZ=             -0.2376   YZ=             -0.2680
 Octapole moment (field-independent basis, Debye-Ang**2):
  XXX=             -0.7529  YYY=             -0.0939  ZZZ=              1.3452  XYY=              0.2043
  XXY=             -0.4188  XXZ=             11.5684  XZZ=             -0.5662  YZZ=             -0.2154
  YYZ=              0.0905  XYZ=             -5.1676
 Hexadecapole moment (field-independent basis, Debye-Ang**3):
 XXXX=          -1111.2181 YYYY=           -192.3309 ZZZZ=           -163.1494 XXXY=              1.4681
 XXXZ=             -0.1257 YYYX=             -2.7059 YYYZ=              0.2677 ZZZX=             -0.0246
 ZZZY=             -0.6506 XXYY=           -223.5427 XXZZ=           -199.4278 YYZZ=            -62.0186
 XXYZ=             -0.6379 YYXZ=             -0.5466 ZZXY=              6.1633
 N-N= 4.636316844231D+02 E-N=-2.162564134306D+03  KE= 5.250066838532D+02
  Exact polarizability:   0.000   0.000   0.000   0.000   0.000   0.000
 Approx polarizability:  93.761 -13.062 122.191  -0.939   1.113  76.820
 No NMR shielding tensors so no spin-rotation constants.
 Leave Link  601 at Thu Aug 26 19:48:02 2021, MaxMem= 24159191040 cpu:        14.5
 (Enter /public/home/users/caep010/software/Gaussian09/g09/l701.exe)
 Compute integral second derivatives.
 ... and contract with generalized density number  0.
 Leave Link  701 at Thu Aug 26 19:48:03 2021, MaxMem= 24159191040 cpu:        18.0
 (Enter /public/home/users/caep010/software/Gaussian09/g09/l702.exe)
 L702 exits ... SP integral derivatives will be done elsewhere.
 Leave Link  702 at Thu Aug 26 19:48:03 2021, MaxMem= 24159191040 cpu:         0.8
 (Enter /public/home/users/caep010/software/Gaussian09/g09/l703.exe)
 Compute integral second derivatives, UseDBF=F ICtDFT=           0.
 Integral derivatives from FoFJK, PRISM(SPDF).
 Calling FoFJK, ICntrl=    100147 FMM=F ISym2X=0 I1Cent= 0 IOpClX= 0 NMat=1 NMatS=1 NMatT=0.
 FoFJK:  IHMeth= 1 ICntrl=  100147 DoSepK=F KAlg= 0 I1Cent=   0 FoldK=F
 IRaf=         0 NMat=   1 IRICut=       1 DoRegI=T DoRafI=F ISym2E= 0.
 FoFCou: FMM=F IPFlag=           0 FMFlag=      100000 FMFlg1=         800
         NFxFlg=           0 DoJE=F BraDBF=F KetDBF=F FulRan=T
         wScrn=  0.000000 ICntrl=  100147 IOpCl=  0 I1Cent=           0 NGrid=           0
         NMat0=    1 NMatS0=      1 NMatT0=    0 NMatD0=    1 NMtDS0=    0 NMtDT0=    0
 Symmetry not used in FoFCou.
 Leave Link  703 at Thu Aug 26 19:48:24 2021, MaxMem= 24159191040 cpu:       631.4
 (Enter /public/home/users/caep010/software/Gaussian09/g09/l716.exe)
 Dipole        =-4.70517594D-02-6.15518379D-02 9.36172750D-01
 Polarizability= 0.00000000D+00 0.00000000D+00 0.00000000D+00
                 0.00000000D+00 0.00000000D+00 0.00000000D+00
 ***** Axes restored to original set *****
 -------------------------------------------------------------------
 Center     Atomic                   Forces (Hartrees/Bohr)
 Number     Number              X              Y              Z
 -------------------------------------------------------------------
      1        6           0.072470902   -0.038560547   -0.073423778
      2        6           0.417237890    0.224557073   -0.036020378
      3        1           0.043595899   -0.028726512   -0.163732740
      4        1          -0.479597291   -0.209732449    0.186383701
      5        6          -0.055963616    0.010874299    0.020614326
      6        1           0.061456132   -0.006897431   -0.016249211
      7        7          -0.008679471    0.017071633    0.007907347
      8        8          -0.000338107   -0.002994318    0.000400293
      9        8           0.004502989   -0.008912939   -0.004633952
     10        1          -0.061148541    0.049707433    0.072530045
     11        7           0.011176030   -0.016700292    0.017684653
     12        8          -0.003496796    0.005756550   -0.005953767
     13        8          -0.001216020    0.004557501   -0.005506538
 -------------------------------------------------------------------
 Cartesian Forces:  Max     0.479597291 RMS     0.123709649
 Force constants in Cartesian coordinates: 
                1             2             3             4             5 
      1  0.501534D+00
      2 -0.180249D+00  0.626584D+00
      3 -0.354831D+00  0.202482D+00  0.592025D+00
      4 -0.657485D-01 -0.879639D-01  0.680918D-02  0.171591D+01
      5 -0.197731D-01 -0.185712D+00 -0.613061D-01  0.813734D+00  0.260516D+00
      6  0.133331D-01 -0.945143D-01 -0.936383D-01 -0.756168D+00 -0.451619D-01
      7 -0.472658D-02 -0.335974D-03 -0.853108D-03 -0.234689D-01  0.237099D-01
      8  0.952013D-02 -0.123671D-01 -0.388385D-01  0.253920D-01  0.985195D-02
      9 -0.119986D-02  0.173432D-02  0.136999D-02  0.199941D+00 -0.146938D+00
     10  0.109397D-01  0.831816D-02 -0.384801D-02 -0.142608D+01 -0.751931D+00
     11 -0.427817D-01 -0.201294D-01  0.148183D-01 -0.747258D+00 -0.250648D-01
     12 -0.112212D-01 -0.119416D-01 -0.108993D-02  0.650133D+00  0.276797D+00
     13 -0.898327D-01  0.101862D+00  0.130605D-01 -0.188962D+00 -0.552780D-01
     14  0.579629D-01 -0.125502D+00  0.112540D-01 -0.118171D-02 -0.205702D-01
     15  0.169923D-01  0.615991D-01 -0.538510D-01 -0.696136D-01 -0.366809D-01
     16 -0.155352D-02 -0.342085D-02 -0.124275D-02 -0.190462D-01  0.418439D-02
     17  0.261662D-01 -0.575640D-02 -0.115657D-01 -0.166127D-01  0.162843D-02
     18 -0.259796D-02 -0.223803D-02 -0.413065D-03 -0.237959D-01  0.222933D-02
     19 -0.107190D+00 -0.739593D-02  0.209300D-01 -0.128926D-01 -0.189295D-01
     20 -0.207642D-01 -0.921415D-01  0.228396D-01 -0.429625D-02 -0.264288D-01
     21  0.232455D-01  0.600572D-02 -0.119274D+00 -0.177393D-01  0.178107D-02
     22  0.201952D-01 -0.118518D-01  0.644275D-02  0.211140D-02 -0.834790D-03
     23  0.131222D-02 -0.647518D-01  0.575286D-02 -0.301219D-02  0.173507D-03
     24  0.581431D-02  0.233904D-01  0.178776D-01  0.238214D-02  0.123436D-02
     25 -0.160649D-01  0.200175D-02  0.386299D-01 -0.474763D-03  0.553221D-02
     26 -0.881488D-02  0.171122D-01  0.981882D-02 -0.257985D-02 -0.208859D-02
     27  0.387451D-01 -0.300818D-02 -0.276766D-01  0.308652D-02 -0.341094D-02
     28 -0.244182D+00  0.173660D+00  0.286386D+00  0.143178D-01 -0.118276D-01
     29  0.178987D+00 -0.123083D+00 -0.192828D+00  0.129630D-01 -0.118581D-01
     30  0.285769D+00 -0.190569D+00 -0.300882D+00  0.103315D-01 -0.627871D-02
     31 -0.322201D-03  0.394749D-02 -0.923321D-02  0.565599D-02  0.852134D-02
     32 -0.280711D-02 -0.141651D-01  0.395831D-01  0.144575D-01  0.661061D-03
     33 -0.210046D-01  0.511195D-02 -0.850321D-02 -0.945810D-02  0.204806D-01
     34 -0.501338D-02  0.220728D-02 -0.252431D-02 -0.268462D-02  0.371388D-02
     35  0.219871D-03 -0.853109D-03 -0.913299D-03 -0.296973D-03 -0.679851D-03
     36  0.499952D-02  0.614329D-03 -0.108642D-02  0.329845D-02 -0.340444D-02
     37  0.196485D-02 -0.779213D-03  0.274022D-03  0.135863D-02 -0.821039D-03
     38  0.102136D-02  0.766457D-03 -0.109757D-02 -0.334426D-02 -0.428479D-03
     39  0.195510D-02  0.133241D-02 -0.485808D-02  0.793242D-03  0.658378D-03
                6             7             8             9            10 
      6  0.982357D+00
      7  0.193948D+00  0.201606D-01
      8 -0.148028D+00 -0.286380D-01 -0.103457D-01
      9 -0.776775D+00 -0.198465D+00  0.152829D+00  0.793561D+00
     10  0.642659D+00  0.460479D-02 -0.742703D-03 -0.583820D-02  0.142926D+01
     11  0.271077D+00  0.140887D-01  0.925249D-02 -0.579521D-02  0.751248D+00
     12  0.365304D-01  0.398056D-01  0.200687D-01 -0.484224D-02 -0.646826D+00
     13 -0.699315D-01  0.392027D-02 -0.700859D-02  0.458664D-02 -0.216738D-01
     14  0.165217D-01 -0.700857D-02  0.146178D-02 -0.368250D-02 -0.822977D-02
     15 -0.127625D+00 -0.348060D-01  0.137588D-01 -0.148490D-01  0.985235D-02
     16  0.579342D-02  0.202260D-02 -0.143055D-02  0.113652D-02 -0.181198D-02
     17  0.726381D-02  0.250615D-02 -0.776775D-03  0.126135D-02 -0.226630D-02
     18  0.677154D-02  0.101362D-02 -0.175065D-02  0.173744D-02 -0.309140D-02
     19  0.154712D-01  0.129694D-02  0.733459D-02  0.858430D-03  0.268045D-02
     20  0.130644D-01 -0.229682D-02  0.275324D-02 -0.445723D-03  0.199142D-02
     21  0.186741D-01 -0.567517D-03 -0.176325D-02 -0.629903D-03  0.296256D-02
     22 -0.151396D-02 -0.585636D-03 -0.948052D-03 -0.649139D-04 -0.449647D-03
     23  0.324269D-02  0.298107D-03  0.767898D-03  0.219997D-03  0.124464D-02
     24 -0.337322D-02  0.180744D-03  0.301583D-04  0.125147D-03 -0.903566D-03
     25 -0.124756D-02 -0.456067D-03 -0.132657D-02  0.614119D-04  0.319952D-03
     26  0.104284D-02  0.412357D-03  0.174959D-02  0.147570D-02  0.401287D-03
     27 -0.117607D-02  0.392026D-03  0.235009D-02  0.153603D-03 -0.595120D-03
     28 -0.176760D-01  0.680946D-03 -0.492499D-02  0.320817D-04 -0.545153D-03
     29 -0.135799D-01  0.967201D-03 -0.348911D-02  0.817758D-03 -0.576822D-03
     30 -0.949710D-02  0.295318D-03 -0.260369D-02  0.313019D-03 -0.786782D-03
     31 -0.221940D-01 -0.509985D-02  0.203682D-02 -0.576358D-03  0.153555D-03
     32 -0.184983D-01 -0.601587D-02  0.261775D-02 -0.214233D-02  0.143303D-02
     33 -0.315088D-01 -0.144713D-03  0.253115D-02  0.784761D-04  0.590281D-02
     34 -0.331816D-02  0.164203D-02  0.303989D-03 -0.225902D-03  0.215810D-02
     35  0.401566D-02  0.799868D-03 -0.183161D-03  0.237758D-03 -0.351228D-03
     36  0.694481D-03  0.489771D-04  0.699957D-03 -0.541546D-04  0.419277D-03
     37  0.844471D-03  0.882892D-05  0.431941D-03 -0.245520D-03  0.440593D-03
     38  0.355351D-02  0.151293D-02 -0.129290D-02  0.428034D-03 -0.538240D-03
     39 -0.143404D-02 -0.847684D-03  0.715900D-03 -0.188722D-03  0.930477D-04
               11            12            13            14            15 
     11  0.305171D-01
     12 -0.271793D+00 -0.342975D-01
     13  0.233265D-01 -0.329692D-01  0.859494D+00
     14  0.419122D-02 -0.142607D-01 -0.142532D+00  0.271720D+00
     15 -0.579941D-02  0.193567D-02 -0.147829D+00 -0.653797D-01  0.523274D+00
     16  0.257315D-02 -0.186040D-02 -0.443347D+00  0.748830D-01  0.200849D+00
     17  0.190461D-02 -0.239850D-02  0.778746D-01 -0.229730D-01 -0.281682D-01
     18  0.319463D-02 -0.261107D-02  0.198601D+00 -0.251109D-01 -0.112289D+00
     19 -0.430565D-02  0.115356D-02  0.164096D-01  0.606457D-02 -0.231659D-01
     20 -0.177854D-02  0.690283D-03 -0.694441D-02 -0.286696D-01  0.772321D-02
     21 -0.830423D-02 -0.390809D-02  0.822574D-02  0.208708D-01 -0.100016D-01
     22  0.688511D-03 -0.141512D-03 -0.243666D-02 -0.248545D-02  0.362089D-02
     23 -0.190876D-02  0.155442D-03 -0.226293D-02 -0.370704D-03  0.242486D-02
     24  0.151596D-02  0.455605D-03 -0.196293D-03  0.136311D-02  0.394507D-03
     25  0.454935D-04  0.158822D-03 -0.267804D-02  0.341294D-02  0.309949D-02
     26  0.264392D-03  0.149966D-02  0.481084D-04 -0.240830D-02  0.228470D-02
     27  0.149648D-02  0.137598D-02  0.718581D-03 -0.498316D-02 -0.202501D-02
     28  0.463991D-02  0.125250D-03 -0.131301D-01  0.841495D-02  0.116320D-01
     29  0.333762D-02 -0.413878D-03  0.502275D-02 -0.633762D-02 -0.109395D-01
     30  0.313493D-02  0.823862D-03 -0.143562D-01  0.978241D-02  0.113820D-01
     31 -0.145979D-02 -0.173243D-02 -0.950350D-01 -0.562804D-02  0.176373D-01
     32 -0.289350D-03  0.245228D-02 -0.125008D-01 -0.931642D-01  0.250979D-01
     33 -0.441569D-02  0.665436D-02  0.327217D-01  0.159052D-01 -0.160166D+00
     34 -0.795838D-03  0.269050D-02 -0.180920D-01 -0.237781D-02  0.320083D-01
     35 -0.283281D-03 -0.288205D-03 -0.771489D-02  0.170268D-01  0.642427D-02
     36  0.841278D-03 -0.580165D-03  0.466279D-01  0.353642D-02 -0.277824D-01
     37 -0.870202D-05  0.684113D-03 -0.463710D-02  0.187046D-01 -0.202775D-01
     38 -0.132696D-04 -0.567412D-03  0.261071D-01  0.559634D-02  0.276548D-01
     39  0.290142D-04 -0.446894D-03 -0.392598D-01  0.341833D-01 -0.283969D-01
               16            17            18            19            20 
     16  0.457867D+00
     17 -0.758101D-01  0.247478D-01
     18 -0.198454D+00  0.272888D-01  0.120031D+00
     19 -0.332655D-03  0.226988D-02 -0.951580D-03  0.511656D+00
     20  0.125790D-02  0.154861D-02  0.609570D-03 -0.129686D+00  0.844158D+00
     21  0.999372D-03 -0.627758D-02  0.228055D-02 -0.291327D+00  0.100549D+00
     22  0.386421D-04 -0.313785D-03  0.247584D-03 -0.112644D+00  0.620491D-01
     23 -0.333105D-03  0.455008D-03  0.449205D-04  0.683249D-01 -0.539182D+00
     24 -0.270564D-03  0.873292D-03 -0.804313D-03  0.319007D-01 -0.336945D-01
     25  0.280914D-03 -0.247291D-02  0.661766D-03 -0.285941D+00  0.916229D-01
     26 -0.151380D-02  0.118366D-02  0.336763D-03  0.879414D-01 -0.173937D+00
     27  0.349550D-03  0.146963D-02 -0.135771D-02  0.234072D+00 -0.985102D-01
     28  0.867538D-04  0.277782D-02 -0.117359D-03 -0.924179D-02  0.781213D-02
     29 -0.715303D-03 -0.183987D-02  0.760538D-04 -0.172348D-01  0.118423D-01
     30 -0.376240D-04  0.346249D-02 -0.542795D-03  0.714833D-02 -0.109623D-01
     31  0.171350D-02 -0.126569D-01  0.281482D-01 -0.202327D-02 -0.412612D-03
     32 -0.269379D-03 -0.128263D-02 -0.723009D-02  0.530322D-02 -0.934368D-03
     33 -0.483517D-02  0.256695D-02 -0.845601D-02  0.925999D-02  0.447225D-02
     34  0.244582D-02 -0.109039D-02  0.180535D-02  0.303556D-03  0.432443D-03
     35  0.798394D-03  0.145482D-02  0.305034D-02 -0.894473D-04  0.171069D-02
     36 -0.122308D-02  0.446005D-02 -0.613558D-02 -0.112988D-02 -0.314468D-02
     37  0.163620D-02 -0.371614D-03 -0.146925D-02 -0.208165D-02 -0.765503D-03
     38 -0.203734D-03 -0.294278D-03 -0.500708D-03  0.402912D-03  0.105982D-02
     39 -0.120468D-02 -0.236385D-03  0.178896D-02 -0.421940D-02 -0.319130D-02
               21            22            23            24            25 
     21  0.584706D+00
     22  0.324277D-01  0.916439D-01
     23 -0.391870D-01 -0.113410D+00  0.648418D+00
     24 -0.115774D+00 -0.641571D-01  0.781133D-01  0.964657D-01
     25  0.233135D+00  0.351398D-03  0.478196D-01  0.278633D-01  0.301821D+00
     26 -0.945421D-01  0.679095D-01 -0.430583D-01 -0.723536D-01 -0.140245D+00
     27 -0.342344D+00  0.260903D-01 -0.493779D-01  0.233270D-02 -0.305224D+00
     28  0.590705D-02  0.108431D-02  0.313765D-03 -0.205842D-02  0.885827D-03
     29  0.187624D-01 -0.227613D-04  0.421254D-03 -0.195864D-03 -0.467479D-02
     30 -0.115741D-01 -0.168077D-02 -0.220937D-03  0.155482D-02  0.310950D-02
     31  0.204126D-02  0.920330D-04  0.315524D-03  0.195885D-03 -0.630344D-03
     32  0.304183D-02 -0.630245D-03 -0.505899D-03 -0.750117D-03 -0.402733D-03
     33 -0.372381D-02 -0.251644D-02 -0.549726D-02  0.108926D-02 -0.134960D-02
     34  0.175909D-03 -0.218694D-04 -0.935722D-03 -0.296271D-03  0.123656D-02
     35 -0.157516D-03 -0.522524D-04 -0.288636D-04  0.155240D-03 -0.825013D-03
     36 -0.115979D-03  0.264651D-03  0.229646D-02  0.724532D-04 -0.109045D-03
     37  0.514114D-03  0.620623D-03  0.324748D-03 -0.454855D-03  0.134968D-02
     38 -0.779493D-03 -0.984145D-04 -0.429153D-03  0.318217D-03 -0.487693D-03
     39  0.168383D-02  0.980758D-03  0.203260D-02 -0.416525D-03  0.121146D-02
               26            27            28            29            30 
     26  0.204508D+00
     27  0.147128D+00  0.371379D+00
     28 -0.197874D-02  0.253620D-02  0.249738D+00
     29 -0.316759D-02  0.606029D-02 -0.175485D+00  0.132088D+00
     30  0.274660D-02 -0.977746D-03 -0.289448D+00  0.193505D+00  0.308139D+00
     31 -0.140465D-02  0.149078D-02 -0.117426D-02  0.364724D-02 -0.203315D-02
     32  0.657079D-03 -0.573894D-03 -0.181489D-02  0.161087D-02 -0.235959D-02
     33 -0.192300D-02  0.190820D-02  0.226705D-02 -0.218203D-02  0.368444D-02
     34 -0.497151D-03 -0.683744D-03  0.117567D-02 -0.190795D-02  0.126900D-02
     35 -0.454632D-03  0.961214D-03 -0.136846D-02  0.718181D-03  0.208142D-03
     36  0.176088D-02 -0.641766D-03  0.187133D-03  0.679203D-03 -0.201014D-02
     37  0.321654D-03 -0.977936D-03  0.303838D-03 -0.970450D-03  0.419384D-03
     38 -0.360652D-03  0.398550D-03 -0.218913D-03 -0.242481D-03  0.154363D-03
     39  0.724643D-03 -0.950909D-03  0.227048D-03  0.238567D-03 -0.413206D-03
               31            32            33            34            35 
     31  0.905056D+00
     32 -0.182610D+00  0.373932D+00
     33 -0.479608D-01 -0.147244D+00  0.649851D+00
     34 -0.450132D+00  0.398367D-01  0.179222D+00  0.572774D+00
     35  0.355339D-01 -0.948427D-01  0.412550D-02 -0.761549D-01  0.586223D-01
     36  0.184326D+00  0.605376D-03 -0.223679D+00 -0.222036D+00 -0.671520D-02
     37 -0.358254D+00  0.146020D+00 -0.142104D+00 -0.105792D+00  0.495012D-01
     38  0.150169D+00 -0.174295D+00  0.106069D+00  0.372655D-01  0.177929D-01
     39 -0.150110D+00  0.108018D+00 -0.227229D+00  0.119130D-01 -0.111039D-01
               36            37            38            39 
     36  0.214767D+00
     37 -0.156741D-01  0.463082D+00
     38 -0.222963D-02 -0.211588D+00  0.152140D+00
     39  0.465517D-01  0.178467D+00 -0.133401D+00  0.214310D+00
 FormGI is forming the generalized inverse of G from B-inverse, IUseBI=4.
 Leave Link  716 at Thu Aug 26 19:48:24 2021, MaxMem= 24159191040 cpu:         2.3
 (Enter /public/home/users/caep010/software/Gaussian09/g09/l103.exe)

 GradGradGradGradGradGradGradGradGradGradGradGradGradGradGradGradGradGrad
 Berny optimization.
 Red2BG is reusing G-inverse.
 Internal  Forces:  Max     0.555604457 RMS     0.078205325
 Search for a local minimum.
 Step number   1 out of a maximum of   68
 All quantities printed in internal units (Hartrees-Bohrs-Radians)
 RMS Force = .78205D-01 SwitMx=.10000D-02 MixMth= 1
 Mixed Optimization -- RFO/linear search
 Second derivative matrix not updated -- analytic derivatives used.
 ITU=  0
     Eigenvalues ---    0.00295   0.00299   0.01738   0.01956   0.02240
     Eigenvalues ---    0.02523   0.03685   0.03964   0.06283   0.06665
     Eigenvalues ---    0.07502   0.07734   0.07918   0.10163   0.16786
     Eigenvalues ---    0.18602   0.21206   0.22152   0.24362   0.25139
     Eigenvalues ---    0.27931   0.28905   0.31347   0.38881   0.40088
     Eigenvalues ---    0.56189   0.61025   0.63022   0.69204   0.78581
     Eigenvalues ---    0.80967   0.86914   1.99851
 RFO step:  Lambda=-1.90461737D-01 EMin= 2.94913991D-03
 Linear search not attempted -- first point.
 Maximum step size (   0.300) exceeded in Quadratic search.
    -- Step size scaled by   0.871
 Iteration  1 RMS(Cart)=  0.03913708 RMS(Int)=  0.00284845
 Iteration  2 RMS(Cart)=  0.00268197 RMS(Int)=  0.00002565
 Iteration  3 RMS(Cart)=  0.00000185 RMS(Int)=  0.00002553
 Iteration  4 RMS(Cart)=  0.00000000 RMS(Int)=  0.00002553
 ITry= 1 IFail=0 DXMaxC= 1.91D-01 DCOld= 1.00D+10 DXMaxT= 3.00D-01 DXLimC= 3.00D+00 Rises=F
 Variable       Old X    -DE/DX   Delta X   Delta X   Delta X     New X
                                 (Linear)    (Quad)   (Total)
    R1        2.78381   0.01391   0.00000   0.02681   0.02682   2.81063
    R2        2.84775   0.00526   0.00000   0.00651   0.00650   2.85426
    R3        2.78601  -0.00109   0.00000  -0.00048  -0.00048   2.78554
    R4        1.83135   0.10689   0.00000   0.10585   0.10585   1.93720
    R5        1.75054   0.17176   0.00000   0.14230   0.14230   1.89284
    R6        1.46784   0.55560   0.00000   0.22155   0.22155   1.68939
    R7        2.78975   0.01380   0.00000   0.02592   0.02591   2.81566
    R8        1.90206   0.06279   0.00000   0.07300   0.07300   1.97506
    R9        2.74317   0.00706   0.00000   0.01697   0.01697   2.76014
   R10        2.31347  -0.00276   0.00000  -0.00531  -0.00531   2.30816
   R11        2.29590   0.00921   0.00000   0.01014   0.01014   2.30604
   R12        2.31172   0.00112   0.00000   0.00128   0.00128   2.31300
   R13        2.31758  -0.00531   0.00000  -0.00814  -0.00814   2.30944
    A1        2.05093   0.00284   0.00000   0.00855   0.00851   2.05943
    A2        2.06682  -0.00007   0.00000   0.00165   0.00167   2.06849
    A3        1.99878   0.00252   0.00000   0.00957   0.00956   2.00834
    A4        2.09064  -0.00067   0.00000  -0.00266  -0.00269   2.08796
    A5        2.01802  -0.00344   0.00000  -0.01177  -0.01176   2.00626
    A6        2.04932  -0.00194   0.00000  -0.00528  -0.00530   2.04401
    A7        2.01064   0.00196   0.00000   0.00475   0.00466   2.01530
    A8        2.02443   0.00300   0.00000   0.00922   0.00922   2.03365
    A9        2.01874  -0.00067   0.00000  -0.00119  -0.00123   2.01751
   A10        2.09555  -0.00192   0.00000  -0.00791  -0.00791   2.08764
   A11        2.07985   0.00045   0.00000   0.00170   0.00161   2.08146
   A12        2.00961   0.00297   0.00000   0.00968   0.00968   2.01929
   A13        2.00705   0.00457   0.00000   0.01503   0.01507   2.02211
   A14        2.04862   0.00050   0.00000   0.00357   0.00352   2.05215
   A15        2.05685  -0.00574   0.00000  -0.01947  -0.01947   2.03739
   A16        2.01216   0.00264   0.00000   0.00790   0.00790   2.02007
   A17        2.08151  -0.00822   0.00000  -0.01579  -0.01579   2.06572
   A18        2.18951   0.00558   0.00000   0.00789   0.00788   2.19739
   A19        2.07994  -0.00973   0.00000  -0.01759  -0.01760   2.06234
   A20        2.03093  -0.00045   0.00000   0.00087   0.00086   2.03179
   A21        2.17173   0.01025   0.00000   0.01698   0.01697   2.18869
    D1       -0.03902   0.00386   0.00000   0.01168   0.01167  -0.02735
    D2       -2.52018  -0.00166   0.00000  -0.00446  -0.00443  -2.52461
    D3        2.52214   0.00154   0.00000   0.00501   0.00498   2.52712
    D4        0.04098  -0.00398   0.00000  -0.01112  -0.01111   0.02986
    D5       -0.09313   0.00356   0.00000   0.01297   0.01298  -0.08014
    D6        2.49921  -0.00248   0.00000  -0.00789  -0.00793   2.49127
    D7       -2.60601   0.00725   0.00000   0.02468   0.02470  -2.58130
    D8       -0.01368   0.00120   0.00000   0.00382   0.00379  -0.00989
    D9        2.57649  -0.00180   0.00000  -0.00480  -0.00482   2.57167
   D10       -0.56420  -0.00161   0.00000  -0.00420  -0.00422  -0.56842
   D11       -2.54055   0.00202   0.00000   0.00572   0.00575  -2.53481
   D12        0.60194   0.00222   0.00000   0.00632   0.00634   0.60828
   D13       -0.00071  -0.00058   0.00000  -0.00250  -0.00250  -0.00321
   D14       -3.14140  -0.00038   0.00000  -0.00190  -0.00190   3.13988
   D15       -0.02949  -0.00216   0.00000  -0.00483  -0.00483  -0.03432
   D16       -2.56494   0.00089   0.00000   0.00336   0.00339  -2.56156
   D17        2.53851  -0.00043   0.00000  -0.00151  -0.00157   2.53694
   D18        0.00306   0.00262   0.00000   0.00668   0.00665   0.00971
   D19        0.59285   0.00111   0.00000   0.00330   0.00329   0.59614
   D20       -2.58393   0.00357   0.00000   0.01126   0.01124  -2.57269
   D21       -0.57245  -0.00231   0.00000  -0.00650  -0.00651  -0.57896
   D22        2.53395   0.00015   0.00000   0.00145   0.00144   2.53540
   D23       -3.09042  -0.00285   0.00000  -0.01045  -0.01042  -3.10084
   D24        0.01598  -0.00039   0.00000  -0.00249  -0.00247   0.01352
         Item               Value     Threshold  Converged?
 Maximum Force            0.555604     0.000450     NO 
 RMS     Force            0.078205     0.000300     NO 
 Maximum Displacement     0.191319     0.001800     NO 
 RMS     Displacement     0.041120     0.001200     NO 
 Predicted change in Energy=-1.023736D-01
 Lowest energy point so far.  Saving SCF results.
 GradGradGradGradGradGradGradGradGradGradGradGradGradGradGradGradGradGrad

 Leave Link  103 at Thu Aug 26 19:48:24 2021, MaxMem= 24159191040 cpu:         3.3
 (Enter /public/home/users/caep010/software/Gaussian09/g09/l202.exe)
                          Input orientation:                          
 ---------------------------------------------------------------------
 Center     Atomic      Atomic             Coordinates (Angstroms)
 Number     Number       Type             X           Y           Z
 ---------------------------------------------------------------------
      1          6           0        2.841342    3.061753    3.433294
      2          6           0        2.474447    1.730399    2.881018
      3          1           0        2.702169    1.555748    1.921361
      4          1           0        1.701458    1.391644    3.175880
      5          6           0        3.635155    1.833100    3.809596
      6          1           0        4.576426    1.682051    3.381173
      7          7           0        3.540381    4.009757    2.547047
      8          8           0        3.294809    5.191383    2.735010
      9          8           0        4.299270    3.562099    1.702754
     10          1           0        2.218548    3.493813    4.123454
     11          7           0        3.451351    1.354675    5.177329
     12          8           0        2.346495    1.478824    5.689213
     13          8           0        4.421647    0.832055    5.705471
 ---------------------------------------------------------------------
                    Distance matrix (angstroms):
                    1          2          3          4          5
     1  C    0.000000
     2  C    1.487321   0.000000
     3  H    2.138541   1.001649   0.000000
     4  H    2.038347   0.893986   1.613125   0.000000
     5  C    1.510407   1.489982   2.124339   2.082225   0.000000
     6  H    2.217388   2.161205   2.379042   2.896882   1.045157
     7  N    1.474042   2.538350   2.667628   3.260611   2.518104
     8  O    2.286604   3.559877   3.772412   4.143809   3.542406
     9  O    2.317470   2.841375   2.573706   3.691829   2.805222
    10  H    1.025120   2.172271   2.973079   2.363132   2.205278
    11  N    2.515529   2.523599   3.347093   2.658813   1.460605
    12  O    2.799948   2.822343   3.785384   2.596250   2.306321
    13  O    3.554112   3.546287   4.218984   3.756514   2.283639
                    6          7          8          9         10
     6  H    0.000000
     7  N    2.680927   0.000000
     8  O    3.791501   1.221424   0.000000
     9  O    2.535446   1.220304   2.174641   0.000000
    10  H    3.064809   2.120967   2.442921   3.192782   0.000000
    11  N    2.144562   3.738418   4.550798   4.202899   2.684468
    12  O    3.215734   4.207635   4.838359   4.903593   2.555025
    13  O    2.479680   4.566187   5.394178   4.846634   3.800182
                   11         12         13
    11  N    0.000000
    12  O    1.223987   0.000000
    13  O    1.222105   2.173668   0.000000
 Stoichiometry    C3H4N2O4
 Framework group  C1[X(C3H4N2O4)]
 Deg. of freedom    33
 Full point group                 C1      NOp   1
 RotChk:  IX=0 Diff= 1.61D-02
 Largest Abelian subgroup         C1      NOp   1
 Largest concise Abelian subgroup C1      NOp   1
                         Standard orientation:                         
 ---------------------------------------------------------------------
 Center     Atomic      Atomic             Coordinates (Angstroms)
 Number     Number       Type             X           Y           Z
 ---------------------------------------------------------------------
      1          6           0       -0.548889    0.517838    0.222054
      2          6           0        0.010070   -0.033194    1.485404
      3          1           0       -0.557144   -0.688003    1.988191
      4          1           0        0.488087    0.540628    1.976769
      5          6           0        0.551099   -0.516524    0.183971
      6          1           0        0.316179   -1.502959   -0.069233
      7          7           0       -1.872241    0.038674   -0.216055
      8          8           0       -2.560298    0.852590   -0.812709
      9          8           0       -2.186491   -1.111991    0.041546
     10          1           0       -0.338423    1.490768   -0.022858
     11          7           0        1.865564   -0.028418   -0.225056
     12          8           0        2.185088    1.108722    0.095820
     13          8           0        2.569746   -0.814439   -0.841367
 ---------------------------------------------------------------------
 Rotational constants (GHZ):      3.8244419      0.9573891      0.9314148
 Leave Link  202 at Thu Aug 26 19:48:24 2021, MaxMem= 24159191040 cpu:         0.3
 (Enter /public/home/users/caep010/software/Gaussian09/g09/l301.exe)
 Standard basis: GTBas3 (6D, 7F)
 Ernie: Thresh=  0.10000D-02 Tol=  0.10000D-05 Strict=F.
 There are   299 symmetry adapted cartesian basis functions of A   symmetry.
 There are   272 symmetry adapted basis functions of A   symmetry.
   272 basis functions,   424 primitive gaussians,   299 cartesian basis functions
    34 alpha electrons       34 beta electrons
       nuclear repulsion energy       460.7182212753 Hartrees.
 IExCor=  402 DFT=T Ex+Corr=B3LYP ExCW=0 ScaHFX=  0.200000
 ScaDFX=  0.800000  0.720000  1.000000  0.810000 ScalE2=  1.000000  1.000000
 IRadAn=      0 IRanWt=     -1 IRanGd=            0 ICorTp=0 IEmpDi=  4
 NAtoms=   13 NActive=   13 NUniq=   13 SFac= 1.00D+00 NAtFMM=   60 NAOKFM=F Big=F
 Integral buffers will be    131072 words long.
 Raffenetti 2 integral format.
 Two-electron integral symmetry is turned on.
 Leave Link  301 at Thu Aug 26 19:48:24 2021, MaxMem= 24159191040 cpu:         1.9
 (Enter /public/home/users/caep010/software/Gaussian09/g09/l302.exe)
 NPDir=0 NMtPBC=     1 NCelOv=     1 NCel=       1 NClECP=     1 NCelD=      1
         NCelK=      1 NCelE2=     1 NClLst=     1 CellRange=     0.0.
 One-electron integrals computed using PRISM.
 NBasis=   272 RedAO= T EigKep=  3.18D-04  NBF=   272
 NBsUse=   272 1.00D-06 EigRej= -1.00D+00 NBFU=   272
 Precomputing XC quadrature grid using
 IXCGrd= 4 IRadAn=           0 IRanWt=          -1 IRanGd=           0 AccXCQ= 0.00D+00.
 Generated NRdTot=       0 NPtTot=           0 NUsed=           0 NTot=          32
 NSgBfM=   299   299   299   299   299 MxSgAt=    13 MxSgA2=    13.
 Leave Link  302 at Thu Aug 26 19:48:25 2021, MaxMem= 24159191040 cpu:        15.0
 (Enter /public/home/users/caep010/software/Gaussian09/g09/l303.exe)
 DipDrv:  MaxL=1.
 Leave Link  303 at Thu Aug 26 19:48:25 2021, MaxMem= 24159191040 cpu:         0.8
 (Enter /public/home/users/caep010/software/Gaussian09/g09/l401.exe)
 Initial guess from the checkpoint file:  "/public/home/users/caep010/.cache/gau_scr/Gau-135483.chk"
 B after Tr=     0.000000   -0.000000   -0.000000
         Rot=    0.999986    0.005308   -0.000190   -0.000258 Ang=   0.61 deg.
 Guess basis will be translated and rotated to current coordinates.
 JPrj=2 DoOrth=T DoCkMO=T.
 Generating alternative initial guess.
 ExpMin= 1.61D-01 ExpMax= 5.48D+03 ExpMxC= 8.25D+02 IAcc=1 IRadAn=         1 AccDes= 0.00D+00
 Harris functional with IExCor=  402 and IRadAn=       1 diagonalized for initial guess.
 HarFok:  IExCor=  402 AccDes= 0.00D+00 IRadAn=         1 IDoV= 1 UseB2=F ITyADJ=14
 ICtDFT=  3500011 ScaDFX=  1.000000  1.000000  1.000000  1.000000
 FoFCou: FMM=F IPFlag=           0 FMFlag=      100000 FMFlg1=           0
         NFxFlg=           0 DoJE=T BraDBF=F KetDBF=T FulRan=T
         wScrn=  0.000000 ICntrl=     500 IOpCl=  0 I1Cent=   200000004 NGrid=           0
         NMat0=    1 NMatS0=      1 NMatT0=    0 NMatD0=    1 NMtDS0=    0 NMtDT0=    0
 Petite list used in FoFCou.
 Harris En= -526.956298632100    
 Leave Link  401 at Thu Aug 26 19:48:26 2021, MaxMem= 24159191040 cpu:        20.0
 (Enter /public/home/users/caep010/software/Gaussian09/g09/l502.exe)
 Closed shell SCF:
 Using DIIS extrapolation, IDIIS=  1040.
 Integral symmetry usage will be decided dynamically.
 Keep R1 ints in memory in canonical form, NReq=703061085.
 IVT=      298479 IEndB=      298479 NGot= 24159191040 MDV= 23469629806
 LenX= 23469629806 LenY= 23469539964
 Requested convergence on RMS density matrix=1.00D-08 within 128 cycles.
 Requested convergence on MAX density matrix=1.00D-06.
 Requested convergence on             energy=1.00D-06.
 No special actions if energy rises.
 FoFCou: FMM=F IPFlag=           0 FMFlag=           0 FMFlg1=           0
         NFxFlg=           0 DoJE=F BraDBF=F KetDBF=F FulRan=T
         wScrn=  0.000000 ICntrl=     600 IOpCl=  0 I1Cent=           0 NGrid=           0
         NMat0=    1 NMatS0=  37128 NMatT0=    0 NMatD0=    1 NMtDS0=    0 NMtDT0=    0
 Symmetry not used in FoFCou.
 Integral accuracy reduced to 1.0D-05 until final iterations.

 Cycle   1  Pass 0  IDiag  1:
 E= -526.882915273097    
 DIIS: error= 7.07D-03 at cycle   1 NSaved=   1.
 NSaved= 1 IEnMin= 1 EnMin= -526.882915273097     IErMin= 1 ErrMin= 7.07D-03
 ErrMax= 7.07D-03  0.00D+00 EMaxC= 1.00D-01 BMatC= 6.83D-03 BMatP= 6.83D-03
 IDIUse=3 WtCom= 9.29D-01 WtEn= 7.07D-02
 Coeff-Com:  0.100D+01
 Coeff-En:   0.100D+01
 Coeff:      0.100D+01
 Gap=     1.110 Goal=   None    Shift=    0.000
 GapD=    1.110 DampG=2.000 DampE=1.000 DampFc=2.0000 IDamp=-1.
 RMSDP=5.81D-04 MaxDP=2.61D-02              OVMax= 2.67D-02

 Cycle   2  Pass 0  IDiag  1:
 E= -526.887361588007     Delta-E=       -0.004446314910 Rises=F Damp=F
 DIIS: error= 2.73D-03 at cycle   2 NSaved=   2.
 NSaved= 2 IEnMin= 2 EnMin= -526.887361588007     IErMin= 2 ErrMin= 2.73D-03
 ErrMax= 2.73D-03  0.00D+00 EMaxC= 1.00D-01 BMatC= 1.39D-03 BMatP= 6.83D-03
 IDIUse=3 WtCom= 9.73D-01 WtEn= 2.73D-02
 Coeff-Com:  0.248D+00 0.752D+00
 Coeff-En:   0.000D+00 0.100D+01
 Coeff:      0.241D+00 0.759D+00
 Gap=     0.211 Goal=   None    Shift=    0.000
 RMSDP=2.48D-04 MaxDP=1.49D-02 DE=-4.45D-03 OVMax= 2.09D-02

 Cycle   3  Pass 0  IDiag  1:
 E= -526.887770700322     Delta-E=       -0.000409112316 Rises=F Damp=F
 DIIS: error= 1.76D-03 at cycle   3 NSaved=   3.
 NSaved= 3 IEnMin= 3 EnMin= -526.887770700322     IErMin= 3 ErrMin= 1.76D-03
 ErrMax= 1.76D-03  0.00D+00 EMaxC= 1.00D-01 BMatC= 1.13D-03 BMatP= 1.39D-03
 IDIUse=3 WtCom= 9.82D-01 WtEn= 1.76D-02
 Coeff-Com:  0.457D-01 0.470D+00 0.484D+00
 Coeff-En:   0.000D+00 0.425D+00 0.575D+00
 Coeff:      0.449D-01 0.469D+00 0.486D+00
 Gap=     0.212 Goal=   None    Shift=    0.000
 RMSDP=1.43D-04 MaxDP=5.83D-03 DE=-4.09D-04 OVMax= 1.14D-02

 Cycle   4  Pass 0  IDiag  1:
 E= -526.888585865450     Delta-E=       -0.000815165128 Rises=F Damp=F
 DIIS: error= 6.84D-04 at cycle   4 NSaved=   4.
 NSaved= 4 IEnMin= 4 EnMin= -526.888585865450     IErMin= 4 ErrMin= 6.84D-04
 ErrMax= 6.84D-04  0.00D+00 EMaxC= 1.00D-01 BMatC= 2.76D-04 BMatP= 1.13D-03
 IDIUse=3 WtCom= 9.93D-01 WtEn= 6.84D-03
 Coeff-Com:  0.161D-01 0.298D+00 0.362D+00 0.324D+00
 Coeff-En:   0.000D+00 0.000D+00 0.132D+00 0.868D+00
 Coeff:      0.160D-01 0.296D+00 0.360D+00 0.328D+00
 Gap=     0.212 Goal=   None    Shift=    0.000
 RMSDP=5.71D-05 MaxDP=2.71D-03 DE=-8.15D-04 OVMax= 6.03D-03

 Cycle   5  Pass 0  IDiag  1:
[...]
 Alpha virt. eigenvalues --   17.02997  17.16460  17.19189  17.20279  17.36105
 Alpha virt. eigenvalues --   17.43071  17.47268  17.48954  17.59567  17.69334
 Alpha virt. eigenvalues --   17.75629  17.83534  17.84094  18.00637  18.10224
 Alpha virt. eigenvalues --   18.15049  18.17993  18.38438  18.38478  18.42687
 Alpha virt. eigenvalues --   18.43738  18.49418  18.49727  18.51039  18.51118
 Alpha virt. eigenvalues --   18.51962  18.53134  18.53254  18.53885  18.55092
 Alpha virt. eigenvalues --   18.56542  18.68251  18.69244  18.71689  18.72647
 Alpha virt. eigenvalues --   18.76869  18.77074  18.77192  18.77903  18.94834
 Alpha virt. eigenvalues --   18.95694  19.03948  19.04120  19.07042  19.08157
 Alpha virt. eigenvalues --   19.11452  19.13822  19.14243  19.17790  19.24268
 Alpha virt. eigenvalues --   19.24628  19.25641  19.25905  19.27707  19.29207
 Alpha virt. eigenvalues --   19.33823  19.34944  19.36587  19.39115  19.47548
 Alpha virt. eigenvalues --   19.49526  19.50607  19.52152  19.61646  19.62325
 Alpha virt. eigenvalues --   19.62599  19.63189  19.66665  19.67844  19.70737
 Alpha virt. eigenvalues --   19.70887  19.71902  19.71953  19.86346  19.88101
 Alpha virt. eigenvalues --   19.94788  19.97552  20.09856  20.11459  20.36426
 Alpha virt. eigenvalues --   20.37107  21.52132  21.52446  21.60217  21.60236
 Alpha virt. eigenvalues --   22.06977  22.08043  22.12191  22.12495  22.14242
 Alpha virt. eigenvalues --   22.15047  22.21570  22.22996  22.24491  22.24696
 Alpha virt. eigenvalues --   22.33128  22.33942  22.81648  22.82218  23.28856
 Alpha virt. eigenvalues --   23.29477  23.32374  23.32952  23.50060  23.50095
 Alpha virt. eigenvalues --   23.52712  23.53360  23.69910  23.70042  24.56355
 Alpha virt. eigenvalues --   24.57484  24.63400  24.64592  39.76546  40.78216
 Alpha virt. eigenvalues --   40.85727  52.80988  52.85157  64.11020  64.11592
 Alpha virt. eigenvalues --   64.23924  64.24629
          Condensed to atoms (all electrons):
               1          2          3          4          5          6
     1  C    4.944205   0.309600  -0.024839   0.001650   0.228327  -0.002783
     2  C    0.309600   4.993146   0.399034   0.399050   0.309704  -0.005758
     3  H   -0.024839   0.399034   0.400770  -0.014876   0.001631  -0.004241
     4  H    0.001650   0.399050  -0.014876   0.400759  -0.024877   0.001453
     5  C    0.228327   0.309704   0.001631  -0.024877   4.944295   0.376151
     6  H   -0.002783  -0.005758  -0.004241   0.001453   0.376151   0.369500
     7  N    0.323482  -0.008288  -0.006759   0.001468  -0.031593  -0.002439
     8  O   -0.041348   0.000431   0.001034  -0.000275   0.000135   0.000517
     9  O   -0.045211  -0.015464  -0.001622   0.001227   0.017660  -0.003111
    10  H    0.376133  -0.005779   0.001453  -0.004240  -0.002766   0.001234
    11  N   -0.031598  -0.008315   0.001473  -0.006769   0.323545  -0.020395
    12  O    0.017710  -0.015484   0.001225  -0.001611  -0.045265   0.006711
    13  O    0.000120   0.000447  -0.000275   0.001034  -0.041375  -0.002706
               7          8          9         10         11         12
     1  C    0.323482  -0.041348  -0.045211   0.376133  -0.031598   0.017710
     2  C   -0.008288   0.000431  -0.015464  -0.005779  -0.008315  -0.015484
     3  H   -0.006759   0.001034  -0.001622   0.001453   0.001473   0.001225
     4  H    0.001468  -0.000275   0.001227  -0.004240  -0.006769  -0.001611
     5  C   -0.031593   0.000135   0.017660  -0.002766   0.323545  -0.045265
     6  H   -0.002439   0.000517  -0.003111   0.001234  -0.020395   0.006711
     7  N    5.600850   0.330785   0.277215  -0.020394   0.009705  -0.001793
     8  O    0.330785   8.197484  -0.084980  -0.002712  -0.001638   0.000136
     9  O    0.277215  -0.084980   8.280012   0.006716  -0.001792  -0.001023
    10  H   -0.020394  -0.002712   0.006716   0.369518  -0.002441  -0.003119
    11  N    0.009705  -0.001638  -0.001792  -0.002441   5.600782   0.277223
    12  O   -0.001793   0.000136  -0.001023  -0.003119   0.277223   8.280039
    13  O   -0.001639   0.000300   0.000136   0.000518   0.330765  -0.084979
              13
     1  C    0.000120
     2  C    0.000447
     3  H   -0.000275
     4  H    0.001034
     5  C   -0.041375
     6  H   -0.002706
     7  N   -0.001639
     8  O    0.000300
     9  O    0.000136
    10  H    0.000518
    11  N    0.330765
    12  O   -0.084979
    13  O    8.197506
 Mulliken charges:
               1
     1  C   -0.055448
     2  C   -0.352326
     3  H    0.245993
     4  H    0.246007
     5  C   -0.055572
     6  H    0.285867
     7  N    0.529399
     8  O   -0.399869
     9  O   -0.429762
    10  H    0.285879
    11  N    0.529454
    12  O   -0.429771
    13  O   -0.399852
 Sum of Mulliken charges =  -0.00000
 Mulliken charges with hydrogens summed into heavy atoms:
               1
     1  C    0.230431
     2  C    0.139675
     5  C    0.230294
     7  N    0.529399
     8  O   -0.399869
     9  O   -0.429762
    11  N    0.529454
    12  O   -0.429771
    13  O   -0.399852
 Electronic spatial extent (au):  <R**2>=           1238.6606
 Charge=             -0.0000 electrons
 Dipole moment (field-independent basis, Debye):
    X=              0.0001    Y=             -0.0005    Z=              2.8285  Tot=              2.8285
 Quadrupole moment (field-independent basis, Debye-Ang):
   XX=            -70.7642   YY=            -53.0603   ZZ=            -47.8699
   XY=             -1.9223   XZ=              0.0007   YZ=             -0.0001
 Traceless Quadrupole moment (field-independent basis, Debye-Ang):
   XX=            -13.5327   YY=              4.1712   ZZ=              9.3615
   XY=             -1.9223   XZ=              0.0007   YZ=             -0.0001
 Octapole moment (field-independent basis, Debye-Ang**2):
  XXX=              0.0003  YYY=             -0.0023  ZZZ=              2.9168  XYY=              0.0010
  XXY=             -0.0001  XXZ=             13.6251  XZZ=             -0.0005  YZZ=             -0.0008
  YYZ=              0.0683  XYZ=             -4.8412
 Hexadecapole moment (field-independent basis, Debye-Ang**3):
 XXXX=          -1197.9047 YYYY=           -202.9180 ZZZZ=           -183.4341 XXXY=             -2.8824
 XXXZ=              0.0056 YYYX=             -3.4702 YYYZ=              0.0018 ZZZX=              0.0027
 ZZZY=             -0.0033 XXYY=           -240.0713 XXZZ=           -213.9567 YYZZ=            -66.7600
 XXYZ=             -0.0005 YYXZ=             -0.0016 ZZXY=              8.4411
 N-N= 4.574445580396D+02 E-N=-2.147732025699D+03  KE= 5.233871243288D+02
 No NMR shielding tensors so no spin-rotation constants.
 Leave Link  601 at Thu Aug 26 20:55:07 2021, MaxMem= 24159191040 cpu:        36.0
 (Enter /public/home/users/caep010/software/Gaussian09/g09/l9999.exe)
 1\1\GINC-B1548\SP\RHF\GFHFB2\C3H4N2O4\ROOT\26-Aug-2021\0\\#P Geom=AllC
 heck Guess=TCheck SCRF=Check HF/GFHFB2 SCF=Tight\\FOHMUK\\0,1\C,0,2.85
 46368456,3.0648725227,3.4227285001\C,0,2.4721003689,1.7322432435,2.855
 8658083\H,0,2.7223634355,1.5450228549,1.8188131706\H,0,1.5557459546,1.
 3029539253,3.241424512\C,0,3.6330475945,1.8263546768,3.7976823411\H,0,
 4.6466017571,1.7052510367,3.4469165412\N,0,3.5473617028,4.0256915209,2
 .5413833054\O,0,3.3055962233,5.2046770045,2.7331905528\O,0,4.300769919
 9,3.5707273964,1.6909025832\H,0,2.2385233952,3.5529806014,4.162115966\
 N,0,3.4520785553,1.338986112,5.1797388415\O,0,2.3437469658,1.465833370
 5,5.6831443303\O,0,4.4309272816,0.8417057345,5.7086935477\\Version=ES6
 4L-G09RevE.01\State=1-A\HF=-524.2380346\RMSD=9.634e-09\Dipole=-0.66356
 93,-0.6138713,-0.6490041\Quadrupole=4.3562974,-1.3557504,-3.000547,0.1
 047664,2.5639551,7.7584012\PG=C01 [X(C3H4N2O4)]\\@


 A MAN THINKING OR WORKING IS ALWAYS ALONE, 
 LET HIM BE WHERE HE WILL.

                                    -- THOREAU
 Diagonal vibrational polarizability:
        0.0000000       0.0000000       0.0000000

 Temperature=              298.150000 Pressure=                      1.000000
 E(ZPE)=                     0.086068 E(Thermal)=                    0.093919
 E(CCSD(T))=              -525.528910 E(Empiric)=                   -0.173675
 DE(Plus)=                  -0.040874 DE(2DF)=                      -0.370218
 E(Delta-G3XP)=             -0.620530 DE(HF)=                       -0.053743
 G4(0 K)=                 -526.701882 G4 Energy=                  -526.694031
 G4 Enthalpy=             -526.693087 G4 Free Energy=             -526.735579
 1\1\GINC-B1548\Mixed\G4\G4\C3H4N2O4\ROOT\26-Aug-2021\0\\#P Geom=AllChe
 ck Guess=TCheck SCRF=Check HF/GFHFB2 SCF=Tight\\FOHMUK\\0,1\C,0,2.8546
 368456,3.0648725227,3.4227285001\C,0,2.4721003689,1.7322432435,2.85586
 58083\H,0,2.7223634355,1.5450228549,1.8188131706\H,0,1.5557459546,1.30
 29539253,3.241424512\C,0,3.6330475945,1.8263546768,3.7976823411\H,0,4.
 6466017571,1.7052510367,3.4469165412\N,0,3.5473617028,4.0256915209,2.5
 413833054\O,0,3.3055962233,5.2046770045,2.7331905528\O,0,4.3007699199,
 3.5707273964,1.6909025832\H,0,2.2385233952,3.5529806014,4.162115966\N,
 0,3.4520785553,1.338986112,5.1797388415\O,0,2.3437469658,1.4658333705,
 5.6831443303\O,0,4.4309272816,0.8417057345,5.7086935477\\Version=ES64L
 -G09RevE.01\State=1-A\MP2/GTBas1=-525.4624629\MP4/GTBas1=-525.5482651\
 CCSD(T)/G3Bas1=-525.5289102\MP2/GTBas2=-525.5000559\MP4/GTBas2=-525.58
 91395\MP2/GTBas3=-525.8100839\MP4/GTBas3=-525.9184832\HF/GTLargeXP=-52
 4.1864058\MP2/GTLargeXP=-526.4682068\HF/GFHFB1=-524.2293599\HF/GFHFB2=
 -524.2380346\G4=-526.7018823\FreqCoord=5.394481847,5.7917697,6.4680194
 924,4.6715926702,3.2734653257,5.3968042499,5.1445213272,2.9196700648,3
 .4370587793,2.9399337864,2.4622260827,6.125404608,6.8654649814,3.45131
 01607,7.1765795644,8.7808047695,3.2224574471,6.5137282658,6.7035421125
 ,7.6074544699,4.8025184458,6.2466715679,9.8354141486,5.1649816137,8.12
 72773091,6.7476968745,3.1953427996,4.230196159,6.714160292,7.865259309
 1,6.5234830587,2.5303170473,9.7882878502,4.4290398902,2.7700236266,10.
 7395863578,8.373239077,1.5905933228,10.7878673818\PG=C01 [X(C3H4N2O4)]
 \NImag=0\\0.38873957,-0.08992833,0.57763734,-0.19082777,0.09341502,0.4
 6521137,-0.05296624,-0.07260385,0.00809857,0.54286695,-0.02683039,-0.1
 6312838,-0.05283412,0.17163104,0.34692780,0.00774231,-0.08640568,-0.08
 527180,-0.08685598,0.07960772,0.62966518,-0.00402868,0.00079372,0.0009
 5250,-0.06146189,0.00784653,0.07401119,0.06247594,0.00744527,-0.009048
 83,-0.02990988,0.00663578,-0.04701444,-0.04836258,-0.00912252,0.050318
 16,-0.00174309,-0.00052350,-0.00149147,0.06955070,-0.05153372,-0.31879
 642,-0.07087058,0.05543340,0.33676276,0.00348505,0.00122887,-0.0045329
 6,-0.25724740,-0.10366533,0.09276631,-0.00083581,-0.00035980,-0.000883
 31,0.27283081,-0.02693994,-0.01273720,0.01164046,-0.10262807,-0.083632
 97,0.03910745,0.00695686,0.00316640,-0.00151825,0.11017887,0.09097165,
 -0.00532652,-0.00461660,-0.00031137,0.09739619,0.04212411,-0.08676890,
 0.02099845,0.01156865,-0.00300410,-0.09656107,-0.04179188,0.08613191,-
 0.08847796,0.09910163,0.00875351,-0.16430344,-0.04040055,-0.06844588,0
 .00469641,-0.00623703,0.00303169,-0.02032736,0.01230067,-0.01668856,0.
 70341742,0.05752502,-0.12796897,0.01348510,-0.00262248,-0.01583971,0.0
 1214606,-0.00446026,0.00011558,-0.00354319,-0.00775636,0.00146541,-0.0
 0797084,-0.10141028,0.28716118,0.01466453,0.05959162,-0.05114945,-0.06
 127911,-0.02960515,-0.12116708,-0.02608440,0.01084483,-0.01438754,0.00
 587671,-0.00589597,0.00427894,-0.04911752,-0.07165507,0.44035492,-0.00
 290445,-0.00147231,-0.00110602,-0.01182555,0.00307892,0.00445264,0.001
 16513,-0.00086662,0.00074951,-0.00084002,0.00165652,-0.00097377,-0.320
 37028,0.03576284,0.09879632,0.33331318,0.02480050,-0.00500945,-0.00948
 033,-0.01307506,-0.00004918,0.00769632,0.00179706,-0.00019121,0.001015
 24,-0.00234001,0.00104652,-0.00165785,0.03676952,-0.04152739,-0.010448
 32,-0.03788252,0.04387465,-0.00123493,-0.00146619,-0.00119080,-0.01837
 453,0.00187656,0.00712282,0.00082690,-0.00124970,0.00128791,-0.0024896
 2,0.00221335,-0.00201318,0.08940596,-0.00682963,-0.07560137,-0.0985219
 0,0.00729587,0.08534357,-0.10392805,-0.00814782,0.01705674,-0.01192684
 ,-0.01898084,0.01450405,0.00130085,0.00646429,0.00146221,0.00128422,-0
 .00308011,0.00075163,0.01774686,0.00504540,-0.02283423,-0.00070189,0.0
 0192727,-0.00073623,0.48812565,-0.02176047,-0.08829410,0.02516675,-0.0
 0375401,-0.02620061,0.01165888,-0.00138211,0.00202797,-0.00078168,0.00
 165871,-0.00033953,0.00018878,-0.00704733,-0.02677399,0.00630983,0.001
 23435,0.00178474,0.00050350,-0.12545357,0.85798820,0.01788282,0.006499
 96,-0.11578217,-0.01572083,0.00295999,0.01856080,-0.00049102,-0.002604
 31,-0.00115211,0.00170382,-0.00653768,-0.00320861,0.00812135,0.0180565
 0,-0.00900102,0.00163372,-0.00563392,0.00208846,-0.27019286,0.10163174
 ,0.56447826,0.01990613,-0.01214792,0.00696700,0.00185170,-0.00062836,-
 0.00131095,-0.00059140,-0.00100316,-0.00025955,-0.00018266,0.00045736,
 -0.00017961,-0.00277769,-0.00230085,0.00346539,0.00013220,-0.00021725,
 0.00010318,-0.11118825,0.06607889,0.03418350,0.08892675,0.00102192,-0.
 06500809,0.00537673,-0.00225911,0.00033835,0.00286940,0.00016488,0.000
 64010,0.00032011,0.00074190,-0.00147550,0.00021029,-0.00219175,-0.0003
 5906,0.00256715,-0.00051440,0.00033708,0.00012356,0.07129031,-0.559258
 49,-0.04562293,-0.11378697,0.66821031,0.00620464,0.02258473,0.01722443
 ,0.00180907,0.00096176,-0.00338845,0.00014223,0.00027403,0.00026998,-0
 .00058871,0.00113216,0.00045432,-0.00012070,0.00175261,0.00036404,-0.0
 0044186,0.00071209,-0.00074166,0.03388093,-0.04044676,-0.11559850,-0.0
 6384122,0.08327370,0.09612102,-0.01592591,0.00038908,0.03994125,-0.000
 75752,0.00517515,-0.00052785,-0.00061459,-0.00120421,0.00014602,0.0002
 8735,-0.00001089,0.00011647,-0.00320051,0.00340431,0.00304488,0.000762
 55,-0.00234325,0.00076142,-0.26699850,0.08255934,0.21224723,0.00211256
 ,0.04598756,0.02557174,0.28193858,-0.00777674,0.01744135,0.00869116,-0
 .00249509,-0.00261640,0.00091240,-0.00006708,0.00148416,0.00196150,0.0
 0001547,0.00012761,0.00140488,0.00021252,-0.00253554,0.00218269,-0.001
 63707,0.00104310,0.00033795,0.07908563,-0.17220445,-0.08689387,0.06484
 503,-0.04260944,-0.07044178,-0.12829540,0.20252849,0.03982036,-0.00129
 643,-0.02859772,0.00307707,-0.00377776,-0.00203049,0.00043464,0.002511
 31,0.00044097,-0.00043416,0.00129512,0.00132861,0.00063603,-0.00496212
 ,-0.00203598,0.00014287,0.00137292,-0.00112747,0.21354177,-0.09063073,
 -0.32561630,0.02398885,-0.04850953,0.00280009,-0.28407750,0.13806403,0
 .35568172,-0.14081970,0.07775009,0.12551173,0.01151728,-0.00636806,-0.
 01505734,0.00048779,-0.00409997,-0.00027480,0.00003628,0.00209331,0.00
 007824,-0.01195686,0.00790892,0.01099351,0.00005330,0.00251246,0.00015
 425,-0.00977740,0.00868291,0.00800960,0.00110574,-0.00015472,-0.002045
 63,0.00026415,-0.00239280,0.00303292,0.14878064,0.08597097,-0.11097080
 ,-0.10049818,0.00944813,-0.00792220,-0.00943675,0.00084663,-0.00246693
 ,0.00090406,-0.00038518,0.00149519,-0.00071802,0.00516601,-0.00676559,
 -0.00932239,-0.00067939,-0.00147259,-0.00011123,-0.01366663,0.00935647
 ,0.01590302,-0.00058993,0.00009144,0.00049449,-0.00400642,-0.00241928,
 0.00511836,-0.08284626,0.11874466,0.12615006,-0.09466157,-0.18605884,0
 .00812007,-0.00397486,-0.00837021,0.00034267,-0.00199597,0.00017148,-0
 .00017556,0.00173934,0.00073160,-0.01113314,0.00673135,0.00961341,-0.0
 0013920,0.00273844,-0.00034176,0.00876170,-0.01148285,-0.01250580,-0.0
 0182411,0.00046643,0.00172980,0.00298226,0.00308253,-0.00127249,-0.132
 89921,0.09890589,0.19536595,0.00001909,0.00272002,-0.00846250,0.007899
 38,0.00778695,-0.01842094,-0.00472054,0.00127892,-0.00042850,-0.002280
 29,-0.00127068,-0.00208496,-0.08974185,-0.00576012,0.00862181,-0.00322
 960,-0.01108182,0.02943122,-0.00240043,-0.00015089,0.00219672,0.000181
 86,0.00018759,0.00013535,-0.00050128,-0.00153672,0.00144239,-0.0014042
 8,0.00399701,-0.00126944,0.93435836,-0.00514719,-0.01199856,0.03747844
 ,0.01630754,0.00015473,-0.01708659,-0.00552553,0.00218109,-0.00250056,
 0.00123098,0.00035113,0.00173266,-0.01492572,-0.09189443,0.01114600,0.
 00129882,-0.00070061,-0.00552836,0.00523897,-0.00097318,0.00293978,-0.
 00057683,-0.00045402,-0.00070592,-0.00034520,0.00055695,-0.00045887,-0
 .00158053,0.00169156,-0.00210217,-0.18781947,0.36111789,-0.02055091,0.
 00531194,-0.00604500,-0.01064942,0.01589190,-0.02761283,0.00057403,0.0
 0211128,0.00027545,0.00492880,-0.00191477,0.00410290,0.02933612,0.0065
 2980,-0.12613388,-0.00266121,0.00261480,-0.00901015,0.00917164,0.00411
 993,-0.00364134,-0.00249311,-0.00546437,0.00104228,-0.00123370,-0.0017
 6801,0.00190202,0.00229004,-0.00237453,0.00288279,-0.02612747,-0.13696
 112,0.61493672,-0.00504650,0.00283142,-0.00260388,-0.00450825,0.002334
 78,-0.00304450,0.00202022,0.00053350,-0.00020623,0.00297684,0.00008550
 ,0.00178171,-0.01882969,-0.00274198,0.03383950,0.00211788,-0.00073907,
 0.00223981,0.00041656,0.00036503,0.00002473,-0.00006060,-0.00090519,-0
 .00027847,0.00129042,-0.00040800,-0.00062777,0.00132621,-0.00220012,0.
 00090842,-0.45176740,0.03919064,0.17468672,0.57240918,0.00042962,-0.00
 129223,-0.00115843,-0.00079118,-0.00045917,0.00363833,0.00080308,-0.00
 012238,0.00031055,-0.00008355,-0.00040974,0.00021198,-0.00699677,0.017
 74349,0.00644139,0.00012623,0.00134459,0.00318139,-0.00006615,0.001789
 85,0.00000496,-0.00004595,-0.00002128,0.00011409,-0.00083434,-0.000430
 10,0.00093015,-0.00130683,0.00100202,0.00028556,0.03687519,-0.09343487
 ,0.00406296,-0.07307911,0.05637092,0.00509457,0.00026580,-0.00143764,0
 .00355685,-0.00271347,-0.00043647,0.00006603,0.00072241,-0.00015527,0.
 00057593,0.00065462,-0.00125743,0.04571029,0.00372219,-0.02596872,-0.0
 0015373,0.00368212,-0.00689371,-0.00111777,-0.00296266,-0.00024799,0.0
 0023495,0.00231502,0.00011685,-0.00019595,0.00174699,-0.00053116,0.000
 01472,0.00088574,-0.00164975,0.17887353,0.00187298,-0.21964344,-0.2158
 5747,-0.00740565,0.21138350,0.00194763,-0.00051460,0.00025183,0.000861
 82,-0.00097986,0.00018694,0.00010658,0.00053556,-0.00027407,0.00081299
 ,0.00020060,0.00069181,-0.00587504,0.01740586,-0.01998740,0.00232757,-
 0.00012783,-0.00156554,-0.00195277,-0.00103087,0.00040121,0.00058366,0
 .00041798,-0.00042737,0.00134270,0.00045025,-0.00097746,0.00038685,-0.
 00105483,0.00017547,-0.38641302,0.15265354,-0.15727153,-0.10234488,0.0
 4496975,-0.01680196,0.48821591,0.00118976,0.00037791,-0.00137272,-0.00
 379365,-0.00055781,0.00365504,0.00134876,-0.00108966,0.00045604,-0.000
 46456,-0.00002898,-0.00068617,0.02565908,0.00717902,0.02784339,-0.0001
 0537,-0.00048024,-0.00034706,0.00034325,0.00109713,-0.00070323,-0.0000
 8405,-0.00043141,0.00029479,-0.00047575,-0.00036644,0.00034356,-0.0001
 9853,-0.00036396,0.00026787,0.15477402,-0.16659767,0.10784019,0.034732
 59,0.01791891,-0.00278608,-0.21292556,0.14334319,0.00212391,0.00130088
 ,-0.00509953,0.00127134,0.00101705,-0.00150616,-0.00090264,0.00065653,
 -0.00022162,-0.00018615,-0.00012394,-0.00046470,-0.03948916,0.03253725
 ,-0.02916629,-0.00177738,0.00009262,0.00107733,-0.00424959,-0.00327474
 ,0.00162632,0.00096566,0.00207443,-0.00039419,0.00122373,0.00071954,-0
 .00094181,0.00019196,0.00024955,-0.00029616,-0.16390721,0.11017375,-0.
 23305551,0.00913743,-0.01061729,0.04672124,0.19559809,-0.13480562,0.22
 172107\\-0.00015671,0.00010912,0.00022061,-0.00012767,0.00003397,0.000
 11436,0.00008348,-0.00003406,-0.00020444,-0.00003548,-0.00002894,0.000
 05345,0.00016004,0.00002347,-0.00017259,-0.00007593,0.00000773,0.00010
 557,-0.00001525,0.00003010,0.00000579,-0.00000055,-0.00000410,0.000000
 26,0.00000297,-0.00000971,-0.00000549,0.00016485,-0.00008858,-0.000182
 08,0.00000471,-0.00005247,0.00007113,-0.00000515,0.00000514,0.00000045
 ,0.00000070,0.00000833,-0.00000700\\\@
 Job cpu time:       0 days  7 hours 16 minutes  3.3 seconds.
 File lengths (MBytes):  RWF=  23549 Int=      0 D2E=      0 Chk=     60 Scr=      1
 Normal termination of Gaussian 09 at Thu Aug 26 20:55:07 2021.
