 Entering Gaussian System, Link 0=g09
 Input=G4.GIZSOX.gjf
 Output=G4.GIZSOX.log
 Initial command:
 /public/home/users/caep010/software/Gaussian09/g09/l1.exe "/public/home/users/caep010/.cache/gau_scr/Gau-132225.inp" -scrdir="/public/home/users/caep010/.cache/gau_scr/"
 Entering Link 1 = /public/home/users/caep010/software/Gaussian09/g09/l1.exe PID=    132226.
  
 Copyright (c) 1988,1990,1992,1993,1995,1998,2003,2009,2015,
            Gaussian, Inc.  All Rights Reserved.
  
 This is part of the Gaussian(R) 09 program.  It is based on
 the Gaussian(R) 03 system (copyright 2003, Gaussian, Inc.),
 the Gaussian(R) 98 system (copyright 1998, Gaussian, Inc.),
 the Gaussian(R) 94 system (copyright 1995, Gaussian, Inc.),
 the Gaussian 92(TM) system (copyright 1992, Gaussian, Inc.),
 the Gaussian 90(TM) system (copyright 1990, Gaussian, Inc.),
 the Gaussian 88(TM) system (copyright 1988, Gaussian, Inc.),
 the Gaussian 86(TM) system (copyright 1986, Carnegie Mellon
 University), and the Gaussian 82(TM) system (copyright 1983,
 Carnegie Mellon University). Gaussian is a federally registered
 trademark of Gaussian, Inc.
  
 This software contains proprietary and confidential information,
 including trade secrets, belonging to Gaussian, Inc.
  
 This software is provided under written license and may be
 used, copied, transmitted, or stored only in accord with that
 written license.
  
 The following legend is applicable only to US Government
 contracts under FAR:
  
                    RESTRICTED RIGHTS LEGEND
  
 Use, reproduction and disclosure by the US Government is
 subject to restrictions as set forth in subparagraphs (a)
 and (c) of the Commercial Computer Software - Restricted
 Rights clause in FAR 52.227-19.
  
 Gaussian, Inc.
 340 Quinnipiac St., Bldg. 40, Wallingford CT 06492
  
  
 ---------------------------------------------------------------
 Warning -- This program may not be used in any manner that
 competes with the business of Gaussian, Inc. or will provide
 assistance to any competitor of Gaussian, Inc.  The licensee
 of this program is prohibited from giving any competitor of
 Gaussian, Inc. access to this program.  By using this program,
 the user acknowledges that Gaussian, Inc. is engaged in the
 business of creating and licensing software in the field of
 computational chemistry and represents and warrants to the
 licensee that it is not a competitor of Gaussian, Inc. and that
 it will not use this program in any manner prohibited above.
 ---------------------------------------------------------------
  

 Cite this work as:
 Gaussian 09, Revision E.01,
 M. J. Frisch, G. W. Trucks, H. B. Schlegel, G. E. Scuseria, 
 M. A. Robb, J. R. Cheeseman, G. Scalmani, V. Barone, B. Mennucci, 
 G. A. Petersson, H. Nakatsuji, M. Caricato, X. Li, H. P. Hratchian, 
 A. F. Izmaylov, J. Bloino, G. Zheng, J. L. Sonnenberg, M. Hada, 
 M. Ehara, K. Toyota, R. Fukuda, J. Hasegawa, M. Ishida, T. Nakajima, 
 Y. Honda, O. Kitao, H. Nakai, T. Vreven, J. A. Montgomery, Jr., 
 J. E. Peralta, F. Ogliaro, M. Bearpark, J. J. Heyd, E. Brothers, 
 K. N. Kudin, V. N. Staroverov, T. Keith, R. Kobayashi, J. Normand, 
 K. Raghavachari, A. Rendell, J. C. Burant, S. S. Iyengar, J. Tomasi, 
 M. Cossi, N. Rega, J. M. Millam, M. Klene, J. E. Knox, J. B. Cross, 
 V. Bakken, C. Adamo, J. Jaramillo, R. Gomperts, R. E. Stratmann, 
 O. Yazyev, A. J. Austin, R. Cammi, C. Pomelli, J. W. Ochterski, 
 R. L. Martin, K. Morokuma, V. G. Zakrzewski, G. A. Voth, 
 P. Salvador, J. J. Dannenberg, S. Dapprich, A. D. Daniels, 
 O. Farkas, J. B. Foresman, J. V. Ortiz, J. Cioslowski, 
 and D. J. Fox, Gaussian, Inc., Wallingford CT, 2013.
 
 ******************************************
 Gaussian 09:  ES64L-G09RevE.01 30-Nov-2015
                26-Aug-2021 
 ******************************************
 %nproc=32
 Will use up to   32 processors via shared memory.
 %mem=180GB
 ----------------
 #P G4 OPT=calcfc
 ----------------
 1/10=4,14=-1,18=20,19=15,26=3,38=1/1,3;
 2/9=110,12=2,17=6,18=5,40=1/2;
 3/5=35,7=104,11=2,16=1,25=1,30=1,71=2,74=-5,140=1/1,2,3;
 4//1;
 5/5=2,38=5/2;
 8/6=4,10=90,11=11/1;
 11/6=1,8=1,9=11,15=111,16=1/1,2,10;
 10/6=1,13=1/2;
 6/7=2,8=2,9=2,10=2,28=1/1;
 7/10=1,18=20,25=1/1,2,3,16;
 1/10=4,14=-1,18=20,19=15,26=3/3(2);
 2/9=110/2;
 99//99;
 2/9=110/2;
 3/5=35,7=104,11=2,16=1,25=1,30=1,71=1,74=-5/1,2,3;
 4/5=5,16=3,69=1/1;
 5/5=2,38=5/2;
 7//1,2,3,16;
 1/14=-1,18=20,19=15,26=3/3(-5);
 2/9=110/2;
 6/7=2,8=2,9=2,10=2,19=2,28=1/1;
 99/9=1/99;
 Leave Link    1 at Thu Aug 26 19:58:35 2021, MaxMem= 24159191040 cpu:         4.7
 (Enter /public/home/users/caep010/software/Gaussian09/g09/l101.exe)
 ------
 GIZSOX
 ------
 Symbolic Z-matrix:
 Charge =  0 Multiplicity = 1
 C                     3.1078    9.3386    13.5384 
 C                     2.1783    10.0801   14.4147 
 N                     3.1603    9.8998    12.1291 
 N                     2.6613    7.892     13.3183 
 O                     3.1764    7.2741    12.3942 
 N                     1.1213    10.6073   13.948 
 O                     2.1665    9.7649    11.4384 
 C                     2.7534    10.1277   15.8133 
 O                     1.8848    7.4373    14.115 
 O                     4.1681    10.4984   11.7804 
 C                     4.0085    9.2627    15.7364 
 O                     0.4209    11.3306   14.9145 
 C                     4.4251    9.3216    14.2741 
 H                     3.7568    8.316     16.0122 
 H                     2.959     11.0143   15.8822 
 H                     4.6575    9.7445    16.3144 
 H                    -0.332     11.4168   14.5234 
 H                     4.9209    8.6119    14.0315 
 H                     2.0508    9.6923    16.4709 
 H                     4.7581    10.4474   13.9082 
 
 NAtoms=     20 NQM=       20 NQMF=       0 NMMI=      0 NMMIF=      0
                NMic=       0 NMicF=      0.
                    Isotopes and Nuclear Properties:
 (Nuclear quadrupole moments (NQMom) in fm**2, nuclear magnetic moments (NMagM)
  in nuclear magnetons)

  Atom         1           2           3           4           5           6           7           8           9          10
 IAtWgt=          12          12          14          14          16          14          16          12          16          16
 AtmWgt=  12.0000000  12.0000000  14.0030740  14.0030740  15.9949146  14.0030740  15.9949146  12.0000000  15.9949146  15.9949146
 NucSpn=           0           0           2           2           0           2           0           0           0           0
 AtZEff=   0.0000000   0.0000000   0.0000000   0.0000000   0.0000000   0.0000000   0.0000000   0.0000000   0.0000000   0.0000000
 NQMom=    0.0000000   0.0000000   2.0440000   2.0440000   0.0000000   2.0440000   0.0000000   0.0000000   0.0000000   0.0000000
 NMagM=    0.0000000   0.0000000   0.4037610   0.4037610   0.0000000   0.4037610   0.0000000   0.0000000   0.0000000   0.0000000
 AtZNuc=   6.0000000   6.0000000   7.0000000   7.0000000   8.0000000   7.0000000   8.0000000   6.0000000   8.0000000   8.0000000

  Atom        11          12          13          14          15          16          17          18          19          20
 IAtWgt=          12          16          12           1           1           1           1           1           1           1
 AtmWgt=  12.0000000  15.9949146  12.0000000   1.0078250   1.0078250   1.0078250   1.0078250   1.0078250   1.0078250   1.0078250
 NucSpn=           0           0           0           1           1           1           1           1           1           1
 AtZEff=   0.0000000   0.0000000   0.0000000   0.0000000   0.0000000   0.0000000   0.0000000   0.0000000   0.0000000   0.0000000
 NQMom=    0.0000000   0.0000000   0.0000000   0.0000000   0.0000000   0.0000000   0.0000000   0.0000000   0.0000000   0.0000000
 NMagM=    0.0000000   0.0000000   0.0000000   2.7928460   2.7928460   2.7928460   2.7928460   2.7928460   2.7928460   2.7928460
 AtZNuc=   6.0000000   8.0000000   6.0000000   1.0000000   1.0000000   1.0000000   1.0000000   1.0000000   1.0000000   1.0000000
 Leave Link  101 at Thu Aug 26 19:58:35 2021, MaxMem= 24159191040 cpu:        10.5
 (Enter /public/home/users/caep010/software/Gaussian09/g09/l103.exe)

 GradGradGradGradGradGradGradGradGradGradGradGradGradGradGradGradGradGrad
 Berny optimization.
 Initialization pass.
                           ----------------------------
                           !    Initial Parameters    !
                           ! (Angstroms and Degrees)  !
 --------------------------                            --------------------------
 ! Name  Definition              Value          Derivative Info.                !
 --------------------------------------------------------------------------------
 ! R1    R(1,2)                  1.4771         calculate D2E/DX2 analytically  !
 ! R2    R(1,3)                  1.5178         calculate D2E/DX2 analytically  !
 ! R3    R(1,4)                  1.5299         calculate D2E/DX2 analytically  !
 ! R4    R(1,13)                 1.5089         calculate D2E/DX2 analytically  !
 ! R5    R(2,6)                  1.27           calculate D2E/DX2 analytically  !
 ! R6    R(2,8)                  1.513          calculate D2E/DX2 analytically  !
 ! R7    R(3,7)                  1.2177         calculate D2E/DX2 analytically  !
 ! R8    R(3,10)                 1.2229         calculate D2E/DX2 analytically  !
 ! R9    R(4,5)                  1.2252         calculate D2E/DX2 analytically  !
 ! R10   R(4,9)                  1.2018         calculate D2E/DX2 analytically  !
 ! R11   R(6,12)                 1.3957         calculate D2E/DX2 analytically  !
 ! R12   R(8,11)                 1.5262         calculate D2E/DX2 analytically  !
 ! R13   R(8,15)                 0.9127         calculate D2E/DX2 analytically  !
 ! R14   R(8,19)                 1.0562         calculate D2E/DX2 analytically  !
 ! R15   R(11,13)                1.5216         calculate D2E/DX2 analytically  !
 ! R16   R(11,14)                1.0177         calculate D2E/DX2 analytically  !
 ! R17   R(11,16)                0.9937         calculate D2E/DX2 analytically  !
 ! R18   R(12,17)                0.8528         calculate D2E/DX2 analytically  !
 ! R19   R(13,18)                0.8991         calculate D2E/DX2 analytically  !
 ! R20   R(13,20)                1.2297         calculate D2E/DX2 analytically  !
 ! A1    A(2,1,3)              112.7683         calculate D2E/DX2 analytically  !
 ! A2    A(2,1,4)              112.1098         calculate D2E/DX2 analytically  !
 ! A3    A(2,1,13)             105.4129         calculate D2E/DX2 analytically  !
 ! A4    A(3,1,4)              103.0692         calculate D2E/DX2 analytically  !
 ! A5    A(3,1,13)             115.2566         calculate D2E/DX2 analytically  !
 ! A6    A(4,1,13)             108.3179         calculate D2E/DX2 analytically  !
 ! A7    A(1,2,6)              120.9381         calculate D2E/DX2 analytically  !
 ! A8    A(1,2,8)              108.9667         calculate D2E/DX2 analytically  !
 ! A9    A(6,2,8)              130.0146         calculate D2E/DX2 analytically  !
 ! A10   A(1,3,7)              117.2227         calculate D2E/DX2 analytically  !
 ! A11   A(1,3,10)             118.309          calculate D2E/DX2 analytically  !
 ! A12   A(7,3,10)             124.4043         calculate D2E/DX2 analytically  !
 ! A13   A(1,4,5)              117.5611         calculate D2E/DX2 analytically  !
 ! A14   A(1,4,9)              116.804          calculate D2E/DX2 analytically  !
 ! A15   A(5,4,9)              125.508          calculate D2E/DX2 analytically  !
 ! A16   A(2,6,12)             112.2295         calculate D2E/DX2 analytically  !
 ! A17   A(2,8,11)             104.3697         calculate D2E/DX2 analytically  !
 ! A18   A(2,8,15)             100.7174         calculate D2E/DX2 analytically  !
 ! A19   A(2,8,19)             108.0414         calculate D2E/DX2 analytically  !
 ! A20   A(11,8,15)            111.6594         calculate D2E/DX2 analytically  !
 ! A21   A(11,8,19)            110.1671         calculate D2E/DX2 analytically  !
 ! A22   A(15,8,19)            120.2155         calculate D2E/DX2 analytically  !
 ! A23   A(8,11,13)            104.574          calculate D2E/DX2 analytically  !
 ! A24   A(8,11,14)            108.0701         calculate D2E/DX2 analytically  !
 ! A25   A(8,11,16)            103.4732         calculate D2E/DX2 analytically  !
 ! A26   A(13,11,14)           111.3564         calculate D2E/DX2 analytically  !
 ! A27   A(13,11,16)           111.1867         calculate D2E/DX2 analytically  !
 ! A28   A(14,11,16)           117.0613         calculate D2E/DX2 analytically  !
 ! A29   A(6,12,17)            100.2448         calculate D2E/DX2 analytically  !
 ! A30   A(1,13,11)            103.2957         calculate D2E/DX2 analytically  !
 ! A31   A(1,13,18)            111.0238         calculate D2E/DX2 analytically  !
 ! A32   A(1,13,20)             94.647          calculate D2E/DX2 analytically  !
 ! A33   A(11,13,18)           112.3173         calculate D2E/DX2 analytically  !
 ! A34   A(11,13,20)           113.2987         calculate D2E/DX2 analytically  !
 ! A35   A(18,13,20)           119.5406         calculate D2E/DX2 analytically  !
 ! D1    D(3,1,2,6)             32.7925         calculate D2E/DX2 analytically  !
 ! D2    D(3,1,2,8)           -144.2538         calculate D2E/DX2 analytically  !
 ! D3    D(4,1,2,6)            -83.0063         calculate D2E/DX2 analytically  !
 ! D4    D(4,1,2,8)             99.9473         calculate D2E/DX2 analytically  !
 ! D5    D(13,1,2,6)           159.3553         calculate D2E/DX2 analytically  !
 ! D6    D(13,1,2,8)           -17.6911         calculate D2E/DX2 analytically  !
 ! D7    D(2,1,3,7)            -68.652          calculate D2E/DX2 analytically  !
 ! D8    D(2,1,3,10)           108.5678         calculate D2E/DX2 analytically  !
 ! D9    D(4,1,3,7)             52.4442         calculate D2E/DX2 analytically  !
 ! D10   D(4,1,3,10)          -130.336          calculate D2E/DX2 analytically  !
 ! D11   D(13,1,3,7)           170.2364         calculate D2E/DX2 analytically  !
 ! D12   D(13,1,3,10)          -12.5437         calculate D2E/DX2 analytically  !
 ! D13   D(2,1,4,5)            164.4016         calculate D2E/DX2 analytically  !
 ! D14   D(2,1,4,9)            -19.4651         calculate D2E/DX2 analytically  !
 ! D15   D(3,1,4,5)             42.8585         calculate D2E/DX2 analytically  !
 ! D16   D(3,1,4,9)           -141.0082         calculate D2E/DX2 analytically  !
 ! D17   D(13,1,4,5)           -79.7063         calculate D2E/DX2 analytically  !
 ! D18   D(13,1,4,9)            96.427          calculate D2E/DX2 analytically  !
 ! D19   D(2,1,13,11)           33.3029         calculate D2E/DX2 analytically  !
 ! D20   D(2,1,13,18)          153.8899         calculate D2E/DX2 analytically  !
 ! D21   D(2,1,13,20)          -81.9724         calculate D2E/DX2 analytically  !
 ! D22   D(3,1,13,11)          158.3281         calculate D2E/DX2 analytically  !
 ! D23   D(3,1,13,18)          -81.0849         calculate D2E/DX2 analytically  !
 ! D24   D(3,1,13,20)           43.0528         calculate D2E/DX2 analytically  !
 ! D25   D(4,1,13,11)          -86.8649         calculate D2E/DX2 analytically  !
 ! D26   D(4,1,13,18)           33.722          calculate D2E/DX2 analytically  !
 ! D27   D(4,1,13,20)          157.8598         calculate D2E/DX2 analytically  !
 ! D28   D(1,2,6,12)          -176.3075         calculate D2E/DX2 analytically  !
 ! D29   D(8,2,6,12)             0.0446         calculate D2E/DX2 analytically  !
 ! D30   D(1,2,8,11)            -5.0485         calculate D2E/DX2 analytically  !
 ! D31   D(1,2,8,15)           110.8172         calculate D2E/DX2 analytically  !
 ! D32   D(1,2,8,19)          -122.29           calculate D2E/DX2 analytically  !
 ! D33   D(6,2,8,11)           178.2597         calculate D2E/DX2 analytically  !
 ! D34   D(6,2,8,15)           -65.8746         calculate D2E/DX2 analytically  !
 ! D35   D(6,2,8,19)            61.0182         calculate D2E/DX2 analytically  !
 ! D36   D(2,6,12,17)         -164.5439         calculate D2E/DX2 analytically  !
 ! D37   D(2,8,11,13)           25.5976         calculate D2E/DX2 analytically  !
 ! D38   D(2,8,11,14)          -93.1287         calculate D2E/DX2 analytically  !
 ! D39   D(2,8,11,16)          142.1031         calculate D2E/DX2 analytically  !
 ! D40   D(15,8,11,13)         -82.3589         calculate D2E/DX2 analytically  !
 ! D41   D(15,8,11,14)         158.9147         calculate D2E/DX2 analytically  !
 ! D42   D(15,8,11,16)          34.1465         calculate D2E/DX2 analytically  !
 ! D43   D(19,8,11,13)         141.3626         calculate D2E/DX2 analytically  !
 ! D44   D(19,8,11,14)          22.6362         calculate D2E/DX2 analytically  !
 ! D45   D(19,8,11,16)        -102.132          calculate D2E/DX2 analytically  !
 ! D46   D(8,11,13,1)          -36.4521         calculate D2E/DX2 analytically  !
 ! D47   D(8,11,13,18)        -156.154          calculate D2E/DX2 analytically  !
 ! D48   D(8,11,13,20)          64.641          calculate D2E/DX2 analytically  !
 ! D49   D(14,11,13,1)          80.0215         calculate D2E/DX2 analytically  !
 ! D50   D(14,11,13,18)        -39.6804         calculate D2E/DX2 analytically  !
 ! D51   D(14,11,13,20)       -178.8853         calculate D2E/DX2 analytically  !
 ! D52   D(16,11,13,1)        -147.4887         calculate D2E/DX2 analytically  !
 ! D53   D(16,11,13,18)         92.8094         calculate D2E/DX2 analytically  !
 ! D54   D(16,11,13,20)        -46.3955         calculate D2E/DX2 analytically  !
 --------------------------------------------------------------------------------
 Trust Radius=3.00D-01 FncErr=1.00D-07 GrdErr=1.00D-06
 Number of steps in this run=    119 maximum allowed number of steps=    120.
 GradGradGradGradGradGradGradGradGradGradGradGradGradGradGradGradGradGrad

 Leave Link  103 at Thu Aug 26 19:58:36 2021, MaxMem= 24159191040 cpu:         0.5
 (Enter /public/home/users/caep010/software/Gaussian09/g09/l202.exe)
                          Input orientation:                          
 ---------------------------------------------------------------------
 Center     Atomic      Atomic             Coordinates (Angstroms)
 Number     Number       Type             X           Y           Z
 ---------------------------------------------------------------------
      1          6           0        3.107800    9.338600   13.538400
      2          6           0        2.178300   10.080100   14.414700
      3          7           0        3.160300    9.899800   12.129100
      4          7           0        2.661300    7.892000   13.318300
      5          8           0        3.176400    7.274100   12.394200
      6          7           0        1.121300   10.607300   13.948000
      7          8           0        2.166500    9.764900   11.438400
      8          6           0        2.753400   10.127700   15.813300
      9          8           0        1.884800    7.437300   14.115000
     10          8           0        4.168100   10.498400   11.780400
     11          6           0        4.008500    9.262700   15.736400
     12          8           0        0.420900   11.330600   14.914500
     13          6           0        4.425100    9.321600   14.274100
     14          1           0        3.756800    8.316000   16.012200
     15          1           0        2.959000   11.014300   15.882200
     16          1           0        4.657500    9.744500   16.314400
     17          1           0       -0.332000   11.416800   14.523400
     18          1           0        4.920900    8.611900   14.031500
     19          1           0        2.050800    9.692300   16.470900
     20          1           0        4.758100   10.447400   13.908200
 ---------------------------------------------------------------------
                    Distance matrix (angstroms):
                    1          2          3          4          5
     1  C    0.000000
     2  C    1.477056   0.000000
     3  N    1.517837   2.494153   0.000000
     4  N    1.529855   2.494627   2.386306   0.000000
     5  O    2.361368   3.598925   2.639098   1.225189   0.000000
     6  N    2.392395   1.270038   2.822494   3.184490   4.212832
     7  O    2.340465   2.992967   1.217745   2.699371   2.852637
     8  C    2.433814   1.512973   3.713601   3.351397   4.473501
     9  O    2.333053   2.675884   3.410954   1.201847   2.157781
    10  O    2.357952   3.327734   1.222937   3.380666   3.428750
    11  C    2.376600   2.400972   3.760047   3.088847   3.977087
    12  O    3.616787   2.214047   4.160523   4.403546   5.513609
    13  C    1.508914   2.375542   2.556376   2.463392   3.047217
    14  H    2.754378   2.855822   4.235882   2.938876   3.809507
    15  H    2.885049   1.906772   3.920254   4.051045   5.118838
    16  H    3.205074   3.141325   4.447748   4.048850   4.864617
    17  H    4.137797   2.846083   4.497791   4.778737   5.831323
    18  H    2.014590   3.134375   2.894395   2.476429   2.741120
    19  H    3.137182   2.096331   4.486120   3.681396   4.871771
    20  H    2.022296   2.654585   2.453167   3.357770   3.855360
                    6          7          8          9         10
     6  N    0.000000
     7  O    2.846080   0.000000
     8  C    2.524502   4.428976   0.000000
     9  O    3.264923   3.558267   3.298021   0.000000
    10  O    3.740767   2.159025   4.289881   4.475952   0.000000
    11  C    3.652704   4.702975   1.526242   3.235912   4.147573
    12  O    1.395652   4.193067   2.774052   4.235562   4.955466
    13  C    3.560121   3.652257   2.411123   3.166863   2.769377
    14  H    4.056703   5.054504   2.080536   2.806397   4.779139
    15  H    2.698874   4.683633   0.912731   4.131807   4.307301
    16  H    4.341542   5.475479   2.005876   4.224736   4.622233
    17  H    1.760243   4.299826   3.584036   4.573556   5.349618
    18  H    4.292500   3.954781   3.189125   3.256464   3.032003
    19  H    2.840109   5.034353   1.056247   3.265401   5.208987
    20  H    3.640531   3.644463   2.783961   4.166452   2.208672
                   11         12         13         14         15
    11  C    0.000000
    12  O    4.221683   0.000000
    13  C    1.521626   4.525462   0.000000
    14  H    1.017674   4.628281   2.116329   0.000000
    15  H    2.047147   2.734674   2.756931   2.816773   0.000000
    16  H    0.993688   4.735421   2.096587   1.715575   2.164276
    17  H    4.995143   0.852788   5.204038   5.343199   3.583158
    18  H    2.040269   5.331137   0.899081   2.316432   3.611879
    19  H    2.134628   2.786213   3.255864   2.239429   1.708531
    20  H    2.303851   4.539161   1.229714   3.157892   2.730350
                   16         17         18         19         20
    16  H    0.000000
    17  H    5.558721   0.000000
    18  H    2.561990   5.975148   0.000000
    19  H    2.611915   3.527661   3.918598   0.000000
    20  H    2.508782   5.217981   1.846826   3.803562   0.000000
 Stoichiometry    C5H7N3O5
 Framework group  C1[X(C5H7N3O5)]
 Deg. of freedom    54
 Full point group                 C1      NOp   1
 Largest Abelian subgroup         C1      NOp   1
 Largest concise Abelian subgroup C1      NOp   1
                         Standard orientation:                         
 ---------------------------------------------------------------------
 Center     Atomic      Atomic             Coordinates (Angstroms)
 Number     Number       Type             X           Y           Z
 ---------------------------------------------------------------------
      1          6           0        0.361532    0.165108   -0.220959
      2          6           0       -1.068357   -0.151233   -0.028506
      3          7           0        1.186071   -1.050949   -0.601972
      4          7           0        1.025045    0.641501    1.072586
      5          8           0        2.249585    0.651671    1.111173
      6          7           0       -1.431829   -1.279259    0.428051
      7          8           0        1.337689   -1.909744    0.247960
      8          6           0       -1.900086    1.012982   -0.520358
      9          8           0        0.295962    1.042034    1.940022
     10          8           0        1.607838   -1.130037   -1.747150
     11          6           0       -0.874768    2.080604   -0.892273
     12          8           0       -2.820636   -1.413927    0.458450
     13          6           0        0.390928    1.300039   -1.214885
     14          1           0       -0.741546    2.685272   -0.084629
     15          1           0       -2.286586    0.644683   -1.260664
     16          1           0       -1.258771    2.495726   -1.709360
     17          1           0       -2.896392   -2.087828    0.975525
     18          1           0        1.133401    1.797132   -1.114988
     19          1           0       -2.500244    1.348147    0.281597
     20          1           0        0.276132    0.572851   -2.199881
 ---------------------------------------------------------------------
 Rotational constants (GHZ):      1.0372936      0.7972682      0.6976951
 Leave Link  202 at Thu Aug 26 19:58:36 2021, MaxMem= 24159191040 cpu:         0.7
 (Enter /public/home/users/caep010/software/Gaussian09/g09/l301.exe)
 Standard basis: GTBas3 (6D, 7F)
 Ernie: Thresh=  0.10000D-02 Tol=  0.10000D-05 Strict=F.
 There are   438 symmetry adapted cartesian basis functions of A   symmetry.
 There are   399 symmetry adapted basis functions of A   symmetry.
   399 basis functions,   621 primitive gaussians,   438 cartesian basis functions
    49 alpha electrons       49 beta electrons
       nuclear repulsion energy       895.7640278645 Hartrees.
 IExCor=  402 DFT=T Ex+Corr=B3LYP ExCW=0 ScaHFX=  0.200000
 ScaDFX=  0.800000  0.720000  1.000000  0.810000 ScalE2=  1.000000  1.000000
 IRadAn=      0 IRanWt=     -1 IRanGd=            0 ICorTp=0 IEmpDi=  4
 NAtoms=   20 NActive=   20 NUniq=   20 SFac= 1.00D+00 NAtFMM=   60 NAOKFM=F Big=F
 Integral buffers will be    131072 words long.
 Raffenetti 2 integral format.
 Two-electron integral symmetry is turned on.
 Leave Link  301 at Thu Aug 26 19:58:36 2021, MaxMem= 24159191040 cpu:         4.2
 (Enter /public/home/users/caep010/software/Gaussian09/g09/l302.exe)
 NPDir=0 NMtPBC=     1 NCelOv=     1 NCel=       1 NClECP=     1 NCelD=      1
         NCelK=      1 NCelE2=     1 NClLst=     1 CellRange=     0.0.
 One-electron integrals computed using PRISM.
 NBasis=   399 RedAO= T EigKep=  1.89D-04  NBF=   399
 NBsUse=   399 1.00D-06 EigRej= -1.00D+00 NBFU=   399
 Precomputing XC quadrature grid using
 IXCGrd= 4 IRadAn=           0 IRanWt=          -1 IRanGd=           0 AccXCQ= 0.00D+00.
 Generated NRdTot=       0 NPtTot=           0 NUsed=           0 NTot=          32
 NSgBfM=   437   437   437   437   437 MxSgAt=    20 MxSgA2=    20.
 Leave Link  302 at Thu Aug 26 19:58:36 2021, MaxMem= 24159191040 cpu:        19.5
 (Enter /public/home/users/caep010/software/Gaussian09/g09/l303.exe)
 DipDrv:  MaxL=1.
 Leave Link  303 at Thu Aug 26 19:58:37 2021, MaxMem= 24159191040 cpu:         1.4
 (Enter /public/home/users/caep010/software/Gaussian09/g09/l401.exe)
 ExpMin= 1.61D-01 ExpMax= 5.48D+03 ExpMxC= 8.25D+02 IAcc=1 IRadAn=         1 AccDes= 0.00D+00
 Harris functional with IExCor=  402 and IRadAn=       1 diagonalized for initial guess.
 HarFok:  IExCor=  402 AccDes= 0.00D+00 IRadAn=         1 IDoV= 1 UseB2=F ITyADJ=14
 ICtDFT=  3500011 ScaDFX=  1.000000  1.000000  1.000000  1.000000
 FoFCou: FMM=F IPFlag=           0 FMFlag=      100000 FMFlg1=           0
         NFxFlg=           0 DoJE=T BraDBF=F KetDBF=T FulRan=T
         wScrn=  0.000000 ICntrl=     500 IOpCl=  0 I1Cent=   200000004 NGrid=           0
         NMat0=    1 NMatS0=      1 NMatT0=    0 NMatD0=    1 NMtDS0=    0 NMtDT0=    0
 Petite list used in FoFCou.
 Harris En= -734.880074505319    
 JPrj=0 DoOrth=F DoCkMO=F.
 Leave Link  401 at Thu Aug 26 19:58:37 2021, MaxMem= 24159191040 cpu:        24.2
 (Enter /public/home/users/caep010/software/Gaussian09/g09/l502.exe)
 Closed shell SCF:
 Using DIIS extrapolation, IDIIS=  1040.
 Integral symmetry usage will be decided dynamically.
 Keep R1 ints in memory in canonical form, NReq=3226973204.
 IVT=      611264 IEndB=      611264 NGot= 24159191040 MDV= 20974519877
 LenX= 20974519877 LenY= 20974327592
 Requested convergence on RMS density matrix=1.00D-08 within 128 cycles.
 Requested convergence on MAX density matrix=1.00D-06.
 Requested convergence on             energy=1.00D-06.
 No special actions if energy rises.
 FoFCou: FMM=F IPFlag=           0 FMFlag=           0 FMFlg1=           0
         NFxFlg=           0 DoJE=F BraDBF=F KetDBF=F FulRan=T
         wScrn=  0.000000 ICntrl=     600 IOpCl=  0 I1Cent=           0 NGrid=           0
         NMat0=    1 NMatS0=  79800 NMatT0=    0 NMatD0=    1 NMtDS0=    0 NMtDT0=    0
 Symmetry not used in FoFCou.
 Integral accuracy reduced to 1.0D-05 until final iterations.

 Cycle   1  Pass 0  IDiag  1:
 E= -734.298079761739    
 DIIS: error= 2.16D-02 at cycle   1 NSaved=   1.
 NSaved= 1 IEnMin= 1 EnMin= -734.298079761739     IErMin= 1 ErrMin= 2.16D-02
 ErrMax= 2.16D-02  0.00D+00 EMaxC= 1.00D-01 BMatC= 6.51D-01 BMatP= 6.51D-01
 IDIUse=3 WtCom= 7.84D-01 WtEn= 2.16D-01
 Coeff-Com:  0.100D+01
 Coeff-En:   0.100D+01
 Coeff:      0.100D+01
 Gap=     0.133 Goal=   None    Shift=    0.000
 GapD=    0.133 DampG=1.000 DampE=0.500 DampFc=0.5000 IDamp=-1.
 Damping current iteration by 5.00D-01
 RMSDP=3.92D-03 MaxDP=2.45D-01              OVMax= 3.23D-01

 Cycle   2  Pass 0  IDiag  1:
 E= -734.341884654860     Delta-E=       -0.043804893121 Rises=F Damp=T
 DIIS: error= 1.31D-02 at cycle   2 NSaved=   2.
 NSaved= 2 IEnMin= 2 EnMin= -734.341884654860     IErMin= 2 ErrMin= 1.31D-02
 ErrMax= 1.31D-02  0.00D+00 EMaxC= 1.00D-01 BMatC= 1.73D-01 BMatP= 6.51D-01
 IDIUse=3 WtCom= 8.69D-01 WtEn= 1.31D-01
 Coeff-Com:  0.311D+00 0.689D+00
 Coeff-En:   0.464D+00 0.536D+00
 Coeff:      0.331D+00 0.669D+00
 Gap=     0.193 Goal=   None    Shift=    0.000
 RMSDP=1.24D-03 MaxDP=1.18D-01 DE=-4.38D-02 OVMax= 2.06D-01

 Cycle   3  Pass 0  IDiag  1:
 E= -734.755822480309     Delta-E=       -0.413937825449 Rises=F Damp=F
 DIIS: error= 5.18D-03 at cycle   3 NSaved=   3.
 NSaved= 3 IEnMin= 3 EnMin= -734.755822480309     IErMin= 3 ErrMin= 5.18D-03
 ErrMax= 5.18D-03  0.00D+00 EMaxC= 1.00D-01 BMatC= 3.23D-02 BMatP= 1.73D-01
 IDIUse=3 WtCom= 9.48D-01 WtEn= 5.18D-02
 Coeff-Com:  0.112D+00 0.314D+00 0.574D+00
 Coeff-En:   0.000D+00 0.000D+00 0.100D+01
 Coeff:      0.106D+00 0.297D+00 0.597D+00
 Gap=     0.194 Goal=   None    Shift=    0.000
 RMSDP=7.24D-04 MaxDP=4.18D-02 DE=-4.14D-01 OVMax= 5.57D-02

 Cycle   4  Pass 0  IDiag  1:
 E= -734.777365188072     Delta-E=       -0.021542707762 Rises=F Damp=F
 DIIS: error= 3.15D-03 at cycle   4 NSaved=   4.
 NSaved= 4 IEnMin= 4 EnMin= -734.777365188072     IErMin= 4 ErrMin= 3.15D-03
 ErrMax= 3.15D-03  0.00D+00 EMaxC= 1.00D-01 BMatC= 1.06D-02 BMatP= 3.23D-02
 IDIUse=3 WtCom= 9.68D-01 WtEn= 3.15D-02
 Coeff-Com:  0.320D-01 0.865D-01 0.364D+00 0.517D+00
 Coeff-En:   0.000D+00 0.000D+00 0.254D+00 0.746D+00
 Coeff:      0.309D-01 0.838D-01 0.361D+00 0.525D+00
 Gap=     0.197 Goal=   None    Shift=    0.000
 RMSDP=3.06D-04 MaxDP=2.21D-02 DE=-2.15D-02 OVMax= 4.49D-02

 Cycle   5  Pass 0  IDiag  1:
 E= -734.785638635440     Delta-E=       -0.008273447369 Rises=F Damp=F
 DIIS: error= 1.33D-03 at cycle   5 NSaved=   5.
 NSaved= 5 IEnMin= 5 EnMin= -734.785638635440     IErMin= 5 ErrMin= 1.33D-03
 ErrMax= 1.33D-03  0.00D+00 EMaxC= 1.00D-01 BMatC= 1.83D-03 BMatP= 1.06D-02
 IDIUse=3 WtCom= 9.87D-01 WtEn= 1.33D-02
 Coeff-Com:  0.653D-02 0.112D-01 0.158D+00 0.344D+00 0.480D+00
 Coeff-En:   0.000D+00 0.000D+00 0.000D+00 0.123D+00 0.877D+00
 Coeff:      0.644D-02 0.111D-01 0.156D+00 0.341D+00 0.485D+00
 Gap=     0.193 Goal=   None    Shift=    0.000
 RMSDP=1.16D-04 MaxDP=1.17D-02 DE=-8.27D-03 OVMax= 1.78D-02

 Cycle   6  Pass 0  IDiag  1:
 E= -734.787063864357     Delta-E=       -0.001425228916 Rises=F Damp=F
 DIIS: error= 4.03D-04 at cycle   6 NSaved=   6.
 NSaved= 6 IEnMin= 6 EnMin= -734.787063864357     IErMin= 6 ErrMin= 4.03D-04
 ErrMax= 4.03D-04  0.00D+00 EMaxC= 1.00D-01 BMatC= 1.68D-04 BMatP= 1.83D-03
 IDIUse=3 WtCom= 9.96D-01 WtEn= 4.03D-03
 Coeff-Com:  0.102D-02-0.170D-02 0.611D-01 0.158D+00 0.298D+00 0.483D+00
 Coeff-En:   0.000D+00 0.000D+00 0.000D+00 0.000D+00 0.354D-01 0.965D+00
 Coeff:      0.101D-02-0.170D-02 0.608D-01 0.157D+00 0.297D+00 0.485D+00
 Gap=     0.194 Goal=   None    Shift=    0.000
 RMSDP=3.56D-05 MaxDP=2.65D-03 DE=-1.43D-03 OVMax= 4.70D-03

 Cycle   7  Pass 0  IDiag  1:
 E= -734.787168467383     Delta-E=       -0.000104603027 Rises=F Damp=F
 DIIS: error= 1.61D-04 at cycle   7 NSaved=   7.
 NSaved= 7 IEnMin= 7 EnMin= -734.787168467383     IErMin= 7 ErrMin= 1.61D-04
 ErrMax= 1.61D-04  0.00D+00 EMaxC= 1.00D-01 BMatC= 4.08D-05 BMatP= 1.68D-04
 IDIUse=3 WtCom= 9.98D-01 WtEn= 1.61D-03
 Coeff-Com:  0.143D-03-0.234D-02 0.299D-01 0.841D-01 0.174D+00 0.360D+00
 Coeff-Com:  0.354D+00
 Coeff-En:   0.000D+00 0.000D+00 0.000D+00 0.000D+00 0.000D+00 0.182D+00
 Coeff-En:   0.818D+00
 Coeff:      0.143D-03-0.233D-02 0.299D-01 0.839D-01 0.174D+00 0.360D+00
 Coeff:      0.354D+00
 Gap=     0.194 Goal=   None    Shift=    0.000
 RMSDP=1.57D-05 MaxDP=1.45D-03 DE=-1.05D-04 OVMax= 2.44D-03

 Cycle   8  Pass 0  IDiag  1:
 E= -734.787197668361     Delta-E=       -0.000029200978 Rises=F Damp=F
 DIIS: error= 4.51D-05 at cycle   8 NSaved=   8.
 NSaved= 8 IEnMin= 8 EnMin= -734.787197668361     IErMin= 8 ErrMin= 4.51D-05
 ErrMax= 4.51D-05  0.00D+00 EMaxC= 1.00D-01 BMatC= 3.30D-06 BMatP= 4.08D-05
 IDIUse=1 WtCom= 1.00D+00 WtEn= 0.00D+00
 Coeff-Com: -0.127D-03-0.127D-02 0.713D-02 0.235D-01 0.536D-01 0.138D+00
 Coeff-Com:  0.241D+00 0.539D+00
 Coeff:     -0.127D-03-0.127D-02 0.713D-02 0.235D-01 0.536D-01 0.138D+00
 Coeff:      0.241D+00 0.539D+00
 Gap=     0.194 Goal=   None    Shift=    0.000
 RMSDP=4.60D-06 MaxDP=2.84D-04 DE=-2.92D-05 OVMax= 5.11D-04

 Initial convergence to 1.0D-05 achieved.  Increase integral accuracy.
 Cycle   9  Pass 1  IDiag  1:
 E= -734.787231224761     Delta-E=       -0.000033556400 Rises=F Damp=F
 DIIS: error= 2.65D-05 at cycle   1 NSaved=   1.
 NSaved= 1 IEnMin= 1 EnMin= -734.787231224761     IErMin= 1 ErrMin= 2.65D-05
 ErrMax= 2.65D-05  0.00D+00 EMaxC= 1.00D-01 BMatC= 7.12D-07 BMatP= 7.12D-07
 IDIUse=1 WtCom= 1.00D+00 WtEn= 0.00D+00
 Coeff-Com:  0.100D+01
 Coeff:      0.100D+01
 Gap=     0.194 Goal=   None    Shift=    0.000
 RMSDP=4.60D-06 MaxDP=2.84D-04 DE=-3.36D-05 OVMax= 2.80D-04

 Cycle  10  Pass 1  IDiag  1:
 E= -734.787230986468     Delta-E=        0.000000238293 Rises=F Damp=F
 DIIS: error= 2.84D-05 at cycle   2 NSaved=   2.
 NSaved= 2 IEnMin= 1 EnMin= -734.787231224761     IErMin= 1 ErrMin= 2.65D-05
 ErrMax= 2.84D-05  0.00D+00 EMaxC= 1.00D-01 BMatC= 1.05D-06 BMatP= 7.12D-07
 IDIUse=1 WtCom= 1.00D+00 WtEn= 0.00D+00
 Coeff-Com:  0.562D+00 0.438D+00
 Coeff:      0.562D+00 0.438D+00
 Gap=     0.194 Goal=   None    Shift=    0.000
 RMSDP=2.81D-06 MaxDP=1.87D-04 DE= 2.38D-07 OVMax= 3.81D-04

 Cycle  11  Pass 1  IDiag  1:
 E= -734.787231537623     Delta-E=       -0.000000551156 Rises=F Damp=F
 DIIS: error= 1.66D-05 at cycle   3 NSaved=   3.
 NSaved= 3 IEnMin= 3 EnMin= -734.787231537623     IErMin= 3 ErrMin= 1.66D-05
 ErrMax= 1.66D-05  0.00D+00 EMaxC= 1.00D-01 BMatC= 3.09D-07 BMatP= 7.12D-07
 IDIUse=1 WtCom= 1.00D+00 WtEn= 0.00D+00
 Coeff-Com:  0.120D+00 0.334D+00 0.546D+00
 Coeff:      0.120D+00 0.334D+00 0.546D+00
 Gap=     0.194 Goal=   None    Shift=    0.000
 RMSDP=1.62D-06 MaxDP=1.38D-04 DE=-5.51D-07 OVMax= 2.89D-04

 Cycle  12  Pass 1  IDiag  1:
 E= -734.787231673402     Delta-E=       -0.000000135779 Rises=F Damp=F
 DIIS: error= 1.03D-05 at cycle   4 NSaved=   4.
 NSaved= 4 IEnMin= 4 EnMin= -734.787231673402     IErMin= 4 ErrMin= 1.03D-05
 ErrMax= 1.03D-05  0.00D+00 EMaxC= 1.00D-01 BMatC= 1.34D-07 BMatP= 3.09D-07
 IDIUse=1 WtCom= 1.00D+00 WtEn= 0.00D+00
 Coeff-Com: -0.132D-01 0.190D+00 0.451D+00 0.372D+00
 Coeff:     -0.132D-01 0.190D+00 0.451D+00 0.372D+00
 Gap=     0.194 Goal=   None    Shift=    0.000
 RMSDP=7.20D-07 MaxDP=5.52D-05 DE=-1.36D-07 OVMax= 1.18D-04

 Cycle  13  Pass 1  IDiag  1:
 E= -734.787231774879     Delta-E=       -0.000000101476 Rises=F Damp=F
 DIIS: error= 8.35D-07 at cycle   5 NSaved=   5.
 NSaved= 5 IEnMin= 5 EnMin= -734.787231774879     IErMin= 5 ErrMin= 8.35D-07
 ErrMax= 8.35D-07  0.00D+00 EMaxC= 1.00D-01 BMatC= 1.48D-09 BMatP= 1.34D-07
 IDIUse=1 WtCom= 1.00D+00 WtEn= 0.00D+00
 Coeff-Com: -0.116D-01 0.962D-01 0.235D+00 0.207D+00 0.473D+00
 Coeff:     -0.116D-01 0.962D-01 0.235D+00 0.207D+00 0.473D+00
 Gap=     0.194 Goal=   None    Shift=    0.000
 RMSDP=1.09D-07 MaxDP=7.99D-06 DE=-1.01D-07 OVMax= 9.62D-06

 Cycle  14  Pass 1  IDiag  1:
 E= -734.787231775953     Delta-E=       -0.000000001075 Rises=F Damp=F
 DIIS: error= 3.18D-07 at cycle   6 NSaved=   6.
 NSaved= 6 IEnMin= 6 EnMin= -734.787231775953     IErMin= 6 ErrMin= 3.18D-07
 ErrMax= 3.18D-07  0.00D+00 EMaxC= 1.00D-01 BMatC= 1.52D-10 BMatP= 1.48D-09
 IDIUse=1 WtCom= 1.00D+00 WtEn= 0.00D+00
 Coeff-Com: -0.548D-02 0.406D-01 0.989D-01 0.892D-01 0.283D+00 0.494D+00
 Coeff:     -0.548D-02 0.406D-01 0.989D-01 0.892D-01 0.283D+00 0.494D+00
 Gap=     0.194 Goal=   None    Shift=    0.000
 RMSDP=3.79D-08 MaxDP=2.69D-06 DE=-1.07D-09 OVMax= 5.57D-06

 Cycle  15  Pass 1  IDiag  1:
 E= -734.787231776061     Delta-E=       -0.000000000108 Rises=F Damp=F
 DIIS: error= 1.30D-07 at cycle   7 NSaved=   7.
 NSaved= 7 IEnMin= 7 EnMin= -734.787231776061     IErMin= 7 ErrMin= 1.30D-07
 ErrMax= 1.30D-07  0.00D+00 EMaxC= 1.00D-01 BMatC= 3.32D-11 BMatP= 1.52D-10
 IDIUse=1 WtCom= 1.00D+00 WtEn= 0.00D+00
 Coeff-Com: -0.129D-02 0.744D-02 0.178D-01 0.166D-01 0.914D-01 0.341D+00
 Coeff-Com:  0.527D+00
 Coeff:     -0.129D-02 0.744D-02 0.178D-01 0.166D-01 0.914D-01 0.341D+00
 Coeff:      0.527D+00
 Gap=     0.194 Goal=   None    Shift=    0.000
 RMSDP=1.47D-08 MaxDP=9.70D-07 DE=-1.08D-10 OVMax= 1.75D-06

 Cycle  16  Pass 1  IDiag  1:
 E= -734.787231776076     Delta-E=       -0.000000000015 Rises=F Damp=F
 DIIS: error= 6.16D-08 at cycle   8 NSaved=   8.
 NSaved= 8 IEnMin= 8 EnMin= -734.787231776076     IErMin= 8 ErrMin= 6.16D-08
 ErrMax= 6.16D-08  0.00D+00 EMaxC= 1.00D-01 BMatC= 5.26D-12 BMatP= 3.32D-11
 IDIUse=1 WtCom= 1.00D+00 WtEn= 0.00D+00
 Coeff-Com: -0.205D-03 0.338D-04-0.154D-03 0.130D-04 0.270D-01 0.176D+00
 Coeff-Com:  0.357D+00 0.440D+00
 Coeff:     -0.205D-03 0.338D-04-0.154D-03 0.130D-04 0.270D-01 0.176D+00
 Coeff:      0.357D+00 0.440D+00
 Gap=     0.194 Goal=   None    Shift=    0.000
 RMSDP=6.66D-09 MaxDP=5.57D-07 DE=-1.50D-11 OVMax= 9.80D-07

 SCF Done:  E(RB3LYP) =  -734.787231776     A.U. after   16 cycles
            NFock= 16  Conv=0.67D-08     -V/T= 2.0043
 KE= 7.316299118116D+02 PE=-3.513543230355D+03 EE= 1.151362058903D+03
 Leave Link  502 at Thu Aug 26 20:00:18 2021, MaxMem= 24159191040 cpu:       526.7
 (Enter /public/home/users/caep010/software/Gaussian09/g09/l801.exe)
 DoSCS=F DFT=T ScalE2(SS,OS)=  1.000000  1.000000
 Range of M.O.s used for correlation:     1   399
 NBasis=   399 NAE=    49 NBE=    49 NFC=     0 NFV=     0
 NROrb=    399 NOA=    49 NOB=    49 NVA=   350 NVB=   350

 **** Warning!!: The largest alpha MO coefficient is  0.46078802D+02

 Leave Link  801 at Thu Aug 26 20:00:18 2021, MaxMem= 24159191040 cpu:         0.4
 (Enter /public/home/users/caep010/software/Gaussian09/g09/l1101.exe)
 Using compressed storage, NAtomX=    20.
 Will process     21 centers per pass.
 Leave Link 1101 at Thu Aug 26 20:00:19 2021, MaxMem= 24159191040 cpu:        22.3
 (Enter /public/home/users/caep010/software/Gaussian09/g09/l1102.exe)
 Symmetrizing basis deriv contribution to polar:
 IMax=3 JMax=2 DiffMx= 0.00D+00
 Leave Link 1102 at Thu Aug 26 20:00:20 2021, MaxMem= 24159191040 cpu:         1.2
 (Enter /public/home/users/caep010/software/Gaussian09/g09/l1110.exe)
 Forming Gx(P) for the SCF density, NAtomX=    20.
 Integral derivatives from FoFJK, PRISM(SPDF).
 Do as many integral derivatives as possible in FoFJK.
 G2DrvN: MDV=   24159190776.
 G2DrvN: will do    21 centers at a time, making    1 passes.
 Calling FoFCou, ICntrl=  3107 FMM=F I1Cent=   0 AccDes= 0.00D+00.
 FoFJK:  IHMeth= 1 ICntrl=    3107 DoSepK=F KAlg= 0 I1Cent=   0 FoldK=F
 IRaf=         0 NMat=   1 IRICut=       1 DoRegI=T DoRafI=F ISym2E= 0.
 FoFCou: FMM=F IPFlag=           0 FMFlag=      100000 FMFlg1=           0
         NFxFlg=           0 DoJE=F BraDBF=F KetDBF=F FulRan=T
         wScrn=  0.000000 ICntrl=    3107 IOpCl=  0 I1Cent=           0 NGrid=           0
         NMat0=    1 NMatS0=      1 NMatT0=    0 NMatD0=    1 NMtDS0=    0 NMtDT0=    0
 Symmetry not used in FoFCou.
 End of G2Drv F.D. properties file   721 does not exist.
 End of G2Drv F.D. properties file   722 does not exist.
 End of G2Drv F.D. properties file   788 does not exist.
 Leave Link 1110 at Thu Aug 26 20:00:55 2021, MaxMem= 24159191040 cpu:      1106.6
 (Enter /public/home/users/caep010/software/Gaussian09/g09/l1002.exe)
 Minotr:  Closed shell wavefunction.
          IDoAtm=11111111111111111111
          Direct CPHF calculation.
          Differentiating once with respect to nuclear coordinates.
          Requested convergence is 1.0D-08 RMS, and 1.0D-07 maximum.
          Secondary convergence is 1.0D-12 RMS, and 1.0D-12 maximum.
          NewPWx=T KeepS1=F KeepF1=F KeepIn=T MapXYZ=F SortEE=F KeepMc=T.
          MDV=   24159190437 using IRadAn=       2.
 Generate precomputed XC quadrature information.
 Keep R1 ints in memory in canonical form, NReq=3226369276.
 FoFCou: FMM=F IPFlag=           0 FMFlag=           0 FMFlg1=           0
         NFxFlg=           0 DoJE=F BraDBF=F KetDBF=F FulRan=T
         wScrn=  0.000000 ICntrl=     600 IOpCl=  0 I1Cent=           0 NGrid=           0
         NMat0=    1 NMatS0=  79800 NMatT0=    0 NMatD0=    1 NMtDS0=    0 NMtDT0=    0
 Symmetry not used in FoFCou.
          Solving linear equations simultaneously, MaxMat=       0.
          There are    63 degrees of freedom in the 1st order CPHF.  IDoFFX=6 NUNeed=     0.
     57 vectors produced by pass  0 Test12= 2.72D-14 1.59D-09 XBig12= 2.87D-01 1.12D-01.
 AX will form    57 AO Fock derivatives at one time.
     57 vectors produced by pass  1 Test12= 2.72D-14 1.59D-09 XBig12= 8.66D-02 7.14D-02.
     57 vectors produced by pass  2 Test12= 2.72D-14 1.59D-09 XBig12= 1.77D-03 5.94D-03.
     57 vectors produced by pass  3 Test12= 2.72D-14 1.59D-09 XBig12= 1.15D-05 5.10D-04.
     57 vectors produced by pass  4 Test12= 2.72D-14 1.59D-09 XBig12= 5.46D-08 3.06D-05.
     57 vectors produced by pass  5 Test12= 2.72D-14 1.59D-09 XBig12= 1.54D-10 1.61D-06.
     28 vectors produced by pass  6 Test12= 2.72D-14 1.59D-09 XBig12= 2.48D-13 8.44D-08.
      1 vectors produced by pass  7 Test12= 2.72D-14 1.59D-09 XBig12= 5.26D-16 2.07D-09.
 InvSVY:  IOpt=1 It=  1 EMax= 5.00D-16
 Solved reduced A of dimension   371 with    63 vectors.
 End of Minotr F.D. properties file   721 does not exist.
 End of Minotr F.D. properties file   722 does not exist.
 End of Minotr F.D. properties file   788 does not exist.
 Leave Link 1002 at Thu Aug 26 20:02:00 2021, MaxMem= 24159191040 cpu:      1902.4
 (Enter /public/home/users/caep010/software/Gaussian09/g09/l601.exe)
 Copying SCF densities to generalized density rwf, IOpCl= 0 IROHF=0.

 **********************************************************************

            Population analysis using the SCF density.

 **********************************************************************

 Orbital symmetries:
       Occupied  (A) (A) (A) (A) (A) (A) (A) (A) (A) (A) (A) (A)
                 (A) (A) (A) (A) (A) (A) (A) (A) (A) (A) (A) (A)
                 (A) (A) (A) (A) (A) (A) (A) (A) (A) (A) (A) (A)
                 (A) (A) (A) (A) (A) (A) (A) (A) (A) (A) (A) (A)
                 (A)
       Virtual   (A) (A) (A) (A) (A) (A) (A) (A) (A) (A) (A) (A)
                 (A) (A) (A) (A) (A) (A) (A) (A) (A) (A) (A) (A)
                 (A) (A) (A) (A) (A) (A) (A) (A) (A) (A) (A) (A)
                 (A) (A) (A) (A) (A) (A) (A) (A) (A) (A) (A) (A)
                 (A) (A) (A) (A) (A) (A) (A) (A) (A) (A) (A) (A)
                 (A) (A) (A) (A) (A) (A) (A) (A) (A) (A) (A) (A)
                 (A) (A) (A) (A) (A) (A) (A) (A) (A) (A) (A) (A)
                 (A) (A) (A) (A) (A) (A) (A) (A) (A) (A) (A) (A)
                 (A) (A) (A) (A) (A) (A) (A) (A) (A) (A) (A) (A)
                 (A) (A) (A) (A) (A) (A) (A) (A) (A) (A) (A) (A)
                 (A) (A) (A) (A) (A) (A) (A) (A) (A) (A) (A) (A)
                 (A) (A) (A) (A) (A) (A) (A) (A) (A) (A) (A) (A)
                 (A) (A) (A) (A) (A) (A) (A) (A) (A) (A) (A) (A)
                 (A) (A) (A) (A) (A) (A) (A) (A) (A) (A) (A) (A)
                 (A) (A) (A) (A) (A) (A) (A) (A) (A) (A) (A) (A)
                 (A) (A) (A) (A) (A) (A) (A) (A) (A) (A) (A) (A)
                 (A) (A) (A) (A) (A) (A) (A) (A) (A) (A) (A) (A)
                 (A) (A) (A) (A) (A) (A) (A) (A) (A) (A) (A) (A)
                 (A) (A) (A) (A) (A) (A) (A) (A) (A) (A) (A) (A)
                 (A) (A) (A) (A) (A) (A) (A) (A) (A) (A) (A) (A)
                 (A) (A) (A) (A) (A) (A) (A) (A) (A) (A) (A) (A)
                 (A) (A) (A) (A) (A) (A) (A) (A) (A) (A) (A) (A)
                 (A) (A) (A) (A) (A) (A) (A) (A) (A) (A) (A) (A)
                 (A) (A) (A) (A) (A) (A) (A) (A) (A) (A) (A) (A)
                 (A) (A) (A) (A) (A) (A) (A) (A) (A) (A) (A) (A)
                 (A) (A) (A) (A) (A) (A) (A) (A) (A) (A) (A) (A)
                 (A) (A) (A) (A) (A) (A) (A) (A) (A) (A) (A) (A)
                 (A) (A) (A) (A) (A) (A) (A) (A) (A) (A) (A) (A)
                 (A) (A) (A) (A) (A) (A) (A) (A) (A) (A) (A) (A)
                 (A) (A)
 The electronic state is 1-A.
 Alpha  occ. eigenvalues --  -19.20182 -19.19843 -19.19493 -19.19359 -19.19173
 Alpha  occ. eigenvalues --  -14.58413 -14.58006 -14.40924 -10.31470 -10.25469
 Alpha  occ. eigenvalues --  -10.22186 -10.20058 -10.19774  -1.26158  -1.24316
 Alpha  occ. eigenvalues --   -1.13039  -1.08312  -1.07177  -0.94832  -0.87857
 Alpha  occ. eigenvalues --   -0.83449  -0.74691  -0.71431  -0.68249  -0.64539
 Alpha  occ. eigenvalues --   -0.59009  -0.58336  -0.56794  -0.55311  -0.53610
 Alpha  occ. eigenvalues --   -0.53278  -0.52825  -0.52204  -0.50953  -0.47097
 Alpha  occ. eigenvalues --   -0.45299  -0.44492  -0.42184  -0.40840  -0.39255
 Alpha  occ. eigenvalues --   -0.38006  -0.33795  -0.33470  -0.32495  -0.32364
 Alpha  occ. eigenvalues --   -0.31581  -0.30594  -0.29848  -0.28146
 Alpha virt. eigenvalues --   -0.08742  -0.08353  -0.04056   0.05638   0.06921
 Alpha virt. eigenvalues --    0.09946   0.10876   0.12894   0.14169   0.14836
 Alpha virt. eigenvalues --    0.16172   0.16388   0.18030   0.19963   0.21300
 Alpha virt. eigenvalues --    0.22227   0.23653   0.26198   0.27010   0.29321
 Alpha virt. eigenvalues --    0.32433   0.34111   0.37357   0.38404   0.41756
 Alpha virt. eigenvalues --    0.43204   0.43530   0.44637   0.46996   0.47607
 Alpha virt. eigenvalues --    0.49778   0.52550   0.52829   0.54289   0.54839
 Alpha virt. eigenvalues --    0.56457   0.57424   0.58608   0.59402   0.59738
 Alpha virt. eigenvalues --    0.62522   0.65041   0.65800   0.66306   0.67065
 Alpha virt. eigenvalues --    0.69307   0.70565   0.70879   0.72310   0.73720
 Alpha virt. eigenvalues --    0.74109   0.75697   0.76212   0.77368   0.77886
 Alpha virt. eigenvalues --    0.80544   0.81020   0.82097   0.83068   0.83377
 Alpha virt. eigenvalues --    0.85464   0.86853   0.87439   0.87689   0.88094
 Alpha virt. eigenvalues --    0.88815   0.90447   0.91398   0.92524   0.94314
 Alpha virt. eigenvalues --    0.94878   0.95978   0.96583   0.97918   0.98742
 Alpha virt. eigenvalues --    0.99988   1.00714   1.01459   1.04082   1.05709
 Alpha virt. eigenvalues --    1.09445   1.10294   1.12442   1.13165   1.14059
 Alpha virt. eigenvalues --    1.16389   1.17463   1.18631   1.21652   1.23732
 Alpha virt. eigenvalues --    1.25412   1.26378   1.27564   1.28855   1.30804
 Alpha virt. eigenvalues --    1.32329   1.34540   1.35376   1.38962   1.40137
 Alpha virt. eigenvalues --    1.40679   1.42191   1.43939   1.45424   1.46247
 Alpha virt. eigenvalues --    1.47473   1.48910   1.50512   1.51767   1.52920
 Alpha virt. eigenvalues --    1.54595   1.58277   1.58462   1.59316   1.61149
 Alpha virt. eigenvalues --    1.62039   1.64874   1.66174   1.66826   1.69235
 Alpha virt. eigenvalues --    1.71350   1.71657   1.73046   1.74692   1.77222
 Alpha virt. eigenvalues --    1.79276   1.80161   1.82138   1.84835   1.86439
 Alpha virt. eigenvalues --    1.88346   1.91043   1.92680   1.95657   1.98706
 Alpha virt. eigenvalues --    2.03625   2.04013   2.06399   2.07472   2.11404
 Alpha virt. eigenvalues --    2.14665   2.16289   2.18516   2.20899   2.25685
 Alpha virt. eigenvalues --    2.30003   2.31045   2.33561   2.36898   2.38653
 Alpha virt. eigenvalues --    2.43790   2.45094   2.48665   2.57925   2.61659
 Alpha virt. eigenvalues --    2.65436   2.68214   2.71606   2.74880   2.76641
 Alpha virt. eigenvalues --    2.78475   2.80186   2.81701   2.87722   2.92392
 Alpha virt. eigenvalues --    2.93283   2.97850   3.00190   3.05307   3.06751
 Alpha virt. eigenvalues --    3.08545   3.10912   3.13589   3.15310   3.17016
 Alpha virt. eigenvalues --    3.21706   3.23759   3.26509   3.27766   3.32825
 Alpha virt. eigenvalues --    3.34081   3.37376   3.41328   3.43761   3.45401
 Alpha virt. eigenvalues --    3.47260   3.48257   3.52294   3.52962   3.54426
 Alpha virt. eigenvalues --    3.56546   3.58193   3.59562   3.61937   3.63386
 Alpha virt. eigenvalues --    3.64391   3.65477   3.67582   3.69764   3.71698
 Alpha virt. eigenvalues --    3.76187   3.76243   3.76893   3.79715   3.82304
 Alpha virt. eigenvalues --    3.85066   3.89201   3.90557   3.94037   3.95363
 Alpha virt. eigenvalues --    3.98014   3.98459   4.00097   4.01244   4.03461
 Alpha virt. eigenvalues --    4.08345   4.09349   4.10333   4.11419   4.12176
 Alpha virt. eigenvalues --    4.14977   4.16328   4.17727   4.19073   4.19679
 Alpha virt. eigenvalues --    4.20542   4.22480   4.24089   4.24606   4.26140
 Alpha virt. eigenvalues --    4.28873   4.30674   4.31202   4.33190   4.34690
 Alpha virt. eigenvalues --    4.34954   4.36064   4.38968   4.39905   4.43353
 Alpha virt. eigenvalues --    4.43565   4.45823   4.46733   4.47933   4.49823
 Alpha virt. eigenvalues --    4.50949   4.52525   4.55283   4.56797   4.57863
 Alpha virt. eigenvalues --    4.58637   4.59831   4.60506   4.61856   4.63985
 Alpha virt. eigenvalues --    4.64584   4.66197   4.69167   4.70903   4.71714
 Alpha virt. eigenvalues --    4.72434   4.74181   4.76510   4.80000   4.82681
 Alpha virt. eigenvalues --    4.85225   4.87850   4.88914   4.91839   4.94283
 Alpha virt. eigenvalues --    4.95596   4.97324   4.98517   4.99512   5.00665
 Alpha virt. eigenvalues --    5.01195   5.01778   5.03051   5.03924   5.05836
 Alpha virt. eigenvalues --    5.06693   5.07645   5.09823   5.11277   5.13715
 Alpha virt. eigenvalues --    5.14871   5.17926   5.19103   5.21397   5.23267
 Alpha virt. eigenvalues --    5.26590   5.27432   5.31905   5.33924   5.36574
 Alpha virt. eigenvalues --    5.39918   5.44403   5.45710   5.48776   5.54093
 Alpha virt. eigenvalues --    5.55692   5.58868   5.60188   5.60781   5.63821
 Alpha virt. eigenvalues --    5.65284   5.69443   5.74181   5.80644   5.83191
 Alpha virt. eigenvalues --    5.87465   5.89518   5.94227   5.96005   6.08004
 Alpha virt. eigenvalues --    6.09289   6.09858   6.18557   6.21563   6.23992
 Alpha virt. eigenvalues --    6.24702   6.25617   6.28050   6.34862   6.48377
 Alpha virt. eigenvalues --    6.63630   6.77789   6.81244   6.85934   6.90632
 Alpha virt. eigenvalues --    7.06663   7.09517   7.28552   7.57048  10.89316
 Alpha virt. eigenvalues --   11.29429  11.31564  11.32178  11.60532  11.94580
 Alpha virt. eigenvalues --   12.62105  12.71879  12.97043  13.06202  13.17293
 Alpha virt. eigenvalues --   13.32421  13.40593  15.74188  18.10059  18.51851
          Condensed to atoms (all electrons):
               1          2          3          4          5          6
     1  C    5.163980   0.331059   0.301997   0.311086  -0.108065  -0.004960
     2  C    0.331059   4.487969  -0.011688  -0.042412   0.003923   0.621092
     3  N    0.301997  -0.011688   5.273584  -0.022722   0.000935  -0.003934
     4  N    0.311086  -0.042412  -0.022722   5.227412   0.513811  -0.002244
     5  O   -0.108065   0.003923   0.000935   0.513811   8.017667   0.000071
     6  N   -0.004960   0.621092  -0.003934  -0.002244   0.000071   6.515175
     7  O   -0.121179   0.001741   0.494054   0.004276  -0.003412  -0.000745
     8  C   -0.067094   0.410710   0.002795   0.000652  -0.000118  -0.076709
     9  O   -0.120582   0.012129  -0.001012   0.526789  -0.077994  -0.002732
    10  O   -0.108976   0.001713   0.525314  -0.000421  -0.001778  -0.000393
    11  C   -0.035204  -0.037993   0.000935  -0.000970   0.000580   0.002853
    12  O   -0.000115  -0.079650  -0.000043   0.000069  -0.000000   0.231829
    13  C    0.348734  -0.045503  -0.022430  -0.028161  -0.003219   0.002326
    14  H    0.000778  -0.001580   0.000021   0.002392  -0.000014   0.000138
    15  H   -0.000543  -0.020704  -0.000100   0.000143   0.000006  -0.002144
    16  H    0.004186   0.002391  -0.000039  -0.000107  -0.000013  -0.000205
    17  H   -0.000189   0.002801  -0.000018  -0.000001  -0.000000  -0.054882
    18  H   -0.026914   0.005829   0.002689  -0.004735   0.007932  -0.000252
    19  H    0.001760  -0.023174  -0.000044   0.000519   0.000004  -0.004246
    20  H   -0.023534  -0.001658  -0.010747   0.002438  -0.000189   0.000036
               7          8          9         10         11         12
     1  C   -0.121179  -0.067094  -0.120582  -0.108976  -0.035204  -0.000115
     2  C    0.001741   0.410710   0.012129   0.001713  -0.037993  -0.079650
     3  N    0.494054   0.002795  -0.001012   0.525314   0.000935  -0.000043
     4  N    0.004276   0.000652   0.526789  -0.000421  -0.000970   0.000069
     5  O   -0.003412  -0.000118  -0.077994  -0.001778   0.000580  -0.000000
     6  N   -0.000745  -0.076709  -0.002732  -0.000393   0.002853   0.231829
     7  O    7.999993  -0.000178  -0.000926  -0.071221  -0.000102   0.000128
     8  C   -0.000178   4.923191   0.002275  -0.000301   0.392052   0.001818
     9  O   -0.000926   0.002275   7.995635  -0.000071  -0.000382  -0.000017
    10  O   -0.071221  -0.000301  -0.000071   7.999158   0.000866  -0.000000
    11  C   -0.000102   0.392052  -0.000382   0.000866   4.867584   0.000516
    12  O    0.000128   0.001818  -0.000017  -0.000000   0.000516   7.809502
    13  C    0.004429  -0.051235   0.002887  -0.009198   0.374038  -0.000011
    14  H   -0.000000  -0.025494   0.003936  -0.000009   0.377601  -0.000008
    15  H   -0.000005   0.367064   0.000085   0.000045  -0.027950   0.003338
    16  H    0.000001  -0.029844   0.000153   0.000004   0.381581  -0.000003
    17  H    0.000003   0.000029   0.000001  -0.000000  -0.000033   0.357548
    18  H   -0.000015   0.005677   0.000230  -0.001211  -0.033146   0.000002
    19  H   -0.000001   0.375877   0.000754   0.000000  -0.025348   0.004425
    20  H    0.000510   0.001633  -0.000209   0.022718  -0.021791  -0.000007
              13         14         15         16         17         18
     1  C    0.348734   0.000778  -0.000543   0.004186  -0.000189  -0.026914
     2  C   -0.045503  -0.001580  -0.020704   0.002391   0.002801   0.005829
     3  N   -0.022430   0.000021  -0.000100  -0.000039  -0.000018   0.002689
     4  N   -0.028161   0.002392   0.000143  -0.000107  -0.000001  -0.004735
     5  O   -0.003219  -0.000014   0.000006  -0.000013  -0.000000   0.007932
     6  N    0.002326   0.000138  -0.002144  -0.000205  -0.054882  -0.000252
     7  O    0.004429  -0.000000  -0.000005   0.000001   0.000003  -0.000015
     8  C   -0.051235  -0.025494   0.367064  -0.029844   0.000029   0.005677
     9  O    0.002887   0.003936   0.000085   0.000153   0.000001   0.000230
    10  O   -0.009198  -0.000009   0.000045   0.000004  -0.000000  -0.001211
    11  C    0.374038   0.377601  -0.027950   0.381581  -0.000033  -0.033146
    12  O   -0.000011  -0.000008   0.003338  -0.000003   0.357548   0.000002
    13  C    4.975754  -0.027080   0.003176  -0.025247   0.000005   0.372318
    14  H   -0.027080   0.583798   0.006937  -0.038711   0.000000  -0.004752
    15  H    0.003176   0.006937   0.598946  -0.011607  -0.000167  -0.000232
    16  H   -0.025247  -0.038711  -0.011607   0.605071   0.000000   0.001521
    17  H    0.000005   0.000000  -0.000167   0.000000   0.408116  -0.000000
    18  H    0.372318  -0.004752  -0.000232   0.001521  -0.000000   0.595795
    19  H    0.003615  -0.010101  -0.037170   0.003737   0.000027  -0.000267
    20  H    0.327206   0.003910   0.002200  -0.007021  -0.000000  -0.018452
              19         20
     1  C    0.001760  -0.023534
     2  C   -0.023174  -0.001658
     3  N   -0.000044  -0.010747
     4  N    0.000519   0.002438
     5  O    0.000004  -0.000189
     6  N   -0.004246   0.000036
     7  O   -0.000001   0.000510
     8  C    0.375877   0.001633
     9  O    0.000754  -0.000209
    10  O    0.000000   0.022718
    11  C   -0.025348  -0.021791
    12  O    0.004425  -0.000007
    13  C    0.003615   0.327206
    14  H   -0.010101   0.003910
    15  H   -0.037170   0.002200
    16  H    0.003737  -0.007021
    17  H    0.000027  -0.000000
    18  H   -0.000267  -0.018452
    19  H    0.567815  -0.000080
    20  H   -0.000080   0.575225
 Mulliken charges:
               1
     1  C    0.153776
     2  C    0.383005
     3  N    0.470453
     4  N    0.512186
     5  O   -0.350128
     6  N   -0.220074
     7  O   -0.307350
     8  C   -0.232800
     9  O   -0.340950
    10  O   -0.356239
    11  C   -0.215686
    12  O   -0.329321
    13  C   -0.202402
    14  H    0.128238
    15  H    0.118681
    16  H    0.114152
    17  H    0.286762
    18  H    0.097986
    19  H    0.141900
    20  H    0.147812
 Sum of Mulliken charges =  -0.00000
 Mulliken charges with hydrogens summed into heavy atoms:
               1
     1  C    0.153776
     2  C    0.383005
     3  N    0.470453
     4  N    0.512186
     5  O   -0.350128
     6  N   -0.220074
     7  O   -0.307350
     8  C    0.027781
     9  O   -0.340950
    10  O   -0.356239
    11  C    0.026704
    12  O   -0.042559
    13  C    0.043395
 APT charges:
               1
     1  C   -0.038137
     2  C   -0.285097
     3  N   -0.957939
     4  N   -0.868676
     5  O    0.437839
     6  N    0.268095
     7  O    0.310507
     8  C   -0.528885
     9  O    0.262715
    10  O    0.462763
    11  C   -0.744756
    12  O   -0.768502
    13  C   -0.469957
    14  H    0.332465
    15  H    0.294057
    16  H    0.492587
    17  H    0.780142
    18  H    0.320775
    19  H    0.410137
    20  H    0.289867
 Sum of APT charges =  -0.00000
 APT charges with hydrogens summed into heavy atoms:
               1
     1  C   -0.038137
     2  C   -0.285097
     3  N   -0.957939
     4  N   -0.868676
     5  O    0.437839
     6  N    0.268095
     7  O    0.310507
     8  C    0.175308
     9  O    0.262715
    10  O    0.462763
    11  C    0.080296
    12  O    0.011640
    13  C    0.140685
 Electronic spatial extent (au):  <R**2>=           1916.8949
 Charge=             -0.0000 electrons
 Dipole moment (field-independent basis, Debye):
    X=             -3.8181    Y=              2.3243    Z=             -1.6192  Tot=              4.7542
 Quadrupole moment (field-independent basis, Debye-Ang):
   XX=            -74.9253   YY=            -70.4133   ZZ=            -75.1089
   XY=              4.1560   XZ=             -1.5985   YZ=             -5.8957
 Traceless Quadrupole moment (field-independent basis, Debye-Ang):
   XX=             -1.4428   YY=              3.0692   ZZ=             -1.6264
   XY=              4.1560   XZ=             -1.5985   YZ=             -5.8957
 Octapole moment (field-independent basis, Debye-Ang**2):
  XXX=            -12.6607  YYY=             -6.8159  ZZZ=              4.5983  XYY=            -16.8914
  XXY=             -9.6663  XXZ=              9.0881  XZZ=            -11.9764  YZZ=             -7.0402
  YYZ=              5.9578  XYZ=              3.3276
 Hexadecapole moment (field-independent basis, Debye-Ang**3):
 XXXX=          -1024.6846 YYYY=           -706.5143 ZZZZ=           -514.6986 XXXY=             40.8712
 XXXZ=            -37.1160 YYYX=             55.0427 YYYZ=             -4.0565 ZZZX=              2.4344
 ZZZY=            -12.1085 XXYY=           -254.3407 XXZZ=           -249.4944 YYZZ=           -203.4867
 XXYZ=            -30.1984 YYXZ=            -19.7842 ZZXY=             12.8984
 N-N= 8.957640278645D+02 E-N=-3.513543244108D+03  KE= 7.316299118116D+02
  Exact polarizability:   0.000   0.000   0.000   0.000   0.000   0.000
 Approx polarizability: 159.602   4.870 137.202 -21.343 -13.897 150.178
 No NMR shielding tensors so no spin-rotation constants.
 Leave Link  601 at Thu Aug 26 20:02:01 2021, MaxMem= 24159191040 cpu:        18.7
 (Enter /public/home/users/caep010/software/Gaussian09/g09/l701.exe)
 Compute integral second derivatives.
 ... and contract with generalized density number  0.
 Leave Link  701 at Thu Aug 26 20:02:02 2021, MaxMem= 24159191040 cpu:        18.4
 (Enter /public/home/users/caep010/software/Gaussian09/g09/l702.exe)
 L702 exits ... SP integral derivatives will be done elsewhere.
 Leave Link  702 at Thu Aug 26 20:02:02 2021, MaxMem= 24159191040 cpu:         0.7
 (Enter /public/home/users/caep010/software/Gaussian09/g09/l703.exe)
 Compute integral second derivatives, UseDBF=F ICtDFT=           0.
 Integral derivatives from FoFJK, PRISM(SPDF).
 Calling FoFJK, ICntrl=    100147 FMM=F ISym2X=0 I1Cent= 0 IOpClX= 0 NMat=1 NMatS=1 NMatT=0.
 FoFJK:  IHMeth= 1 ICntrl=  100147 DoSepK=F KAlg= 0 I1Cent=   0 FoldK=F
 IRaf=         0 NMat=   1 IRICut=       1 DoRegI=T DoRafI=F ISym2E= 0.
 FoFCou: FMM=F IPFlag=           0 FMFlag=      100000 FMFlg1=         800
         NFxFlg=           0 DoJE=F BraDBF=F KetDBF=F FulRan=T
         wScrn=  0.000000 ICntrl=  100147 IOpCl=  0 I1Cent=           0 NGrid=           0
         NMat0=    1 NMatS0=      1 NMatT0=    0 NMatD0=    1 NMtDS0=    0 NMtDT0=    0
 Symmetry not used in FoFCou.
 Leave Link  703 at Thu Aug 26 20:03:06 2021, MaxMem= 24159191040 cpu:      2016.4
 (Enter /public/home/users/caep010/software/Gaussian09/g09/l716.exe)
 Dipole        =-1.50215385D+00 9.14467199D-01-6.37048393D-01
 Polarizability= 0.00000000D+00 0.00000000D+00 0.00000000D+00
                 0.00000000D+00 0.00000000D+00 0.00000000D+00
 ***** Axes restored to original set *****
 -------------------------------------------------------------------
 Center     Atomic                   Forces (Hartrees/Bohr)
 Number     Number              X              Y              Z
 -------------------------------------------------------------------
      1        6          -0.004933942   -0.017257740   -0.021001232
      2        6          -0.014972989    0.001621931    0.004903087
      3        7           0.001039527    0.012789511   -0.021108310
      4        7           0.008231385   -0.010093742   -0.021122926
      5        8           0.000926530    0.008671407    0.006649031
      6        7           0.000852670    0.001806271    0.002864205
      7        8           0.001275306   -0.005637915    0.007978840
      8        6          -0.043963636   -0.181354538   -0.054624545
      9        8          -0.014790324   -0.006483483    0.018291220
     10        8           0.000980875   -0.001702612    0.007237869
     11        6          -0.041139424    0.036091794   -0.057062099
     12        8           0.145777453   -0.026737925    0.070734245
     13        6          -0.120879912    0.220082029    0.037367855
     14        1          -0.004062019   -0.055624061    0.019407988
     15        1           0.041860032    0.194370537    0.041471316
     16        1           0.064835313    0.022511051    0.053387571
     17        1          -0.146853377    0.023564121   -0.072708552
     18        1           0.138294400   -0.163717258   -0.069028468
     19        1          -0.017465889    0.004966929    0.022591387
     20        1           0.004988023   -0.057866307    0.023771519
 -------------------------------------------------------------------
 Cartesian Forces:  Max     0.220082029 RMS     0.067548992
 FormGI is forming the generalized inverse of G from B-inverse, IUseBI=4.
 Leave Link  716 at Thu Aug 26 20:03:06 2021, MaxMem= 24159191040 cpu:         1.3
 (Enter /public/home/users/caep010/software/Gaussian09/g09/l103.exe)

 GradGradGradGradGradGradGradGradGradGradGradGradGradGradGradGradGradGrad
 Berny optimization.
 Red2BG is reusing G-inverse.
 Internal  Forces:  Max     0.224121538 RMS     0.035543924
 Search for a local minimum.
 Step number   1 out of a maximum of  119
 All quantities printed in internal units (Hartrees-Bohrs-Radians)
 RMS Force = .35544D-01 SwitMx=.10000D-02 MixMth= 1
 Mixed Optimization -- RFO/linear search
 Second derivative matrix not updated -- analytic derivatives used.
 ITU=  0
     Eigenvalues ---    0.00044   0.00108   0.00320   0.00596   0.01031
     Eigenvalues ---    0.02187   0.02294   0.03082   0.04074   0.04269
     Eigenvalues ---    0.04489   0.04921   0.05272   0.05464   0.05793
     Eigenvalues ---    0.06313   0.06708   0.06900   0.07044   0.07061
     Eigenvalues ---    0.07743   0.08462   0.09284   0.09663   0.12753
     Eigenvalues ---    0.14824   0.17068   0.18320   0.18698   0.20087
     Eigenvalues ---    0.21959   0.22986   0.24571   0.24890   0.26027
     Eigenvalues ---    0.26998   0.27929   0.30271   0.31919   0.35844
     Eigenvalues ---    0.37093   0.40260   0.41923   0.46041   0.52095
     Eigenvalues ---    0.59470   0.60740   0.62772   0.74049   0.80003
     Eigenvalues ---    0.85316   0.93448   1.01373   1.11340
 RFO step:  Lambda=-1.45219479D-01 EMin= 4.43095852D-04
 Linear search not attempted -- first point.
 Maximum step size (   0.300) exceeded in Quadratic search.
    -- Step size scaled by   0.703
 Iteration  1 RMS(Cart)=  0.03238513 RMS(Int)=  0.00089964
 Iteration  2 RMS(Cart)=  0.00082591 RMS(Int)=  0.00005881
 Iteration  3 RMS(Cart)=  0.00000105 RMS(Int)=  0.00005880
 Iteration  4 RMS(Cart)=  0.00000000 RMS(Int)=  0.00005880
 ITry= 1 IFail=0 DXMaxC= 1.46D-01 DCOld= 1.00D+10 DXMaxT= 3.00D-01 DXLimC= 3.00D+00 Rises=F
 Variable       Old X    -DE/DX   Delta X   Delta X   Delta X     New X
                                 (Linear)    (Quad)   (Total)
    R1        2.79123   0.02167   0.00000   0.02853   0.02853   2.81976
    R2        2.86830   0.00760   0.00000   0.01094   0.01094   2.87924
    R3        2.89101   0.00857   0.00000   0.01195   0.01195   2.90296
    R4        2.85144   0.01933   0.00000   0.02896   0.02894   2.88038
    R5        2.40002  -0.00069   0.00000   0.00032   0.00032   2.40034
    R6        2.85910   0.01104   0.00000   0.01084   0.01085   2.86995
    R7        2.30120  -0.00495   0.00000  -0.00476  -0.00476   2.29645
    R8        2.31102  -0.00208   0.00000  -0.00358  -0.00358   2.30744
    R9        2.31527  -0.00900   0.00000  -0.01098  -0.01098   2.30429
   R10        2.27116   0.02413   0.00000   0.01759   0.01759   2.28875
   R11        2.63740  -0.00249   0.00000  -0.00557  -0.00557   2.63183
   R12        2.88418   0.02366   0.00000   0.02923   0.02924   2.91342
   R13        1.72481   0.20136   0.00000   0.13118   0.13118   1.85599
   R14        1.99602   0.02364   0.00000   0.03045   0.03045   2.02647
   R15        2.87546   0.01563   0.00000   0.02225   0.02226   2.89771
   R16        1.92312   0.05802   0.00000   0.06168   0.06168   1.98480
   R17        1.87780   0.08431   0.00000   0.08004   0.08004   1.95784
   R18        1.61154   0.16538   0.00000   0.09228   0.09228   1.70382
   R19        1.69902   0.22412   0.00000   0.13585   0.13585   1.83486
   R20        2.32382  -0.05871   0.00000  -0.14471  -0.14471   2.17911
    A1        1.96818   0.00049   0.00000   0.00164   0.00162   1.96980
    A2        1.95669  -0.00075   0.00000  -0.00160  -0.00162   1.95506
    A3        1.83980  -0.00046   0.00000  -0.00367  -0.00368   1.83612
    A4        1.79890   0.00271   0.00000   0.00909   0.00909   1.80799
    A5        2.01161  -0.00166   0.00000  -0.00552  -0.00553   2.00608
    A6        1.89050  -0.00039   0.00000   0.00010   0.00011   1.89061
    A7        2.11077   0.00115   0.00000   0.00010   0.00011   2.11087
    A8        1.90183   0.00408   0.00000   0.00755   0.00755   1.90938
    A9        2.26918  -0.00528   0.00000  -0.00778  -0.00778   2.26140
   A10        2.04592  -0.00682   0.00000  -0.00982  -0.00982   2.03610
   A11        2.06488  -0.00490   0.00000  -0.00919  -0.00919   2.05569
   A12        2.17126   0.01176   0.00000   0.01918   0.01918   2.19045
   A13        2.05183  -0.00664   0.00000  -0.00844  -0.00845   2.04338
   A14        2.03862  -0.00068   0.00000  -0.00261  -0.00262   2.03600
   A15        2.19053   0.00714   0.00000   0.01066   0.01065   2.20118
   A16        1.95878  -0.00577   0.00000  -0.00897  -0.00897   1.94980
   A17        1.82159  -0.00527   0.00000  -0.00643  -0.00643   1.81517
   A18        1.75785   0.01192   0.00000   0.03359   0.03360   1.79145
   A19        1.88568   0.00070   0.00000   0.00317   0.00316   1.88884
   A20        1.94882  -0.00079   0.00000  -0.00053  -0.00060   1.94822
   A21        1.92278   0.00593   0.00000   0.01540   0.01541   1.93819
   A22        2.09816  -0.01144   0.00000  -0.03960  -0.03964   2.05852
   A23        1.82516   0.00517   0.00000   0.00558   0.00552   1.83068
   A24        1.88618   0.00035   0.00000   0.00425   0.00429   1.89047
   A25        1.80595   0.00794   0.00000   0.03064   0.03060   1.83655
   A26        1.94354  -0.00339   0.00000  -0.00592  -0.00599   1.93755
   A27        1.94057  -0.00169   0.00000  -0.00275  -0.00309   1.93748
   A28        2.04310  -0.00597   0.00000  -0.02496  -0.02517   2.01794
   A29        1.74960   0.01005   0.00000   0.01812   0.01812   1.76773
   A30        1.80285  -0.00393   0.00000  -0.00568  -0.00561   1.79724
   A31        1.93773   0.00015   0.00000  -0.00140  -0.00140   1.93634
   A32        1.65190   0.01485   0.00000   0.04783   0.04787   1.69977
   A33        1.96031   0.00576   0.00000   0.01312   0.01305   1.97336
   A34        1.97744  -0.00442   0.00000  -0.01175  -0.01194   1.96549
   A35        2.08638  -0.01008   0.00000  -0.03250  -0.03276   2.05362
    D1        0.57234   0.00133   0.00000   0.00579   0.00579   0.57813
    D2       -2.51770   0.00236   0.00000   0.00835   0.00835  -2.50936
    D3       -1.44873  -0.00192   0.00000  -0.00574  -0.00573  -1.45447
    D4        1.74441  -0.00089   0.00000  -0.00318  -0.00318   1.74123
    D5        2.78127  -0.00078   0.00000  -0.00281  -0.00280   2.77847
    D6       -0.30877   0.00024   0.00000  -0.00024  -0.00025  -0.30902
    D7       -1.19820  -0.00252   0.00000  -0.01036  -0.01037  -1.20857
    D8        1.89487  -0.00139   0.00000  -0.00614  -0.00615   1.88872
    D9        0.91532  -0.00146   0.00000  -0.00570  -0.00569   0.90964
   D10       -2.27479  -0.00032   0.00000  -0.00148  -0.00147  -2.27626
   D11        2.97119  -0.00101   0.00000  -0.00244  -0.00245   2.96874
   D12       -0.21893   0.00013   0.00000   0.00178   0.00177  -0.21716
   D13        2.86935   0.00257   0.00000   0.00803   0.00803   2.87738
   D14       -0.33973   0.00018   0.00000   0.00250   0.00250  -0.33723
   D15        0.74802   0.00069   0.00000   0.00127   0.00128   0.74930
   D16       -2.46106  -0.00170   0.00000  -0.00426  -0.00426  -2.46531
   D17       -1.39114   0.00134   0.00000   0.00271   0.00270  -1.38843
   D18        1.68297  -0.00105   0.00000  -0.00282  -0.00283   1.68014
   D19        0.58125  -0.00118   0.00000   0.00007   0.00007   0.58132
   D20        2.68588   0.00341   0.00000   0.01157   0.01152   2.69740
   D21       -1.43069  -0.00021   0.00000  -0.00081  -0.00083  -1.43152
   D22        2.76335  -0.00200   0.00000  -0.00432  -0.00429   2.75906
   D23       -1.41520   0.00258   0.00000   0.00717   0.00715  -1.40805
   D24        0.75141  -0.00104   0.00000  -0.00520  -0.00520   0.74622
   D25       -1.51608   0.00015   0.00000   0.00389   0.00391  -1.51217
   D26        0.58856   0.00474   0.00000   0.01538   0.01535   0.60391
   D27        2.75517   0.00112   0.00000   0.00301   0.00301   2.75818
   D28       -3.07715  -0.00231   0.00000  -0.00617  -0.00619  -3.08333
   D29        0.00078  -0.00320   0.00000  -0.00875  -0.00874  -0.00796
   D30       -0.08811  -0.00026   0.00000  -0.00142  -0.00140  -0.08951
   D31        1.93412   0.00161   0.00000   0.00850   0.00854   1.94267
   D32       -2.13436  -0.00474   0.00000  -0.01732  -0.01729  -2.15166
   D33        3.11122   0.00059   0.00000   0.00107   0.00107   3.11229
   D34       -1.14973   0.00246   0.00000   0.01099   0.01101  -1.13872
   D35        1.06497  -0.00389   0.00000  -0.01483  -0.01483   1.05014
   D36       -2.87183  -0.00684   0.00000  -0.02757  -0.02757  -2.89941
   D37        0.44676   0.00175   0.00000   0.00483   0.00479   0.45155
   D38       -1.62540   0.00284   0.00000   0.00677   0.00679  -1.61861
   D39        2.48017   0.00518   0.00000   0.01656   0.01664   2.49681
   D40       -1.43743  -0.00897   0.00000  -0.03028  -0.03032  -1.46776
   D41        2.77359  -0.00788   0.00000  -0.02834  -0.02832   2.74527
   D42        0.59597  -0.00554   0.00000  -0.01854  -0.01847   0.57750
   D43        2.46724   0.00249   0.00000   0.01221   0.01215   2.47939
   D44        0.39508   0.00359   0.00000   0.01415   0.01415   0.40923
   D45       -1.78254   0.00593   0.00000   0.02394   0.02400  -1.75854
   D46       -0.63621  -0.00112   0.00000  -0.00433  -0.00432  -0.64053
   D47       -2.72540  -0.00183   0.00000  -0.00586  -0.00583  -2.73123
   D48        1.12820   0.01242   0.00000   0.04343   0.04335   1.17155
   D49        1.39664   0.00057   0.00000   0.00097   0.00093   1.39757
   D50       -0.69255  -0.00014   0.00000  -0.00056  -0.00057  -0.69312
   D51       -3.12214   0.01411   0.00000   0.04873   0.04861  -3.07353
   D52       -2.57416  -0.01222   0.00000  -0.04141  -0.04132  -2.61548
   D53        1.61983  -0.01294   0.00000  -0.04293  -0.04282   1.57701
   D54       -0.80975   0.00132   0.00000   0.00636   0.00635  -0.80340
         Item               Value     Threshold  Converged?
 Maximum Force            0.224122     0.000450     NO 
 RMS     Force            0.035544     0.000300     NO 
 Maximum Displacement     0.146418     0.001800     NO 
 RMS     Displacement     0.032352     0.001200     NO 
 Predicted change in Energy=-7.373908D-02
 Lowest energy point so far.  Saving SCF results.
 GradGradGradGradGradGradGradGradGradGradGradGradGradGradGradGradGradGrad

 Leave Link  103 at Thu Aug 26 20:03:06 2021, MaxMem= 24159191040 cpu:         5.0
 (Enter /public/home/users/caep010/software/Gaussian09/g09/l202.exe)
                          Input orientation:                          
 ---------------------------------------------------------------------
 Center     Atomic      Atomic             Coordinates (Angstroms)
 Number     Number       Type             X           Y           Z
 ---------------------------------------------------------------------
      1          6           0        3.103429    9.338406   13.520886
      2          6           0        2.164671   10.082953   14.410210
      3          7           0        3.157224    9.907090   12.108391
      4          7           0        2.661875    7.882634   13.307329
      5          8           0        3.183853    7.273306   12.389104
      6          7           0        1.104124   10.607147   13.947727
      7          8           0        2.164448    9.759944   11.423176
      8          6           0        2.738903   10.139939   15.815024
      9          8           0        1.885178    7.426132   14.116802
     10          8           0        4.165729   10.509597   11.775456
     11          6           0        4.009832    9.270993   15.734024
     12          8           0        0.410535   11.315526   14.925871
     13          6           0        4.435300    9.331371   14.262066
     14          1           0        3.757581    8.290398   16.013239
     15          1           0        2.957280   11.091781   15.919536
     16          1           0        4.702866    9.745298   16.340755
     17          1           0       -0.386947   11.437440   14.523274
     18          1           0        4.978888    8.573573   13.991825
     19          1           0        2.021969    9.712008   16.487960
     20          1           0        4.787059   10.382763   13.944945
 ---------------------------------------------------------------------
                    Distance matrix (angstroms):
                    1          2          3          4          5
     1  C    0.000000
     2  C    1.492151   0.000000
     3  N    1.523626   2.512859   0.000000
     4  N    1.536180   2.510968   2.404422   0.000000
     5  O    2.356276   3.608008   2.648835   1.219377   0.000000
     6  N    2.406059   1.270208   2.844021   3.203072   4.227183
     7  O    2.336614   3.004447   1.215227   2.705875   2.855796
     8  C    2.457316   1.518714   3.737424   3.374892   4.489153
     9  O    2.344364   2.687546   3.436127   1.211156   2.166761
    10  O    2.355143   3.335894   1.221042   3.392514   3.437183
    11  C    2.392507   2.411718   3.778462   3.103769   3.982648
    12  O    3.624178   2.205025   4.179256   4.412817   5.519603
    13  C    1.524230   2.396368   2.569678   2.481008   3.051186
    14  H    2.781737   2.884497   4.268719   2.947676   3.807623
    15  H    2.974762   1.980916   3.996035   4.148435   5.205385
    16  H    3.267326   3.206782   4.508668   4.103271   4.902417
    17  H    4.194455   2.891050   4.553546   4.838438   5.886026
    18  H    2.079447   3.220729   2.940077   2.512863   2.735244
    19  H    3.180041   2.115422   4.528519   3.724581   4.908958
    20  H    2.026109   2.680164   2.501111   3.342695   3.828790
                    6          7          8          9         10
     6  N    0.000000
     7  O    2.866252   0.000000
     8  C    2.525387   4.445528   0.000000
     9  O    3.279861   3.574953   3.313239   0.000000
    10  O    3.755224   2.165920   4.300068   4.493392   0.000000
    11  C    3.663237   4.714650   1.541716   3.245470   4.150748
    12  O    1.392706   4.214845   2.755703   4.237516   4.967506
    13  C    3.580942   3.660565   2.437872   3.186559   2.764799
    14  H    4.083442   5.076053   2.120801   2.801664   4.801066
    15  H    2.749015   4.756009   0.982147   4.223296   4.355765
    16  H    4.406848   5.534109   2.071059   4.273624   4.659895
    17  H    1.801092   4.351346   3.622577   4.627997   5.397986
    18  H    4.376204   3.990803   3.285588   3.302012   3.053148
    19  H    2.845434   5.067014   1.072363   3.296412   5.238277
    20  H    3.689765   3.691248   2.784080   4.146338   2.260270
                   11         12         13         14         15
    11  C    0.000000
    12  O    4.217602   0.000000
    13  C    1.533405   4.536104   0.000000
    14  H    1.050313   4.640742   2.146983   0.000000
    15  H    2.111291   2.742871   2.833865   2.914963   0.000000
    16  H    1.036042   4.784519   2.136323   1.765663   2.244440
[...]
 ,-0.08678955,-0.34482138,-0.00178318,-0.00743836,-0.00610336,-0.000978
 98,0.00375720,0.00289962,-0.00159013,0.00076967,-0.00039585,0.28150790
 ,0.11376682,0.35872027,0.00538294,0.00529917,0.01133602,-0.08777301,-0
 .00217592,-0.03604017,-0.00244381,0.00309328,-0.00136430,-0.00157935,-
 0.00134858,0.00107665,0.00005645,0.00130685,0.00030846,-0.01024927,0.0
 1357972,-0.03058519,0.00049523,-0.00053293,-0.00006037,0.47787368,0.00
 017929,0.00570149,-0.01547947,-0.00215916,-0.07805155,-0.00686462,0.00
 163822,-0.00138201,0.00102374,0.00071642,-0.00075749,0.00038809,-0.000
 10796,0.00009482,0.00021724,0.01965573,0.01975060,0.00752495,-0.000073
 25,0.00017656,0.00015792,0.03634966,0.53381212,0.00280444,-0.00930755,
 -0.02622091,-0.02475441,-0.00786545,-0.16743282,0.00086092,-0.00231477
 ,-0.00004561,0.00141209,0.00033128,-0.00179750,-0.00048051,-0.00038802
 ,0.00014329,-0.02027722,0.00009773,-0.00838701,-0.00043854,0.00035527,
 -0.00028152,-0.07397191,0.01126037,0.51013224,-0.01208405,-0.02377268,
 0.02212485,-0.00301910,0.00101545,0.00083781,-0.00411113,-0.00271475,-
 0.00786858,-0.38904339,-0.13775403,0.20556881,-0.05805566,0.00896442,0
 .06496392,0.00257505,0.00135037,-0.00038118,0.00233584,0.00054703,0.00
 027744,0.00016085,-0.00037230,-0.00058192,0.46079457,-0.03560935,-0.01
 276194,0.01812386,-0.00166245,-0.00217236,0.00398473,-0.00523618,-0.00
 435501,-0.00836705,-0.14104813,-0.19314001,0.07466809,0.03057784,0.045
 23595,-0.01812645,-0.00223506,-0.00023469,0.00084020,0.00144969,0.0012
 2025,0.00207182,0.00036251,-0.00006922,0.00021170,0.15519353,0.1756854
 9,0.01698503,0.00748011,0.01273230,0.00221480,-0.00107570,-0.00121452,
 -0.00121564,-0.00211766,-0.00106862,0.19741739,0.06910917,-0.20126710,
 0.07456938,-0.00029760,-0.03084390,-0.00237554,-0.00056578,0.00108248,
 0.00018964,0.00105762,0.00039950,-0.00022435,-0.00007808,0.00069184,-0
 .28709051,-0.07643109,0.22012031,0.00098520,-0.02517126,0.01027193,0.0
 0058748,0.00051975,-0.00243773,-0.28638018,-0.23136595,0.04647178,0.00
 131361,0.00296582,0.00170268,0.00096724,-0.00015573,0.00061938,0.00047
 334,0.00036401,0.00076534,-0.05472934,-0.07060602,-0.01891616,-0.00037
 133,-0.00022794,0.00002474,-0.00088740,-0.00073816,-0.00042947,0.33649
 105,-0.02728104,-0.01884209,0.02234024,0.00366158,-0.00403161,0.001550
 34,-0.23480641,-0.34480084,0.08201076,-0.00092232,0.00346531,0.0046680
 2,0.00078719,-0.00062527,-0.00013894,-0.00032779,0.00064346,-0.0014168
 0,-0.05941055,-0.02289109,-0.02271560,-0.00140813,0.00027222,0.0005640
 4,-0.00103745,-0.00211250,-0.00065591,0.32121815,0.38723674,0.01858505
 ,0.03473904,-0.00510779,-0.00018110,0.00154632,0.00049117,0.05299394,0
 .08786203,-0.14468613,-0.00123557,-0.00490783,-0.01123774,-0.00026989,
 0.00164029,0.00283807,-0.00132606,0.00140976,0.00052365,-0.03873525,-0
 .04261956,0.03451454,0.00040705,-0.00012660,-0.00000736,0.00338538,0.0
 0437006,0.00089189,-0.03570329,-0.08882068,0.13016004,0.00450984,0.003
 99644,-0.02480124,-0.02687005,0.01139421,-0.01533591,-0.00701772,-0.00
 039971,0.00155970,0.00085948,0.00111630,-0.00040035,-0.00031493,-0.000
 35307,0.00016055,0.00017730,0.00094417,-0.00040260,-0.00015698,0.00006
 799,-0.00335032,-0.13887278,0.04163553,0.00222383,-0.00044404,-0.00035
 980,-0.00004819,0.00118076,0.00021587,-0.00030431,0.50671847,-0.001409
 27,0.00201948,-0.00674684,0.00403733,-0.00049116,0.00576710,-0.0023337
 1,-0.00275421,0.00142295,0.00155508,0.00059338,-0.00196657,-0.00101939
 ,-0.00049128,0.00009361,0.00003725,0.00033926,-0.00273092,0.00034812,0
 .00065563,-0.00066553,0.04244489,-0.10921116,-0.00174764,-0.00060198,-
 0.00073149,0.00123197,0.00202921,0.00082037,0.00098693,0.06122360,0.55
 955106,-0.01212069,0.00475956,-0.03301059,-0.02256778,0.01588697,-0.00
 258289,-0.00219932,-0.00220853,0.00019386,-0.00184546,-0.00159540,0.00
 160808,0.00091178,0.00008295,-0.00039942,-0.00293606,-0.00128238,-0.00
 680748,-0.00025193,0.00028027,-0.00113469,0.00752894,-0.00182252,-0.07
 272542,0.00052484,0.00077146,-0.00148775,0.00062712,0.00013064,0.00040
 491,0.09140473,-0.01737799,0.49383664,0.00621494,0.00152448,-0.0101758
 9,-0.05875139,0.04940870,0.05145394,-0.00092674,0.00151473,-0.00407554
 ,-0.00269725,-0.00145866,0.00161107,-0.00023367,0.00340296,0.00121802,
 -0.11300967,0.06616249,0.04559379,0.00103212,-0.00031453,0.00197633,0.
 00103451,-0.00753416,0.00573328,0.00069612,0.00182331,0.00016055,-0.00
 008634,-0.00070229,0.00142036,0.00078710,-0.00026461,0.00213075,0.4789
 9689,0.00284527,0.01328572,0.00416731,0.03900836,-0.02662137,-0.031835
 15,0.00155611,-0.00276290,0.00357331,-0.00088027,0.00182279,0.00017454
 ,0.00031499,-0.00127459,-0.00045349,0.06610401,-0.08090779,-0.06654467
 ,-0.00099522,0.00040077,-0.00158475,-0.00842831,-0.00715059,0.00090564
 ,-0.00032715,-0.00139516,-0.00005972,0.00011697,0.00158792,-0.00151026
 ,-0.00084143,0.00060055,-0.00086336,-0.24280700,0.17282045,-0.00876051
 ,0.00413993,0.00503162,0.00489265,0.00015983,0.00856997,-0.00086496,-0
 .00281275,0.00240083,0.00062860,0.00145686,-0.00049498,0.00045787,-0.0
 0262473,-0.00107623,0.04610625,-0.06669470,-0.17700517,0.00053995,0.00
 052652,-0.00080369,-0.00227693,0.00591340,0.00035000,-0.00020598,-0.00
 183238,-0.00042399,0.00027960,0.00141466,-0.00097864,-0.00050227,0.000
 74488,0.00034310,0.13473837,-0.00323280,0.33974493,-0.14847884,-0.0006
 0021,-0.02913889,-0.03414073,0.00770394,-0.00068862,0.00908914,0.00688
 938,-0.00928451,-0.01344175,-0.01459079,-0.01087454,-0.00192134,0.0023
 6582,0.00166674,-0.00064656,0.00016084,0.00249409,0.00048653,-0.000606
 07,0.00635581,-0.01768442,0.00198531,0.02388184,0.00062870,0.00018055,
 0.00034207,-0.00225400,-0.00293665,-0.00003094,-0.07900667,-0.00287897
 ,0.02109685,-0.00045445,0.00077890,-0.00062039,0.52588359,0.00069777,-
 0.07992959,0.00067857,0.02016164,0.00329284,0.00296504,0.01296493,0.00
 309079,-0.00227484,-0.03371014,0.00098185,-0.01878889,0.00149419,-0.00
 266771,0.00060527,0.00188038,0.00074007,-0.00201332,-0.00014534,0.0004
 8216,0.00364955,0.01244018,0.00112429,-0.01877690,0.00021573,-0.006057
 63,0.00391273,-0.00156204,-0.00083909,0.00170939,-0.00282106,-0.080472
 47,0.01014082,0.00102663,-0.00214549,-0.00038206,-0.02940681,0.6189532
 8,-0.02662196,0.00440630,-0.08026676,0.00395981,0.00411110,0.00969352,
 -0.02482331,0.00629905,-0.01713875,-0.00301746,-0.01047994,0.00099821,
 -0.00227740,0.00068053,0.00052583,0.00134217,-0.00013433,-0.00223100,-
 0.00136834,0.00025003,-0.00632252,0.01407074,-0.00605067,-0.01152191,0
 .00012925,0.00255569,-0.00224064,-0.00324754,-0.00199336,-0.00275629,0
 .02566251,0.00607574,-0.15922006,0.00111045,-0.00201675,-0.00073178,-0
 .06556969,0.00862522,0.42566250,-0.00029605,0.00052975,-0.00033879,0.0
 0011885,0.00085614,0.00137657,-0.00021784,-0.00034727,-0.00002725,0.00
 130791,-0.00014391,-0.00072099,-0.00048169,0.00017641,0.00008589,-0.00
 061696,-0.00005385,-0.00044137,0.00010824,0.00008085,0.00012398,0.0032
 2655,0.02820022,-0.00602005,-0.00058185,-0.00021663,0.00038788,0.00026
 001,0.00006608,0.00018901,-0.05789779,-0.05005618,0.01025810,0.0001307
 4,-0.00019819,-0.00016804,-0.00328116,-0.00954843,0.00374277,0.0635123
 8,-0.00004565,-0.00034810,0.00020168,0.00001753,-0.00064559,-0.0009417
 1,-0.00013068,0.00000687,0.00001770,-0.00085239,-0.00026454,0.00072612
 ,0.00032102,0.00009082,-0.00002871,0.00033631,-0.00001371,0.00044206,0
 .00009543,0.00004060,0.00011183,-0.00206022,-0.01625452,0.00270823,0.0
 0022778,0.00028802,-0.00089702,0.00006199,0.00009129,-0.00006944,-0.04
 896080,-0.28295932,0.06426108,0.00001415,0.00009621,0.00001081,0.00001
 043,0.00134595,-0.00015910,0.05030409,0.30604850,0.00134464,0.00096772
 ,0.00102285,-0.00000199,-0.00030945,-0.00058475,0.00097947,0.00092534,
 -0.00053503,0.00057835,0.00082538,-0.00135423,-0.00013976,-0.00024624,
 0.00002612,-0.00010995,0.00000154,0.00024383,-0.00039469,-0.00032412,-
 0.00019467,0.00024902,-0.00475831,0.00060666,-0.00069414,-0.00070007,0
 .00082934,-0.00094166,-0.00043973,-0.00038028,0.00990057,0.06333767,-0
 .06625428,0.00000561,0.00000993,-0.00006170,0.00776173,0.03090081,-0.0
 1042754,-0.01626017,-0.06966690,0.07376653,-0.00109599,0.00010951,-0.0
 0072761,-0.00457514,-0.01279457,-0.00247073,0.00007972,-0.00018583,0.0
 0015739,-0.00029689,0.00008381,0.00022446,0.00017083,-0.00017104,-0.00
 015200,0.00287801,0.00144449,-0.00326251,0.00003138,0.00005029,0.00005
 327,-0.05493465,-0.05053827,-0.01230458,0.00014034,-0.00008790,-0.0002
 0626,0.00007022,0.00006232,-0.00002295,0.00512591,0.02777849,0.0053178
 6,-0.00086404,-0.00069797,0.00225861,0.00016220,0.00014567,-0.00050991
 ,-0.00386908,0.00304594,0.00125510,0.05951240,-0.00010109,-0.00075117,
 0.00005905,-0.00188977,0.00224706,-0.00391117,-0.00024961,-0.00005671,
 0.00011585,0.00004927,-0.00012082,-0.00001207,0.00002459,-0.00003307,0
 .00000032,0.00209239,-0.00123737,0.00061062,0.00001925,0.00003536,-0.0
 0006473,-0.04877767,-0.27908942,-0.05559650,0.00002614,0.00016399,-0.0
 0006880,0.00006996,0.00004918,-0.00003080,-0.00273040,-0.01498066,-0.0
 0137061,-0.00050119,0.00090444,0.00021041,-0.00025428,-0.00010331,0.00
 016717,0.00293953,-0.00045503,-0.00086814,0.05228629,0.30393536,-0.000
 93321,0.00106027,-0.00304531,-0.01073776,-0.02947459,-0.01245410,0.000
 13820,-0.00121121,0.00022910,0.00019285,0.00002380,0.00008565,-0.00000
 872,-0.00013854,0.00002919,0.00604033,0.00168476,-0.00223856,0.0000384
 4,0.00024075,-0.00004849,-0.01145191,-0.06006005,-0.05625704,-0.000033
 62,-0.00010104,0.00007718,0.00012277,0.00057117,-0.00007546,-0.0006334
 2,0.00200565,-0.00065645,-0.00281650,-0.00017949,0.00255395,0.00004991
 ,-0.00020384,-0.00015360,-0.00090566,0.00066999,0.00059858,0.01463521,
 0.06368604,0.06488830,-0.00086345,0.00029989,0.00264560,-0.00368358,0.
 00231524,0.00193175,0.00079696,-0.00020889,-0.00009753,-0.00035873,-0.
 00026565,0.00038405,0.00022245,-0.00006033,-0.00015365,-0.00031447,-0.
 00013809,-0.00186347,0.00002433,0.00006359,0.00044237,-0.01612975,-0.0
 0891142,-0.01451893,0.00023999,0.00011675,-0.00030005,-0.00007499,0.00
 006520,0.00000286,-0.18988987,-0.06995409,-0.11641539,0.00017049,-0.00
 000086,0.00019289,0.00875981,0.00398427,0.00699522,-0.00424846,-0.0022
 1190,-0.00351595,0.00197497,-0.00021850,0.00014435,0.20392711,0.001065
 77,-0.00018935,0.00079983,0.00380703,-0.00157576,0.00014378,0.00014190
 ,0.00016682,0.00032417,-0.00030414,-0.00020815,0.00080952,0.00010568,0
 .00007605,-0.00002024,0.00049862,-0.00007852,0.00151173,-0.00002267,-0
 .00001668,0.00002393,0.01339137,0.00562903,0.01208613,0.00021118,0.000
 29413,-0.00054922,-0.00001199,-0.00002022,-0.00010260,-0.07256214,-0.0
 8188805,-0.05857056,-0.00019136,0.00011382,-0.00014310,0.00158000,-0.0
 0001560,0.00200991,-0.02246485,-0.01069030,-0.01869521,-0.00050086,0.0
 0132010,0.00021973,0.07433654,0.08646542,0.00262605,0.00036870,-0.0053
 2167,0.00057736,-0.00039707,-0.00113488,-0.00188774,-0.00081577,0.0009
 0512,0.00072577,0.00096868,-0.00016455,-0.00025664,-0.00031267,0.00004
 994,0.00017569,-0.00010425,0.00053340,-0.00013628,0.00017706,-0.001204
 90,0.00378694,0.00192449,0.00316018,-0.00035148,-0.00035907,0.00034210
 ,0.00037022,0.00028373,-0.00022457,-0.11539154,-0.05583244,-0.13953457
 ,-0.00021282,0.00022279,0.00010216,-0.02191311,-0.00981585,-0.01760585
 ,0.00660700,0.00295479,0.00570524,-0.00033506,0.00027962,0.00060071,0.
 12546266,0.06036030,0.15224252,-0.00014269,0.00162982,-0.00023643,-0.0
 0051443,0.00434610,0.00396631,0.00008061,-0.00031003,0.00044762,-0.000
 38735,0.00039809,0.00018475,0.00011979,-0.00032229,-0.00015844,-0.0245
 6264,0.00746938,-0.00889903,-0.00000103,0.00002282,-0.00018647,0.00053
 896,0.00032246,0.00043805,0.00002957,-0.00039774,-0.00013709,0.0000052
 1,0.00007130,-0.00018689,0.00000169,0.00013858,0.00007192,-0.31208195,
 0.14204390,-0.17734903,-0.00006707,-0.00017991,-0.00004462,-0.00000229
 ,-0.00003648,-0.00000592,0.00036937,-0.00012736,0.00035628,0.00007677,
 -0.00003679,0.00001123,0.33672727,0.00180869,0.00084336,-0.00044321,0.
 00389594,0.00074205,-0.00486465,0.00051360,0.00047248,-0.00012653,0.00
 011839,0.00016026,-0.00006479,-0.00022743,0.00034920,0.00028541,0.0204
 9362,-0.01873341,0.01042699,-0.00022318,-0.00017234,-0.00002462,-0.000
 06689,0.00030998,-0.00051230,-0.00028811,-0.00003216,0.00014581,-0.000
 11977,-0.00033960,0.00009785,0.00005627,0.00002586,-0.00006757,0.12893
 641,-0.06849035,0.06440703,0.00023267,-0.00037769,-0.00022570,-0.00002
 354,0.00001965,0.00002548,0.00032345,-0.00021013,0.00013359,-0.0000627
 4,0.00001328,-0.00001421,-0.15493129,0.08520477,0.00042564,-0.00046601
 ,0.00128908,0.00559892,-0.00596789,-0.00624659,0.00044409,-0.00023805,
 0.00096180,0.00029231,0.00014401,-0.00016240,0.00004943,-0.00036509,-0
 .00017028,0.04132426,-0.02014158,0.01161851,-0.00042295,0.00009592,-0.
 00040702,-0.00075846,0.00044546,-0.00035418,-0.00006588,-0.00014851,-0
 .00002829,-0.00009235,0.00011513,-0.00026902,0.00007846,-0.00009340,-0
 .00009035,-0.22873197,0.09568239,-0.17964462,0.00005876,-0.00008096,-0
 .00027543,-0.00006093,0.00005049,0.00000796,0.00014678,0.00029753,0.00
 015138,-0.00004779,0.00003335,0.00003404,0.18157412,-0.06901621,0.1730
 4080,-0.01783127,0.01928280,0.00767601,-0.00382200,-0.00017697,-0.0024
 2155,-0.00070519,-0.00085205,0.00115903,-0.00158844,0.00398646,0.00373
 976,0.00264703,-0.00148826,-0.00090730,-0.00053847,-0.00006162,0.00083
 988,-0.00011864,-0.00012839,-0.00061022,-0.00045914,0.00013945,0.00049
 638,0.00062814,-0.00024966,-0.00115387,0.00034968,0.00051191,0.0000403
 6,-0.00273852,0.00242811,0.00121585,-0.00049796,0.00066028,0.00012600,
 -0.14267414,0.11831523,0.04618847,0.00028241,-0.00000596,-0.00015435,-
 0.00021153,0.00018689,0.00018628,-0.00014390,-0.00008368,0.00024168,0.
 00003781,0.00011491,0.00010095,0.15744494,-0.00271224,0.00099862,0.000
 48627,-0.00044936,0.00013760,-0.00001166,0.00054151,-0.00009266,0.0001
 6074,-0.00025785,-0.00035095,0.00003749,-0.00176128,-0.00087146,-0.000
 27254,-0.00040733,0.00048648,0.00005736,0.00003637,-0.00014771,0.00002
 183,-0.00090076,0.00080362,0.00114235,-0.00013591,0.00024222,-0.000364
 62,-0.00023177,0.00019774,0.00075598,-0.00390312,0.00338955,0.00166254
 ,0.00004738,-0.00003727,-0.00009545,0.12563809,-0.20080839,-0.05993275
 ,-0.00013306,0.00092048,-0.00036913,-0.00026713,0.00014954,0.00012695,
 0.00020630,-0.00005224,-0.00025552,-0.00006087,0.00002571,-0.00001170,
 -0.13215505,0.21346023,-0.00978186,0.01440856,0.00515033,-0.00217880,-
 0.00138492,-0.00307739,-0.00066567,-0.00027302,0.00142350,0.00064768,0
 .00078935,0.00088368,-0.00002023,-0.00076057,-0.00050942,-0.00024174,-
 0.00048337,0.00068419,-0.00011698,-0.00019484,-0.00063308,0.00117399,0
 .00138175,-0.00537704,0.00021892,0.00002176,-0.00046757,0.00038182,0.0
 0000763,-0.00047707,0.01795601,-0.02228598,-0.00515999,-0.00029188,0.0
 0084251,0.00036975,0.04892104,-0.06088003,-0.07190578,-0.00037984,0.00
 046172,0.00203133,0.00021448,-0.00024110,0.00002075,-0.00036441,-0.000
 20531,-0.00036418,0.00005852,0.00005537,0.00011353,-0.05238334,0.06495
 628,0.07512841,-0.00102132,-0.00082926,-0.00159245,0.01160166,0.007891
 03,-0.00770146,0.00009151,-0.00051446,0.00005968,-0.00010434,0.0000224
 7,0.00015468,0.00024279,-0.00023778,-0.00015007,-0.00181912,-0.0029400
 4,-0.00105763,-0.00003301,0.00009092,0.00013339,-0.15851513,-0.0609010
 2,0.11571310,0.00010332,0.00010593,-0.00018219,0.00021588,0.00026169,0
 .00001732,-0.01378293,-0.00925642,0.01629082,0.00056921,0.00196868,0.0
 0064292,-0.00357279,0.00286785,-0.00079876,0.00202160,-0.00028778,-0.0
 0023010,-0.00454361,-0.00294734,0.00528516,-0.00119260,0.00048446,0.00
 022267,-0.00014835,-0.00051786,0.00005934,0.00002353,-0.00023707,0.001
 19312,0.16979468,0.00044601,-0.00069084,-0.00064647,0.00180786,-0.0004
 1732,-0.00270501,0.00017264,-0.00028793,0.00008020,0.00071114,0.000297
 96,-0.00062236,-0.00032625,-0.00009767,0.00012905,-0.00000337,0.001425
 53,0.00172094,-0.00011238,0.00003665,-0.00015600,-0.06217252,-0.075922
 18,0.06671064,-0.00034627,-0.00022936,0.00043601,-0.00008628,0.0001484
 0,-0.00007571,0.01123426,0.00549758,-0.01364326,-0.00024449,-0.0007001
 6,-0.00100440,0.00322281,-0.00212045,-0.00080650,-0.00035583,0.0013118
 6,-0.00031600,-0.01993393,-0.01189278,0.02103507,0.00048859,-0.0000961
 5,0.00008124,-0.00002400,0.00015758,-0.00031107,0.00031846,0.00022555,
 -0.00099315,0.06505371,0.08331103,-0.00015777,-0.00016025,-0.00298837,
 0.01574266,0.01201242,-0.02252833,0.00055459,-0.00106827,0.00007351,0.
 00129661,0.00080453,-0.00083562,-0.00042285,-0.00028727,0.00020130,0.0
 0128788,-0.00582358,-0.00014371,-0.00024461,0.00017555,-0.00017873,0.1
 1758530,0.06505221,-0.16553662,-0.00053917,-0.00029038,0.00075159,0.00
 001763,0.00033319,-0.00010718,-0.00163472,-0.00141601,0.00178784,-0.00
 060266,0.00280125,0.00171900,-0.00063307,-0.00011384,-0.00053798,0.000
 17413,-0.00029811,0.00065793,-0.00466334,-0.00288455,0.00584730,-0.000
 14753,-0.00016547,-0.00023491,0.00009414,-0.00021965,0.00039770,0.0001
 5188,0.00018781,0.00013715,-0.12787896,-0.06871635,0.18159874,-0.01629
 845,-0.02785090,0.00316225,0.00017766,0.00021508,-0.00054703,-0.001286
 03,-0.00326782,0.00074133,-0.00477825,0.00479009,-0.00205036,0.0013506
 7,-0.00106174,0.00014947,0.00010000,0.00058056,0.00010320,0.00132337,0
 .00085118,0.00074312,0.00024349,0.00000318,-0.00024060,-0.00010587,-0.
 00196905,0.00109639,0.00188391,0.00191135,0.00095492,-0.00236827,-0.00
 424605,0.00095706,-0.00002867,-0.00022105,-0.00011560,-0.09738606,-0.0
 9882074,0.02507760,0.00052449,0.00015721,0.00037421,-0.00012440,0.0001
 0293,0.00033102,0.00070691,0.00055593,-0.00032260,-0.00007926,-0.00003
 314,0.00002729,0.00991566,0.01714316,-0.00434084,0.00006902,0.00014984
 ,0.00001985,0.10616009,-0.00179400,-0.00120600,-0.00277568,0.00014502,
 0.00017848,0.00000959,-0.00250036,-0.00249834,0.00133883,0.00118073,-0
 .00111443,0.00033418,-0.00128379,0.00072743,0.00026462,-0.00038954,0.0
 0025248,0.00008955,0.00021278,0.00051461,-0.00023316,-0.00039571,0.000
 21341,0.00013573,-0.00040100,0.00016147,-0.00021223,0.00293107,-0.0000
 1032,0.00314585,0.00104690,0.00048708,0.00082588,0.00015706,-0.0001470
 0,-0.00016196,-0.09947494,-0.25447380,0.04661834,0.00038868,0.00137084
 ,-0.00030059,-0.00015277,0.00012543,-0.00008900,0.00015612,0.00075236,
 0.00028545,-0.00001568,0.00003150,-0.00002380,-0.01074287,-0.01867666,
 0.00477736,-0.00007769,0.00004267,0.00007678,0.11100999,0.27326879,-0.
 00754891,-0.01645143,0.00297968,0.00033588,-0.00039341,-0.00012368,-0.
 00068252,-0.00260111,0.00046345,-0.00347798,0.00168723,-0.00338142,-0.
 00019991,-0.00063188,0.00018385,0.00031399,0.00038819,-0.00000907,0.00
 125609,0.00127008,0.00101042,-0.00078951,-0.00004932,0.00086070,-0.000
 21875,-0.00126332,0.00112386,0.00011318,0.00219148,-0.00351672,0.01385
 851,0.02919682,-0.00911049,-0.00024526,-0.00009925,0.00003550,0.026124
 91,0.05014314,-0.05354416,0.00237776,-0.00055550,-0.00570386,0.0003917
 8,-0.00037814,-0.00015309,-0.00077705,0.00012932,0.00211466,0.00000096
 ,0.00000193,0.00003339,-0.00453192,-0.00828222,0.00202888,-0.00018058,
 -0.00019689,-0.00008060,-0.02612068,-0.05410572,0.06478872\\-0.0000178
 7,-0.00001857,-0.00000028,-0.00000325,-0.00000248,-0.00000235,0.000019
 02,-0.00000503,-0.00000794,-0.00001609,0.00000025,-0.00000259,0.000010
 58,0.00000715,0.00000590,0.00000276,0.00001194,-0.00000047,0.00000420,
 0.00000455,0.00000728,-0.00000155,-0.00001262,-0.00000767,-0.00000532,
 0.00000217,0.00000340,0.00000770,0.00000098,-0.00000007,0.00001573,-0.
 00001426,0.00002910,-0.00000997,0.00001240,-0.00001776,-0.00001816,0.0
 0003515,0.00000030,-0.00000564,0.00000201,0.00000121,0.00000467,0.0000
 2304,0.00000670,-0.00002642,-0.00001113,-0.00001459,0.00001919,0.00000
 068,0.00000337,0.00001603,-0.00004278,-0.00000755,-0.00000906,0.000001
 99,0.00000167,0.00001344,0.00000454,0.00000237\\\@
 Job cpu time:       1 days  3 hours 14 minutes 33.9 seconds.
 File lengths (MBytes):  RWF= 149829 Int=      0 D2E=      0 Chk=    123 Scr=      1
 Normal termination of Gaussian 09 at Fri Aug 27 05:49:12 2021.
