 Entering Gaussian System, Link 0=g09
 Input=G4.HACVAL.gjf
 Output=G4.HACVAL.log
 Initial command:
 /public/home/users/caep010/software/Gaussian09/g09/l1.exe "/public/home/users/caep010/.cache/gau_scr/Gau-108300.inp" -scrdir="/public/home/users/caep010/.cache/gau_scr/"
 Entering Link 1 = /public/home/users/caep010/software/Gaussian09/g09/l1.exe PID=    108301.
  
 Copyright (c) 1988,1990,1992,1993,1995,1998,2003,2009,2015,
            Gaussian, Inc.  All Rights Reserved.
  
 This is part of the Gaussian(R) 09 program.  It is based on
 the Gaussian(R) 03 system (copyright 2003, Gaussian, Inc.),
 the Gaussian(R) 98 system (copyright 1998, Gaussian, Inc.),
 the Gaussian(R) 94 system (copyright 1995, Gaussian, Inc.),
 the Gaussian 92(TM) system (copyright 1992, Gaussian, Inc.),
 the Gaussian 90(TM) system (copyright 1990, Gaussian, Inc.),
 the Gaussian 88(TM) system (copyright 1988, Gaussian, Inc.),
 the Gaussian 86(TM) system (copyright 1986, Carnegie Mellon
 University), and the Gaussian 82(TM) system (copyright 1983,
 Carnegie Mellon University). Gaussian is a federally registered
 trademark of Gaussian, Inc.
  
 This software contains proprietary and confidential information,
 including trade secrets, belonging to Gaussian, Inc.
  
 This software is provided under written license and may be
 used, copied, transmitted, or stored only in accord with that
 written license.
  
 The following legend is applicable only to US Government
 contracts under FAR:
  
                    RESTRICTED RIGHTS LEGEND
  
 Use, reproduction and disclosure by the US Government is
 subject to restrictions as set forth in subparagraphs (a)
 and (c) of the Commercial Computer Software - Restricted
 Rights clause in FAR 52.227-19.
  
 Gaussian, Inc.
 340 Quinnipiac St., Bldg. 40, Wallingford CT 06492
  
  
 ---------------------------------------------------------------
 Warning -- This program may not be used in any manner that
 competes with the business of Gaussian, Inc. or will provide
 assistance to any competitor of Gaussian, Inc.  The licensee
 of this program is prohibited from giving any competitor of
 Gaussian, Inc. access to this program.  By using this program,
 the user acknowledges that Gaussian, Inc. is engaged in the
 business of creating and licensing software in the field of
 computational chemistry and represents and warrants to the
 licensee that it is not a competitor of Gaussian, Inc. and that
 it will not use this program in any manner prohibited above.
 ---------------------------------------------------------------
  

 Cite this work as:
 Gaussian 09, Revision E.01,
 M. J. Frisch, G. W. Trucks, H. B. Schlegel, G. E. Scuseria, 
 M. A. Robb, J. R. Cheeseman, G. Scalmani, V. Barone, B. Mennucci, 
 G. A. Petersson, H. Nakatsuji, M. Caricato, X. Li, H. P. Hratchian, 
 A. F. Izmaylov, J. Bloino, G. Zheng, J. L. Sonnenberg, M. Hada, 
 M. Ehara, K. Toyota, R. Fukuda, J. Hasegawa, M. Ishida, T. Nakajima, 
 Y. Honda, O. Kitao, H. Nakai, T. Vreven, J. A. Montgomery, Jr., 
 J. E. Peralta, F. Ogliaro, M. Bearpark, J. J. Heyd, E. Brothers, 
 K. N. Kudin, V. N. Staroverov, T. Keith, R. Kobayashi, J. Normand, 
 K. Raghavachari, A. Rendell, J. C. Burant, S. S. Iyengar, J. Tomasi, 
 M. Cossi, N. Rega, J. M. Millam, M. Klene, J. E. Knox, J. B. Cross, 
 V. Bakken, C. Adamo, J. Jaramillo, R. Gomperts, R. E. Stratmann, 
 O. Yazyev, A. J. Austin, R. Cammi, C. Pomelli, J. W. Ochterski, 
 R. L. Martin, K. Morokuma, V. G. Zakrzewski, G. A. Voth, 
 P. Salvador, J. J. Dannenberg, S. Dapprich, A. D. Daniels, 
 O. Farkas, J. B. Foresman, J. V. Ortiz, J. Cioslowski, 
 and D. J. Fox, Gaussian, Inc., Wallingford CT, 2013.
 
 ******************************************
 Gaussian 09:  ES64L-G09RevE.01 30-Nov-2015
                27-Aug-2021 
 ******************************************
 %nproc=32
 Will use up to   32 processors via shared memory.
 %mem=180GB
 ----------------
 #P G4 OPT=calcfc
 ----------------
 1/10=4,14=-1,18=20,19=15,26=3,38=1/1,3;
 2/9=110,12=2,17=6,18=5,40=1/2;
 3/5=35,7=104,11=2,16=1,25=1,30=1,71=2,74=-5,140=1/1,2,3;
 4//1;
 5/5=2,38=5/2;
 8/6=4,10=90,11=11/1;
 11/6=1,8=1,9=11,15=111,16=1/1,2,10;
 10/6=1,13=1/2;
 6/7=2,8=2,9=2,10=2,28=1/1;
 7/10=1,18=20,25=1/1,2,3,16;
 1/10=4,14=-1,18=20,19=15,26=3/3(2);
 2/9=110/2;
 99//99;
 2/9=110/2;
 3/5=35,7=104,11=2,16=1,25=1,30=1,71=1,74=-5/1,2,3;
 4/5=5,16=3,69=1/1;
 5/5=2,38=5/2;
 7//1,2,3,16;
 1/14=-1,18=20,19=15,26=3/3(-5);
 2/9=110/2;
 6/7=2,8=2,9=2,10=2,19=2,28=1/1;
 99/9=1/99;
 Leave Link    1 at Fri Aug 27 03:32:50 2021, MaxMem= 24159191040 cpu:         2.5
 (Enter /public/home/users/caep010/software/Gaussian09/g09/l101.exe)
 ------
 HACVAL
 ------
 Symbolic Z-matrix:
 Charge =  0 Multiplicity = 1
 N                     3.4365    8.1104    1.7492 
 H                     3.1369    8.822     1.9798 
 C                     2.3744    7.1639    1.4028 
 C                     3.0526    7.0663    2.7162 
 H                     1.4641    7.5271    1.4244 
 H                     2.5255    7.3813    3.4805 
 C                     2.6506    6.2075    0.3001 
 O                     1.751     5.1608    0.4214 
 H                     2.5409    6.6456   -0.5596 
 H                     3.5602    5.8771    0.3646 
 H                     1.7925    4.7688   -0.4367 
 C                     4.009     5.9727    3.0197 
 C                     5.2878    5.9279    2.4919 
 H                     5.5888    6.6242    1.9544 
 C                     6.1199    4.8638    2.7569 
 H                     6.974     4.8297    2.391 
 C                     5.6718    3.8626    3.5611 
 C                     4.401     3.8753    4.1271 
 H                     4.11      3.1843    4.6761 
 C                     3.5943    4.9441    3.8409 
 H                     2.7416    4.9782    4.2097 
 N                     6.5433    2.7235    3.8396 
 O                     7.6535    2.7235    3.3309 
 O                     6.1246    1.8253    4.5582 
 
 NAtoms=     24 NQM=       24 NQMF=       0 NMMI=      0 NMMIF=      0
                NMic=       0 NMicF=      0.
                    Isotopes and Nuclear Properties:
 (Nuclear quadrupole moments (NQMom) in fm**2, nuclear magnetic moments (NMagM)
  in nuclear magnetons)

  Atom         1           2           3           4           5           6           7           8           9          10
 IAtWgt=          14           1          12          12           1           1          12          16           1           1
 AtmWgt=  14.0030740   1.0078250  12.0000000  12.0000000   1.0078250   1.0078250  12.0000000  15.9949146   1.0078250   1.0078250
 NucSpn=           2           1           0           0           1           1           0           0           1           1
 AtZEff=   0.0000000   0.0000000   0.0000000   0.0000000   0.0000000   0.0000000   0.0000000   0.0000000   0.0000000   0.0000000
 NQMom=    2.0440000   0.0000000   0.0000000   0.0000000   0.0000000   0.0000000   0.0000000   0.0000000   0.0000000   0.0000000
 NMagM=    0.4037610   2.7928460   0.0000000   0.0000000   2.7928460   2.7928460   0.0000000   0.0000000   2.7928460   2.7928460
 AtZNuc=   7.0000000   1.0000000   6.0000000   6.0000000   1.0000000   1.0000000   6.0000000   8.0000000   1.0000000   1.0000000

  Atom        11          12          13          14          15          16          17          18          19          20
 IAtWgt=           1          12          12           1          12           1          12          12           1          12
 AtmWgt=   1.0078250  12.0000000  12.0000000   1.0078250  12.0000000   1.0078250  12.0000000  12.0000000   1.0078250  12.0000000
 NucSpn=           1           0           0           1           0           1           0           0           1           0
 AtZEff=   0.0000000   0.0000000   0.0000000   0.0000000   0.0000000   0.0000000   0.0000000   0.0000000   0.0000000   0.0000000
 NQMom=    0.0000000   0.0000000   0.0000000   0.0000000   0.0000000   0.0000000   0.0000000   0.0000000   0.0000000   0.0000000
 NMagM=    2.7928460   0.0000000   0.0000000   2.7928460   0.0000000   2.7928460   0.0000000   0.0000000   2.7928460   0.0000000
 AtZNuc=   1.0000000   6.0000000   6.0000000   1.0000000   6.0000000   1.0000000   6.0000000   6.0000000   1.0000000   6.0000000

  Atom        21          22          23          24
 IAtWgt=           1          14          16          16
 AtmWgt=   1.0078250  14.0030740  15.9949146  15.9949146
 NucSpn=           1           2           0           0
 AtZEff=   0.0000000   0.0000000   0.0000000   0.0000000
 NQMom=    0.0000000   2.0440000   0.0000000   0.0000000
 NMagM=    2.7928460   0.4037610   0.0000000   0.0000000
 AtZNuc=   1.0000000   7.0000000   8.0000000   8.0000000
 Leave Link  101 at Fri Aug 27 03:32:51 2021, MaxMem= 24159191040 cpu:        10.5
 (Enter /public/home/users/caep010/software/Gaussian09/g09/l103.exe)

 GradGradGradGradGradGradGradGradGradGradGradGradGradGradGradGradGradGrad
 Berny optimization.
 Initialization pass.
                           ----------------------------
                           !    Initial Parameters    !
                           ! (Angstroms and Degrees)  !
 --------------------------                            --------------------------
 ! Name  Definition              Value          Derivative Info.                !
 --------------------------------------------------------------------------------
 ! R1    R(1,2)                  0.8058         calculate D2E/DX2 analytically  !
 ! R2    R(1,3)                  1.4642         calculate D2E/DX2 analytically  !
 ! R3    R(1,4)                  1.474          calculate D2E/DX2 analytically  !
 ! R4    R(3,4)                  1.4814         calculate D2E/DX2 analytically  !
 ! R5    R(3,5)                  0.9803         calculate D2E/DX2 analytically  !
 ! R6    R(3,7)                  1.4856         calculate D2E/DX2 analytically  !
 ! R7    R(4,6)                  0.9804         calculate D2E/DX2 analytically  !
 ! R8    R(4,12)                 1.4842         calculate D2E/DX2 analytically  !
 ! R9    R(7,8)                  1.3855         calculate D2E/DX2 analytically  !
 ! R10   R(7,9)                  0.9711         calculate D2E/DX2 analytically  !
 ! R11   R(7,10)                 0.9699         calculate D2E/DX2 analytically  !
 ! R12   R(8,11)                 0.9443         calculate D2E/DX2 analytically  !
 ! R13   R(12,13)                1.3842         calculate D2E/DX2 analytically  !
 ! R14   R(12,20)                1.38           calculate D2E/DX2 analytically  !
 ! R15   R(13,14)                0.9297         calculate D2E/DX2 analytically  !
 ! R16   R(13,15)                1.3766         calculate D2E/DX2 analytically  !
 ! R17   R(15,16)                0.9298         calculate D2E/DX2 analytically  !
 ! R18   R(15,17)                1.3601         calculate D2E/DX2 analytically  !
 ! R19   R(17,18)                1.3912         calculate D2E/DX2 analytically  !
 ! R20   R(17,22)                1.461          calculate D2E/DX2 analytically  !
 ! R21   R(18,19)                0.9293         calculate D2E/DX2 analytically  !
 ! R22   R(18,20)                1.3693         calculate D2E/DX2 analytically  !
 ! R23   R(20,21)                0.9297         calculate D2E/DX2 analytically  !
 ! R24   R(22,23)                1.2212         calculate D2E/DX2 analytically  !
 ! R25   R(22,24)                1.2241         calculate D2E/DX2 analytically  !
 ! A1    A(2,1,3)              111.6454         calculate D2E/DX2 analytically  !
 ! A2    A(2,1,4)              109.9357         calculate D2E/DX2 analytically  !
 ! A3    A(1,3,5)              115.395          calculate D2E/DX2 analytically  !
 ! A4    A(1,3,7)              117.1875         calculate D2E/DX2 analytically  !
 ! A5    A(4,3,5)              115.4669         calculate D2E/DX2 analytically  !
 ! A6    A(4,3,7)              122.0437         calculate D2E/DX2 analytically  !
 ! A7    A(5,3,7)              115.31           calculate D2E/DX2 analytically  !
 ! A8    A(1,4,6)              115.0792         calculate D2E/DX2 analytically  !
 ! A9    A(1,4,12)             119.2267         calculate D2E/DX2 analytically  !
 ! A10   A(3,4,6)              115.0788         calculate D2E/DX2 analytically  !
 ! A11   A(3,4,12)             121.6591         calculate D2E/DX2 analytically  !
 ! A12   A(6,4,12)             115.0731         calculate D2E/DX2 analytically  !
 ! A13   A(3,7,8)              107.4974         calculate D2E/DX2 analytically  !
 ! A14   A(3,7,9)              110.2232         calculate D2E/DX2 analytically  !
 ! A15   A(3,7,10)             110.1398         calculate D2E/DX2 analytically  !
 ! A16   A(8,7,9)              110.1805         calculate D2E/DX2 analytically  !
 ! A17   A(8,7,10)             110.2281         calculate D2E/DX2 analytically  !
 ! A18   A(9,7,10)             108.572          calculate D2E/DX2 analytically  !
 ! A19   A(7,8,11)             101.8598         calculate D2E/DX2 analytically  !
 ! A20   A(4,12,13)            122.7667         calculate D2E/DX2 analytically  !
 ! A21   A(4,12,20)            118.5065         calculate D2E/DX2 analytically  !
 ! A22   A(13,12,20)           118.7129         calculate D2E/DX2 analytically  !
 ! A23   A(12,13,14)           119.6914         calculate D2E/DX2 analytically  !
 ! A24   A(12,13,15)           120.6689         calculate D2E/DX2 analytically  !
 ! A25   A(14,13,15)           119.6395         calculate D2E/DX2 analytically  !
 ! A26   A(13,15,16)           120.521          calculate D2E/DX2 analytically  !
 ! A27   A(13,15,17)           118.9273         calculate D2E/DX2 analytically  !
 ! A28   A(16,15,17)           120.5517         calculate D2E/DX2 analytically  !
 ! A29   A(15,17,18)           122.3287         calculate D2E/DX2 analytically  !
 ! A30   A(15,17,22)           119.3471         calculate D2E/DX2 analytically  !
 ! A31   A(18,17,22)           118.3226         calculate D2E/DX2 analytically  !
 ! A32   A(17,18,19)           121.306          calculate D2E/DX2 analytically  !
 ! A33   A(17,18,20)           117.4021         calculate D2E/DX2 analytically  !
 ! A34   A(19,18,20)           121.2916         calculate D2E/DX2 analytically  !
 ! A35   A(12,20,18)           121.9466         calculate D2E/DX2 analytically  !
 ! A36   A(12,20,21)           118.9706         calculate D2E/DX2 analytically  !
 ! A37   A(18,20,21)           119.0828         calculate D2E/DX2 analytically  !
 ! A38   A(17,22,23)           117.5728         calculate D2E/DX2 analytically  !
 ! A39   A(17,22,24)           118.6819         calculate D2E/DX2 analytically  !
 ! A40   A(23,22,24)           123.7444         calculate D2E/DX2 analytically  !
 ! D1    D(2,1,3,5)              4.6359         calculate D2E/DX2 analytically  !
 ! D2    D(2,1,3,7)            145.52           calculate D2E/DX2 analytically  !
 ! D3    D(2,1,4,6)             -1.2503         calculate D2E/DX2 analytically  !
 ! D4    D(2,1,4,12)          -144.1875         calculate D2E/DX2 analytically  !
 ! D5    D(5,3,4,6)             -0.4091         calculate D2E/DX2 analytically  !
 ! D6    D(5,3,4,12)           146.5472         calculate D2E/DX2 analytically  !
 ! D7    D(7,3,4,6)           -149.3626         calculate D2E/DX2 analytically  !
 ! D8    D(7,3,4,12)            -2.4063         calculate D2E/DX2 analytically  !
 ! D9    D(1,3,7,8)            160.8179         calculate D2E/DX2 analytically  !
 ! D10   D(1,3,7,9)            -79.0753         calculate D2E/DX2 analytically  !
 ! D11   D(1,3,7,10)            40.7017         calculate D2E/DX2 analytically  !
 ! D12   D(4,3,7,8)             90.733          calculate D2E/DX2 analytically  !
 ! D13   D(4,3,7,9)           -149.1602         calculate D2E/DX2 analytically  !
 ! D14   D(4,3,7,10)           -29.3832         calculate D2E/DX2 analytically  !
 ! D15   D(5,3,7,8)            -58.2653         calculate D2E/DX2 analytically  !
 ! D16   D(5,3,7,9)             61.8415         calculate D2E/DX2 analytically  !
 ! D17   D(5,3,7,10)          -178.3815         calculate D2E/DX2 analytically  !
 ! D18   D(1,4,12,13)            3.9178         calculate D2E/DX2 analytically  !
 ! D19   D(1,4,12,20)         -174.7095         calculate D2E/DX2 analytically  !
 ! D20   D(3,4,12,13)           74.0203         calculate D2E/DX2 analytically  !
 ! D21   D(3,4,12,20)         -104.6069         calculate D2E/DX2 analytically  !
 ! D22   D(6,4,12,13)         -139.0216         calculate D2E/DX2 analytically  !
 ! D23   D(6,4,12,20)           42.3511         calculate D2E/DX2 analytically  !
 ! D24   D(3,7,8,11)           162.0886         calculate D2E/DX2 analytically  !
 ! D25   D(9,7,8,11)            41.9548         calculate D2E/DX2 analytically  !
 ! D26   D(10,7,8,11)          -77.8512         calculate D2E/DX2 analytically  !
 ! D27   D(4,12,13,14)           2.9129         calculate D2E/DX2 analytically  !
 ! D28   D(4,12,13,15)        -177.2176         calculate D2E/DX2 analytically  !
 ! D29   D(20,12,13,14)       -178.4626         calculate D2E/DX2 analytically  !
 ! D30   D(20,12,13,15)          1.407          calculate D2E/DX2 analytically  !
 ! D31   D(4,12,20,18)         177.5342         calculate D2E/DX2 analytically  !
 ! D32   D(4,12,20,21)          -2.41           calculate D2E/DX2 analytically  !
 ! D33   D(13,12,20,18)         -1.1497         calculate D2E/DX2 analytically  !
 ! D34   D(13,12,20,21)        178.9062         calculate D2E/DX2 analytically  !
 ! D35   D(12,13,15,16)        179.0847         calculate D2E/DX2 analytically  !
 ! D36   D(12,13,15,17)         -0.8331         calculate D2E/DX2 analytically  !
 ! D37   D(14,13,15,16)         -1.0456         calculate D2E/DX2 analytically  !
 ! D38   D(14,13,15,17)        179.0365         calculate D2E/DX2 analytically  !
 ! D39   D(13,15,17,18)         -0.0328         calculate D2E/DX2 analytically  !
 ! D40   D(13,15,17,22)        179.5018         calculate D2E/DX2 analytically  !
 ! D41   D(16,15,17,18)       -179.9506         calculate D2E/DX2 analytically  !
 ! D42   D(16,15,17,22)         -0.4161         calculate D2E/DX2 analytically  !
 ! D43   D(15,17,18,19)       -179.8726         calculate D2E/DX2 analytically  !
 ! D44   D(15,17,18,20)          0.2928         calculate D2E/DX2 analytically  !
 ! D45   D(22,17,18,19)          0.5883         calculate D2E/DX2 analytically  !
 ! D46   D(22,17,18,20)       -179.2464         calculate D2E/DX2 analytically  !
 ! D47   D(15,17,22,23)          0.1202         calculate D2E/DX2 analytically  !
 ! D48   D(15,17,22,24)       -179.5501         calculate D2E/DX2 analytically  !
 ! D49   D(18,17,22,23)        179.6734         calculate D2E/DX2 analytically  !
 ! D50   D(18,17,22,24)          0.0031         calculate D2E/DX2 analytically  !
 ! D51   D(17,18,20,12)          0.3134         calculate D2E/DX2 analytically  !
 ! D52   D(17,18,20,21)       -179.7424         calculate D2E/DX2 analytically  !
 ! D53   D(19,18,20,12)       -179.5212         calculate D2E/DX2 analytically  !
 ! D54   D(19,18,20,21)          0.4229         calculate D2E/DX2 analytically  !
 --------------------------------------------------------------------------------
 Trust Radius=3.00D-01 FncErr=1.00D-07 GrdErr=1.00D-06
 Number of steps in this run=    129 maximum allowed number of steps=    144.
 GradGradGradGradGradGradGradGradGradGradGradGradGradGradGradGradGradGrad

 Leave Link  103 at Fri Aug 27 03:32:51 2021, MaxMem= 24159191040 cpu:         0.5
 (Enter /public/home/users/caep010/software/Gaussian09/g09/l202.exe)
                          Input orientation:                          
 ---------------------------------------------------------------------
 Center     Atomic      Atomic             Coordinates (Angstroms)
 Number     Number       Type             X           Y           Z
 ---------------------------------------------------------------------
      1          7           0        3.436500    8.110400    1.749200
      2          1           0        3.136900    8.822000    1.979800
      3          6           0        2.374400    7.163900    1.402800
      4          6           0        3.052600    7.066300    2.716200
      5          1           0        1.464100    7.527100    1.424400
      6          1           0        2.525500    7.381300    3.480500
      7          6           0        2.650600    6.207500    0.300100
      8          8           0        1.751000    5.160800    0.421400
      9          1           0        2.540900    6.645600   -0.559600
     10          1           0        3.560200    5.877100    0.364600
     11          1           0        1.792500    4.768800   -0.436700
     12          6           0        4.009000    5.972700    3.019700
     13          6           0        5.287800    5.927900    2.491900
     14          1           0        5.588800    6.624200    1.954400
     15          6           0        6.119900    4.863800    2.756900
     16          1           0        6.974000    4.829700    2.391000
     17          6           0        5.671800    3.862600    3.561100
     18          6           0        4.401000    3.875300    4.127100
     19          1           0        4.110000    3.184300    4.676100
     20          6           0        3.594300    4.944100    3.840900
     21          1           0        2.741600    4.978200    4.209700
     22          7           0        6.543300    2.723500    3.839600
     23          8           0        7.653500    2.723500    3.330900
     24          8           0        6.124600    1.825300    4.558200
 ---------------------------------------------------------------------
                    Distance matrix (angstroms):
                    1          2          3          4          5
     1  N    0.000000
     2  H    0.805798   0.000000
     3  C    1.464210   1.914061   0.000000
     4  C    1.473979   1.905748   1.481385   0.000000
     5  H    2.082329   2.187120   0.980320   2.098670   0.000000
     6  H    2.087800   2.168300   2.094500   0.980415   2.318485
     7  C    2.517649   3.145392   1.485576   2.595512   2.100756
     8  O    3.647479   4.213516   2.316071   3.254412   2.586058
     9  H    2.877203   3.397129   2.036509   3.342109   2.423385
    10  H    2.630598   3.385335   2.034658   2.683631   2.870420
    11  H    4.318239   4.906660   3.075528   4.099651   3.343615
    12  C    2.551801   3.156020   2.589448   1.484175   3.381961
    13  C    2.956725   3.642037   3.346899   2.518409   4.279916
    14  H    2.623603   3.292838   3.305738   2.684791   4.255500
    15  C    4.330878   5.016923   4.599219   3.776373   5.526771
    16  H    4.867115   5.552556   5.251795   4.526092   6.210417
    17  C    5.130629   5.789808   5.140981   4.223477   5.974846
    18  C    4.951842   5.538834   4.726924   3.740495   5.409770
    19  H    5.769472   6.324604   5.437280   4.475402   6.036079
    20  C    3.798100   4.325623   3.515679   2.462138   4.129057
    21  H    4.043219   4.461336   3.576424   2.586006   3.985824
    22  N    6.560539   7.228701   6.560097   5.683918   7.396353
    23  O    7.021649   7.708233   7.162654   6.356575   8.063373
    24  O    7.390456   8.032951   7.247151   6.348089   8.003217
                    6          7          8          9         10
     6  H    0.000000
     7  C    3.392403   0.000000
     8  O    3.858570   1.385487   0.000000
     9  H    4.106568   0.971108   1.947032   0.000000
    10  H    3.611378   0.969895   1.946668   1.575979   0.000000
    11  H    4.765176   1.830046   0.944310   2.024249   2.234989
    12  C    2.096965   3.049034   3.536794   3.926767   2.694460
    13  C    3.274142   3.440492   4.169456   4.167998   2.740910
    14  H    3.505137   3.397553   4.384101   3.950993   2.683438
    15  C    4.447596   4.458412   4.962868   5.194538   3.647183
    16  H    5.242788   4.996197   5.591841   5.626358   4.105773
    17  C    4.720906   5.025965   5.188035   5.876035   4.328357
    18  C    4.028353   4.811339   4.733627   5.753233   4.344025
    19  H    4.642726   5.515339   5.251086   6.469562   5.112972
    20  C    2.685548   3.876082   3.890719   4.834165   3.599488
    21  H    2.520580   4.099321   3.919930   5.056355   4.032731
    22  N    6.161718   6.310264   6.371080   7.124257   5.560549
    23  O    6.929204   6.808305   7.017487   7.527120   5.958123
    24  O    6.707018   7.028781   6.882373   7.891139   6.370205
                   11         12         13         14         15
    11  H    0.000000
    12  C    4.278896   0.000000
    13  C    4.705033   1.384164   0.000000
    14  H    4.855076   2.013724   0.929699   0.000000
    15  C    5.379080   2.398879   1.376562   2.006261   0.000000
    16  H    5.903180   3.239280   2.014819   2.308599   0.929802
    17  C    5.643808   2.740536   2.357140   3.196061   1.360122
    18  C    5.332062   2.403973   2.770101   3.699722   2.410228
    19  H    5.832853   3.244848   3.699363   4.628975   3.247114
    20  C    4.644898   1.379987   2.378152   3.218641   2.749574
    21  H    4.746965   2.002856   3.214950   3.987762   3.679215
    22  N    6.711192   4.201454   3.696046   4.436272   2.435650
    23  O    7.261500   4.892497   4.070459   4.623116   2.694863
    24  O    7.237424   4.903435   4.669171   5.486009   3.532306
                   16         17         18         19         20
    16  H    0.000000
    17  C    2.000035   0.000000
    18  C    3.247345   1.391204   0.000000
    19  H    4.016406   2.035322   0.929281   0.000000
    20  C    3.679357   2.358800   1.369310   2.015044   0.000000
    21  H    4.609006   3.201768   1.994196   2.303937   0.929663
    22  N    2.592301   1.461035   2.449234   2.614004   3.691567
    23  O    2.404415   2.297319   3.541092   3.818153   4.654919
    24  O    3.800613   2.312969   2.712774   2.432981   4.079688
                   21         22         23         24
    21  H    0.000000
    22  N    4.435490   0.000000
    23  O    5.475648   1.221196   0.000000
    24  O    4.637555   1.224116   2.156517   0.000000
 Stoichiometry    C9H10N2O3
 Framework group  C1[X(C9H10N2O3)]
 Deg. of freedom    66
 Full point group                 C1      NOp   1
 Largest Abelian subgroup         C1      NOp   1
 Largest concise Abelian subgroup C1      NOp   1
                         Standard orientation:                         
 ---------------------------------------------------------------------
 Center     Atomic      Atomic             Coordinates (Angstroms)
 Number     Number       Type             X           Y           Z
 ---------------------------------------------------------------------
      1          7           0        3.006023   -1.485575   -0.121468
      2          1           0        3.558500   -1.932097    0.258925
      3          6           0        3.207462   -0.055604    0.120436
      4          6           0        2.157077   -0.790510    0.862802
      5          1           0        4.007159    0.174563    0.638640
      6          1           0        2.367538   -0.981052    1.801212
      7          6           0        2.882605    0.873425   -0.992356
      8          8           0        2.717222    2.135925   -0.446173
      9          1           0        3.602848    0.881904   -1.643683
     10          1           0        2.067937    0.590762   -1.436333
     11          1           0        2.802403    2.689099   -1.206741
     12          6           0        0.715279   -0.597596    0.568222
     13          6           0        0.106322   -1.112754   -0.563013
     14          1           0        0.598370   -1.636532   -1.152832
     15          6           0       -1.221655   -0.859681   -0.822540
     16          1           0       -1.625378   -1.196227   -1.589532
     17          6           0       -1.932898   -0.108110    0.060187
     18          6           0       -1.366118    0.414505    1.218239
     19          1           0       -1.865922    0.924885    1.812606
     20          6           0       -0.042035    0.150436    1.446451
     21          1           0        0.359569    0.485251    2.215142
     22          7           0       -3.340150    0.175331   -0.211706
     23          8           0       -3.822027   -0.285039   -1.235021
     24          8           0       -3.966490    0.859925    0.586723
 ---------------------------------------------------------------------
 Rotational constants (GHZ):      1.5854075      0.3467144      0.3358064
 Leave Link  202 at Fri Aug 27 03:32:51 2021, MaxMem= 24159191040 cpu:         1.1
 (Enter /public/home/users/caep010/software/Gaussian09/g09/l301.exe)
 Standard basis: GTBas3 (6D, 7F)
 Ernie: Thresh=  0.10000D-02 Tol=  0.10000D-05 Strict=F.
 There are   484 symmetry adapted cartesian basis functions of A   symmetry.
 There are   442 symmetry adapted basis functions of A   symmetry.
   442 basis functions,   686 primitive gaussians,   484 cartesian basis functions
    51 alpha electrons       51 beta electrons
       nuclear repulsion energy       874.7571214066 Hartrees.
 IExCor=  402 DFT=T Ex+Corr=B3LYP ExCW=0 ScaHFX=  0.200000
 ScaDFX=  0.800000  0.720000  1.000000  0.810000 ScalE2=  1.000000  1.000000
 IRadAn=      0 IRanWt=     -1 IRanGd=            0 ICorTp=0 IEmpDi=  4
 NAtoms=   24 NActive=   24 NUniq=   24 SFac= 1.00D+00 NAtFMM=   60 NAOKFM=F Big=F
 Integral buffers will be    131072 words long.
 Raffenetti 2 integral format.
 Two-electron integral symmetry is turned on.
 Leave Link  301 at Fri Aug 27 03:32:51 2021, MaxMem= 24159191040 cpu:         1.9
 (Enter /public/home/users/caep010/software/Gaussian09/g09/l302.exe)
 NPDir=0 NMtPBC=     1 NCelOv=     1 NCel=       1 NClECP=     1 NCelD=      1
         NCelK=      1 NCelE2=     1 NClLst=     1 CellRange=     0.0.
 One-electron integrals computed using PRISM.
 NBasis=   442 RedAO= T EigKep=  9.34D-05  NBF=   442
 NBsUse=   442 1.00D-06 EigRej= -1.00D+00 NBFU=   442
 Precomputing XC quadrature grid using
 IXCGrd= 4 IRadAn=           0 IRanWt=          -1 IRanGd=           0 AccXCQ= 0.00D+00.
 Generated NRdTot=       0 NPtTot=           0 NUsed=           0 NTot=          32
 NSgBfM=   481   482   482   482   482 MxSgAt=    24 MxSgA2=    24.
 Leave Link  302 at Fri Aug 27 03:32:52 2021, MaxMem= 24159191040 cpu:        21.1
 (Enter /public/home/users/caep010/software/Gaussian09/g09/l303.exe)
 DipDrv:  MaxL=1.
 Leave Link  303 at Fri Aug 27 03:32:52 2021, MaxMem= 24159191040 cpu:         1.4
 (Enter /public/home/users/caep010/software/Gaussian09/g09/l401.exe)
 ExpMin= 1.61D-01 ExpMax= 5.48D+03 ExpMxC= 8.25D+02 IAcc=1 IRadAn=         1 AccDes= 0.00D+00
 Harris functional with IExCor=  402 and IRadAn=       1 diagonalized for initial guess.
 HarFok:  IExCor=  402 AccDes= 0.00D+00 IRadAn=         1 IDoV= 1 UseB2=F ITyADJ=14
 ICtDFT=  3500011 ScaDFX=  1.000000  1.000000  1.000000  1.000000
 FoFCou: FMM=F IPFlag=           0 FMFlag=      100000 FMFlg1=           0
         NFxFlg=           0 DoJE=T BraDBF=F KetDBF=T FulRan=T
         wScrn=  0.000000 ICntrl=     500 IOpCl=  0 I1Cent=   200000004 NGrid=           0
         NMat0=    1 NMatS0=      1 NMatT0=    0 NMatD0=    1 NMtDS0=    0 NMtDT0=    0
 Petite list used in FoFCou.
 Harris En= -683.992341888480    
 JPrj=0 DoOrth=F DoCkMO=F.
 Leave Link  401 at Fri Aug 27 03:32:53 2021, MaxMem= 24159191040 cpu:        20.7
 (Enter /public/home/users/caep010/software/Gaussian09/g09/l502.exe)
 Closed shell SCF:
 Using DIIS extrapolation, IDIIS=  1040.
 Integral symmetry usage will be decided dynamically.
 Keep R1 ints in memory in canonical form, NReq=4850329790.
 IVT=      740314 IEndB=      740314 NGot= 24159191040 MDV= 19365903071
 LenX= 19365903071 LenY= 19365668331
 Requested convergence on RMS density matrix=1.00D-08 within 128 cycles.
 Requested convergence on MAX density matrix=1.00D-06.
 Requested convergence on             energy=1.00D-06.
 No special actions if energy rises.
 FoFCou: FMM=F IPFlag=           0 FMFlag=           0 FMFlg1=           0
         NFxFlg=           0 DoJE=F BraDBF=F KetDBF=F FulRan=T
         wScrn=  0.000000 ICntrl=     600 IOpCl=  0 I1Cent=           0 NGrid=           0
         NMat0=    1 NMatS0=  97903 NMatT0=    0 NMatD0=    1 NMtDS0=    0 NMtDT0=    0
 Symmetry not used in FoFCou.
 Integral accuracy reduced to 1.0D-05 until final iterations.

 Cycle   1  Pass 0  IDiag  1:
 E= -683.424628412373    
 DIIS: error= 2.23D-02 at cycle   1 NSaved=   1.
 NSaved= 1 IEnMin= 1 EnMin= -683.424628412373     IErMin= 1 ErrMin= 2.23D-02
 ErrMax= 2.23D-02  0.00D+00 EMaxC= 1.00D-01 BMatC= 5.24D-01 BMatP= 5.24D-01
 IDIUse=3 WtCom= 7.77D-01 WtEn= 2.23D-01
 Coeff-Com:  0.100D+01
 Coeff-En:   0.100D+01
 Coeff:      0.100D+01
 Gap=     0.186 Goal=   None    Shift=    0.000
 GapD=    0.186 DampG=1.000 DampE=0.500 DampFc=0.5000 IDamp=-1.
 Damping current iteration by 5.00D-01
 RMSDP=3.55D-03 MaxDP=2.23D-01              OVMax= 3.46D-01

 Cycle   2  Pass 0  IDiag  1:
 E= -683.562815266372     Delta-E=       -0.138186853999 Rises=F Damp=T
 DIIS: error= 1.07D-02 at cycle   2 NSaved=   2.
 NSaved= 2 IEnMin= 2 EnMin= -683.562815266372     IErMin= 2 ErrMin= 1.07D-02
 ErrMax= 1.07D-02  0.00D+00 EMaxC= 1.00D-01 BMatC= 7.77D-02 BMatP= 5.24D-01
 IDIUse=3 WtCom= 8.93D-01 WtEn= 1.07D-01
 Coeff-Com:  0.203D+00 0.797D+00
 Coeff-En:   0.304D+00 0.696D+00
 Coeff:      0.214D+00 0.786D+00
 Gap=     0.202 Goal=   None    Shift=    0.000
 RMSDP=9.54D-04 MaxDP=8.27D-02 DE=-1.38D-01 OVMax= 2.59D-01

 Cycle   3  Pass 0  IDiag  1:
 E= -683.832231879347     Delta-E=       -0.269416612975 Rises=F Damp=F
 DIIS: error= 6.52D-03 at cycle   3 NSaved=   3.
 NSaved= 3 IEnMin= 3 EnMin= -683.832231879347     IErMin= 3 ErrMin= 6.52D-03
 ErrMax= 6.52D-03  0.00D+00 EMaxC= 1.00D-01 BMatC= 3.79D-02 BMatP= 7.77D-02
 IDIUse=3 WtCom= 9.35D-01 WtEn= 6.52D-02
 Coeff-Com:  0.361D-01 0.404D+00 0.560D+00
 Coeff-En:   0.000D+00 0.000D+00 0.100D+01
 Coeff:      0.337D-01 0.378D+00 0.589D+00
 Gap=     0.182 Goal=   None    Shift=    0.000
 RMSDP=5.49D-04 MaxDP=3.84D-02 DE=-2.69D-01 OVMax= 6.23D-02

 Cycle   4  Pass 0  IDiag  1:
 E= -683.857409312391     Delta-E=       -0.025177433043 Rises=F Damp=F
 DIIS: error= 3.25D-03 at cycle   4 NSaved=   4.
 NSaved= 4 IEnMin= 4 EnMin= -683.857409312391     IErMin= 4 ErrMin= 3.25D-03
 ErrMax= 3.25D-03  0.00D+00 EMaxC= 1.00D-01 BMatC= 8.56D-03 BMatP= 3.79D-02
 IDIUse=3 WtCom= 9.68D-01 WtEn= 3.25D-02
 Coeff-Com:  0.665D-02 0.115D+00 0.348D+00 0.530D+00
 Coeff-En:   0.000D+00 0.000D+00 0.208D+00 0.792D+00
 Coeff:      0.643D-02 0.111D+00 0.343D+00 0.539D+00
 Gap=     0.179 Goal=   None    Shift=    0.000
 RMSDP=2.24D-04 MaxDP=1.15D-02 DE=-2.52D-02 OVMax= 2.54D-02

 Cycle   5  Pass 0  IDiag  1:
 E= -683.864524656832     Delta-E=       -0.007115344442 Rises=F Damp=F
 DIIS: error= 9.03D-04 at cycle   5 NSaved=   5.
 NSaved= 5 IEnMin= 5 EnMin= -683.864524656832     IErMin= 5 ErrMin= 9.03D-04
 ErrMax= 9.03D-04  0.00D+00 EMaxC= 1.00D-01 BMatC= 6.78D-04 BMatP= 8.56D-03
 IDIUse=3 WtCom= 9.91D-01 WtEn= 9.03D-03
 Coeff-Com:  0.132D-02 0.181D-01 0.129D+00 0.299D+00 0.552D+00
 Coeff-En:   0.000D+00 0.000D+00 0.000D+00 0.201D-01 0.980D+00
 Coeff:      0.131D-02 0.180D-01 0.128D+00 0.297D+00 0.556D+00
 Gap=     0.179 Goal=   None    Shift=    0.000
 RMSDP=7.41D-05 MaxDP=4.12D-03 DE=-7.12D-03 OVMax= 8.79D-03

 Cycle   6  Pass 0  IDiag  1:
 E= -683.865113576677     Delta-E=       -0.000588919845 Rises=F Damp=F
 DIIS: error= 3.42D-04 at cycle   6 NSaved=   6.
 NSaved= 6 IEnMin= 6 EnMin= -683.865113576677     IErMin= 6 ErrMin= 3.42D-04
 ErrMax= 3.42D-04  0.00D+00 EMaxC= 1.00D-01 BMatC= 7.26D-05 BMatP= 6.78D-04
 IDIUse=3 WtCom= 9.97D-01 WtEn= 3.42D-03
 Coeff-Com:  0.269D-03 0.104D-02 0.441D-01 0.121D+00 0.318D+00 0.516D+00
 Coeff-En:   0.000D+00 0.000D+00 0.000D+00 0.000D+00 0.630D-01 0.937D+00
 Coeff:      0.268D-03 0.103D-02 0.440D-01 0.121D+00 0.317D+00 0.517D+00
 Gap=     0.180 Goal=   None    Shift=    0.000
 RMSDP=2.52D-05 MaxDP=1.08D-03 DE=-5.89D-04 OVMax= 3.45D-03

 Cycle   7  Pass 0  IDiag  1:
 E= -683.865182982905     Delta-E=       -0.000069406228 Rises=F Damp=F
 DIIS: error= 7.84D-05 at cycle   7 NSaved=   7.
 NSaved= 7 IEnMin= 7 EnMin= -683.865182982905     IErMin= 7 ErrMin= 7.84D-05
 ErrMax= 7.84D-05  0.00D+00 EMaxC= 1.00D-01 BMatC= 4.97D-06 BMatP= 7.26D-05
 IDIUse=1 WtCom= 1.00D+00 WtEn= 0.00D+00
 Coeff-Com:  0.782D-04-0.142D-02 0.131D-01 0.425D-01 0.129D+00 0.280D+00
 Coeff-Com:  0.537D+00
 Coeff:      0.782D-04-0.142D-02 0.131D-01 0.425D-01 0.129D+00 0.280D+00
 Coeff:      0.537D+00
 Gap=     0.180 Goal=   None    Shift=    0.000
 RMSDP=6.93D-06 MaxDP=4.40D-04 DE=-6.94D-05 OVMax= 6.97D-04

 Initial convergence to 1.0D-05 achieved.  Increase integral accuracy.
 Cycle   8  Pass 1  IDiag  1:
 E= -683.865307347202     Delta-E=       -0.000124364297 Rises=F Damp=F
 DIIS: error= 2.59D-05 at cycle   1 NSaved=   1.
 NSaved= 1 IEnMin= 1 EnMin= -683.865307347202     IErMin= 1 ErrMin= 2.59D-05
 ErrMax= 2.59D-05  0.00D+00 EMaxC= 1.00D-01 BMatC= 7.10D-07 BMatP= 7.10D-07
 IDIUse=1 WtCom= 1.00D+00 WtEn= 0.00D+00
 Coeff-Com:  0.100D+01
 Coeff:      0.100D+01
 Gap=     0.180 Goal=   None    Shift=    0.000
 RMSDP=6.93D-06 MaxDP=4.40D-04 DE=-1.24D-04 OVMax= 1.20D-03

 Cycle   9  Pass 1  IDiag  1:
 E= -683.865304824629     Delta-E=        0.000002522573 Rises=F Damp=F
 DIIS: error= 7.40D-05 at cycle   2 NSaved=   2.
 NSaved= 2 IEnMin= 1 EnMin= -683.865307347202     IErMin= 1 ErrMin= 2.59D-05
 ErrMax= 7.40D-05  0.00D+00 EMaxC= 1.00D-01 BMatC= 3.98D-06 BMatP= 7.10D-07
 IDIUse=1 WtCom= 1.00D+00 WtEn= 0.00D+00
 Coeff-Com:  0.720D+00 0.280D+00
 Coeff:      0.720D+00 0.280D+00
 Gap=     0.180 Goal=   None    Shift=    0.000
 RMSDP=4.51D-06 MaxDP=3.88D-04 DE= 2.52D-06 OVMax= 1.04D-03

 Cycle  10  Pass 1  IDiag  1:
 E= -683.865307861479     Delta-E=       -0.000003036850 Rises=F Damp=F
 DIIS: error= 1.01D-05 at cycle   3 NSaved=   3.
 NSaved= 3 IEnMin= 3 EnMin= -683.865307861479     IErMin= 3 ErrMin= 1.01D-05
 ErrMax= 1.01D-05  0.00D+00 EMaxC= 1.00D-01 BMatC= 9.81D-08 BMatP= 7.10D-07
 IDIUse=1 WtCom= 1.00D+00 WtEn= 0.00D+00
 Coeff-Com:  0.201D+00 0.150D+00 0.650D+00
 Coeff:      0.201D+00 0.150D+00 0.650D+00
 Gap=     0.180 Goal=   None    Shift=    0.000
 RMSDP=9.10D-07 MaxDP=6.42D-05 DE=-3.04D-06 OVMax= 1.51D-04

 Cycle  11  Pass 1  IDiag  1:
 E= -683.865307918302     Delta-E=       -0.000000056822 Rises=F Damp=F
 DIIS: error= 5.48D-06 at cycle   4 NSaved=   4.
 NSaved= 4 IEnMin= 4 EnMin= -683.865307918302     IErMin= 4 ErrMin= 5.48D-06
 ErrMax= 5.48D-06  0.00D+00 EMaxC= 1.00D-01 BMatC= 2.58D-08 BMatP= 9.81D-08
 IDIUse=1 WtCom= 1.00D+00 WtEn= 0.00D+00
 Coeff-Com: -0.171D-02 0.446D-01 0.412D+00 0.545D+00
 Coeff:     -0.171D-02 0.446D-01 0.412D+00 0.545D+00
 Gap=     0.180 Goal=   None    Shift=    0.000
 RMSDP=3.69D-07 MaxDP=2.33D-05 DE=-5.68D-08 OVMax= 4.10D-05

 Cycle  12  Pass 1  IDiag  1:
 E= -683.865307938800     Delta-E=       -0.000000020498 Rises=F Damp=F
 DIIS: error= 1.28D-06 at cycle   5 NSaved=   5.
 NSaved= 5 IEnMin= 5 EnMin= -683.865307938800     IErMin= 5 ErrMin= 1.28D-06
 ErrMax= 1.28D-06  0.00D+00 EMaxC= 1.00D-01 BMatC= 1.22D-09 BMatP= 2.58D-08
 IDIUse=1 WtCom= 1.00D+00 WtEn= 0.00D+00
 Coeff-Com: -0.898D-02 0.206D-01 0.215D+00 0.316D+00 0.457D+00
 Coeff:     -0.898D-02 0.206D-01 0.215D+00 0.316D+00 0.457D+00
 Gap=     0.180 Goal=   None    Shift=    0.000
 RMSDP=9.20D-08 MaxDP=4.14D-06 DE=-2.05D-08 OVMax= 1.23D-05

 Cycle  13  Pass 1  IDiag  1:
 E= -683.865307939976     Delta-E=       -0.000000001176 Rises=F Damp=F
 DIIS: error= 3.47D-07 at cycle   6 NSaved=   6.
 NSaved= 6 IEnMin= 6 EnMin= -683.865307939976     IErMin= 6 ErrMin= 3.47D-07
 ErrMax= 3.47D-07  0.00D+00 EMaxC= 1.00D-01 BMatC= 8.24D-11 BMatP= 1.22D-09
 IDIUse=1 WtCom= 1.00D+00 WtEn= 0.00D+00
 Coeff-Com: -0.505D-02 0.828D-02 0.904D-01 0.137D+00 0.262D+00 0.508D+00
 Coeff:     -0.505D-02 0.828D-02 0.904D-01 0.137D+00 0.262D+00 0.508D+00
 Gap=     0.180 Goal=   None    Shift=    0.000
 RMSDP=2.28D-08 MaxDP=1.23D-06 DE=-1.18D-09 OVMax= 3.13D-06

 Cycle  14  Pass 1  IDiag  1:
 E= -683.865307940045     Delta-E=       -0.000000000069 Rises=F Damp=F
 DIIS: error= 8.27D-08 at cycle   7 NSaved=   7.
 NSaved= 7 IEnMin= 7 EnMin= -683.865307940045     IErMin= 7 ErrMin= 8.27D-08
 ErrMax= 8.27D-08  0.00D+00 EMaxC= 1.00D-01 BMatC= 6.94D-12 BMatP= 8.24D-11
 IDIUse=1 WtCom= 1.00D+00 WtEn= 0.00D+00
 Coeff-Com: -0.153D-02 0.202D-02 0.224D-01 0.347D-01 0.824D-01 0.269D+00
 Coeff-Com:  0.591D+00
 Coeff:     -0.153D-02 0.202D-02 0.224D-01 0.347D-01 0.824D-01 0.269D+00
 Coeff:      0.591D+00
 Gap=     0.180 Goal=   None    Shift=    0.000
 RMSDP=6.49D-09 MaxDP=4.32D-07 DE=-6.91D-11 OVMax= 7.25D-07

 SCF Done:  E(RB3LYP) =  -683.865307940     A.U. after   14 cycles
            NFock= 14  Conv=0.65D-08     -V/T= 2.0027
 KE= 6.820183210154D+02 PE=-3.347773039594D+03 EE= 1.107132289232D+03
 Leave Link  502 at Fri Aug 27 03:35:00 2021, MaxMem= 24159191040 cpu:       635.6
 (Enter /public/home/users/caep010/software/Gaussian09/g09/l801.exe)
 DoSCS=F DFT=T ScalE2(SS,OS)=  1.000000  1.000000
 Range of M.O.s used for correlation:     1   442
 NBasis=   442 NAE=    51 NBE=    51 NFC=     0 NFV=     0
 NROrb=    442 NOA=    51 NOB=    51 NVA=   391 NVB=   391

 **** Warning!!: The largest alpha MO coefficient is  0.40564782D+02

 Leave Link  801 at Fri Aug 27 03:35:01 2021, MaxMem= 24159191040 cpu:         0.9
 (Enter /public/home/users/caep010/software/Gaussian09/g09/l1101.exe)
 Using compressed storage, NAtomX=    24.
 Will process     25 centers per pass.
 Leave Link 1101 at Fri Aug 27 03:35:02 2021, MaxMem= 24159191040 cpu:        25.4
 (Enter /public/home/users/caep010/software/Gaussian09/g09/l1102.exe)
 Symmetrizing basis deriv contribution to polar:
 IMax=3 JMax=2 DiffMx= 0.00D+00
 Leave Link 1102 at Fri Aug 27 03:35:02 2021, MaxMem= 24159191040 cpu:         1.3
 (Enter /public/home/users/caep010/software/Gaussian09/g09/l1110.exe)
 Forming Gx(P) for the SCF density, NAtomX=    24.
 Integral derivatives from FoFJK, PRISM(SPDF).
 Do as many integral derivatives as possible in FoFJK.
 G2DrvN: MDV=   24159190744.
 G2DrvN: will do    25 centers at a time, making    1 passes.
 Calling FoFCou, ICntrl=  3107 FMM=F I1Cent=   0 AccDes= 0.00D+00.
 FoFJK:  IHMeth= 1 ICntrl=    3107 DoSepK=F KAlg= 0 I1Cent=   0 FoldK=F
 IRaf=         0 NMat=   1 IRICut=       1 DoRegI=T DoRafI=F ISym2E= 0.
 FoFCou: FMM=F IPFlag=           0 FMFlag=      100000 FMFlg1=           0
         NFxFlg=           0 DoJE=F BraDBF=F KetDBF=F FulRan=T
         wScrn=  0.000000 ICntrl=    3107 IOpCl=  0 I1Cent=           0 NGrid=           0
         NMat0=    1 NMatS0=      1 NMatT0=    0 NMatD0=    1 NMtDS0=    0 NMtDT0=    0
 Symmetry not used in FoFCou.
 End of G2Drv F.D. properties file   721 does not exist.
 End of G2Drv F.D. properties file   722 does not exist.
 End of G2Drv F.D. properties file   788 does not exist.
 Leave Link 1110 at Fri Aug 27 03:35:41 2021, MaxMem= 24159191040 cpu:      1213.2
 (Enter /public/home/users/caep010/software/Gaussian09/g09/l1002.exe)
 Minotr:  Closed shell wavefunction.
          IDoAtm=111111111111111111111111
          Direct CPHF calculation.
          Differentiating once with respect to nuclear coordinates.
          Requested convergence is 1.0D-08 RMS, and 1.0D-07 maximum.
          Secondary convergence is 1.0D-12 RMS, and 1.0D-12 maximum.
          NewPWx=T KeepS1=F KeepF1=F KeepIn=T MapXYZ=F SortEE=F KeepMc=T.
          MDV=   24159190354 using IRadAn=       2.
 Generate precomputed XC quadrature information.
 Keep R1 ints in memory in canonical form, NReq=4849598083.
 FoFCou: FMM=F IPFlag=           0 FMFlag=           0 FMFlg1=           0
         NFxFlg=           0 DoJE=F BraDBF=F KetDBF=F FulRan=T
         wScrn=  0.000000 ICntrl=     600 IOpCl=  0 I1Cent=           0 NGrid=           0
         NMat0=    1 NMatS0=  97903 NMatT0=    0 NMatD0=    1 NMtDS0=    0 NMtDT0=    0
 Symmetry not used in FoFCou.
          Solving linear equations simultaneously, MaxMat=       0.
          There are    75 degrees of freedom in the 1st order CPHF.  IDoFFX=6 NUNeed=     0.
     69 vectors produced by pass  0 Test12= 2.66D-14 1.33D-09 XBig12= 2.08D-01 1.53D-01.
 AX will form    69 AO Fock derivatives at one time.
     69 vectors produced by pass  1 Test12= 2.66D-14 1.33D-09 XBig12= 1.91D-02 3.11D-02.
     69 vectors produced by pass  2 Test12= 2.66D-14 1.33D-09 XBig12= 2.86D-04 2.77D-03.
     69 vectors produced by pass  3 Test12= 2.66D-14 1.33D-09 XBig12= 1.52D-06 1.86D-04.
     69 vectors produced by pass  4 Test12= 2.66D-14 1.33D-09 XBig12= 4.22D-09 8.69D-06.
     68 vectors produced by pass  5 Test12= 2.66D-14 1.33D-09 XBig12= 5.44D-12 2.91D-07.
     20 vectors produced by pass  6 Test12= 2.66D-14 1.33D-09 XBig12= 6.50D-15 1.02D-08.
 InvSVY:  IOpt=1 It=  1 EMax= 5.27D-16
 Solved reduced A of dimension   433 with    75 vectors.
 End of Minotr F.D. properties file   721 does not exist.
 End of Minotr F.D. properties file   722 does not exist.
 End of Minotr F.D. properties file   788 does not exist.
 Leave Link 1002 at Fri Aug 27 03:36:59 2021, MaxMem= 24159191040 cpu:      2486.6
 (Enter /public/home/users/caep010/software/Gaussian09/g09/l601.exe)
 Copying SCF densities to generalized density rwf, IOpCl= 0 IROHF=0.

 **********************************************************************

            Population analysis using the SCF density.

 **********************************************************************

 Orbital symmetries:
       Occupied  (A) (A) (A) (A) (A) (A) (A) (A) (A) (A) (A) (A)
                 (A) (A) (A) (A) (A) (A) (A) (A) (A) (A) (A) (A)
                 (A) (A) (A) (A) (A) (A) (A) (A) (A) (A) (A) (A)
                 (A) (A) (A) (A) (A) (A) (A) (A) (A) (A) (A) (A)
                 (A) (A) (A)
       Virtual   (A) (A) (A) (A) (A) (A) (A) (A) (A) (A) (A) (A)
                 (A) (A) (A) (A) (A) (A) (A) (A) (A) (A) (A) (A)
                 (A) (A) (A) (A) (A) (A) (A) (A) (A) (A) (A) (A)
                 (A) (A) (A) (A) (A) (A) (A) (A) (A) (A) (A) (A)
                 (A) (A) (A) (A) (A) (A) (A) (A) (A) (A) (A) (A)
                 (A) (A) (A) (A) (A) (A) (A) (A) (A) (A) (A) (A)
                 (A) (A) (A) (A) (A) (A) (A) (A) (A) (A) (A) (A)
                 (A) (A) (A) (A) (A) (A) (A) (A) (A) (A) (A) (A)
                 (A) (A) (A) (A) (A) (A) (A) (A) (A) (A) (A) (A)
                 (A) (A) (A) (A) (A) (A) (A) (A) (A) (A) (A) (A)
                 (A) (A) (A) (A) (A) (A) (A) (A) (A) (A) (A) (A)
                 (A) (A) (A) (A) (A) (A) (A) (A) (A) (A) (A) (A)
                 (A) (A) (A) (A) (A) (A) (A) (A) (A) (A) (A) (A)
                 (A) (A) (A) (A) (A) (A) (A) (A) (A) (A) (A) (A)
                 (A) (A) (A) (A) (A) (A) (A) (A) (A) (A) (A) (A)
                 (A) (A) (A) (A) (A) (A) (A) (A) (A) (A) (A) (A)
                 (A) (A) (A) (A) (A) (A) (A) (A) (A) (A) (A) (A)
                 (A) (A) (A) (A) (A) (A) (A) (A) (A) (A) (A) (A)
                 (A) (A) (A) (A) (A) (A) (A) (A) (A) (A) (A) (A)
                 (A) (A) (A) (A) (A) (A) (A) (A) (A) (A) (A) (A)
                 (A) (A) (A) (A) (A) (A) (A) (A) (A) (A) (A) (A)
                 (A) (A) (A) (A) (A) (A) (A) (A) (A) (A) (A) (A)
                 (A) (A) (A) (A) (A) (A) (A) (A) (A) (A) (A) (A)
                 (A) (A) (A) (A) (A) (A) (A) (A) (A) (A) (A) (A)
                 (A) (A) (A) (A) (A) (A) (A) (A) (A) (A) (A) (A)
                 (A) (A) (A) (A) (A) (A) (A) (A) (A) (A) (A) (A)
                 (A) (A) (A) (A) (A) (A) (A) (A) (A) (A) (A) (A)
                 (A) (A) (A) (A) (A) (A) (A) (A) (A) (A) (A) (A)
                 (A) (A) (A) (A) (A) (A) (A) (A) (A) (A) (A) (A)
                 (A) (A) (A) (A) (A) (A) (A) (A) (A) (A) (A) (A)
                 (A) (A) (A) (A) (A) (A) (A) (A) (A) (A) (A) (A)
                 (A) (A) (A) (A) (A) (A) (A) (A) (A) (A) (A) (A)
                 (A) (A) (A) (A) (A) (A) (A)
 The electronic state is 1-A.
 Alpha  occ. eigenvalues --  -19.16084 -19.16069 -19.13949 -14.55427 -14.32073
 Alpha  occ. eigenvalues --  -10.23588 -10.22372 -10.21711 -10.20930 -10.20714
 Alpha  occ. eigenvalues --  -10.19227 -10.18959 -10.18435 -10.18264  -1.21910
 Alpha  occ. eigenvalues --   -1.04452  -1.04238  -0.99552  -0.89535  -0.81632
 Alpha  occ. eigenvalues --   -0.78636  -0.75787  -0.72809  -0.67538  -0.65504
 Alpha  occ. eigenvalues --   -0.62038  -0.60559  -0.57577  -0.55571  -0.53465
 Alpha  occ. eigenvalues --   -0.52630  -0.51241  -0.50627  -0.48491  -0.47585
 Alpha  occ. eigenvalues --   -0.46536  -0.46253  -0.43363  -0.40229  -0.38908
 Alpha  occ. eigenvalues --   -0.38109  -0.35907  -0.35709  -0.34809  -0.30127
 Alpha  occ. eigenvalues --   -0.29901  -0.28224  -0.28076  -0.28061  -0.27162
 Alpha  occ. eigenvalues --   -0.25792
 Alpha virt. eigenvalues --   -0.07809  -0.01964   0.00970   0.06622   0.09782
 Alpha virt. eigenvalues --    0.11556   0.13168   0.13731   0.16039   0.16940
 Alpha virt. eigenvalues --    0.17774   0.17967   0.19186   0.19862   0.20334
 Alpha virt. eigenvalues --    0.20984   0.23133   0.23922   0.24693   0.25448
 Alpha virt. eigenvalues --    0.27493   0.28788   0.28955   0.31919   0.33730
 Alpha virt. eigenvalues --    0.34656   0.38080   0.38630   0.40377   0.43335
 Alpha virt. eigenvalues --    0.44294   0.46966   0.47940   0.48386   0.49020
 Alpha virt. eigenvalues --    0.49591   0.50503   0.51356   0.51590   0.53019
 Alpha virt. eigenvalues --    0.54251   0.55154   0.55480   0.56224   0.58729
 Alpha virt. eigenvalues --    0.59789   0.60617   0.63156   0.63263   0.64248
 Alpha virt. eigenvalues --    0.66431   0.67607   0.68128   0.68808   0.69435
 Alpha virt. eigenvalues --    0.70476   0.72333   0.73732   0.74669   0.74791
 Alpha virt. eigenvalues --    0.75621   0.76367   0.77558   0.78961   0.80420
 Alpha virt. eigenvalues --    0.80878   0.81782   0.83429   0.83751   0.85045
 Alpha virt. eigenvalues --    0.86128   0.86379   0.86859   0.87790   0.88481
 Alpha virt. eigenvalues --    0.89576   0.90435   0.90956   0.92452   0.93048
 Alpha virt. eigenvalues --    0.94288   0.95020   0.96255   0.96920   0.97488
 Alpha virt. eigenvalues --    0.98344   0.99302   0.99659   1.00642   1.01547
 Alpha virt. eigenvalues --    1.04198   1.04733   1.06322   1.07726   1.09674
 Alpha virt. eigenvalues --    1.10797   1.12917   1.14560   1.15350   1.17470
 Alpha virt. eigenvalues --    1.18147   1.19076   1.21628   1.25644   1.27542
 Alpha virt. eigenvalues --    1.29754   1.30249   1.30999   1.34547   1.35134
 Alpha virt. eigenvalues --    1.37699   1.38100   1.38408   1.40149   1.40195
 Alpha virt. eigenvalues --    1.41303   1.41810   1.43900   1.44745   1.46733
 Alpha virt. eigenvalues --    1.47516   1.48784   1.50325   1.52501   1.52824
 Alpha virt. eigenvalues --    1.53966   1.55245   1.56172   1.58979   1.60545
 Alpha virt. eigenvalues --    1.62280   1.64106   1.65251   1.67503   1.67712
 Alpha virt. eigenvalues --    1.68669   1.70513   1.70826   1.70960   1.73166
 Alpha virt. eigenvalues --    1.76643   1.78304   1.83135   1.85602   1.87112
 Alpha virt. eigenvalues --    1.88960   1.90553   1.93839   1.95245   1.95395
 Alpha virt. eigenvalues --    1.97557   1.99605   2.02436   2.03477   2.06227
 Alpha virt. eigenvalues --    2.13117   2.16680   2.17750   2.20769   2.22848
 Alpha virt. eigenvalues --    2.26086   2.28738   2.30326   2.31605   2.33696
 Alpha virt. eigenvalues --    2.34950   2.35884   2.41891   2.43024   2.44662
 Alpha virt. eigenvalues --    2.49353   2.51644   2.54202   2.55236   2.57480
 Alpha virt. eigenvalues --    2.59366   2.62591   2.65763   2.72524   2.76331
 Alpha virt. eigenvalues --    2.81598   2.81736   2.83034   2.83778   2.85447
 Alpha virt. eigenvalues --    2.87698   2.93335   2.94647   2.95442   2.97099
 Alpha virt. eigenvalues --    2.98665   2.99648   3.01556   3.04015   3.04821
 Alpha virt. eigenvalues --    3.07382   3.07887   3.09578   3.10691   3.12103
 Alpha virt. eigenvalues --    3.13036   3.14907   3.15882   3.16489   3.17992
 Alpha virt. eigenvalues --    3.19225   3.20379   3.21053   3.23166   3.25496
 Alpha virt. eigenvalues --    3.26613   3.28245   3.30309   3.30768   3.32324
 Alpha virt. eigenvalues --    3.33497   3.34646   3.37257   3.38562   3.39421
 Alpha virt. eigenvalues --    3.43456   3.45312   3.45759   3.46825   3.47314
 Alpha virt. eigenvalues --    3.48658   3.49532   3.50399   3.52525   3.53783
 Alpha virt. eigenvalues --    3.54345   3.55247   3.56327   3.58274   3.58585
 Alpha virt. eigenvalues --    3.60497   3.63543   3.65311   3.65911   3.69494
 Alpha virt. eigenvalues --    3.69778   3.70984   3.72665   3.74849   3.77011
 Alpha virt. eigenvalues --    3.77236   3.79548   3.81637   3.83875   3.86486
 Alpha virt. eigenvalues --    3.88902   3.93190   3.96044   3.98223   3.98575
 Alpha virt. eigenvalues --    4.01944   4.03143   4.04749   4.06146   4.07056
 Alpha virt. eigenvalues --    4.10272   4.12749   4.12976   4.15636   4.18733
 Alpha virt. eigenvalues --    4.21555   4.24119   4.25904   4.27292   4.28083
 Alpha virt. eigenvalues --    4.28328   4.30977   4.32030   4.36080   4.36615
 Alpha virt. eigenvalues --    4.38216   4.39660   4.41439   4.42602   4.43608
 Alpha virt. eigenvalues --    4.44762   4.45200   4.46729   4.47963   4.49254
 Alpha virt. eigenvalues --    4.50716   4.51510   4.51989   4.52305   4.53510
 Alpha virt. eigenvalues --    4.54723   4.55169   4.56947   4.57579   4.58678
 Alpha virt. eigenvalues --    4.60028   4.60571   4.62265   4.63848   4.66395
 Alpha virt. eigenvalues --    4.67035   4.68104   4.69998   4.72313   4.73182
 Alpha virt. eigenvalues --    4.74191   4.74938   4.77571   4.80824   4.83447
 Alpha virt. eigenvalues --    4.84870   4.86865   4.88741   4.92761   4.95289
 Alpha virt. eigenvalues --    4.96887   4.98652   4.99700   5.01666   5.02141
 Alpha virt. eigenvalues --    5.03492   5.03980   5.04473   5.07631   5.09443
 Alpha virt. eigenvalues --    5.09899   5.13224   5.14009   5.18852   5.20566
 Alpha virt. eigenvalues --    5.22334   5.23972   5.26314   5.29798   5.34527
 Alpha virt. eigenvalues --    5.35627   5.38143   5.39820   5.41835   5.44284
 Alpha virt. eigenvalues --    5.45351   5.47785   5.52382   5.53844   5.58230
 Alpha virt. eigenvalues --    5.58825   5.60363   5.61629   5.62484   5.66150
 Alpha virt. eigenvalues --    5.68664   5.78931   5.80410   5.82150   5.87923
 Alpha virt. eigenvalues --    5.89568   5.96387   5.99306   6.02792   6.05180
 Alpha virt. eigenvalues --    6.06603   6.10257   6.11657   6.15076   6.26180
 Alpha virt. eigenvalues --    6.29889   6.31726   6.36857   6.43353   6.74256
 Alpha virt. eigenvalues --    6.92640   7.04203   7.07624   7.19711   9.34225
 Alpha virt. eigenvalues --    9.82318  10.45264  10.57418  10.99779  11.31785
 Alpha virt. eigenvalues --   11.39242  11.66812  11.83264  11.89011  12.42820
 Alpha virt. eigenvalues --   12.94198  12.97288  13.20630  13.27989  15.73205
 Alpha virt. eigenvalues --   17.05489
          Condensed to atoms (all electrons):
               1          2          3          4          5          6
     1  N    6.405388   0.392176   0.260765   0.313352  -0.034893  -0.041252
     2  H    0.392176   0.508860  -0.039691  -0.046443  -0.009906  -0.009767
     3  C    0.260765  -0.039691   4.852866   0.291507   0.389132  -0.041416
     4  C    0.313352  -0.046443   0.291507   4.982339  -0.032434   0.396804
     5  H   -0.034893  -0.009906   0.389132  -0.032434   0.669640  -0.007758
     6  H   -0.041252  -0.009767  -0.041416   0.396804  -0.007758   0.666178
     7  C   -0.010509   0.004509   0.399111  -0.013388  -0.063623   0.003946
     8  O    0.001033  -0.000095  -0.039462   0.002028   0.005123   0.000133
     9  H    0.002444   0.000212  -0.024070   0.005476  -0.006773  -0.000191
    10  H    0.002159  -0.000337  -0.023640  -0.016651   0.010875   0.000213
    11  H   -0.000228   0.000007   0.007837  -0.000021  -0.000215   0.000007
    12  C   -0.025779   0.005709  -0.007739   0.358588   0.000798  -0.052151
    13  C   -0.006260  -0.000644  -0.010543  -0.026363   0.000231   0.008533
    14  H    0.024987  -0.000848   0.000150  -0.015831   0.000093   0.000503
    15  C    0.000466  -0.000030   0.000228   0.003431   0.000014  -0.000168
    16  H   -0.000016   0.000000  -0.000003  -0.000228  -0.000000   0.000004
    17  C   -0.000003   0.000001   0.000072   0.001123  -0.000001  -0.000032
    18  C   -0.000027   0.000002  -0.000178   0.004558   0.000007   0.000035
    19  H    0.000001  -0.000000  -0.000002  -0.000257  -0.000000   0.000000
    20  C    0.001588  -0.000153   0.002144  -0.069014   0.000149  -0.009175
    21  H   -0.000145  -0.000013   0.001526  -0.013398  -0.000033   0.004025
    22  N   -0.000000   0.000000   0.000000   0.000001  -0.000000  -0.000000
    23  O    0.000000   0.000000  -0.000000  -0.000000   0.000000  -0.000000
    24  O    0.000000   0.000000  -0.000000  -0.000000   0.000000   0.000000
               7          8          9         10         11         12
     1  N   -0.010509   0.001033   0.002444   0.002159  -0.000228  -0.025779
     2  H    0.004509  -0.000095   0.000212  -0.000337   0.000007   0.005709
     3  C    0.399111  -0.039462  -0.024070  -0.023640   0.007837  -0.007739
     4  C   -0.013388   0.002028   0.005476  -0.016651  -0.000021   0.358588
     5  H   -0.063623   0.005123  -0.006773   0.010875  -0.000215   0.000798
     6  H    0.003946   0.000133  -0.000191   0.000213   0.000007  -0.052151
     7  C    4.685211   0.353570   0.369819   0.348558  -0.055277  -0.000354
     8  O    0.353570   7.841127  -0.030422  -0.027973   0.314879  -0.000592
     9  H    0.369819  -0.030422   0.685812  -0.075667  -0.010885   0.000473
    10  H    0.348558  -0.027973  -0.075667   0.684330  -0.000333   0.006439
    11  H   -0.055277   0.314879  -0.010885  -0.000333   0.461851   0.000036
    12  C   -0.000354  -0.000592   0.000473   0.006439   0.000036   4.547247
    13  C   -0.004696   0.000048   0.000042   0.006634  -0.000006   0.492482
    14  H   -0.001248   0.000027   0.000072   0.001581   0.000001  -0.024318
    15  C   -0.000523  -0.000015  -0.000010   0.001399  -0.000000   0.018250
    16  H    0.000000  -0.000000  -0.000000   0.000007   0.000000   0.000685
    17  C   -0.000012   0.000004   0.000001  -0.000100  -0.000000  -0.040671
    18  C    0.000075  -0.000046  -0.000003  -0.000038   0.000000   0.038497
    19  H   -0.000001  -0.000000  -0.000000   0.000001   0.000000   0.000416
    20  C   -0.000047   0.000743   0.000047   0.000179  -0.000030   0.511436
    21  H   -0.000154   0.000049   0.000005  -0.000014   0.000002  -0.036306
    22  N    0.000000  -0.000000  -0.000000  -0.000000   0.000000   0.000703
    23  O   -0.000000   0.000000  -0.000000   0.000000  -0.000000  -0.000010
    24  O   -0.000000  -0.000000   0.000000   0.000000  -0.000000  -0.000012
              13         14         15         16         17         18
     1  N   -0.006260   0.024987   0.000466  -0.000016  -0.000003  -0.000027
     2  H   -0.000644  -0.000848  -0.000030   0.000000   0.000001   0.000002
     3  C   -0.010543   0.000150   0.000228  -0.000003   0.000072  -0.000178
     4  C   -0.026363  -0.015831   0.003431  -0.000228   0.001123   0.004558
     5  H    0.000231   0.000093   0.000014  -0.000000  -0.000001   0.000007
     6  H    0.008533   0.000503  -0.000168   0.000004  -0.000032   0.000035
     7  C   -0.004696  -0.001248  -0.000523   0.000000  -0.000012   0.000075
     8  O    0.000048   0.000027  -0.000015  -0.000000   0.000004  -0.000046
     9  H    0.000042   0.000072  -0.000010  -0.000000   0.000001  -0.000003
    10  H    0.006634   0.001581   0.001399   0.000007  -0.000100  -0.000038
    11  H   -0.000006   0.000001  -0.000000   0.000000  -0.000000   0.000000
    12  C    0.492482  -0.024318   0.018250   0.000685  -0.040671   0.038497
    13  C    4.908559   0.318006   0.470968  -0.023437   0.017574  -0.090806
    14  H    0.318006   0.611452  -0.028338  -0.002789   0.000421   0.002242
    15  C    0.470968  -0.028338   4.963225   0.325322   0.436596  -0.017716
    16  H   -0.023437  -0.002789   0.325322   0.592215  -0.024517   0.005295
    17  C    0.017574   0.000421   0.436596  -0.024517   4.899125   0.433190
    18  C   -0.090806   0.002242  -0.017716   0.005295   0.433190   4.969622
    19  H    0.002004   0.000082   0.004544  -0.000406  -0.025605   0.327417
    20  C    0.059808   0.008440  -0.079879   0.002136   0.012246   0.492994
    21  H    0.007592  -0.000449   0.002912   0.000092   0.001169  -0.033379
    22  N    0.000643  -0.000112  -0.018603  -0.016636   0.331512  -0.022468
    23  O    0.001135  -0.000013   0.002924   0.029082  -0.136330   0.009016
    24  O   -0.000001   0.000001   0.009458   0.000635  -0.133129   0.003327
              19         20         21         22         23         24
     1  N    0.000001   0.001588  -0.000145  -0.000000   0.000000   0.000000
     2  H   -0.000000  -0.000153  -0.000013   0.000000   0.000000   0.000000
     3  C   -0.000002   0.002144   0.001526   0.000000  -0.000000  -0.000000
     4  C   -0.000257  -0.069014  -0.013398   0.000001  -0.000000  -0.000000
     5  H   -0.000000   0.000149  -0.000033  -0.000000   0.000000   0.000000
     6  H    0.000000  -0.009175   0.004025  -0.000000  -0.000000   0.000000
     7  C   -0.000001  -0.000047  -0.000154   0.000000  -0.000000  -0.000000
     8  O   -0.000000   0.000743   0.000049  -0.000000   0.000000  -0.000000
     9  H   -0.000000   0.000047   0.000005  -0.000000  -0.000000   0.000000
    10  H    0.000001   0.000179  -0.000014  -0.000000   0.000000   0.000000
    11  H    0.000000  -0.000030   0.000002   0.000000  -0.000000  -0.000000
    12  C    0.000416   0.511436  -0.036306   0.000703  -0.000010  -0.000012
    13  C    0.002004   0.059808   0.007592   0.000643   0.001135  -0.000001
    14  H    0.000082   0.008440  -0.000449  -0.000112  -0.000013   0.000001
    15  C    0.004544  -0.079879   0.002912  -0.018603   0.002924   0.009458
    16  H   -0.000406   0.002136   0.000092  -0.016636   0.029082   0.000635
    17  C   -0.025605   0.012246   0.001169   0.331512  -0.136330  -0.133129
    18  C    0.327417   0.492994  -0.033379  -0.022468   0.009016   0.003327
    19  H    0.584087  -0.018826  -0.003333  -0.013267   0.000556   0.026652
    20  C   -0.018826   4.848914   0.332975   0.000211   0.000003   0.001169
    21  H   -0.003333   0.332975   0.648217  -0.000130   0.000001  -0.000010
    22  N   -0.013267   0.000211  -0.000130   5.277183   0.542940   0.541912
    23  O    0.000556   0.000003   0.000001   0.542940   8.019942  -0.106924
    24  O    0.026652   0.001169  -0.000010   0.541912  -0.106924   8.023571
 Mulliken charges:
               1
     1  N   -0.285249
     2  H    0.196452
     3  C   -0.018595
     4  C   -0.125179
     5  H    0.079574
     6  H    0.081527
     7  C   -0.014967
     8  O   -0.420160
     9  H    0.083618
    10  H    0.082378
    11  H    0.282377
    12  C    0.206173
    13  C   -0.131506
    14  H    0.105889
    15  C   -0.094455
    16  H    0.112559
    17  C    0.227364
    18  C   -0.121617
    19  H    0.115936
    20  C   -0.098057
    21  H    0.088800
    22  N    0.376109
    23  O   -0.362322
    24  O   -0.366649
 Sum of Mulliken charges =  -0.00000
 Mulliken charges with hydrogens summed into heavy atoms:
               1
     1  N   -0.088797
     3  C    0.060979
     4  C   -0.043652
     7  C    0.151029
     8  O   -0.137783
    12  C    0.206173
    13  C   -0.025617
    15  C    0.018104
    17  C    0.227364
    18  C   -0.005681
    20  C   -0.009258
    22  N    0.376109
    23  O   -0.362322
    24  O   -0.366649
 APT charges:
               1
     1  N   -0.774912
     2  H    0.805978
     3  C   -0.431117
     4  C   -0.424351
     5  H    0.601938
     6  H    0.466968
     7  C   -0.356872
     8  O   -0.980043
     9  H    0.543062
    10  H    0.023031
    11  H    0.790164
    12  C   -0.483076
    13  C   -0.339959
    14  H    0.344382
    15  C   -0.262978
    16  H    0.408489
    17  C   -0.175412
    18  C   -0.236594
    19  H    0.448376
    20  C   -0.300201
    21  H    0.381903
    22  N   -1.458387
    23  O    0.665121
    24  O    0.744490
 Sum of APT charges =  -0.00000
 APT charges with hydrogens summed into heavy atoms:
               1
     1  N    0.031066
     3  C    0.170821
     4  C    0.042617
     7  C    0.209220
     8  O   -0.189879
    12  C   -0.483076
    13  C    0.004423
    15  C    0.145511
    17  C   -0.175412
    18  C    0.211782
    20  C    0.081702
    22  N   -1.458387
    23  O    0.665121
    24  O    0.744490
 Electronic spatial extent (au):  <R**2>=           3299.4951
 Charge=             -0.0000 electrons
 Dipole moment (field-independent basis, Debye):
    X=              5.9645    Y=             -0.4499    Z=              0.5922  Tot=              6.0107
 Quadrupole moment (field-independent basis, Debye-Ang):
   XX=            -89.6175   YY=            -77.7605   ZZ=            -73.5059
   XY=              2.0399   XZ=             -2.3619   YZ=             -5.7140
 Traceless Quadrupole moment (field-independent basis, Debye-Ang):
   XX=             -9.3229   YY=              2.5342   ZZ=              6.7887
   XY=              2.0399   XZ=             -2.3619   YZ=             -5.7140
 Octapole moment (field-independent basis, Debye-Ang**2):
  XXX=            126.5455  YYY=             16.0093  ZZZ=             -2.0675  XYY=              3.3998
  XXY=            -10.7547  XXZ=              8.0605  XZZ=             13.0552  YZZ=             11.1686
  YYZ=            -11.6434  XYZ=            -16.3489
 Hexadecapole moment (field-independent basis, Debye-Ang**3):
 XXXX=          -3325.3981 YYYY=           -460.6552 ZZZZ=           -404.4795 XXXY=             33.8630
 XXXZ=            -32.1896 YYYX=             23.4149 YYYZ=            -38.4649 ZZZX=            -10.9490
 ZZZY=             -6.4369 XXYY=           -576.0572 XXZZ=           -584.2499 YYZZ=           -131.4944
 XXYZ=            -79.3896 YYXZ=            -15.4944 ZZXY=             19.2298
 N-N= 8.747571214066D+02 E-N=-3.347773066009D+03  KE= 6.820183210154D+02
  Exact polarizability:   0.000   0.000   0.000   0.000   0.000   0.000
 Approx polarizability: 222.743 -21.823 140.654   8.950  42.435 181.706
 No NMR shielding tensors so no spin-rotation constants.
 Leave Link  601 at Fri Aug 27 03:37:00 2021, MaxMem= 24159191040 cpu:        21.1
 (Enter /public/home/users/caep010/software/Gaussian09/g09/l701.exe)
 Compute integral second derivatives.
 ... and contract with generalized density number  0.
 Leave Link  701 at Fri Aug 27 03:37:01 2021, MaxMem= 24159191040 cpu:        19.0
 (Enter /public/home/users/caep010/software/Gaussian09/g09/l702.exe)
 L702 exits ... SP integral derivatives will be done elsewhere.
 Leave Link  702 at Fri Aug 27 03:37:01 2021, MaxMem= 24159191040 cpu:         0.7
 (Enter /public/home/users/caep010/software/Gaussian09/g09/l703.exe)
 Compute integral second derivatives, UseDBF=F ICtDFT=           0.
 Integral derivatives from FoFJK, PRISM(SPDF).
 Calling FoFJK, ICntrl=    100147 FMM=F ISym2X=0 I1Cent= 0 IOpClX= 0 NMat=1 NMatS=1 NMatT=0.
 FoFJK:  IHMeth= 1 ICntrl=  100147 DoSepK=F KAlg= 0 I1Cent=   0 FoldK=F
 IRaf=         0 NMat=   1 IRICut=       1 DoRegI=T DoRafI=F ISym2E= 0.
 FoFCou: FMM=F IPFlag=           0 FMFlag=      100000 FMFlg1=         800
         NFxFlg=           0 DoJE=F BraDBF=F KetDBF=F FulRan=T
         wScrn=  0.000000 ICntrl=  100147 IOpCl=  0 I1Cent=           0 NGrid=           0
         NMat0=    1 NMatS0=      1 NMatT0=    0 NMatD0=    1 NMtDS0=    0 NMtDT0=    0
 Symmetry not used in FoFCou.
 Leave Link  703 at Fri Aug 27 03:38:07 2021, MaxMem= 24159191040 cpu:      2089.7
 (Enter /public/home/users/caep010/software/Gaussian09/g09/l716.exe)
 Dipole        = 2.34660272D+00-1.77021910D-01 2.32982509D-01
 Polarizability= 0.00000000D+00 0.00000000D+00 0.00000000D+00
                 0.00000000D+00 0.00000000D+00 0.00000000D+00
 ***** Axes restored to original set *****
 -------------------------------------------------------------------
 Center     Atomic                   Forces (Hartrees/Bohr)
 Number     Number              X              Y              Z
 -------------------------------------------------------------------
      1        7           0.138443570   -0.328805792   -0.100848746
      2        1          -0.134831852    0.324610817    0.102256605
      3        6           0.083106977   -0.019081256   -0.001366927
      4        6           0.056323644   -0.025493049   -0.069055387
      5        1          -0.092876899    0.033710327    0.001451386
      6        1          -0.053546739    0.029172428    0.077067919
      7        6          -0.069872402    0.003942244    0.085933259
      8        8          -0.019774801   -0.017255640    0.008237393
      9        1          -0.013030204    0.057377600   -0.101786733
     10        1           0.112090539   -0.036417494    0.008946364
     11        1          -0.008644667   -0.018781789   -0.012927536
     12        6           0.001359696    0.008650296   -0.004728999
     13        6          -0.052215607   -0.108644122    0.085674282
     14        1           0.052981427    0.125807856   -0.097315104
     15        6          -0.132687254    0.012711612    0.052845252
     16        1           0.153209812   -0.006979804   -0.064347407
     17        6          -0.010537566   -0.019801130    0.015664752
     18        6           0.060209885    0.113075389   -0.094672649
     19        1          -0.050079760   -0.124961024    0.098279964
     20        6           0.130964802   -0.005865844   -0.054951003
     21        1          -0.155112885    0.004953511    0.066495750
     22        7           0.003063583   -0.004864104    0.000810878
     23        8           0.007186855    0.002547634   -0.004479728
     24        8          -0.005730154    0.000391333    0.002816418
 -------------------------------------------------------------------
 Cartesian Forces:  Max     0.328805792 RMS     0.087340134
 FormGI is forming the generalized inverse of G from B-inverse, IUseBI=4.
 Leave Link  716 at Fri Aug 27 03:38:07 2021, MaxMem= 24159191040 cpu:         1.3
 (Enter /public/home/users/caep010/software/Gaussian09/g09/l103.exe)

 GradGradGradGradGradGradGradGradGradGradGradGradGradGradGradGradGradGrad
 Berny optimization.
 Red2BG is reusing G-inverse.
 Internal  Forces:  Max     0.366060432 RMS     0.050154471
 Search for a local minimum.
 Step number   1 out of a maximum of  129
 All quantities printed in internal units (Hartrees-Bohrs-Radians)
 RMS Force = .50154D-01 SwitMx=.10000D-02 MixMth= 1
 Mixed Optimization -- RFO/linear search
 Second derivative matrix not updated -- analytic derivatives used.
 ITU=  0
     Eigenvalues ---    0.00122   0.00188   0.00245   0.00451   0.01787
     Eigenvalues ---    0.01907   0.02006   0.02101   0.02160   0.02290
     Eigenvalues ---    0.02469   0.02625   0.02648   0.02783   0.02971
     Eigenvalues ---    0.03065   0.03314   0.04094   0.05303   0.06195
     Eigenvalues ---    0.07584   0.08240   0.10745   0.11006   0.11235
     Eigenvalues ---    0.11460   0.11691   0.12166   0.13044   0.13781
     Eigenvalues ---    0.14827   0.17830   0.18194   0.18363   0.19317
     Eigenvalues ---    0.20204   0.20660   0.23158   0.23829   0.25628
     Eigenvalues ---    0.25988   0.28586   0.30335   0.31032   0.34457
     Eigenvalues ---    0.34718   0.35689   0.40802   0.45152   0.46925
     Eigenvalues ---    0.48961   0.49668   0.53229   0.56851   0.59487
     Eigenvalues ---    0.61770   0.63997   0.64178   0.66793   0.67862
     Eigenvalues ---    0.80136   0.85281   0.85547   0.85638   0.85953
     Eigenvalues ---    1.65736
 RFO step:  Lambda=-2.34418998D-01 EMin= 1.22340856D-03
 Linear search not attempted -- first point.
 Maximum step size (   0.300) exceeded in Quadratic search.
    -- Step size scaled by   0.668
 Iteration  1 RMS(Cart)=  0.03421418 RMS(Int)=  0.00020809
 Iteration  2 RMS(Cart)=  0.00024657 RMS(Int)=  0.00000683
 Iteration  3 RMS(Cart)=  0.00000013 RMS(Int)=  0.00000683
 ITry= 1 IFail=0 DXMaxC= 1.22D-01 DCOld= 1.00D+10 DXMaxT= 3.00D-01 DXLimC= 3.00D+00 Rises=F
 Variable       Old X    -DE/DX   Delta X   Delta X   Delta X     New X
                                 (Linear)    (Quad)   (Total)
    R1        1.52274   0.36606   0.00000   0.12921   0.12921   1.65194
    R2        2.76696   0.00134   0.00000   0.00239   0.00241   2.76937
    R3        2.78542  -0.00062   0.00000  -0.00052  -0.00053   2.78489
    R4        2.79941   0.01090   0.00000   0.01314   0.01312   2.81254
    R5        1.85254   0.09876   0.00000   0.07498   0.07498   1.92751
    R6        2.80733   0.01591   0.00000   0.01618   0.01618   2.82351
    R7        1.85272   0.09824   0.00000   0.07482   0.07482   1.92754
    R8        2.80468   0.00431   0.00000   0.00474   0.00474   2.80943
    R9        2.61819   0.04526   0.00000   0.03492   0.03492   2.65311
   R10        1.83513   0.11747   0.00000   0.08606   0.08606   1.92119
   R11        1.83284   0.11812   0.00000   0.08592   0.08592   1.91876
   R12        1.78449   0.01917   0.00000   0.01482   0.01482   1.79931
   R13        2.61569   0.01308   0.00000   0.01180   0.01180   2.62749
   R14        2.60780   0.02258   0.00000   0.01848   0.01848   2.62628
   R15        1.75688   0.16764   0.00000   0.10257   0.10257   1.85944
   R16        2.60133   0.01787   0.00000   0.01384   0.01384   2.61517
   R17        1.75707   0.16631   0.00000   0.10184   0.10184   1.85891
   R18        2.57026   0.02706   0.00000   0.02346   0.02346   2.59372
   R19        2.62900   0.00410   0.00000   0.00205   0.00205   2.63105
   R20        2.76096   0.00404   0.00000   0.00570   0.00570   2.76666
   R21        1.75609   0.16666   0.00000   0.10184   0.10184   1.85792
   R22        2.58762   0.01984   0.00000   0.01635   0.01635   2.60397
   R23        1.75681   0.16883   0.00000   0.10343   0.10343   1.86024
   R24        2.30773   0.00840   0.00000   0.00473   0.00473   2.31246
   R25        2.31324   0.00333   0.00000   0.00154   0.00154   2.31479
    A1        1.94858  -0.00198   0.00000  -0.00428  -0.00430   1.94428
    A2        1.91874  -0.00036   0.00000  -0.00044  -0.00044   1.91830
    A3        2.01402   0.00406   0.00000   0.00908   0.00907   2.02310
    A4        2.04531  -0.00078   0.00000  -0.00303  -0.00302   2.04229
    A5        2.01528   0.00148   0.00000   0.00224   0.00224   2.01752
    A6        2.13007   0.00161   0.00000   0.00354   0.00354   2.13361
    A7        2.01254  -0.00276   0.00000  -0.00572  -0.00572   2.00681
    A8        2.00851   0.00309   0.00000   0.00730   0.00730   2.01581
    A9        2.08090  -0.00204   0.00000  -0.00491  -0.00489   2.07601
   A10        2.00850  -0.00059   0.00000  -0.00197  -0.00197   2.00654
   A11        2.12335   0.00289   0.00000   0.00662   0.00663   2.12999
   A12        2.00840  -0.00145   0.00000  -0.00365  -0.00365   2.00475
   A13        1.87618  -0.00001   0.00000  -0.00194  -0.00194   1.87425
   A14        1.92376  -0.00382   0.00000  -0.00507  -0.00507   1.91868
   A15        1.92230  -0.00252   0.00000  -0.00208  -0.00208   1.92022
   A16        1.92301   0.00252   0.00000   0.00449   0.00449   1.92750
   A17        1.92384   0.00252   0.00000   0.00447   0.00447   1.92831
   A18        1.89494   0.00129   0.00000   0.00012   0.00010   1.89504
   A19        1.77779   0.02685   0.00000   0.03373   0.03373   1.81152
   A20        2.14268  -0.00535   0.00000  -0.00709  -0.00709   2.13559
   A21        2.06833   0.00150   0.00000   0.00324   0.00323   2.07156
   A22        2.07193   0.00386   0.00000   0.00388   0.00388   2.07582
   A23        2.08901   0.00011   0.00000  -0.00214  -0.00214   2.08687
   A24        2.10607  -0.00235   0.00000  -0.00153  -0.00153   2.10454
   A25        2.08810   0.00224   0.00000   0.00367   0.00367   2.09177
   A26        2.10349   0.00169   0.00000   0.00433   0.00433   2.10782
   A27        2.07567  -0.00103   0.00000  -0.00099  -0.00099   2.07468
   A28        2.10402  -0.00067   0.00000  -0.00335  -0.00334   2.10068
   A29        2.13504   0.00106   0.00000  -0.00066  -0.00066   2.13438
   A30        2.08300  -0.00145   0.00000  -0.00183  -0.00183   2.08117
   A31        2.06512   0.00039   0.00000   0.00249   0.00249   2.06761
   A32        2.11719  -0.00354   0.00000  -0.00710  -0.00710   2.11009
   A33        2.04905   0.00294   0.00000   0.00555   0.00555   2.05460
   A34        2.11694   0.00060   0.00000   0.00155   0.00155   2.11849
   A35        2.12837  -0.00447   0.00000  -0.00623  -0.00623   2.12214
   A36        2.07643   0.00296   0.00000   0.00380   0.00380   2.08023
   A37        2.07839   0.00152   0.00000   0.00244   0.00243   2.08082
   A38        2.05203  -0.00003   0.00000   0.00055   0.00055   2.05258
   A39        2.07139  -0.00629   0.00000  -0.00696  -0.00696   2.06443
   A40        2.15975   0.00632   0.00000   0.00641   0.00641   2.16616
    D1        0.08091  -0.00287   0.00000  -0.00574  -0.00574   0.07517
    D2        2.53980  -0.00319   0.00000  -0.00746  -0.00746   2.53234
    D3       -0.02182   0.00159   0.00000   0.00281   0.00282  -0.01901
    D4       -2.51655   0.00266   0.00000   0.00589   0.00590  -2.51065
    D5       -0.00714   0.00026   0.00000   0.00053   0.00053  -0.00661
    D6        2.55773   0.00125   0.00000   0.00098   0.00099   2.55872
    D7       -2.60687   0.00045   0.00000   0.00221   0.00219  -2.60468
    D8       -0.04200   0.00144   0.00000   0.00266   0.00266  -0.03934
    D9        2.80680  -0.00174   0.00000  -0.00251  -0.00252   2.80428
   D10       -1.38012  -0.00090   0.00000  -0.00118  -0.00118  -1.38131
   D11        0.71038  -0.00332   0.00000  -0.00556  -0.00556   0.70482
   D12        1.58359   0.00158   0.00000   0.00207   0.00207   1.58566
   D13       -2.60334   0.00242   0.00000   0.00340   0.00341  -2.59993
   D14       -0.51283   0.00000   0.00000  -0.00097  -0.00097  -0.51380
   D15       -1.01692   0.00057   0.00000   0.00147   0.00147  -1.01545
   D16        1.07934   0.00140   0.00000   0.00281   0.00281   1.08215
   D17       -3.11334  -0.00102   0.00000  -0.00157  -0.00157  -3.11491
   D18        0.06838   0.00100   0.00000   0.00152   0.00154   0.06992
   D19       -3.04926   0.00046   0.00000   0.00009   0.00012  -3.04914
   D20        1.29190  -0.00079   0.00000  -0.00023  -0.00025   1.29165
   D21       -1.82573  -0.00132   0.00000  -0.00166  -0.00168  -1.82741
   D22       -2.42639   0.00046   0.00000   0.00073   0.00072  -2.42566
   D23        0.73917  -0.00007   0.00000  -0.00070  -0.00070   0.73846
   D24        2.82898  -0.00002   0.00000   0.00024   0.00024   2.82922
   D25        0.73225   0.00316   0.00000   0.00497   0.00498   0.73723
   D26       -1.35876  -0.00163   0.00000  -0.00087  -0.00088  -1.35964
   D27        0.05084  -0.00063   0.00000  -0.00173  -0.00173   0.04911
   D28       -3.09303  -0.00090   0.00000  -0.00243  -0.00243  -3.09546
   D29       -3.11476  -0.00012   0.00000  -0.00031  -0.00031  -3.11507
   D30        0.02456  -0.00040   0.00000  -0.00101  -0.00101   0.02355
   D31        3.09856   0.00067   0.00000   0.00196   0.00196   3.10052
   D32       -0.04206   0.00078   0.00000   0.00216   0.00217  -0.03989
   D33       -0.02007   0.00029   0.00000   0.00074   0.00074  -0.01933
   D34        3.12250   0.00040   0.00000   0.00095   0.00095   3.12345
   D35        3.12562   0.00047   0.00000   0.00119   0.00119   3.12681
   D36       -0.01454   0.00033   0.00000   0.00083   0.00083  -0.01371
   D37       -0.01825   0.00019   0.00000   0.00048   0.00048  -0.01777
   D38        3.12478   0.00005   0.00000   0.00012   0.00012   3.12490
[...]
 0450674,0.05147536,-0.09350348,-0.01275524,0.01265431,-0.00074428,-0.1
 6691456,-0.20868631,0.33966100,0.00014341,0.00004918,-0.00002259,-0.00
 002158,-0.00001109,-0.00001097,-0.00007993,0.00002105,0.00014212,-0.00
 047303,-0.00033750,0.00032858,0.00001080,0.00001076,-0.00004983,-0.000
 15301,0.00011278,-0.00007648,-0.00009578,0.00006843,0.00002345,0.00004
 420,-0.00002117,-0.00001082,0.00001115,-0.00001986,-0.00001301,0.00004
 152,-0.00001136,0.00001183,-0.00002568,0.00000405,-0.00001112,0.000757
 63,0.00362869,0.00067732,-0.01095126,-0.00133681,0.00676519,0.00033636
 ,-0.00092582,-0.00131339,-0.30446903,0.00915030,0.10571595,0.32215008,
 -0.00017604,-0.00000720,0.00006671,0.00001965,-0.00000167,0.00002756,0
 .00003892,-0.00002721,-0.00003368,0.00061211,0.00042498,-0.00080792,-0
 .00001107,-0.00002519,0.00003508,0.00019419,-0.00019941,0.00004160,0.0
 0001526,-0.00000424,0.00000324,-0.00002327,-0.00001401,0.00000506,0.00
 000957,0.00000557,0.00002145,0.00002241,0.00001864,0.00000430,-0.00000
 114,0.00000864,0.00000061,0.00386097,-0.00142533,0.00426334,0.02180809
 ,0.00358000,-0.00917585,-0.00127004,-0.00024946,-0.00192234,0.01123458
 ,-0.05143823,0.00366757,-0.01404747,0.04760424,0.00013529,0.00005766,0
 .00002004,-0.00000673,-0.00001432,0.00000874,-0.00008416,-0.00001461,0
 .00015822,-0.00050699,-0.00007902,-0.00006389,0.00001139,0.00000733,-0
 .00004127,-0.00008649,0.00008279,-0.00005947,-0.00008152,0.00005316,0.
 00003860,0.00002939,-0.00001078,-0.00001997,0.00000818,-0.00001116,-0.
 00001111,0.00004900,-0.00001745,0.00001732,-0.00001997,0.00000234,-0.0
 0000413,0.00084733,0.00420296,0.00480610,-0.00800619,0.00046042,0.0063
 5851,-0.00107033,-0.00205897,-0.00239897,0.10440347,0.00430658,-0.0848
 6836,-0.11495536,-0.00764602,0.07979029,0.00036989,0.00114302,0.000321
 01,0.00013513,0.00001262,-0.00025918,0.00013349,-0.00045143,0.00187906
 ,-0.00349372,0.00086876,-0.00154356,-0.00000718,0.00020159,-0.00031389
 ,0.00033604,0.00057710,-0.00052776,-0.00001923,0.00054898,0.00030192,-
 0.00012439,-0.00028432,-0.00016003,0.00005674,-0.00024366,-0.00026245,
 0.00006469,-0.00015259,-0.00006293,0.00000661,0.00007446,-0.00004081,-
 0.03155443,-0.02335742,0.02531883,0.04574458,-0.00646722,-0.01211856,-
 0.00132088,0.00452305,0.00080328,-0.14169439,-0.02876817,0.05019538,-0
 .00617266,-0.02125425,0.01829685,0.60302200,-0.00060600,-0.00087221,-0
 .00060504,0.00011453,0.00006373,0.00012099,0.00077598,0.00104898,-0.00
 138664,0.00144057,-0.00063159,0.00245222,0.00003020,-0.00019080,0.0003
 6205,-0.00018114,-0.00066526,-0.00003880,-0.00012886,-0.00090567,-0.00
 021345,0.00033812,0.00045536,0.00010573,0.00001303,0.00011658,0.000185
 21,0.00001910,-0.00001034,-0.00022170,-0.00001890,-0.00009045,-0.00000
 308,-0.02282476,-0.01074513,0.01151404,0.03276394,-0.04417564,0.017731
 60,0.00373087,0.00041534,0.00291019,-0.07425321,-0.20096496,0.11748698
 ,0.00100771,0.00602643,-0.00062749,-0.00588419,0.47827864,0.00019625,-
 0.00008727,0.00023841,-0.00009371,-0.00003954,0.00000362,-0.00062397,-
 0.00043055,0.00008376,0.00073247,-0.00004337,-0.00106493,-0.00002478,0
 .00003566,-0.00012530,0.00001474,0.00009637,0.00028803,-0.00001892,0.0
 0038625,0.00000849,-0.00010128,-0.00017466,0.00000811,-0.00002550,0.00
 000478,-0.00002344,0.00000367,0.00005802,0.00014417,-0.00000155,0.0000
 2100,0.00001222,0.02482194,0.01242307,-0.02541755,-0.03757323,0.034933
 76,0.00025429,0.00136199,0.00254271,0.00548594,0.07922147,0.09839275,-
 0.16219697,0.00415929,0.00844218,-0.00212819,-0.19215558,-0.20965431,0
 .36238780,0.00021742,-0.00190053,0.00044375,-0.00007068,-0.00015312,0.
 00041628,-0.00095889,-0.00013961,-0.00176817,0.00309640,-0.00168660,0.
 00427920,-0.00004025,-0.00019172,0.00019740,-0.00065344,-0.00055674,0.
 00052073,0.00001684,-0.00013380,-0.00023279,0.00011588,0.00011481,0.00
 019095,-0.00003008,0.00018546,0.00020764,-0.00007446,0.00013663,0.0000
 8229,-0.00000973,-0.00003971,0.00001277,0.05154071,0.02915582,-0.03754
 716,-0.05151965,0.02582105,0.00231533,-0.00094060,0.00052161,0.0001487
 0,-0.00541732,-0.05768277,0.04461550,0.00162682,-0.00019206,0.00107437
 ,-0.27719246,0.01629219,0.08022018,0.60584054,0.00098037,0.00041702,0.
 00060550,0.00040285,0.00001166,-0.00008107,0.00058872,-0.00129747,0.00
 166659,-0.00474789,0.00226959,0.00237062,0.00004943,0.00004823,-0.0000
 6138,0.00019337,0.00029585,-0.00042464,-0.00033400,-0.00001409,0.00013
 470,0.00007496,0.00024982,-0.00020112,0.00011731,-0.00012304,-0.000158
 46,0.00014609,-0.00014978,-0.00008518,0.00003019,0.00001123,0.00000378
 ,-0.00682779,-0.04291019,0.03392127,0.02208141,-0.01447137,-0.00482950
 ,0.00064450,0.00013880,-0.00041986,-0.02376400,0.02584859,0.00154768,-
 0.00079087,-0.00279749,0.00476695,-0.02910116,-0.10100194,0.03506357,-
 0.08011337,0.58785217,-0.00073383,0.00147506,0.00033179,-0.00012377,0.
 00025002,-0.00049155,0.00074275,-0.00068927,0.00024409,0.00485554,0.00
 341647,0.00146198,-0.00008902,-0.00011608,0.00007908,-0.00068861,0.000
 03210,0.00035401,0.00006103,0.00004086,-0.00010169,-0.00010136,-0.0001
 0839,-0.00003105,-0.00001492,0.00000086,-0.00001508,-0.00000457,0.0000
 3123,-0.00000522,-0.00000947,0.00000490,0.00000395,-0.01555363,0.01878
 240,0.00031699,0.00501911,-0.00668480,-0.00565780,-0.00005943,-0.00028
 837,0.00023550,0.02283130,0.01628340,-0.00747884,0.00151826,0.00452556
 ,0.00065461,0.10923688,0.01544856,-0.12287358,-0.15135253,-0.25447569,
 0.36274242,-0.00013804,0.00023348,-0.00014848,-0.00004014,0.00002729,-
 0.00006602,0.00000579,0.00008962,0.00000255,0.00063871,0.00020734,-0.0
 0046593,-0.00000535,0.00001438,-0.00002184,-0.00000963,0.00001661,0.00
 003265,0.00002247,0.00007350,0.00002526,-0.00003122,-0.00007827,0.0000
 0780,-0.00000636,-0.00001351,-0.00000300,-0.00000646,-0.00000418,0.000
 00046,0.00000188,0.00000989,-0.00001207,-0.00144854,0.00432396,0.00128
 667,-0.00078204,0.00064118,-0.00008266,-0.00001276,-0.00021326,-0.0003
 1054,-0.00503649,0.00198576,0.00259307,-0.00004510,-0.00115337,0.00121
 933,-0.00311226,-0.02207257,0.01750512,-0.07897182,-0.06009887,0.05621
 239,0.07774956,0.00005052,-0.00032794,-0.00009541,0.00004932,-0.000036
 39,0.00011449,-0.00001712,0.00004410,-0.00000536,-0.00076464,-0.000201
 95,0.00042288,0.00000873,-0.00000772,0.00002139,0.00005190,-0.00004586
 ,-0.00000842,0.00002772,-0.00005440,-0.00002008,0.00000229,0.00003450,
 -0.00000256,-0.00000239,0.00001272,0.00001092,0.00000055,0.00000358,0.
 00000477,0.00000623,0.00000063,0.00000708,0.00446133,0.00023326,0.0031
 0407,0.00079336,-0.00005298,-0.00038429,-0.00020058,-0.00030153,-0.000
 36775,0.00138915,0.00192039,0.00072459,0.00030088,0.00057466,0.0002292
 4,0.00003739,0.00390840,0.00064282,-0.06186178,-0.21192474,0.13778888,
 0.06321704,0.22169398,-0.00007946,-0.00007343,-0.00021733,-0.00000248,
 -0.00002083,0.00001950,-0.00002837,0.00016568,-0.00000506,0.00011489,-
 0.00008004,-0.00006049,0.00000497,0.00000452,-0.00000785,0.00001729,-0
 .00001003,0.00000887,0.00003975,0.00006129,0.00002155,-0.00001102,-0.0
 0008715,0.00001983,-0.00000286,-0.00001322,0.00000705,0.00000527,-0.00
 000519,-0.00000426,-0.00000671,0.00002241,-0.00002216,0.00118598,0.003
 08790,0.00555099,-0.00012673,-0.00036387,0.00019549,-0.00028785,-0.000
 35679,-0.00067047,0.00300503,0.00047903,0.00240991,0.00030114,0.000853
 91,0.00044188,0.00358545,0.01017513,-0.00306769,0.05726452,0.13705117,
 -0.15009611,-0.06245044,-0.15187525,0.15039677,-0.00205027,0.00519950,
 -0.00019436,-0.00050527,0.00066474,-0.00147096,0.00072758,0.00031519,0
 .00010449,0.01017690,0.01536973,-0.01315771,-0.00013408,0.00019827,-0.
 00024808,0.00015949,0.00144282,-0.00062659,-0.00003616,0.00045563,0.00
 031836,-0.00039636,-0.00034742,-0.00007826,-0.00003598,-0.00009807,-0.
 00017336,-0.00009510,-0.00007371,0.00007857,0.00002975,-0.00003325,0.0
 0005867,-0.13534901,-0.05866993,0.06756789,-0.00395117,-0.02767703,0.0
 2374925,-0.00462089,0.00151665,0.00351733,-0.00287165,0.00985452,-0.00
 826741,0.00048936,0.00027103,-0.00033127,-0.03979862,0.02087234,0.0066
 5101,-0.20084491,0.14192310,-0.02879252,0.00956151,-0.00815235,0.00223
 933,0.66468271,0.00147336,-0.00370333,-0.00003742,-0.00011605,-0.00037
 821,0.00119996,-0.00166601,0.00075579,-0.00324301,0.00139908,-0.023114
 41,0.02166755,-0.00004259,-0.00011828,0.00027377,-0.00220412,0.0008197
 2,0.00061854,0.00047270,-0.00082511,-0.00031802,-0.00002240,0.00050000
 ,0.00020971,-0.00020027,0.00040061,0.00032529,-0.00047848,0.00025874,0
 .00023849,0.00005813,-0.00004078,0.00010755,-0.00998632,-0.20492286,0.
 09292806,-0.05891432,0.02901191,0.01379283,0.00210882,0.00195913,0.001
 36210,0.00618256,-0.04952443,0.02416213,0.00036746,-0.00095056,0.00037
 229,0.06056291,0.01687187,-0.03277119,0.08917639,-0.23624197,0.0755350
 1,0.01518951,-0.01133795,0.00263748,-0.10906545,0.52653172,0.00016890,
 0.00058706,0.00270945,0.00029377,0.00011379,-0.00056950,0.00110745,-0.
 00163039,0.00255670,-0.00270866,0.01252756,-0.00498696,0.00006506,0.00
 000288,-0.00007866,0.00047113,-0.00003066,0.00048883,-0.00032056,0.000
 02417,0.00017189,0.00010376,0.00009472,-0.00003009,0.00014191,-0.00012
 816,-0.00015496,0.00014149,-0.00004776,-0.00015324,-0.00000444,-0.0000
 3279,0.00000093,0.03755989,0.11278826,-0.15738183,0.04312513,0.0009456
 9,-0.00733200,0.00291714,0.00146352,0.00304805,-0.00558780,0.02204860,
 -0.01931915,-0.00047753,0.00045802,-0.00013281,-0.01888875,-0.01520795
 ,0.02418951,0.00445835,0.05282014,-0.09308433,-0.01253409,0.01263228,0
 .00032329,-0.15974894,-0.20662553,0.33086983,0.00000883,-0.00025080,-0
 .00003322,0.00007036,-0.00002813,0.00006227,0.00001819,-0.00010228,-0.
 00008266,-0.00030859,0.00071854,-0.00142998,0.00001569,-0.00001636,0.0
 0001671,0.00059040,-0.00061992,-0.00004129,-0.00011575,-0.00002770,0.0
 0001667,0.00004664,0.00004995,-0.00005074,0.00001686,-0.00000377,-0.00
 000861,0.00002291,-0.00000898,-0.00001895,-0.00000869,-0.00000072,-0.0
 0000612,-0.00582142,0.00172893,0.00291586,0.00151301,-0.00071860,0.002
 27873,-0.00032670,0.00025835,0.00009933,0.00052292,0.00002647,-0.00021
 889,-0.00018900,-0.00019420,-0.00028026,0.00103700,0.00428228,0.000095
 71,-0.01444001,-0.00149930,0.00780681,0.00035320,-0.00092771,-0.001293
 33,-0.29155887,0.00773778,0.10408570,0.30929516,0.00045235,0.00008736,
 -0.00055792,-0.00003002,-0.00007672,0.00005294,-0.00012135,0.00010941,
 0.00016596,-0.00204607,0.00039895,-0.00074550,0.00003079,0.00000023,-0
 .00002788,0.00045661,-0.00046382,-0.00050862,-0.00000181,0.00019341,0.
 00004310,-0.00001910,-0.00016136,0.00000661,-0.00000327,-0.00004120,-0
 .00003028,0.00000845,-0.00002742,-0.00002635,-0.00000397,0.00002937,-0
 .00003787,-0.02155602,0.00404900,0.00876748,-0.00002946,-0.00200404,0.
 00489582,-0.00113435,0.00026797,0.00062598,0.00026063,-0.00097916,0.00
 054029,-0.00017902,-0.00020059,-0.00053308,0.00309981,-0.00131950,0.00
 444576,0.02358014,0.00226596,-0.01029246,-0.00126310,-0.00022725,-0.00
 195116,0.00715195,-0.05280995,0.00715747,-0.01022435,0.05068839,-0.000
 32010,-0.00032057,0.00002642,-0.00006592,-0.00002180,0.00006792,-0.000
 41206,0.00059838,-0.00048226,-0.00073453,-0.00229601,-0.00121322,-0.00
 000576,0.00010312,-0.00009402,0.00018177,0.00034624,-0.00008085,0.0002
 2232,0.00015234,-0.00004070,-0.00007998,-0.00019753,0.00015333,-0.0000
 3611,-0.00002897,0.00004015,-0.00003354,0.00000568,0.00003627,-0.00001
 866,-0.00000106,-0.00000400,0.01861533,-0.00162263,-0.00343795,0.00145
 777,0.00538801,0.00150476,0.00108819,-0.00006958,-0.00004760,-0.000351
 70,0.00052027,-0.00009465,-0.00026834,-0.00052571,-0.00067919,0.000981
 41,0.00384784,0.00481768,-0.00798254,0.00043539,0.00492311,-0.00112079
 ,-0.00207548,-0.00229136,0.10388599,0.00694613,-0.08496702,-0.11456032
 ,-0.01144186,0.08136712,-0.00051282,-0.00137378,-0.00023935,0.00016998
 ,0.00005134,0.00018742,0.00043539,0.00078529,-0.00136302,0.00057218,0.
 00007993,0.00154402,0.00007119,-0.00018503,0.00032407,0.00003784,-0.00
 061906,0.00004704,-0.00032657,-0.00061841,-0.00031991,0.00050307,0.000
 28253,0.00037388,0.00011371,0.00005462,0.00032009,0.00008795,0.0000168
 6,-0.00028582,-0.00010207,-0.00004503,-0.00013851,-0.00471176,0.000408
 28,0.00086396,0.00556774,-0.00657212,0.00516003,0.00091524,-0.00090446
 ,0.00053347,0.01323041,0.01168426,-0.01325955,-0.00319584,-0.00379721,
 0.00179884,-0.10960979,0.00883200,0.00435860,-0.02680671,0.03002185,-0
 .00792472,-0.00036541,-0.00141219,-0.00099265,-0.00384486,-0.00338216,
 0.00750550,-0.00018032,0.00117022,-0.00026365,0.76290660,0.00063119,0.
 00120966,0.00035738,-0.00010391,-0.00003336,-0.00025608,-0.00061087,-0
 .00070118,0.00163313,-0.00175288,-0.00061325,-0.00221849,-0.00010185,0
 .00031625,-0.00048341,0.00008204,0.00081920,-0.00021290,0.00065763,0.0
 0090016,0.00043575,-0.00078944,-0.00063372,-0.00038654,-0.00014614,-0.
 00012621,-0.00036170,-0.00014687,-0.00004986,0.00029260,0.00017916,0.0
 0015905,0.00008251,0.00078489,-0.00402562,0.00167447,-0.00631123,0.002
 82347,0.00656221,0.00081563,0.00007861,0.00024428,0.01715511,-0.032863
 79,0.01328257,-0.00048382,0.00004054,-0.00299807,0.00912701,-0.1083210
 6,0.01058770,0.02425762,-0.00417399,-0.00829464,-0.00473542,-0.0019167
 2,0.00031367,-0.00329535,0.00959160,0.00038337,-0.00076518,0.00094125,
 0.00035375,0.02015745,0.59777719,-0.00025731,-0.00057195,-0.00010535,-
 0.00001585,0.00002628,0.00007729,-0.00000639,0.00041850,-0.00056754,0.
 00022374,-0.00027297,-0.00013529,0.00002075,-0.00005816,0.00004312,0.0
 0015043,-0.00022499,-0.00000060,-0.00028523,-0.00028453,-0.00006023,0.
 00031211,0.00018819,0.00007992,0.00003035,0.00004958,0.00010025,0.0000
 7677,0.00000572,-0.00004154,-0.00010897,-0.00004553,-0.00002112,0.0010
 5887,0.00144158,-0.00277608,0.00538358,0.00626757,0.00217183,-0.000538
 88,0.00096568,0.00054989,-0.01678728,0.01555936,-0.00344049,-0.0003215
 9,-0.00142996,-0.00377186,0.00403363,0.01049836,-0.09407938,-0.0041356
 1,-0.01056578,0.00791249,0.00114308,-0.00117438,-0.00450962,0.00717154
 ,0.00067265,0.00466621,0.00098124,-0.00055558,0.00081750,-0.24343242,-
 0.24146692,0.50128495,0.00035985,0.00083791,0.00004958,-0.00009632,-0.
 00002348,-0.00012454,-0.00019557,-0.00043309,0.00084581,-0.00045356,-0
 .00004275,-0.00100335,-0.00002931,0.00010527,-0.00019024,0.00004095,0.
 00027371,-0.00006945,0.00012499,0.00032219,0.00019706,-0.00024375,-0.0
 0013199,-0.00024041,-0.00006019,-0.00003433,-0.00019474,-0.00003375,-0
 .00002184,0.00015409,0.00004615,0.00002448,0.00007625,0.00081363,-0.00
 163080,0.00086127,-0.00153876,0.00151307,-0.00046373,-0.00009746,0.000
 23014,-0.00008027,-0.00204868,-0.00594488,0.00503963,-0.00005925,0.002
 80606,-0.00177811,-0.05552936,0.02356031,0.01810905,0.00327425,0.00546
 283,-0.00359090,0.00151758,-0.00054863,-0.00002314,-0.00200088,0.00216
 883,-0.00116222,-0.00054828,0.00049304,-0.00024740,-0.47422697,0.02034
 098,0.16068082,0.56850887,-0.00008774,-0.00034423,0.00001323,0.0000682
 1,0.00001638,0.00005627,0.00012861,0.00007165,-0.00031037,0.00017004,0
 .00031603,0.00014657,0.00004462,-0.00006169,0.00011333,0.00006877,-0.0
 0019752,0.00007908,-0.00022296,-0.00021354,-0.00013097,0.00024768,0.00
 018509,0.00014000,0.00005822,0.00001800,0.00010562,0.00004755,0.000001
 53,-0.00009710,-0.00005300,-0.00004726,-0.00003368,0.00104145,0.000594
 78,-0.00073818,0.00043977,0.00120320,-0.00136696,-0.00008989,-0.000008
 43,0.00003604,0.00270049,-0.00484189,0.00241317,0.00361189,-0.00198191
 ,-0.00034045,0.03589720,0.00768104,-0.00755373,-0.00058838,-0.00355457
 ,0.00449821,0.00082897,0.00015440,-0.00013421,0.00197905,-0.00117589,-
 0.00088820,0.00031528,-0.00059007,-0.00006677,0.02661286,-0.11939414,0
 .01447891,-0.00986837,0.10759891,-0.00005949,-0.00007931,-0.00002981,-
 0.00000902,-0.00000422,0.00002089,0.00000538,0.00011227,-0.00016178,0.
 00016031,-0.00018109,0.00035829,-0.00001324,-0.00000595,0.00003164,-0.
 00010084,-0.00001675,0.00002005,0.00010789,-0.00004624,-0.00001373,-0.
 00006522,-0.00001039,0.00002487,-0.00000755,0.00000980,0.00002009,-0.0
 0003062,0.00000755,-0.00002247,0.00004190,-0.00000061,-0.00000257,-0.0
 0098940,0.00048746,0.00026305,0.00013751,-0.00184817,0.00038931,0.0000
 9944,-0.00009128,0.00001984,-0.00050024,0.00627864,-0.00285169,-0.0022
 9865,0.00001245,0.00094868,0.01014574,-0.00214238,0.01733372,0.0002464
 5,0.00188325,0.00181117,-0.00097755,0.00046272,0.00060769,-0.00089142,
 -0.00100997,-0.00014231,-0.00016748,-0.00012628,-0.00032136,0.15653760
 ,0.01718854,-0.15873152,-0.23080916,-0.04635857,0.16041177,0.00002305,
 0.00030088,-0.00008543,-0.00009177,-0.00000498,-0.00002778,-0.00008253
 ,-0.00000786,0.00003725,0.00050740,-0.00020945,-0.00010995,-0.00002153
 ,0.00001313,-0.00003646,-0.00006280,0.00002121,0.00000203,0.00004253,0
 .00001610,0.00007797,-0.00008095,0.00001157,-0.00010830,-0.00003570,0.
 00002183,-0.00006066,-0.00002134,0.00000830,0.00006672,0.00002241,-0.0
 0001267,0.00004906,0.00051111,0.00121699,-0.00088368,0.00038217,0.0012
 4600,-0.00151814,-0.00029585,0.00016478,-0.00016766,-0.00307223,0.0014
 1797,0.00167707,0.00031983,0.00122729,-0.00066606,0.01872320,0.0118964
 5,-0.00683299,-0.00775785,0.00456026,0.00075522,0.00016094,0.00349098,
 -0.00245857,0.00226677,-0.00081937,-0.00071221,-0.00001354,-0.00009209
 ,0.00006862,-0.16072816,-0.07494575,0.08462259,-0.03752416,-0.06335032
 ,0.06943766,0.18682900,-0.00011502,-0.00055616,-0.00012754,0.00009696,
 0.00002116,0.00010031,0.00023477,0.00026216,-0.00067526,0.00049584,0.0
 0019677,0.00075714,0.00007735,-0.00011444,0.00019932,0.00005108,-0.000
 36720,0.00005320,-0.00044071,-0.00046203,-0.00019152,0.00045717,0.0003
 9276,0.00016969,0.00008481,0.00005377,0.00015783,0.00009167,-0.0000013
 1,-0.00014443,-0.00010065,-0.00009920,-0.00002927,-0.00163629,0.000672
 90,0.00023359,0.00130053,-0.00299908,0.00037670,0.00036144,-0.00058503
 ,-0.00010483,0.00755588,0.00111289,-0.00190454,-0.00016837,0.00103880,
 -0.00019029,-0.00070949,-0.04497184,0.04267823,-0.00400152,-0.00074829
 ,0.00283618,0.00277400,-0.00214519,0.00011899,0.00019803,-0.00155736,0
 .00054391,0.00027043,-0.00013022,-0.00002917,-0.08124802,-0.34180408,0
 .20607836,-0.03945867,0.01457014,0.02547853,0.11382876,0.37822008,0.00
 009890,0.00033815,0.00011836,-0.00002675,-0.00002011,-0.00004566,-0.00
 008726,-0.00021642,0.00043696,-0.00050067,-0.00000092,-0.00043871,-0.0
 0003468,0.00005889,-0.00008385,-0.00003269,0.00021083,-0.00001322,0.00
 023565,0.00023568,0.00007441,-0.00024751,-0.00017308,-0.00006664,-0.00
 003101,-0.00003344,-0.00007693,-0.00005469,0.00000305,0.00005400,0.000
 06818,0.00003573,0.00001981,0.00088846,-0.00086964,0.00040483,-0.00158
 741,0.00062981,-0.00089267,-0.00030429,-0.00000718,-0.00034144,-0.0022
 6841,0.00062946,0.00363173,0.00018656,-0.00088715,0.00093623,0.0012340
 9,0.03726194,-0.00427873,0.00632437,-0.00096791,-0.00123593,-0.0018349
 7,-0.00015714,0.00094959,-0.00136156,0.00095561,-0.00069182,-0.0001671
 7,0.00013342,-0.00000008,0.08866507,0.20328683,-0.24946285,0.05396410,
 0.03593874,-0.01998382,-0.14312628,-0.27638513,0.27098642\\-0.00000034
 ,-0.00000108,-0.00000210,0.00000333,-0.00000049,-0.00000489,-0.0000227
 1,0.00000616,-0.00000056,-0.00001338,0.00000797,0.00001754,0.00002311,
 -0.00000651,-0.00000301,0.00001523,-0.00000358,-0.00002203,0.00001056,
 -0.00001231,0.00001499,-0.00000628,0.00000284,0.00000910,-0.00000223,0
 .00000928,-0.00001959,-0.00000293,-0.00000186,-0.00000039,0.00000123,-
 0.00000246,-0.00000313,0.00000220,0.00000103,0.00000174,-0.00000443,-0
 .00000783,0.00000098,0.00000541,0.00000474,-0.00000672,0.00000224,-0.0
 0000152,-0.00000113,-0.00000053,-0.00000355,-0.00000002,-0.00000041,0.
 00000145,0.00000186,0.00000005,0.00000283,0.00000118,-0.00000415,-0.00
 000026,0.00000544,0.00002071,0.00000238,-0.00000860,-0.00002113,0.0000
 0408,0.00001099,-0.00000385,-0.00000015,0.00000382,-0.00000046,-0.0000
 0126,0.00000124,-0.00000123,0.00000010,0.00000330\\\@
 Job cpu time:       1 days  8 hours  1 minutes 43.9 seconds.
 File lengths (MBytes):  RWF= 195482 Int=      0 D2E=      0 Chk=    160 Scr=      1
 Normal termination of Gaussian 09 at Fri Aug 27 18:36:53 2021.
