 Entering Gaussian System, Link 0=g09
 Input=G4.HABMAZ.gjf
 Output=G4.HABMAZ.log
 Initial command:
 /public/home/users/caep010/software/Gaussian09/g09/l1.exe "/public/home/users/caep010/.cache/gau_scr/Gau-218564.inp" -scrdir="/public/home/users/caep010/.cache/gau_scr/"
 Entering Link 1 = /public/home/users/caep010/software/Gaussian09/g09/l1.exe PID=    218569.
  
 Copyright (c) 1988,1990,1992,1993,1995,1998,2003,2009,2015,
            Gaussian, Inc.  All Rights Reserved.
  
 This is part of the Gaussian(R) 09 program.  It is based on
 the Gaussian(R) 03 system (copyright 2003, Gaussian, Inc.),
 the Gaussian(R) 98 system (copyright 1998, Gaussian, Inc.),
 the Gaussian(R) 94 system (copyright 1995, Gaussian, Inc.),
 the Gaussian 92(TM) system (copyright 1992, Gaussian, Inc.),
 the Gaussian 90(TM) system (copyright 1990, Gaussian, Inc.),
 the Gaussian 88(TM) system (copyright 1988, Gaussian, Inc.),
 the Gaussian 86(TM) system (copyright 1986, Carnegie Mellon
 University), and the Gaussian 82(TM) system (copyright 1983,
 Carnegie Mellon University). Gaussian is a federally registered
 trademark of Gaussian, Inc.
  
 This software contains proprietary and confidential information,
 including trade secrets, belonging to Gaussian, Inc.
  
 This software is provided under written license and may be
 used, copied, transmitted, or stored only in accord with that
 written license.
  
 The following legend is applicable only to US Government
 contracts under FAR:
  
                    RESTRICTED RIGHTS LEGEND
  
 Use, reproduction and disclosure by the US Government is
 subject to restrictions as set forth in subparagraphs (a)
 and (c) of the Commercial Computer Software - Restricted
 Rights clause in FAR 52.227-19.
  
 Gaussian, Inc.
 340 Quinnipiac St., Bldg. 40, Wallingford CT 06492
  
  
 ---------------------------------------------------------------
 Warning -- This program may not be used in any manner that
 competes with the business of Gaussian, Inc. or will provide
 assistance to any competitor of Gaussian, Inc.  The licensee
 of this program is prohibited from giving any competitor of
 Gaussian, Inc. access to this program.  By using this program,
 the user acknowledges that Gaussian, Inc. is engaged in the
 business of creating and licensing software in the field of
 computational chemistry and represents and warrants to the
 licensee that it is not a competitor of Gaussian, Inc. and that
 it will not use this program in any manner prohibited above.
 ---------------------------------------------------------------
  

 Cite this work as:
 Gaussian 09, Revision E.01,
 M. J. Frisch, G. W. Trucks, H. B. Schlegel, G. E. Scuseria, 
 M. A. Robb, J. R. Cheeseman, G. Scalmani, V. Barone, B. Mennucci, 
 G. A. Petersson, H. Nakatsuji, M. Caricato, X. Li, H. P. Hratchian, 
 A. F. Izmaylov, J. Bloino, G. Zheng, J. L. Sonnenberg, M. Hada, 
 M. Ehara, K. Toyota, R. Fukuda, J. Hasegawa, M. Ishida, T. Nakajima, 
 Y. Honda, O. Kitao, H. Nakai, T. Vreven, J. A. Montgomery, Jr., 
 J. E. Peralta, F. Ogliaro, M. Bearpark, J. J. Heyd, E. Brothers, 
 K. N. Kudin, V. N. Staroverov, T. Keith, R. Kobayashi, J. Normand, 
 K. Raghavachari, A. Rendell, J. C. Burant, S. S. Iyengar, J. Tomasi, 
 M. Cossi, N. Rega, J. M. Millam, M. Klene, J. E. Knox, J. B. Cross, 
 V. Bakken, C. Adamo, J. Jaramillo, R. Gomperts, R. E. Stratmann, 
 O. Yazyev, A. J. Austin, R. Cammi, C. Pomelli, J. W. Ochterski, 
 R. L. Martin, K. Morokuma, V. G. Zakrzewski, G. A. Voth, 
 P. Salvador, J. J. Dannenberg, S. Dapprich, A. D. Daniels, 
 O. Farkas, J. B. Foresman, J. V. Ortiz, J. Cioslowski, 
 and D. J. Fox, Gaussian, Inc., Wallingford CT, 2013.
 
 ******************************************
 Gaussian 09:  ES64L-G09RevE.01 30-Nov-2015
                27-Aug-2021 
 ******************************************
 %nproc=32
 Will use up to   32 processors via shared memory.
 %mem=180GB
 ----------------
 #P G4 OPT=calcfc
 ----------------
 1/10=4,14=-1,18=20,19=15,26=3,38=1/1,3;
 2/9=110,12=2,17=6,18=5,40=1/2;
 3/5=35,7=104,11=2,16=1,25=1,30=1,71=2,74=-5,140=1/1,2,3;
 4//1;
 5/5=2,38=5/2;
 8/6=4,10=90,11=11/1;
 11/6=1,8=1,9=11,15=111,16=1/1,2,10;
 10/6=1,13=1/2;
 6/7=2,8=2,9=2,10=2,28=1/1;
 7/10=1,18=20,25=1/1,2,3,16;
 1/10=4,14=-1,18=20,19=15,26=3/3(2);
 2/9=110/2;
 99//99;
 2/9=110/2;
 3/5=35,7=104,11=2,16=1,25=1,30=1,71=1,74=-5/1,2,3;
 4/5=5,16=3,69=1/1;
 5/5=2,38=5/2;
 7//1,2,3,16;
 1/14=-1,18=20,19=15,26=3/3(-5);
 2/9=110/2;
 6/7=2,8=2,9=2,10=2,19=2,28=1/1;
 99/9=1/99;
 Leave Link    1 at Fri Aug 27 11:48:22 2021, MaxMem= 24159191040 cpu:         6.6
 (Enter /public/home/users/caep010/software/Gaussian09/g09/l101.exe)
 ------
 HABMAZ
 ------
 Symbolic Z-matrix:
 Charge =  0 Multiplicity = 1
 O                     4.2304    2.7456    8.5582 
 N                     5.3685    2.0191    8.2841 
 C                     5.3549    1.0953    7.2851 
 C                     6.4509    2.2977    9.0328 
 H                     6.3151    2.9632    9.6917 
 N                     4.1109    0.9261    6.7459 
 N                     3.9547    0.0276    5.7663 
 O                     4.8891   -0.5203    5.2236 
 H                     3.7483    1.9996    8.7616 
 O                     2.7936   -0.1828    5.4197 
 C                     6.5881    0.4868    7.0146 
 C                     7.7098    0.7637    7.7626 
 H                     6.6003   -0.0995    6.3322 
 C                     7.6175    1.6811    8.807 
 H                     8.393     1.8186    9.3366 
 C                     9.0041    0.0973    7.4506 
 H                     9.3979    0.5881    6.8275 
 H                     9.0041   -0.6786    6.8102 
 H                     9.4115   -0.1402    8.2013 
 
 Add atom      7 valence  3 ND=      2 dihedral       6      7      8     10
 NAtoms=     19 NQM=       19 NQMF=       0 NMMI=      0 NMMIF=      0
                NMic=       0 NMicF=      0.
                    Isotopes and Nuclear Properties:
 (Nuclear quadrupole moments (NQMom) in fm**2, nuclear magnetic moments (NMagM)
  in nuclear magnetons)

  Atom         1           2           3           4           5           6           7           8           9          10
 IAtWgt=          16          14          12          12           1          14          14          16           1          16
 AtmWgt=  15.9949146  14.0030740  12.0000000  12.0000000   1.0078250  14.0030740  14.0030740  15.9949146   1.0078250  15.9949146
 NucSpn=           0           2           0           0           1           2           2           0           1           0
 AtZEff=   0.0000000   0.0000000   0.0000000   0.0000000   0.0000000   0.0000000   0.0000000   0.0000000   0.0000000   0.0000000
 NQMom=    0.0000000   2.0440000   0.0000000   0.0000000   0.0000000   2.0440000   2.0440000   0.0000000   0.0000000   0.0000000
 NMagM=    0.0000000   0.4037610   0.0000000   0.0000000   2.7928460   0.4037610   0.4037610   0.0000000   2.7928460   0.0000000
 AtZNuc=   8.0000000   7.0000000   6.0000000   6.0000000   1.0000000   7.0000000   7.0000000   8.0000000   1.0000000   8.0000000

  Atom        11          12          13          14          15          16          17          18          19
 IAtWgt=          12          12           1          12           1          12           1           1           1
 AtmWgt=  12.0000000  12.0000000   1.0078250  12.0000000   1.0078250  12.0000000   1.0078250   1.0078250   1.0078250
 NucSpn=           0           0           1           0           1           0           1           1           1
 AtZEff=   0.0000000   0.0000000   0.0000000   0.0000000   0.0000000   0.0000000   0.0000000   0.0000000   0.0000000
 NQMom=    0.0000000   0.0000000   0.0000000   0.0000000   0.0000000   0.0000000   0.0000000   0.0000000   0.0000000
 NMagM=    0.0000000   0.0000000   2.7928460   0.0000000   2.7928460   0.0000000   2.7928460   2.7928460   2.7928460
 AtZNuc=   6.0000000   6.0000000   1.0000000   6.0000000   1.0000000   6.0000000   1.0000000   1.0000000   1.0000000
 Leave Link  101 at Fri Aug 27 11:48:22 2021, MaxMem= 24159191040 cpu:         9.9
 (Enter /public/home/users/caep010/software/Gaussian09/g09/l103.exe)

 GradGradGradGradGradGradGradGradGradGradGradGradGradGradGradGradGradGrad
 Berny optimization.
 Initialization pass.
                           ----------------------------
                           !    Initial Parameters    !
                           ! (Angstroms and Degrees)  !
 --------------------------                            --------------------------
 ! Name  Definition              Value          Derivative Info.                !
 --------------------------------------------------------------------------------
 ! R1    R(1,2)                  1.3778         calculate D2E/DX2 analytically  !
 ! R2    R(1,9)                  0.9112         calculate D2E/DX2 analytically  !
 ! R3    R(2,3)                  1.3607         calculate D2E/DX2 analytically  !
 ! R4    R(2,4)                  1.3453         calculate D2E/DX2 analytically  !
 ! R5    R(3,6)                  1.3663         calculate D2E/DX2 analytically  !
 ! R6    R(3,11)                 1.4015         calculate D2E/DX2 analytically  !
 ! R7    R(4,5)                  0.9463         calculate D2E/DX2 analytically  !
 ! R8    R(4,14)                 1.3387         calculate D2E/DX2 analytically  !
 ! R9    R(6,7)                  1.3384         calculate D2E/DX2 analytically  !
 ! R10   R(7,8)                  1.2115         calculate D2E/DX2 analytically  !
 ! R11   R(7,10)                 1.2299         calculate D2E/DX2 analytically  !
 ! R12   R(11,12)                1.3764         calculate D2E/DX2 analytically  !
 ! R13   R(11,13)                0.8998         calculate D2E/DX2 analytically  !
 ! R14   R(12,14)                1.3932         calculate D2E/DX2 analytically  !
 ! R15   R(12,16)                1.4888         calculate D2E/DX2 analytically  !
 ! R16   R(14,15)                0.9491         calculate D2E/DX2 analytically  !
 ! R17   R(16,17)                0.8856         calculate D2E/DX2 analytically  !
 ! R18   R(16,18)                1.006          calculate D2E/DX2 analytically  !
 ! R19   R(16,19)                0.8865         calculate D2E/DX2 analytically  !
 ! A1    A(2,1,9)               92.8518         calculate D2E/DX2 analytically  !
 ! A2    A(1,2,3)              119.722          calculate D2E/DX2 analytically  !
 ! A3    A(1,2,4)              116.4051         calculate D2E/DX2 analytically  !
 ! A4    A(3,2,4)              123.8645         calculate D2E/DX2 analytically  !
 ! A5    A(2,3,6)              112.513          calculate D2E/DX2 analytically  !
 ! A6    A(2,3,11)             115.3195         calculate D2E/DX2 analytically  !
 ! A7    A(6,3,11)             132.1589         calculate D2E/DX2 analytically  !
 ! A8    A(2,4,5)              114.6891         calculate D2E/DX2 analytically  !
 ! A9    A(2,4,14)             120.7902         calculate D2E/DX2 analytically  !
 ! A10   A(5,4,14)             124.501          calculate D2E/DX2 analytically  !
 ! A11   A(3,6,7)              118.5696         calculate D2E/DX2 analytically  !
 ! A12   A(6,7,8)              122.782          calculate D2E/DX2 analytically  !
 ! A13   A(6,7,10)             115.55           calculate D2E/DX2 analytically  !
 ! A14   A(8,7,10)             121.6363         calculate D2E/DX2 analytically  !
 ! A15   A(3,11,12)            121.6589         calculate D2E/DX2 analytically  !
 ! A16   A(3,11,13)            116.1823         calculate D2E/DX2 analytically  !
 ! A17   A(12,11,13)           122.1554         calculate D2E/DX2 analytically  !
 ! A18   A(11,12,14)           119.0711         calculate D2E/DX2 analytically  !
 ! A19   A(11,12,16)           120.3013         calculate D2E/DX2 analytically  !
 ! A20   A(14,12,16)           120.6262         calculate D2E/DX2 analytically  !
 ! A21   A(4,14,12)            119.1751         calculate D2E/DX2 analytically  !
 ! A22   A(4,14,15)            123.4493         calculate D2E/DX2 analytically  !
 ! A23   A(12,14,15)           117.36           calculate D2E/DX2 analytically  !
 ! A24   A(12,16,17)           106.6166         calculate D2E/DX2 analytically  !
 ! A25   A(12,16,18)           118.5938         calculate D2E/DX2 analytically  !
 ! A26   A(12,16,19)           109.9962         calculate D2E/DX2 analytically  !
 ! A27   A(17,16,18)            88.8281         calculate D2E/DX2 analytically  !
 ! A28   A(17,16,19)           122.6795         calculate D2E/DX2 analytically  !
 ! A29   A(18,16,19)           109.415          calculate D2E/DX2 analytically  !
 ! D1    D(9,1,2,3)             60.896          calculate D2E/DX2 analytically  !
 ! D2    D(9,1,2,4)           -120.1184         calculate D2E/DX2 analytically  !
 ! D3    D(1,2,3,6)             -5.827          calculate D2E/DX2 analytically  !
 ! D4    D(1,2,3,11)           175.1129         calculate D2E/DX2 analytically  !
 ! D5    D(4,2,3,6)            175.2672         calculate D2E/DX2 analytically  !
 ! D6    D(4,2,3,11)            -3.7929         calculate D2E/DX2 analytically  !
 ! D7    D(1,2,4,5)              1.0452         calculate D2E/DX2 analytically  !
 ! D8    D(1,2,4,14)          -177.4097         calculate D2E/DX2 analytically  !
 ! D9    D(3,2,4,5)            179.9843         calculate D2E/DX2 analytically  !
 ! D10   D(3,2,4,14)             1.5293         calculate D2E/DX2 analytically  !
 ! D11   D(2,3,6,7)           -178.9237         calculate D2E/DX2 analytically  !
 ! D12   D(11,3,6,7)            -0.0699         calculate D2E/DX2 analytically  !
 ! D13   D(2,3,11,12)            3.2532         calculate D2E/DX2 analytically  !
 ! D14   D(2,3,11,13)         -177.4072         calculate D2E/DX2 analytically  !
 ! D15   D(6,3,11,12)         -175.5754         calculate D2E/DX2 analytically  !
 ! D16   D(6,3,11,13)            3.7641         calculate D2E/DX2 analytically  !
 ! D17   D(2,4,14,12)            1.455          calculate D2E/DX2 analytically  !
 ! D18   D(2,4,14,15)         -177.0683         calculate D2E/DX2 analytically  !
 ! D19   D(5,4,14,12)         -176.8415         calculate D2E/DX2 analytically  !
 ! D20   D(5,4,14,15)            4.6352         calculate D2E/DX2 analytically  !
 ! D21   D(3,6,7,8)             -9.4477         calculate D2E/DX2 analytically  !
 ! D22   D(3,6,7,10)           172.5682         calculate D2E/DX2 analytically  !
 ! D23   D(6,7,8,10)          -177.8637         calculate D2E/DX2 analytically  !
 ! D24   D(3,11,12,14)          -0.5733         calculate D2E/DX2 analytically  !
 ! D25   D(3,11,12,16)         179.8576         calculate D2E/DX2 analytically  !
 ! D26   D(13,11,12,14)       -179.8732         calculate D2E/DX2 analytically  !
 ! D27   D(13,11,12,16)          0.5577         calculate D2E/DX2 analytically  !
 ! D28   D(11,12,14,4)          -1.8612         calculate D2E/DX2 analytically  !
 ! D29   D(11,12,14,15)        176.7514         calculate D2E/DX2 analytically  !
 ! D30   D(16,12,14,4)         177.7064         calculate D2E/DX2 analytically  !
 ! D31   D(16,12,14,15)         -3.6809         calculate D2E/DX2 analytically  !
 ! D32   D(11,12,16,17)         86.3434         calculate D2E/DX2 analytically  !
 ! D33   D(11,12,16,18)        -11.6094         calculate D2E/DX2 analytically  !
 ! D34   D(11,12,16,19)       -138.5668         calculate D2E/DX2 analytically  !
 ! D35   D(14,12,16,17)        -93.2189         calculate D2E/DX2 analytically  !
 ! D36   D(14,12,16,18)        168.8283         calculate D2E/DX2 analytically  !
 ! D37   D(14,12,16,19)         41.8709         calculate D2E/DX2 analytically  !
 --------------------------------------------------------------------------------
 Trust Radius=3.00D-01 FncErr=1.00D-07 GrdErr=1.00D-06
 Number of steps in this run=     95 maximum allowed number of steps=    114.
 GradGradGradGradGradGradGradGradGradGradGradGradGradGradGradGradGradGrad

 Leave Link  103 at Fri Aug 27 11:48:22 2021, MaxMem= 24159191040 cpu:         0.6
 (Enter /public/home/users/caep010/software/Gaussian09/g09/l202.exe)
                          Input orientation:                          
 ---------------------------------------------------------------------
 Center     Atomic      Atomic             Coordinates (Angstroms)
 Number     Number       Type             X           Y           Z
 ---------------------------------------------------------------------
      1          8           0        4.230400    2.745600    8.558200
      2          7           0        5.368500    2.019100    8.284100
      3          6           0        5.354900    1.095300    7.285100
      4          6           0        6.450900    2.297700    9.032800
      5          1           0        6.315100    2.963200    9.691700
      6          7           0        4.110900    0.926100    6.745900
      7          7           0        3.954700    0.027600    5.766300
      8          8           0        4.889100   -0.520300    5.223600
      9          1           0        3.748300    1.999600    8.761600
     10          8           0        2.793600   -0.182800    5.419700
     11          6           0        6.588100    0.486800    7.014600
     12          6           0        7.709800    0.763700    7.762600
     13          1           0        6.600300   -0.099500    6.332200
     14          6           0        7.617500    1.681100    8.807000
     15          1           0        8.393000    1.818600    9.336600
     16          6           0        9.004100    0.097300    7.450600
     17          1           0        9.397900    0.588100    6.827500
     18          1           0        9.004100   -0.678600    6.810200
     19          1           0        9.411500   -0.140200    8.201300
 ---------------------------------------------------------------------
                    Distance matrix (angstroms):
                    1          2          3          4          5
     1  O    0.000000
     2  N    1.377753   0.000000
     3  C    2.368285   1.360732   0.000000
     4  C    2.314407   1.345273   2.387768   0.000000
     5  H    2.382886   1.941318   3.194176   0.946299   0.000000
     6  N    2.570854   2.267656   1.366346   3.547788   4.205474
     7  N    3.906180   3.507737   2.325359   4.696210   5.440404
     8  O    4.713761   4.005626   2.660247   4.989023   5.842274
     9  H    0.911212   1.689211   2.361985   2.732482   2.895181
    10  O    4.526600   4.436582   3.416653   5.708171   6.367752
    11  C    3.611596   2.333880   1.401508   2.715016   3.657041
    12  C    4.082540   2.707338   2.425597   2.356139   3.241052
    13  H    4.320428   3.133003   1.971443   3.614157   4.554965
    14  C    3.559144   2.333596   2.789032   1.338707   2.030448
    15  H    4.335029   3.208669   3.736558   2.023261   2.398723
    16  C    5.570322   4.195906   3.786826   3.723432   4.524006
    17  H    5.861159   4.517246   4.100305   4.058434   4.832018
    18  H    6.129344   4.761045   4.085206   4.507454   5.366234
    19  H    5.941298   4.584243   4.338420   3.924271   4.630343
                    6          7          8          9         10
     6  N    0.000000
     7  N    1.338401   0.000000
     8  O    2.239434   1.211537   0.000000
     9  H    2.312342   3.592103   4.490965   0.000000
    10  O    2.173418   1.229859   2.131544   4.103976   0.000000
    11  C    2.530159   2.950239   2.666183   3.661289   4.170168
    12  C    3.743278   4.315997   4.006436   4.268364   5.527573
    13  H    2.723989   2.708431   2.081891   4.294428   3.915426
    14  C    4.136956   5.039447   5.013091   3.882552   6.182066
    15  H    5.083765   5.971033   5.887660   4.683655   7.120463
    16  C    5.012676   5.323360   4.719553   5.741158   6.540132
    17  H    5.298422   5.573933   4.912263   6.136046   6.796541
    18  H    5.150010   5.204314   4.413115   6.213224   6.383543
    19  H    5.599245   5.977796   5.428008   6.079845   7.178838
                   11         12         13         14         15
    11  C    0.000000
    12  C    1.376368   0.000000
    13  H    0.899759   2.005530   0.000000
    14  C    2.387198   1.393167   3.214011   0.000000
    15  H    3.228473   2.014213   3.989900   0.949096   0.000000
    16  C    2.485732   1.488840   2.658534   2.504177   2.625512
    17  H    2.817844   1.937764   2.923129   2.878002   2.969771
    18  H    2.690166   2.159284   2.518352   3.387928   3.604462
    19  H    3.126176   1.976177   3.376098   2.627250   2.482568
                   16         17         18         19
    16  C    0.000000
    17  H    0.885560   0.000000
    18  H    1.006048   1.326615   0.000000
    19  H    0.886528   1.554970   1.546289   0.000000
 Stoichiometry    C6H7N3O3
 Framework group  C1[X(C6H7N3O3)]
 Deg. of freedom    51
 Full point group                 C1      NOp   1
 Largest Abelian subgroup         C1      NOp   1
 Largest concise Abelian subgroup C1      NOp   1
                         Standard orientation:                         
 ---------------------------------------------------------------------
 Center     Atomic      Atomic             Coordinates (Angstroms)
 Number     Number       Type             X           Y           Z
 ---------------------------------------------------------------------
      1          8           0        0.152874    2.640742    0.145115
      2          7           0       -0.501919    1.432952    0.041709
      3          6           0        0.213809    0.275665    0.038016
      4          6           0       -1.844305    1.484385   -0.029794
      5          1           0       -2.207620    2.358068   -0.017089
      6          7           0        1.562314    0.494590    0.015488
      7          7           0        2.382069   -0.563016   -0.012561
      8          8           0        1.992943   -1.699037    0.148244
      9          1           0        0.618901    2.505842   -0.626201
     10          8           0        3.573776   -0.306272   -0.175262
     11          6           0       -0.548393   -0.900461    0.036794
     12          6           0       -1.922940   -0.870440   -0.027291
     13          1           0       -0.087340   -1.672364    0.070885
     14          6           0       -2.571389    0.361474   -0.080353
     15          1           0       -3.516046    0.353575   -0.171687
     16          6           0       -2.702705   -2.138748   -0.029868
     17          1           0       -2.828243   -2.360563    0.818221
     18          1           0       -2.210675   -3.006196   -0.162428
     19          1           0       -3.367425   -2.084754   -0.613961
 ---------------------------------------------------------------------
 Rotational constants (GHZ):      1.5108079      0.7363170      0.4978253
 Leave Link  202 at Fri Aug 27 11:48:23 2021, MaxMem= 24159191040 cpu:         0.9
 (Enter /public/home/users/caep010/software/Gaussian09/g09/l301.exe)
 Standard basis: GTBas3 (6D, 7F)
 Ernie: Thresh=  0.10000D-02 Tol=  0.10000D-05 Strict=F.
 There are   407 symmetry adapted cartesian basis functions of A   symmetry.
 There are   371 symmetry adapted basis functions of A   symmetry.
   371 basis functions,   577 primitive gaussians,   407 cartesian basis functions
    44 alpha electrons       44 beta electrons
       nuclear repulsion energy       711.4280944474 Hartrees.
 IExCor=  402 DFT=T Ex+Corr=B3LYP ExCW=0 ScaHFX=  0.200000
 ScaDFX=  0.800000  0.720000  1.000000  0.810000 ScalE2=  1.000000  1.000000
 IRadAn=      0 IRanWt=     -1 IRanGd=            0 ICorTp=0 IEmpDi=  4
 NAtoms=   19 NActive=   19 NUniq=   19 SFac= 1.00D+00 NAtFMM=   60 NAOKFM=F Big=F
 Integral buffers will be    131072 words long.
 Raffenetti 2 integral format.
 Two-electron integral symmetry is turned on.
 Leave Link  301 at Fri Aug 27 11:48:23 2021, MaxMem= 24159191040 cpu:         1.7
 (Enter /public/home/users/caep010/software/Gaussian09/g09/l302.exe)
 NPDir=0 NMtPBC=     1 NCelOv=     1 NCel=       1 NClECP=     1 NCelD=      1
         NCelK=      1 NCelE2=     1 NClLst=     1 CellRange=     0.0.
 One-electron integrals computed using PRISM.
 NBasis=   371 RedAO= T EigKep=  1.14D-04  NBF=   371
 NBsUse=   371 1.00D-06 EigRej= -1.00D+00 NBFU=   371
 Precomputing XC quadrature grid using
 IXCGrd= 4 IRadAn=           0 IRanWt=          -1 IRanGd=           0 AccXCQ= 0.00D+00.
 Generated NRdTot=       0 NPtTot=           0 NUsed=           0 NTot=          32
 NSgBfM=   406   406   406   406   406 MxSgAt=    19 MxSgA2=    19.
 Leave Link  302 at Fri Aug 27 11:48:23 2021, MaxMem= 24159191040 cpu:        18.1
 (Enter /public/home/users/caep010/software/Gaussian09/g09/l303.exe)
 DipDrv:  MaxL=1.
 Leave Link  303 at Fri Aug 27 11:48:23 2021, MaxMem= 24159191040 cpu:         1.2
 (Enter /public/home/users/caep010/software/Gaussian09/g09/l401.exe)
 ExpMin= 1.61D-01 ExpMax= 5.48D+03 ExpMxC= 8.25D+02 IAcc=1 IRadAn=         1 AccDes= 0.00D+00
 Harris functional with IExCor=  402 and IRadAn=       1 diagonalized for initial guess.
 HarFok:  IExCor=  402 AccDes= 0.00D+00 IRadAn=         1 IDoV= 1 UseB2=F ITyADJ=14
 ICtDFT=  3500011 ScaDFX=  1.000000  1.000000  1.000000  1.000000
 FoFCou: FMM=F IPFlag=           0 FMFlag=      100000 FMFlg1=           0
         NFxFlg=           0 DoJE=T BraDBF=F KetDBF=T FulRan=T
         wScrn=  0.000000 ICntrl=     500 IOpCl=  0 I1Cent=   200000004 NGrid=           0
         NMat0=    1 NMatS0=      1 NMatT0=    0 NMatD0=    1 NMtDS0=    0 NMtDT0=    0
 Petite list used in FoFCou.
 Harris En= -622.606913141597    
 JPrj=0 DoOrth=F DoCkMO=F.
 Leave Link  401 at Fri Aug 27 11:48:24 2021, MaxMem= 24159191040 cpu:        17.5
 (Enter /public/home/users/caep010/software/Gaussian09/g09/l502.exe)
 Closed shell SCF:
 Using DIIS extrapolation, IDIIS=  1040.
 Integral symmetry usage will be decided dynamically.
 Keep R1 ints in memory in canonical form, NReq=2415438438.
 IVT=      531465 IEndB=      531465 NGot= 24159191040 MDV= 21777711055
 LenX= 21777711055 LenY= 21777544965
 Requested convergence on RMS density matrix=1.00D-08 within 128 cycles.
 Requested convergence on MAX density matrix=1.00D-06.
 Requested convergence on             energy=1.00D-06.
 No special actions if energy rises.
 FoFCou: FMM=F IPFlag=           0 FMFlag=           0 FMFlg1=           0
         NFxFlg=           0 DoJE=F BraDBF=F KetDBF=F FulRan=T
         wScrn=  0.000000 ICntrl=     600 IOpCl=  0 I1Cent=           0 NGrid=           0
         NMat0=    1 NMatS0=  69006 NMatT0=    0 NMatD0=    1 NMtDS0=    0 NMtDT0=    0
 Symmetry not used in FoFCou.
 Integral accuracy reduced to 1.0D-05 until final iterations.

 Cycle   1  Pass 0  IDiag  1:
 E= -621.973322570321    
 DIIS: error= 2.56D-02 at cycle   1 NSaved=   1.
 NSaved= 1 IEnMin= 1 EnMin= -621.973322570321     IErMin= 1 ErrMin= 2.56D-02
 ErrMax= 2.56D-02  0.00D+00 EMaxC= 1.00D-01 BMatC= 5.89D-01 BMatP= 5.89D-01
 IDIUse=3 WtCom= 7.44D-01 WtEn= 2.56D-01
 Coeff-Com:  0.100D+01
 Coeff-En:   0.100D+01
 Coeff:      0.100D+01
 Gap=     0.189 Goal=   None    Shift=    0.000
 GapD=    0.189 DampG=1.000 DampE=0.500 DampFc=0.5000 IDamp=-1.
 Damping current iteration by 5.00D-01
 RMSDP=4.26D-03 MaxDP=2.47D-01              OVMax= 2.91D-01

 Cycle   2  Pass 0  IDiag  1:
 E= -622.080746586860     Delta-E=       -0.107424016539 Rises=F Damp=T
 DIIS: error= 1.04D-02 at cycle   2 NSaved=   2.
 NSaved= 2 IEnMin= 2 EnMin= -622.080746586860     IErMin= 2 ErrMin= 1.04D-02
 ErrMax= 1.04D-02  0.00D+00 EMaxC= 1.00D-01 BMatC= 1.10D-01 BMatP= 5.89D-01
 IDIUse=3 WtCom= 8.96D-01 WtEn= 1.04D-01
 Coeff-Com:  0.245D+00 0.755D+00
 Coeff-En:   0.387D+00 0.613D+00
 Coeff:      0.260D+00 0.740D+00
 Gap=     0.176 Goal=   None    Shift=    0.000
 RMSDP=1.54D-03 MaxDP=9.85D-02 DE=-1.07D-01 OVMax= 3.06D-01

 Cycle   3  Pass 0  IDiag  1:
 E= -622.398350944177     Delta-E=       -0.317604357317 Rises=F Damp=F
 DIIS: error= 9.13D-03 at cycle   3 NSaved=   3.
 NSaved= 3 IEnMin= 3 EnMin= -622.398350944177     IErMin= 3 ErrMin= 9.13D-03
 ErrMax= 9.13D-03  0.00D+00 EMaxC= 1.00D-01 BMatC= 6.50D-02 BMatP= 1.10D-01
 IDIUse=3 WtCom= 9.09D-01 WtEn= 9.13D-02
 Coeff-Com:  0.838D-01 0.428D+00 0.488D+00
 Coeff-En:   0.000D+00 0.000D+00 0.100D+01
 Coeff:      0.761D-01 0.389D+00 0.535D+00
 Gap=     0.172 Goal=   None    Shift=    0.000
 RMSDP=1.02D-03 MaxDP=7.32D-02 DE=-3.18D-01 OVMax= 1.26D-01

 Cycle   4  Pass 0  IDiag  1:
 E= -622.441901734688     Delta-E=       -0.043550790511 Rises=F Damp=F
 DIIS: error= 5.54D-03 at cycle   4 NSaved=   4.
 NSaved= 4 IEnMin= 4 EnMin= -622.441901734688     IErMin= 4 ErrMin= 5.54D-03
 ErrMax= 5.54D-03  0.00D+00 EMaxC= 1.00D-01 BMatC= 1.92D-02 BMatP= 6.50D-02
 IDIUse=3 WtCom= 9.45D-01 WtEn= 5.54D-02
 Coeff-Com:  0.262D-01 0.142D+00 0.355D+00 0.477D+00
 Coeff-En:   0.000D+00 0.000D+00 0.246D+00 0.754D+00
 Coeff:      0.248D-01 0.134D+00 0.349D+00 0.493D+00
 Gap=     0.166 Goal=   None    Shift=    0.000
 RMSDP=4.37D-04 MaxDP=3.69D-02 DE=-4.36D-02 OVMax= 7.02D-02

 Cycle   5  Pass 0  IDiag  1:
 E= -622.455407759353     Delta-E=       -0.013506024665 Rises=F Damp=F
 DIIS: error= 3.62D-03 at cycle   5 NSaved=   5.
 NSaved= 5 IEnMin= 5 EnMin= -622.455407759353     IErMin= 5 ErrMin= 3.62D-03
 ErrMax= 3.62D-03  0.00D+00 EMaxC= 1.00D-01 BMatC= 3.45D-03 BMatP= 1.92D-02
 IDIUse=3 WtCom= 9.64D-01 WtEn= 3.62D-02
 Coeff-Com:  0.703D-02 0.260D-01 0.166D+00 0.356D+00 0.445D+00
 Coeff-En:   0.000D+00 0.000D+00 0.000D+00 0.145D+00 0.855D+00
 Coeff:      0.677D-02 0.250D-01 0.160D+00 0.349D+00 0.459D+00
 Gap=     0.161 Goal=   None    Shift=    0.000
 RMSDP=1.70D-04 MaxDP=1.51D-02 DE=-1.35D-02 OVMax= 3.25D-02

 Cycle   6  Pass 0  IDiag  1:
 E= -622.457738776993     Delta-E=       -0.002331017640 Rises=F Damp=F
 DIIS: error= 1.12D-03 at cycle   6 NSaved=   6.
 NSaved= 6 IEnMin= 6 EnMin= -622.457738776993     IErMin= 6 ErrMin= 1.12D-03
 ErrMax= 1.12D-03  0.00D+00 EMaxC= 1.00D-01 BMatC= 4.94D-04 BMatP= 3.45D-03
 IDIUse=3 WtCom= 9.89D-01 WtEn= 1.12D-02
 Coeff-Com:  0.145D-02-0.161D-02 0.648D-01 0.177D+00 0.322D+00 0.436D+00
 Coeff-En:   0.000D+00 0.000D+00 0.000D+00 0.000D+00 0.136D+00 0.864D+00
 Coeff:      0.144D-02-0.159D-02 0.641D-01 0.175D+00 0.320D+00 0.441D+00
 Gap=     0.160 Goal=   None    Shift=    0.000
 RMSDP=6.12D-05 MaxDP=4.23D-03 DE=-2.33D-03 OVMax= 8.77D-03

 Cycle   7  Pass 0  IDiag  1:
 E= -622.458124251890     Delta-E=       -0.000385474897 Rises=F Damp=F
 DIIS: error= 1.67D-04 at cycle   7 NSaved=   7.
 NSaved= 7 IEnMin= 7 EnMin= -622.458124251890     IErMin= 7 ErrMin= 1.67D-04
 ErrMax= 1.67D-04  0.00D+00 EMaxC= 1.00D-01 BMatC= 2.23D-05 BMatP= 4.94D-04
 IDIUse=3 WtCom= 9.98D-01 WtEn= 1.67D-03
 Coeff-Com:  0.219D-03-0.291D-02 0.159D-01 0.490D-01 0.114D+00 0.241D+00
 Coeff-Com:  0.583D+00
 Coeff-En:   0.000D+00 0.000D+00 0.000D+00 0.000D+00 0.000D+00 0.154D-02
 Coeff-En:   0.998D+00
 Coeff:      0.219D-03-0.290D-02 0.159D-01 0.490D-01 0.114D+00 0.240D+00
 Coeff:      0.583D+00
 Gap=     0.159 Goal=   None    Shift=    0.000
 RMSDP=1.63D-05 MaxDP=1.08D-03 DE=-3.85D-04 OVMax= 2.56D-03

 Cycle   8  Pass 0  IDiag  1:
 E= -622.458143967830     Delta-E=       -0.000019715940 Rises=F Damp=F
 DIIS: error= 4.81D-05 at cycle   8 NSaved=   8.
 NSaved= 8 IEnMin= 8 EnMin= -622.458143967830     IErMin= 8 ErrMin= 4.81D-05
 ErrMax= 4.81D-05  0.00D+00 EMaxC= 1.00D-01 BMatC= 1.96D-06 BMatP= 2.23D-05
 IDIUse=1 WtCom= 1.00D+00 WtEn= 0.00D+00
 Coeff-Com: -0.101D-04-0.179D-02 0.328D-02 0.122D-01 0.374D-01 0.988D-01
 Coeff-Com:  0.318D+00 0.532D+00
 Coeff:     -0.101D-04-0.179D-02 0.328D-02 0.122D-01 0.374D-01 0.988D-01
 Coeff:      0.318D+00 0.532D+00
 Gap=     0.160 Goal=   None    Shift=    0.000
 RMSDP=5.05D-06 MaxDP=2.49D-04 DE=-1.97D-05 OVMax= 6.17D-04

 Initial convergence to 1.0D-05 achieved.  Increase integral accuracy.
 Cycle   9  Pass 1  IDiag  1:
 E= -622.458132088980     Delta-E=        0.000011878850 Rises=F Damp=F
 DIIS: error= 2.34D-05 at cycle   1 NSaved=   1.
 NSaved= 1 IEnMin= 1 EnMin= -622.458132088980     IErMin= 1 ErrMin= 2.34D-05
 ErrMax= 2.34D-05  0.00D+00 EMaxC= 1.00D-01 BMatC= 4.92D-07 BMatP= 4.92D-07
 IDIUse=1 WtCom= 1.00D+00 WtEn= 0.00D+00
 Coeff-Com:  0.100D+01
 Coeff:      0.100D+01
 Gap=     0.160 Goal=   None    Shift=    0.000
 RMSDP=5.05D-06 MaxDP=2.49D-04 DE= 1.19D-05 OVMax= 5.72D-04

 Cycle  10  Pass 1  IDiag  1:
 E= -622.458131678773     Delta-E=        0.000000410207 Rises=F Damp=F
 DIIS: error= 3.64D-05 at cycle   2 NSaved=   2.
 NSaved= 2 IEnMin= 1 EnMin= -622.458132088980     IErMin= 1 ErrMin= 2.34D-05
 ErrMax= 3.64D-05  0.00D+00 EMaxC= 1.00D-01 BMatC= 1.03D-06 BMatP= 4.92D-07
 IDIUse=1 WtCom= 1.00D+00 WtEn= 0.00D+00
 Coeff-Com:  0.609D+00 0.391D+00
 Coeff:      0.609D+00 0.391D+00
 Gap=     0.160 Goal=   None    Shift=    0.000
 RMSDP=2.76D-06 MaxDP=1.78D-04 DE= 4.10D-07 OVMax= 3.83D-04

 Cycle  11  Pass 1  IDiag  1:
 E= -622.458132484438     Delta-E=       -0.000000805665 Rises=F Damp=F
 DIIS: error= 8.07D-06 at cycle   3 NSaved=   3.
 NSaved= 3 IEnMin= 3 EnMin= -622.458132484438     IErMin= 3 ErrMin= 8.07D-06
 ErrMax= 8.07D-06  0.00D+00 EMaxC= 1.00D-01 BMatC= 5.64D-08 BMatP= 4.92D-07
 IDIUse=1 WtCom= 1.00D+00 WtEn= 0.00D+00
 Coeff-Com:  0.220D-01 0.187D+00 0.791D+00
 Coeff:      0.220D-01 0.187D+00 0.791D+00
 Gap=     0.160 Goal=   None    Shift=    0.000
 RMSDP=7.81D-07 MaxDP=6.45D-05 DE=-8.06D-07 OVMax= 9.37D-05

 Cycle  12  Pass 1  IDiag  1:
 E= -622.458132524209     Delta-E=       -0.000000039772 Rises=F Damp=F
 DIIS: error= 3.18D-06 at cycle   4 NSaved=   4.
 NSaved= 4 IEnMin= 4 EnMin= -622.458132524209     IErMin= 4 ErrMin= 3.18D-06
 ErrMax= 3.18D-06  0.00D+00 EMaxC= 1.00D-01 BMatC= 8.95D-09 BMatP= 5.64D-08
 IDIUse=1 WtCom= 1.00D+00 WtEn= 0.00D+00
 Coeff-Com: -0.120D-01 0.950D-01 0.478D+00 0.439D+00
 Coeff:     -0.120D-01 0.950D-01 0.478D+00 0.439D+00
 Gap=     0.160 Goal=   None    Shift=    0.000
 RMSDP=2.94D-07 MaxDP=2.55D-05 DE=-3.98D-08 OVMax= 3.47D-05

 Cycle  13  Pass 1  IDiag  1:
 E= -622.458132531402     Delta-E=       -0.000000007193 Rises=F Damp=F
 DIIS: error= 1.00D-06 at cycle   5 NSaved=   5.
 NSaved= 5 IEnMin= 5 EnMin= -622.458132531402     IErMin= 5 ErrMin= 1.00D-06
 ErrMax= 1.00D-06  0.00D+00 EMaxC= 1.00D-01 BMatC= 5.92D-10 BMatP= 8.95D-09
 IDIUse=1 WtCom= 1.00D+00 WtEn= 0.00D+00
 Coeff-Com: -0.862D-02 0.442D-01 0.238D+00 0.268D+00 0.458D+00
 Coeff:     -0.862D-02 0.442D-01 0.238D+00 0.268D+00 0.458D+00
 Gap=     0.160 Goal=   None    Shift=    0.000
 RMSDP=7.50D-08 MaxDP=6.58D-06 DE=-7.19D-09 OVMax= 1.19D-05

 Cycle  14  Pass 1  IDiag  1:
 E= -622.458132531829     Delta-E=       -0.000000000427 Rises=F Damp=F
 DIIS: error= 5.58D-07 at cycle   6 NSaved=   6.
 NSaved= 6 IEnMin= 6 EnMin= -622.458132531829     IErMin= 6 ErrMin= 5.58D-07
 ErrMax= 5.58D-07  0.00D+00 EMaxC= 1.00D-01 BMatC= 1.24D-10 BMatP= 5.92D-10
 IDIUse=1 WtCom= 1.00D+00 WtEn= 0.00D+00
 Coeff-Com: -0.418D-02 0.162D-01 0.964D-01 0.124D+00 0.323D+00 0.444D+00
 Coeff:     -0.418D-02 0.162D-01 0.964D-01 0.124D+00 0.323D+00 0.444D+00
 Gap=     0.160 Goal=   None    Shift=    0.000
 RMSDP=3.18D-08 MaxDP=2.62D-06 DE=-4.27D-10 OVMax= 5.68D-06

 Cycle  15  Pass 1  IDiag  1:
 E= -622.458132531892     Delta-E=       -0.000000000064 Rises=F Damp=F
 DIIS: error= 2.06D-07 at cycle   7 NSaved=   7.
 NSaved= 7 IEnMin= 7 EnMin= -622.458132531892     IErMin= 7 ErrMin= 2.06D-07
 ErrMax= 2.06D-07  0.00D+00 EMaxC= 1.00D-01 BMatC= 1.33D-11 BMatP= 1.24D-10
 IDIUse=1 WtCom= 1.00D+00 WtEn= 0.00D+00
 Coeff-Com: -0.982D-03 0.180D-02 0.174D-01 0.288D-01 0.106D+00 0.275D+00
 Coeff-Com:  0.572D+00
 Coeff:     -0.982D-03 0.180D-02 0.174D-01 0.288D-01 0.106D+00 0.275D+00
 Coeff:      0.572D+00
 Gap=     0.160 Goal=   None    Shift=    0.000
 RMSDP=1.20D-08 MaxDP=7.47D-07 DE=-6.39D-11 OVMax= 1.56D-06

 Cycle  16  Pass 1  IDiag  1:
 E= -622.458132531901     Delta-E=       -0.000000000009 Rises=F Damp=F
 DIIS: error= 7.21D-08 at cycle   8 NSaved=   8.
 NSaved= 8 IEnMin= 8 EnMin= -622.458132531901     IErMin= 8 ErrMin= 7.21D-08
 ErrMax= 7.21D-08  0.00D+00 EMaxC= 1.00D-01 BMatC= 2.49D-12 BMatP= 1.33D-11
 IDIUse=1 WtCom= 1.00D+00 WtEn= 0.00D+00
 Coeff-Com:  0.139D-03-0.223D-02-0.767D-02-0.498D-02 0.567D-02 0.100D+00
 Coeff-Com:  0.367D+00 0.542D+00
 Coeff:      0.139D-03-0.223D-02-0.767D-02-0.498D-02 0.567D-02 0.100D+00
 Coeff:      0.367D+00 0.542D+00
 Gap=     0.160 Goal=   None    Shift=    0.000
 RMSDP=4.80D-09 MaxDP=3.17D-07 DE=-8.64D-12 OVMax= 5.19D-07

 SCF Done:  E(RB3LYP) =  -622.458132532     A.U. after   16 cycles
            NFock= 16  Conv=0.48D-08     -V/T= 2.0029
 KE= 6.206708883180D+02 PE=-2.879063741291D+03 EE= 9.245066259941D+02
 Leave Link  502 at Fri Aug 27 11:49:37 2021, MaxMem= 24159191040 cpu:       396.5
 (Enter /public/home/users/caep010/software/Gaussian09/g09/l801.exe)
 DoSCS=F DFT=T ScalE2(SS,OS)=  1.000000  1.000000
 Range of M.O.s used for correlation:     1   371
 NBasis=   371 NAE=    44 NBE=    44 NFC=     0 NFV=     0
 NROrb=    371 NOA=    44 NOB=    44 NVA=   327 NVB=   327

 **** Warning!!: The largest alpha MO coefficient is  0.56708775D+02

 Leave Link  801 at Fri Aug 27 11:49:37 2021, MaxMem= 24159191040 cpu:         0.6
 (Enter /public/home/users/caep010/software/Gaussian09/g09/l1101.exe)
 Using compressed storage, NAtomX=    19.
 Will process     20 centers per pass.
 Leave Link 1101 at Fri Aug 27 11:49:38 2021, MaxMem= 24159191040 cpu:        21.1
 (Enter /public/home/users/caep010/software/Gaussian09/g09/l1102.exe)
 Symmetrizing basis deriv contribution to polar:
 IMax=3 JMax=2 DiffMx= 0.00D+00
 Leave Link 1102 at Fri Aug 27 11:49:38 2021, MaxMem= 24159191040 cpu:         1.2
 (Enter /public/home/users/caep010/software/Gaussian09/g09/l1110.exe)
 Forming Gx(P) for the SCF density, NAtomX=    19.
 Integral derivatives from FoFJK, PRISM(SPDF).
 Do as many integral derivatives as possible in FoFJK.
 G2DrvN: MDV=   24159190784.
 G2DrvN: will do    20 centers at a time, making    1 passes.
 Calling FoFCou, ICntrl=  3107 FMM=F I1Cent=   0 AccDes= 0.00D+00.
 FoFJK:  IHMeth= 1 ICntrl=    3107 DoSepK=F KAlg= 0 I1Cent=   0 FoldK=F
 IRaf=         0 NMat=   1 IRICut=       1 DoRegI=T DoRafI=F ISym2E= 0.
 FoFCou: FMM=F IPFlag=           0 FMFlag=      100000 FMFlg1=           0
         NFxFlg=           0 DoJE=F BraDBF=F KetDBF=F FulRan=T
         wScrn=  0.000000 ICntrl=    3107 IOpCl=  0 I1Cent=           0 NGrid=           0
         NMat0=    1 NMatS0=      1 NMatT0=    0 NMatD0=    1 NMtDS0=    0 NMtDT0=    0
 Symmetry not used in FoFCou.
 End of G2Drv F.D. properties file   721 does not exist.
 End of G2Drv F.D. properties file   722 does not exist.
 End of G2Drv F.D. properties file   788 does not exist.
 Leave Link 1110 at Fri Aug 27 11:50:01 2021, MaxMem= 24159191040 cpu:       742.1
 (Enter /public/home/users/caep010/software/Gaussian09/g09/l1002.exe)
 Minotr:  Closed shell wavefunction.
          IDoAtm=1111111111111111111
          Direct CPHF calculation.
          Differentiating once with respect to nuclear coordinates.
          Requested convergence is 1.0D-08 RMS, and 1.0D-07 maximum.
          Secondary convergence is 1.0D-12 RMS, and 1.0D-12 maximum.
          NewPWx=T KeepS1=F KeepF1=F KeepIn=T MapXYZ=F SortEE=F KeepMc=T.
          MDV=   24159190475 using IRadAn=       2.
 Generate precomputed XC quadrature information.
 Keep R1 ints in memory in canonical form, NReq=2414913929.
 FoFCou: FMM=F IPFlag=           0 FMFlag=           0 FMFlg1=           0
         NFxFlg=           0 DoJE=F BraDBF=F KetDBF=F FulRan=T
         wScrn=  0.000000 ICntrl=     600 IOpCl=  0 I1Cent=           0 NGrid=           0
         NMat0=    1 NMatS0=  69006 NMatT0=    0 NMatD0=    1 NMtDS0=    0 NMtDT0=    0
 Symmetry not used in FoFCou.
          Solving linear equations simultaneously, MaxMat=       0.
          There are    60 degrees of freedom in the 1st order CPHF.  IDoFFX=6 NUNeed=     0.
     54 vectors produced by pass  0 Test12= 2.40D-14 1.67D-09 XBig12= 2.23D-01 1.30D-01.
 AX will form    54 AO Fock derivatives at one time.
     54 vectors produced by pass  1 Test12= 2.40D-14 1.67D-09 XBig12= 3.20D-02 5.52D-02.
     54 vectors produced by pass  2 Test12= 2.40D-14 1.67D-09 XBig12= 6.03D-04 4.22D-03.
     54 vectors produced by pass  3 Test12= 2.40D-14 1.67D-09 XBig12= 4.59D-06 2.73D-04.
     54 vectors produced by pass  4 Test12= 2.40D-14 1.67D-09 XBig12= 1.49D-08 2.36D-05.
     51 vectors produced by pass  5 Test12= 2.40D-14 1.67D-09 XBig12= 2.99D-11 8.99D-07.
     24 vectors produced by pass  6 Test12= 2.40D-14 1.67D-09 XBig12= 5.51D-14 2.61D-08.
 InvSVY:  IOpt=1 It=  1 EMax= 5.55D-16
 Solved reduced A of dimension   345 with    60 vectors.
 End of Minotr F.D. properties file   721 does not exist.
 End of Minotr F.D. properties file   722 does not exist.
 End of Minotr F.D. properties file   788 does not exist.
 Leave Link 1002 at Fri Aug 27 11:50:41 2021, MaxMem= 24159191040 cpu:      1259.6
 (Enter /public/home/users/caep010/software/Gaussian09/g09/l601.exe)
 Copying SCF densities to generalized density rwf, IOpCl= 0 IROHF=0.

 **********************************************************************

            Population analysis using the SCF density.

 **********************************************************************

 Orbital symmetries:
       Occupied  (A) (A) (A) (A) (A) (A) (A) (A) (A) (A) (A) (A)
                 (A) (A) (A) (A) (A) (A) (A) (A) (A) (A) (A) (A)
                 (A) (A) (A) (A) (A) (A) (A) (A) (A) (A) (A) (A)
                 (A) (A) (A) (A) (A) (A) (A) (A)
       Virtual   (A) (A) (A) (A) (A) (A) (A) (A) (A) (A) (A) (A)
                 (A) (A) (A) (A) (A) (A) (A) (A) (A) (A) (A) (A)
                 (A) (A) (A) (A) (A) (A) (A) (A) (A) (A) (A) (A)
                 (A) (A) (A) (A) (A) (A) (A) (A) (A) (A) (A) (A)
                 (A) (A) (A) (A) (A) (A) (A) (A) (A) (A) (A) (A)
                 (A) (A) (A) (A) (A) (A) (A) (A) (A) (A) (A) (A)
                 (A) (A) (A) (A) (A) (A) (A) (A) (A) (A) (A) (A)
                 (A) (A) (A) (A) (A) (A) (A) (A) (A) (A) (A) (A)
                 (A) (A) (A) (A) (A) (A) (A) (A) (A) (A) (A) (A)
                 (A) (A) (A) (A) (A) (A) (A) (A) (A) (A) (A) (A)
                 (A) (A) (A) (A) (A) (A) (A) (A) (A) (A) (A) (A)
                 (A) (A) (A) (A) (A) (A) (A) (A) (A) (A) (A) (A)
                 (A) (A) (A) (A) (A) (A) (A) (A) (A) (A) (A) (A)
                 (A) (A) (A) (A) (A) (A) (A) (A) (A) (A) (A) (A)
                 (A) (A) (A) (A) (A) (A) (A) (A) (A) (A) (A) (A)
                 (A) (A) (A) (A) (A) (A) (A) (A) (A) (A) (A) (A)
                 (A) (A) (A) (A) (A) (A) (A) (A) (A) (A) (A) (A)
                 (A) (A) (A) (A) (A) (A) (A) (A) (A) (A) (A) (A)
                 (A) (A) (A) (A) (A) (A) (A) (A) (A) (A) (A) (A)
                 (A) (A) (A) (A) (A) (A) (A) (A) (A) (A) (A) (A)
                 (A) (A) (A) (A) (A) (A) (A) (A) (A) (A) (A) (A)
                 (A) (A) (A) (A) (A) (A) (A) (A) (A) (A) (A) (A)
                 (A) (A) (A) (A) (A) (A) (A) (A) (A) (A) (A) (A)
                 (A) (A) (A) (A) (A) (A) (A) (A) (A) (A) (A) (A)
                 (A) (A) (A) (A) (A) (A) (A) (A) (A) (A) (A) (A)
                 (A) (A) (A) (A) (A) (A) (A) (A) (A) (A) (A) (A)
                 (A) (A) (A) (A) (A) (A) (A) (A) (A) (A) (A) (A)
                 (A) (A) (A)
 The electronic state is 1-A.
 Alpha  occ. eigenvalues --  -19.23171 -19.12470 -19.11530 -14.54595 -14.48177
 Alpha  occ. eigenvalues --  -14.33834 -10.29481 -10.26182 -10.24020 -10.20919
 Alpha  occ. eigenvalues --  -10.19384 -10.16460  -1.20687  -1.17888  -1.01009
 Alpha  occ. eigenvalues --   -0.98657  -0.92828  -0.86724  -0.82198  -0.78153
 Alpha  occ. eigenvalues --   -0.72467  -0.67399  -0.63375  -0.58978  -0.56541
 Alpha  occ. eigenvalues --   -0.55310  -0.53841  -0.51974  -0.51261  -0.50654
 Alpha  occ. eigenvalues --   -0.49729  -0.47056  -0.45661  -0.43458  -0.41085
 Alpha  occ. eigenvalues --   -0.39855  -0.37244  -0.34116  -0.31545  -0.30941
 Alpha  occ. eigenvalues --   -0.27520  -0.26787  -0.23667  -0.23025
 Alpha virt. eigenvalues --   -0.07056  -0.04391   0.02713   0.05112   0.09478
 Alpha virt. eigenvalues --    0.10978   0.11884   0.13221   0.15137   0.16358
 Alpha virt. eigenvalues --    0.17812   0.19279   0.20715   0.22462   0.24030
 Alpha virt. eigenvalues --    0.27857   0.28255   0.28995   0.31101   0.36090
 Alpha virt. eigenvalues --    0.36793   0.37514   0.40942   0.42026   0.43905
 Alpha virt. eigenvalues --    0.44380   0.46129   0.46673   0.46826   0.49442
 Alpha virt. eigenvalues --    0.50851   0.52209   0.53353   0.54521   0.55041
 Alpha virt. eigenvalues --    0.56130   0.56835   0.58600   0.60106   0.63305
 Alpha virt. eigenvalues --    0.64198   0.65969   0.66883   0.68191   0.69415
 Alpha virt. eigenvalues --    0.69816   0.71992   0.73065   0.74170   0.75910
 Alpha virt. eigenvalues --    0.76398   0.76799   0.78131   0.79303   0.79963
 Alpha virt. eigenvalues --    0.81324   0.82513   0.83074   0.84106   0.85469
 Alpha virt. eigenvalues --    0.85617   0.87690   0.90238   0.90940   0.91401
 Alpha virt. eigenvalues --    0.93411   0.94050   0.94847   0.97218   0.97669
 Alpha virt. eigenvalues --    0.98485   1.00911   1.01213   1.02327   1.02733
 Alpha virt. eigenvalues --    1.03966   1.07691   1.08486   1.11708   1.13226
 Alpha virt. eigenvalues --    1.15234   1.16333   1.16664   1.19191   1.21060
 Alpha virt. eigenvalues --    1.23048   1.24922   1.25510   1.30569   1.31967
 Alpha virt. eigenvalues --    1.32998   1.34428   1.35575   1.37569   1.38868
 Alpha virt. eigenvalues --    1.40729   1.42264   1.44068   1.44738   1.45991
 Alpha virt. eigenvalues --    1.48301   1.49100   1.50576   1.53295   1.55229
 Alpha virt. eigenvalues --    1.57539   1.58531   1.60610   1.62894   1.63742
 Alpha virt. eigenvalues --    1.65830   1.67858   1.68861   1.69334   1.71059
 Alpha virt. eigenvalues --    1.74433   1.76376   1.79181   1.81963   1.84157
 Alpha virt. eigenvalues --    1.86679   1.87167   1.88804   1.92145   1.93505
 Alpha virt. eigenvalues --    1.99049   2.00222   2.05029   2.07054   2.09138
 Alpha virt. eigenvalues --    2.17199   2.21595   2.23054   2.23459   2.26035
 Alpha virt. eigenvalues --    2.28494   2.32451   2.33820   2.36096   2.40545
 Alpha virt. eigenvalues --    2.44392   2.48126   2.50827   2.56212   2.57028
 Alpha virt. eigenvalues --    2.63228   2.63628   2.67725   2.71386   2.75127
 Alpha virt. eigenvalues --    2.79527   2.81090   2.83127   2.86609   2.90185
 Alpha virt. eigenvalues --    2.93856   2.96241   2.98328   3.02748   3.04978
 Alpha virt. eigenvalues --    3.07283   3.08983   3.09604   3.11054   3.12300
 Alpha virt. eigenvalues --    3.14476   3.17135   3.20268   3.21552   3.23799
 Alpha virt. eigenvalues --    3.25516   3.27022   3.29117   3.30906   3.32742
 Alpha virt. eigenvalues --    3.34671   3.35598   3.37659   3.39157   3.42318
 Alpha virt. eigenvalues --    3.44016   3.46138   3.48754   3.49637   3.50144
 Alpha virt. eigenvalues --    3.52898   3.55312   3.58374   3.59009   3.60085
 Alpha virt. eigenvalues --    3.61014   3.65285   3.65705   3.68696   3.69438
 Alpha virt. eigenvalues --    3.71382   3.74888   3.76376   3.79073   3.79606
 Alpha virt. eigenvalues --    3.82759   3.84231   3.85286   3.88969   3.92412
 Alpha virt. eigenvalues --    3.97042   3.97524   4.02792   4.03175   4.05563
 Alpha virt. eigenvalues --    4.06869   4.10003   4.11342   4.12078   4.13077
 Alpha virt. eigenvalues --    4.15337   4.15510   4.17676   4.21362   4.23665
 Alpha virt. eigenvalues --    4.25623   4.27484   4.29983   4.31257   4.32294
 Alpha virt. eigenvalues --    4.34216   4.36093   4.37166   4.38316   4.38874
 Alpha virt. eigenvalues --    4.40188   4.41039   4.42239   4.44828   4.45835
 Alpha virt. eigenvalues --    4.46678   4.47224   4.48117   4.49427   4.52676
 Alpha virt. eigenvalues --    4.53958   4.54946   4.57392   4.58568   4.59917
 Alpha virt. eigenvalues --    4.62690   4.64082   4.64528   4.65161   4.66906
 Alpha virt. eigenvalues --    4.68348   4.71005   4.72085   4.76475   4.78460
 Alpha virt. eigenvalues --    4.80755   4.81794   4.87691   4.92366   4.97246
 Alpha virt. eigenvalues --    4.98967   4.99788   5.01930   5.02710   5.04877
 Alpha virt. eigenvalues --    5.06478   5.07677   5.07994   5.09378   5.11569
 Alpha virt. eigenvalues --    5.14917   5.15440   5.19048   5.21088   5.21854
 Alpha virt. eigenvalues --    5.28600   5.31511   5.34773   5.38408   5.40038
 Alpha virt. eigenvalues --    5.45091   5.46541   5.48087   5.49265   5.55267
 Alpha virt. eigenvalues --    5.58256   5.59517   5.64397   5.66323   5.68111
 Alpha virt. eigenvalues --    5.72627   5.79102   5.86106   5.87864   5.96428
 Alpha virt. eigenvalues --    5.97053   5.98598   6.05150   6.07478   6.11430
 Alpha virt. eigenvalues --    6.13453   6.29482   6.32202   6.36636   6.49561
 Alpha virt. eigenvalues --    6.53935   6.75762   6.86181   6.92846   7.07125
 Alpha virt. eigenvalues --    7.15141   8.60572   9.35471   9.92480  10.56947
 Alpha virt. eigenvalues --   11.04069  11.27812  11.38254  11.43205  11.55468
 Alpha virt. eigenvalues --   11.76112  12.33964  13.12722  13.20817  13.31574
 Alpha virt. eigenvalues --   20.38024  23.39451
          Condensed to atoms (all electrons):
               1          2          3          4          5          6
     1  O    7.826393   0.215305  -0.016404  -0.018192   0.004561  -0.007616
     2  N    0.215305   6.139068   0.384554   0.471984  -0.022042  -0.031456
     3  C   -0.016404   0.384554   4.501239  -0.068455   0.002382   0.434161
     4  C   -0.018192   0.471984  -0.068455   4.685993   0.335690   0.000327
     5  H    0.004561  -0.022042   0.002382   0.335690   0.537104  -0.000144
     6  N   -0.007616  -0.031456   0.434161   0.000327  -0.000144   6.920942
     7  N    0.000701  -0.003377  -0.067741  -0.000138  -0.000002   0.402483
     8  O   -0.000011   0.000213   0.002054   0.000011   0.000000  -0.136264
     9  H    0.344690  -0.091178   0.004434   0.001221  -0.000446   0.020019
    10  O   -0.000003  -0.000039   0.001426  -0.000000  -0.000000  -0.124894
    11  C    0.000709   0.015211   0.427402  -0.061175   0.002961  -0.032506
    12  C    0.001291  -0.044958  -0.006367   0.020762  -0.002541  -0.000789
    13  H   -0.000120   0.004497  -0.025635   0.001116   0.000085  -0.008497
    14  C    0.000053   0.006478  -0.034095   0.530033  -0.006329   0.002100
    15  H   -0.000094   0.003083   0.001086  -0.028210  -0.000946   0.000013
    16  C    0.000003   0.000551   0.004883   0.005240  -0.000292  -0.000141
    17  H   -0.000000   0.000017  -0.000152  -0.000212   0.000003   0.000004
    18  H   -0.000000  -0.000008   0.000254  -0.000057   0.000004  -0.000003
    19  H   -0.000000  -0.000012  -0.000232   0.000264   0.000000   0.000002
               7          8          9         10         11         12
     1  O    0.000701  -0.000011   0.344690  -0.000003   0.000709   0.001291
     2  N   -0.003377   0.000213  -0.091178  -0.000039   0.015211  -0.044958
     3  C   -0.067741   0.002054   0.004434   0.001426   0.427402  -0.006367
     4  C   -0.000138   0.000011   0.001221  -0.000000  -0.061175   0.020762
     5  H   -0.000002   0.000000  -0.000446  -0.000000   0.002961  -0.002541
     6  N    0.402483  -0.136264   0.020019  -0.124894  -0.032506  -0.000789
     7  N    4.937524   0.566753  -0.000350   0.589643   0.000294   0.000719
     8  O    0.566753   8.032930   0.000048  -0.091323  -0.010476   0.001696
     9  H   -0.000350   0.000048   0.409927  -0.000058   0.001075  -0.000139
    10  O    0.589643  -0.091323  -0.000058   8.037849   0.000628   0.000006
    11  C    0.000294  -0.010476   0.001075   0.000628   4.966402   0.530260
    12  C    0.000719   0.001696  -0.000139   0.000006   0.530260   4.481535
    13  H   -0.002278   0.048569   0.000028   0.000529   0.323498  -0.024670
    14  C   -0.000000   0.000001   0.000096   0.000000   0.036919   0.522842
    15  H    0.000000   0.000000   0.000009   0.000000   0.006121  -0.020386
    16  C   -0.000006  -0.000015   0.000001  -0.000000  -0.044133   0.393959
    17  H    0.000000  -0.000001   0.000000   0.000000  -0.004393  -0.006507
    18  H   -0.000001  -0.000018  -0.000000  -0.000000  -0.003718  -0.012691
    19  H    0.000000  -0.000000   0.000000  -0.000000   0.002055  -0.003534
              13         14         15         16         17         18
     1  O   -0.000120   0.000053  -0.000094   0.000003  -0.000000  -0.000000
     2  N    0.004497   0.006478   0.003083   0.000551   0.000017  -0.000008
     3  C   -0.025635  -0.034095   0.001086   0.004883  -0.000152   0.000254
     4  C    0.001116   0.530033  -0.028210   0.005240  -0.000212  -0.000057
     5  H    0.000085  -0.006329  -0.000946  -0.000292   0.000003   0.000004
     6  N   -0.008497   0.002100   0.000013  -0.000141   0.000004  -0.000003
     7  N   -0.002278  -0.000000   0.000000  -0.000006   0.000000  -0.000001
     8  O    0.048569   0.000001   0.000000  -0.000015  -0.000001  -0.000018
     9  H    0.000028   0.000096   0.000009   0.000001   0.000000  -0.000000
    10  O    0.000529   0.000000   0.000000  -0.000000   0.000000  -0.000000
    11  C    0.323498   0.036919   0.006121  -0.044133  -0.004393  -0.003718
    12  C   -0.024670   0.522842  -0.020386   0.393959  -0.006507  -0.012691
    13  H    0.566342   0.007549  -0.000394  -0.012622   0.000314   0.003552
    14  C    0.007549   4.879358   0.341498  -0.066763   0.001638   0.001933
    15  H   -0.000394   0.341498   0.599670  -0.011313   0.001045  -0.000380
    16  C   -0.012622  -0.066763  -0.011313   4.934084   0.375848   0.382522
    17  H    0.000314   0.001638   0.001045   0.375848   0.583033  -0.053433
    18  H    0.003552   0.001933  -0.000380   0.382522  -0.053433   0.576975
    19  H   -0.000011  -0.004642   0.004022   0.388008  -0.036670  -0.038000
              19
     1  O   -0.000000
     2  N   -0.000012
     3  C   -0.000232
     4  C    0.000264
     5  H    0.000000
     6  N    0.000002
     7  N    0.000000
     8  O   -0.000000
     9  H    0.000000
    10  O   -0.000000
    11  C    0.002055
    12  C   -0.003534
    13  H   -0.000011
    14  C   -0.004642
    15  H    0.004022
    16  C    0.388008
    17  H   -0.036670
    18  H   -0.038000
    19  H    0.589027
 Mulliken charges:
               1
     1  O   -0.351265
     2  N   -0.047890
     3  C    0.455206
     4  C    0.123799
     5  H    0.149952
     6  N   -0.437743
     7  N    0.575774
     8  O   -0.414169
     9  H    0.310623
    10  O   -0.413764
    11  C   -0.157134
    12  C    0.169512
    13  H    0.118147
    14  C   -0.218668
    15  H    0.105176
    16  C   -0.349813
    17  H    0.139466
    18  H    0.143068
    19  H    0.099724
 Sum of Mulliken charges =  -0.00000
 Mulliken charges with hydrogens summed into heavy atoms:
               1
     1  O   -0.040642
     2  N   -0.047890
     3  C    0.455206
     4  C    0.273750
     6  N   -0.437743
     7  N    0.575774
     8  O   -0.414169
    10  O   -0.413764
    11  C   -0.038987
    12  C    0.169512
    14  C   -0.113492
    16  C    0.032445
 APT charges:
               1
     1  O   -0.176451
     2  N   -0.367355
     3  C   -0.274624
     4  C   -0.060068
     5  H    0.595976
     6  N   -0.059949
     7  N   -1.214766
     8  O    0.059245
     9  H    0.316112
    10  O    0.883084
    11  C   -0.514706
    12  C   -0.323736
    13  H    0.278812
    14  C   -0.246793
    15  H    0.597257
    16  C   -0.645274
    17  H    0.282638
    18  H    0.478238
    19  H    0.392361
 Sum of APT charges =  -0.00000
 APT charges with hydrogens summed into heavy atoms:
               1
     1  O    0.139661
     2  N   -0.367355
     3  C   -0.274624
     4  C    0.535909
     6  N   -0.059949
     7  N   -1.214766
     8  O    0.059245
    10  O    0.883084
    11  C   -0.235894
    12  C   -0.323736
    14  C    0.350464
    16  C    0.507962
 Electronic spatial extent (au):  <R**2>=           2108.9713
 Charge=             -0.0000 electrons
 Dipole moment (field-independent basis, Debye):
    X=             -8.8708    Y=              1.4895    Z=             -0.9514  Tot=              9.0452
 Quadrupole moment (field-independent basis, Debye-Ang):
   XX=            -76.6242   YY=            -62.9426   ZZ=            -65.5017
   XY=              4.5267   XZ=              0.0416   YZ=             -3.2683
 Traceless Quadrupole moment (field-independent basis, Debye-Ang):
   XX=             -8.2680   YY=              5.4136   ZZ=              2.8545
   XY=              4.5267   XZ=              0.0416   YZ=             -3.2683
 Octapole moment (field-independent basis, Debye-Ang**2):
  XXX=            -72.6507  YYY=              6.3324  ZZZ=             -0.0142  XYY=            -16.1118
  XXY=              9.3986  XXZ=              0.7330  XZZ=             10.0058  YZZ=              2.2299
  YYZ=             -7.1892  XYZ=             -1.1440
 Hexadecapole moment (field-independent basis, Debye-Ang**3):
 XXXX=          -1819.2331 YYYY=           -801.6715 ZZZZ=            -64.6894 XXXY=             15.0376
 XXXZ=             23.7796 YYYX=             26.4546 YYYZ=            -26.5984 ZZZX=             -2.5644
 ZZZY=             -2.9113 XXYY=           -399.1567 XXZZ=           -285.1171 YYZZ=           -143.7999
 XXYZ=             -0.1166 YYXZ=            -11.2434 ZZXY=             -0.8059
 N-N= 7.114280944474D+02 E-N=-2.879063735747D+03  KE= 6.206708883180D+02
  Exact polarizability:   0.000   0.000   0.000   0.000   0.000   0.000
 Approx polarizability: 250.067   5.978 175.125  -2.657  -3.015  72.596
 No NMR shielding tensors so no spin-rotation constants.
 Leave Link  601 at Fri Aug 27 11:50:42 2021, MaxMem= 24159191040 cpu:        16.2
 (Enter /public/home/users/caep010/software/Gaussian09/g09/l701.exe)
 Compute integral second derivatives.
 ... and contract with generalized density number  0.
 Leave Link  701 at Fri Aug 27 11:50:43 2021, MaxMem= 24159191040 cpu:        22.4
 (Enter /public/home/users/caep010/software/Gaussian09/g09/l702.exe)
 L702 exits ... SP integral derivatives will be done elsewhere.
 Leave Link  702 at Fri Aug 27 11:50:43 2021, MaxMem= 24159191040 cpu:         0.7
 (Enter /public/home/users/caep010/software/Gaussian09/g09/l703.exe)
 Compute integral second derivatives, UseDBF=F ICtDFT=           0.
 Integral derivatives from FoFJK, PRISM(SPDF).
 Calling FoFJK, ICntrl=    100147 FMM=F ISym2X=0 I1Cent= 0 IOpClX= 0 NMat=1 NMatS=1 NMatT=0.
 FoFJK:  IHMeth= 1 ICntrl=  100147 DoSepK=F KAlg= 0 I1Cent=   0 FoldK=F
 IRaf=         0 NMat=   1 IRICut=       1 DoRegI=T DoRafI=F ISym2E= 0.
 FoFCou: FMM=F IPFlag=           0 FMFlag=      100000 FMFlg1=         800
         NFxFlg=           0 DoJE=F BraDBF=F KetDBF=F FulRan=T
         wScrn=  0.000000 ICntrl=  100147 IOpCl=  0 I1Cent=           0 NGrid=           0
         NMat0=    1 NMatS0=      1 NMatT0=    0 NMatD0=    1 NMtDS0=    0 NMtDT0=    0
 Symmetry not used in FoFCou.
 Leave Link  703 at Fri Aug 27 11:51:27 2021, MaxMem= 24159191040 cpu:      1397.6
 (Enter /public/home/users/caep010/software/Gaussian09/g09/l716.exe)
 Dipole        =-3.49004451D+00 5.86015203D-01-3.74309144D-01
 Polarizability= 0.00000000D+00 0.00000000D+00 0.00000000D+00
                 0.00000000D+00 0.00000000D+00 0.00000000D+00
 ***** Axes restored to original set *****
 -------------------------------------------------------------------
 Center     Atomic                   Forces (Hartrees/Bohr)
 Number     Number              X              Y              Z
 -------------------------------------------------------------------
      1        8           0.040899447    0.033450370   -0.007645706
      2        7           0.024212185    0.015568529   -0.000160265
      3        6          -0.041600265   -0.006985091   -0.027104404
      4        6           0.004825035   -0.078084103   -0.085507339
      5        1          -0.021379815    0.097871773    0.099157977
      6        7           0.023098644    0.021000976    0.036553267
      7        7          -0.030121911   -0.004575262   -0.012869544
      8        8           0.034492273   -0.016588447   -0.014360224
      9        1          -0.068957355   -0.041383121    0.014832700
     10        8          -0.005414110    0.004160991    0.006196144
     11        6           0.006894507    0.131789496    0.156856025
     12        6          -0.021244301   -0.020349182   -0.018862001
     13        1           0.005866441   -0.141512609   -0.161854606
     14        6          -0.078500451   -0.028899318   -0.069319686
     15        1           0.107853910    0.028379127    0.080441709
     16        6          -0.216902611   -0.026272817   -0.016427073
     17        1           0.134812740    0.165280428   -0.150877436
     18        1          -0.027692986   -0.076827617   -0.032890515
     19        1           0.128858625   -0.056024123    0.203840974
 -------------------------------------------------------------------
 Cartesian Forces:  Max     0.216902611 RMS     0.079124543
 FormGI is forming the generalized inverse of G from B-inverse, IUseBI=4.
 Leave Link  716 at Fri Aug 27 11:51:28 2021, MaxMem= 24159191040 cpu:         2.9
 (Enter /public/home/users/caep010/software/Gaussian09/g09/l103.exe)

 GradGradGradGradGradGradGradGradGradGradGradGradGradGradGradGradGradGrad
 Berny optimization.
 Red2BG is reusing G-inverse.
 Internal  Forces:  Max     0.257712289 RMS     0.052859967
 Search for a local minimum.
 Step number   1 out of a maximum of   95
 All quantities printed in internal units (Hartrees-Bohrs-Radians)
 RMS Force = .52860D-01 SwitMx=.10000D-02 MixMth= 1
 Mixed Optimization -- RFO/linear search
 Second derivative matrix not updated -- analytic derivatives used.
 ITU=  0
     Eigenvalues ---   -0.00506   0.00008   0.00018   0.01043   0.01228
     Eigenvalues ---    0.01658   0.01770   0.01879   0.02113   0.02323
     Eigenvalues ---    0.02451   0.03065   0.03883   0.05152   0.07376
     Eigenvalues ---    0.08524   0.11332   0.11797   0.12117   0.12783
     Eigenvalues ---    0.13971   0.14842   0.18642   0.19904   0.20439
     Eigenvalues ---    0.20937   0.22043   0.24175   0.26006   0.27782
     Eigenvalues ---    0.29287   0.34433   0.36833   0.37199   0.41992
     Eigenvalues ---    0.44914   0.45648   0.50537   0.52731   0.55264
     Eigenvalues ---    0.55446   0.59510   0.63472   0.74748   0.76778
     Eigenvalues ---    0.78377   0.84005   0.95343   1.06374   1.07301
     Eigenvalues ---    1.08668
 Eigenvalue     1 is  -5.06D-03 should be greater than     0.000000 Eigenvector:
                          D1        D2        D5        D11       D6
   1                    0.71511   0.67826   0.06633  -0.05876   0.05484
                          D10       D12       D9        D15       A5
   1                   -0.05251  -0.04453  -0.04427  -0.03822   0.03754
 RFO step:  Lambda=-2.14340805D-01 EMin=-5.05872886D-03
 Linear search not attempted -- first point.
 Maximum step size (   0.300) exceeded in Quadratic search.
    -- Step size scaled by   0.639
 Iteration  1 RMS(Cart)=  0.07042647 RMS(Int)=  0.03961055
 Iteration  2 RMS(Cart)=  0.03615239 RMS(Int)=  0.00941456
 Iteration  3 RMS(Cart)=  0.01046411 RMS(Int)=  0.00036907
 Iteration  4 RMS(Cart)=  0.00034483 RMS(Int)=  0.00011275
 Iteration  5 RMS(Cart)=  0.00000027 RMS(Int)=  0.00011275
 ITry= 1 IFail=0 DXMaxC= 7.47D-01 DCOld= 1.00D+10 DXMaxT= 3.00D-01 DXLimC= 3.00D+00 Rises=F
 Variable       Old X    -DE/DX   Delta X   Delta X   Delta X     New X
                                 (Linear)    (Quad)   (Total)
    R1        2.60358   0.02042   0.00000  -0.00389  -0.00389   2.59969
    R2        1.72194   0.07367   0.00000   0.05628   0.05628   1.77822
    R3        2.57141   0.01820   0.00000   0.01316   0.01314   2.58455
    R4        2.54220   0.00844   0.00000  -0.00145  -0.00146   2.54073
    R5        2.58202  -0.02670   0.00000  -0.02136  -0.02136   2.56066
    R6        2.64847   0.02061   0.00000   0.01148   0.01149   2.65995
    R7        1.78825   0.14094   0.00000   0.09018   0.09018   1.87842
    R8        2.52979   0.02690   0.00000   0.02521   0.02521   2.55500
    R9        2.52921   0.02693   0.00000   0.02406   0.02406   2.55327
   R10        2.28947   0.04054   0.00000   0.02230   0.02230   2.31177
   R11        2.32410   0.00265   0.00000  -0.00427  -0.00427   2.31983
   R12        2.60096   0.00649   0.00000   0.00799   0.00801   2.60896
   R13        1.70030   0.21505   0.00000   0.11264   0.11264   1.81294
   R14        2.63270   0.02294   0.00000   0.01612   0.01614   2.64884
   R15        2.81350   0.01306   0.00000   0.01478   0.01478   2.82828
   R16        1.79353   0.13713   0.00000   0.08902   0.08902   1.88255
   R17        1.67347   0.25771   0.00000   0.12708   0.12708   1.80054
   R18        1.90116   0.08019   0.00000   0.06422   0.06422   1.96537
   R19        1.67529   0.24684   0.00000   0.12291   0.12291   1.79820
    A1        1.62057   0.05935   0.00000   0.06752   0.06752   1.68809
    A2        2.08954  -0.00386   0.00000  -0.01284  -0.01286   2.07669
    A3        2.03165  -0.00068   0.00000   0.00717   0.00715   2.03880
    A4        2.16184   0.00452   0.00000   0.00601   0.00585   2.16769
    A5        1.96372  -0.00722   0.00000  -0.03020  -0.03018   1.93354
    A6        2.01270  -0.00056   0.00000   0.00400   0.00390   2.01661
    A7        2.30661   0.00775   0.00000   0.02599   0.02600   2.33261
    A8        2.00170   0.00119   0.00000   0.00402   0.00405   2.00575
    A9        2.10819  -0.00367   0.00000  -0.00874  -0.00883   2.09936
   A10        2.17295   0.00247   0.00000   0.00456   0.00460   2.17755
   A11        2.06943   0.00359   0.00000   0.00930   0.00930   2.07873
   A12        2.14295  -0.00111   0.00000  -0.01106  -0.01107   2.13188
   A13        2.01673  -0.00955   0.00000  -0.00548  -0.00548   2.01124
   A14        2.12295   0.01071   0.00000   0.01674   0.01673   2.13969
   A15        2.12335  -0.00105   0.00000  -0.00718  -0.00722   2.11613
   A16        2.02776   0.00334   0.00000   0.00671   0.00672   2.03448
   A17        2.13201  -0.00229   0.00000   0.00042   0.00044   2.13245
   A18        2.07818   0.00354   0.00000   0.00355   0.00352   2.08170
   A19        2.09965   0.00475   0.00000   0.00391   0.00392   2.10357
   A20        2.10532  -0.00830   0.00000  -0.00742  -0.00741   2.09791
   A21        2.08000  -0.00274   0.00000   0.00096   0.00091   2.08091
   A22        2.15460  -0.00749   0.00000  -0.01742  -0.01739   2.13720
   A23        2.04832   0.01024   0.00000   0.01642   0.01644   2.06476
   A24        1.86081   0.00411   0.00000   0.01179   0.01211   1.87292
   A25        2.06985  -0.03253   0.00000  -0.04855  -0.04839   2.02146
   A26        1.91980   0.00968   0.00000   0.01483   0.01479   1.93459
   A27        1.55034   0.03015   0.00000   0.05621   0.05683   1.60717
   A28        2.14116  -0.02074   0.00000  -0.04302  -0.04298   2.09818
   A29        1.90965   0.00633   0.00000   0.00518   0.00508   1.91473
    D1        1.06284  -0.00702   0.00000  -0.45639  -0.45635   0.60649
    D2       -2.09646  -0.00754   0.00000  -0.43524  -0.43529  -2.53176
    D3       -0.10170  -0.00191   0.00000  -0.02141  -0.02139  -0.12309
    D4        3.05630  -0.00025   0.00000  -0.01045  -0.01069   3.04560
    D5        3.05899  -0.00128   0.00000  -0.04421  -0.04409   3.01490
    D6       -0.06620   0.00038   0.00000  -0.03326  -0.03340  -0.09960
    D7        0.01824   0.00080   0.00000   0.00616   0.00604   0.02429
    D8       -3.09638   0.00109   0.00000   0.01224   0.01209  -3.08429
    D9        3.14132   0.00016   0.00000   0.02807   0.02810  -3.11377
   D10        0.02669   0.00045   0.00000   0.03415   0.03415   0.06084
   D11       -3.12281   0.00015   0.00000   0.03552   0.03552  -3.08729
   D12       -0.00122  -0.00201   0.00000   0.02173   0.02173   0.02051
   D13        0.05678  -0.00102   0.00000   0.01203   0.01190   0.06868
   D14       -3.09634  -0.00106   0.00000   0.00741   0.00730  -3.08904
   D15       -3.06437   0.00125   0.00000   0.02642   0.02647  -3.03790
   D16        0.06570   0.00121   0.00000   0.02180   0.02187   0.08756
   D17        0.02539  -0.00088   0.00000  -0.01227  -0.01230   0.01309
   D18       -3.09042  -0.00165   0.00000  -0.01058  -0.01060  -3.10102
   D19       -3.08647  -0.00052   0.00000  -0.00553  -0.00558  -3.09205
   D20        0.08090  -0.00130   0.00000  -0.00384  -0.00388   0.07702
   D21       -0.16489   0.00039   0.00000   0.00816   0.00813  -0.15676
   D22        3.01188  -0.00139   0.00000   0.00162   0.00165   3.01353
   D23       -3.10431  -0.00147   0.00000  -0.00645  -0.00647  -3.11078
   D24       -0.01001   0.00060   0.00000   0.00703   0.00706  -0.00295
   D25        3.13911   0.00116   0.00000   0.00175   0.00176   3.14087
   D26       -3.13938   0.00060   0.00000   0.01189   0.01189  -3.12749
   D27        0.00973   0.00116   0.00000   0.00662   0.00659   0.01632
   D28       -0.03248   0.00035   0.00000  -0.00731  -0.00728  -0.03976
   D29        3.08489   0.00083   0.00000  -0.00938  -0.00940   3.07549
   D30        3.10156  -0.00015   0.00000  -0.00197  -0.00195   3.09962
   D31       -0.06424   0.00032   0.00000  -0.00404  -0.00407  -0.06831
   D32        1.50698   0.01373   0.00000   0.02962   0.02936   1.53634
   D33       -0.20262  -0.01260   0.00000  -0.02648  -0.02618  -0.22881
   D34       -2.41845  -0.00276   0.00000  -0.00605  -0.00611  -2.42455
   D35       -1.62698   0.01424   0.00000   0.02421   0.02397  -1.60301
   D36        2.94661  -0.01209   0.00000  -0.03188  -0.03158   2.91503
   D37        0.73079  -0.00225   0.00000  -0.01146  -0.01150   0.71928
         Item               Value     Threshold  Converged?
 Maximum Force            0.257712     0.000450     NO 
 RMS     Force            0.052860     0.000300     NO 
 Maximum Displacement     0.747356     0.001800     NO 
 RMS     Displacement     0.104895     0.001200     NO 
 Predicted change in Energy=-1.099238D-01
 Lowest energy point so far.  Saving SCF results.
 GradGradGradGradGradGradGradGradGradGradGradGradGradGradGradGradGradGrad

 Leave Link  103 at Fri Aug 27 11:51:28 2021, MaxMem= 24159191040 cpu:         2.6
 (Enter /public/home/users/caep010/software/Gaussian09/g09/l202.exe)
                          Input orientation:                          
 ---------------------------------------------------------------------
 Center     Atomic      Atomic             Coordinates (Angstroms)
 Number     Number       Type             X           Y           Z
 ---------------------------------------------------------------------
      1          8           0        4.236494    2.728797    8.569894
      2          7           0        5.381179    2.013860    8.303239
      3          6           0        5.368199    1.095890    7.289469
      4          6           0        6.450793    2.271057    9.076188
      5          1           0        6.299767    2.947578    9.788636
      6          7           0        4.115712    0.942649    6.795579
      7          7           0        3.898856    0.025941    5.826985
      8          8           0        4.816018   -0.557869    5.266155
      9          1           0        3.627243    2.041224    8.366116
     10          8           0        2.721189   -0.153815    5.530690
     11          6           0        6.607086    0.493596    7.000161
     12          6           0        7.728994    0.763610    7.758107
     13          1           0        6.624252   -0.119519    6.262478
     14          6           0        7.630851    1.657427    8.833392
     15          1           0        8.434165    1.798050    9.405522
     16          6           0        9.038133    0.113361    7.436671
     17          1           0        9.480118    0.666046    6.798684
     18          1           0        8.996053   -0.685454    6.772002
     19          1           0        9.487598   -0.154027    8.231633
 ---------------------------------------------------------------------
                    Distance matrix (angstroms):
                    1          2          3          4          5
     1  O    0.000000
     2  N    1.375697   0.000000
     3  C    2.363605   1.367686   0.000000
     4  C    2.317106   1.344499   2.396955   0.000000
     5  H    2.406303   1.980414   3.246906   0.994018   0.000000
     6  N    2.520537   2.240968   1.355041   3.523982   4.212865
     7  N    3.865615   3.504416   2.332942   4.702154   5.476770
     8  O    4.696032   4.019586   2.670885   5.019130   5.911218
     9  H    0.940994   1.755276   2.254718   2.920524   3.160289
    10  O    4.454477   4.411506   3.414928   5.688630   6.368278
    11  C    3.616614   2.347778   1.407587   2.737460   3.727206
    12  C    4.088828   2.715240   2.429689   2.375612   3.306880
    13  H    4.374752   3.203317   2.027215   3.696201   4.684673
    14  C    3.569162   2.338617   2.796179   1.352045   2.085369
    15  H    4.380070   3.253049   3.790891   2.065421   2.454353
    16  C    5.583944   4.211431   3.802032   3.746731   4.589463
    17  H    5.906583   4.569638   4.163354   4.115811   4.925428
    18  H    6.127229   4.764273   4.074591   4.530848   5.437735
    19  H    5.999933   4.644087   4.406747   3.976996   4.712376
                    6          7          8          9         10
     6  N    0.000000
     7  N    1.351131   0.000000
     8  O    2.254134   1.223336   0.000000
     9  H    1.977892   3.253049   4.216424   0.000000
    10  O    2.178732   1.227601   2.149779   3.698482   0.000000
    11  C    2.539774   2.988236   2.705602   3.624976   4.204603
    12  C    3.743571   4.352395   4.054820   4.338933   5.557083
    13  H    2.775819   2.763801   2.110573   4.251607   3.971221
    14  C    4.125505   5.062412   5.055295   4.049015   6.188152
    15  H    5.117866   6.042791   5.981279   4.924023   7.173716
    16  C    5.032788   5.386177   4.794575   5.818785   6.603630
    17  H    5.371534   5.701265   5.059688   6.213221   6.925540
    18  H    5.144804   5.232643   4.444834   6.228973   6.418522
    19  H    5.667637   6.086769   5.548045   6.259471   7.285560
                   11         12         13         14         15
    11  C    0.000000
    12  C    1.380604   0.000000
    13  H    0.959364   2.058465   0.000000
    14  C    2.400695   1.401706   3.283349   0.000000
    15  H    3.290225   2.069132   4.102630   0.996203   0.000000
    16  C    2.499021   1.496659   2.694399   2.513049   2.660700
    17  H    2.885246   1.999112   3.010083   2.922784   3.028375
    18  H    2.673832   2.162783   2.491052   3.406201   3.663187
    19  H    3.198951   2.039356   3.475271   2.662892   2.509649
                   16         17         18         19
    16  C    0.000000
    17  H    0.952806   0.000000
    18  H    1.040030   1.435821   0.000000
    19  H    0.951567   1.651036   1.629280   0.000000
 Stoichiometry    C6H7N3O3
 Framework group  C1[X(C6H7N3O3)]
 Deg. of freedom    51
 Full point group                 C1      NOp   1
 RotChk:  IX=0 Diff= 4.50D-02
 Largest Abelian subgroup         C1      NOp   1
 Largest concise Abelian subgroup C1      NOp   1
                         Standard orientation:                         
 ---------------------------------------------------------------------
 Center     Atomic      Atomic             Coordinates (Angstroms)
 Number     Number       Type             X           Y           Z
 ---------------------------------------------------------------------
      1          8           0        0.228179    2.611485    0.150924
      2          7           0       -0.473440    1.432953    0.044447
      3          6           0        0.212226    0.249665    0.060479
      4          6           0       -1.809126    1.530851   -0.074021
      5          1           0       -2.160780    2.460358   -0.094696
      6          7           0        1.549193    0.468222    0.030699
      7          7           0        2.387077   -0.590363   -0.023173
      8          8           0        1.993009   -1.740162    0.115475
      9          1           0        0.988252    2.330760   -0.327565
     10          8           0        3.571292   -0.312624   -0.189002
     11          6           0       -0.582360   -0.912172    0.068693
     12          6           0       -1.958183   -0.839468   -0.020140
     13          1           0       -0.117522   -1.749510    0.125007
     14          6           0       -2.573351    0.416327   -0.116724
     15          1           0       -3.561594    0.450110   -0.237783
     16          6           0       -2.787455   -2.085346   -0.010858
     17          1           0       -2.974709   -2.294495    0.899653
     18          1           0       -2.268394   -2.976048   -0.148292
     19          1           0       -3.495409   -2.025581   -0.643874
 ---------------------------------------------------------------------
 Rotational constants (GHZ):      1.5188375      0.7271059      0.4945691
 Leave Link  202 at Fri Aug 27 11:51:28 2021, MaxMem= 24159191040 cpu:         0.3
 (Enter /public/home/users/caep010/software/Gaussian09/g09/l301.exe)
 Standard basis: GTBas3 (6D, 7F)
 Ernie: Thresh=  0.10000D-02 Tol=  0.10000D-05 Strict=F.
 There are   407 symmetry adapted cartesian basis functions of A   symmetry.
 There are   371 symmetry adapted basis functions of A   symmetry.
   371 basis functions,   577 primitive gaussians,   407 cartesian basis functions
    44 alpha electrons       44 beta electrons
       nuclear repulsion energy       707.8609913930 Hartrees.
 IExCor=  402 DFT=T Ex+Corr=B3LYP ExCW=0 ScaHFX=  0.200000
 ScaDFX=  0.800000  0.720000  1.000000  0.810000 ScalE2=  1.000000  1.000000
 IRadAn=      0 IRanWt=     -1 IRanGd=            0 ICorTp=0 IEmpDi=  4
 NAtoms=   19 NActive=   19 NUniq=   19 SFac= 1.00D+00 NAtFMM=   60 NAOKFM=F Big=F
 Integral buffers will be    131072 words long.
 Raffenetti 2 integral format.
 Two-electron integral symmetry is turned on.
 Leave Link  301 at Fri Aug 27 11:51:28 2021, MaxMem= 24159191040 cpu:         1.7
 (Enter /public/home/users/caep010/software/Gaussian09/g09/l302.exe)
 NPDir=0 NMtPBC=     1 NCelOv=     1 NCel=       1 NClECP=     1 NCelD=      1
         NCelK=      1 NCelE2=     1 NClLst=     1 CellRange=     0.0.
 One-electron integrals computed using PRISM.
 NBasis=   371 RedAO= T EigKep=  1.20D-04  NBF=   371
 NBsUse=   371 1.00D-06 EigRej= -1.00D+00 NBFU=   371
 Precomputing XC quadrature grid using
 IXCGrd= 4 IRadAn=           0 IRanWt=          -1 IRanGd=           0 AccXCQ= 0.00D+00.
 Generated NRdTot=       0 NPtTot=           0 NUsed=           0 NTot=          32
 NSgBfM=   406   406   406   406   406 MxSgAt=    19 MxSgA2=    19.
 Leave Link  302 at Fri Aug 27 11:51:28 2021, MaxMem= 24159191040 cpu:        17.3
 (Enter /public/home/users/caep010/software/Gaussian09/g09/l303.exe)
 DipDrv:  MaxL=1.
 Leave Link  303 at Fri Aug 27 11:51:29 2021, MaxMem= 24159191040 cpu:         1.0
 (Enter /public/home/users/caep010/software/Gaussian09/g09/l401.exe)
 Initial guess from the checkpoint file:  "/public/home/users/caep010/.cache/gau_scr/Gau-218569.chk"
 B after Tr=    -0.000000   -0.000000    0.000000
         Rot=    0.999952   -0.000401    0.000316    0.009814 Ang=  -1.13 deg.
 Guess basis will be translated and rotated to current coordinates.
 JPrj=2 DoOrth=T DoCkMO=T.
 Generating alternative initial guess.
 ExpMin= 1.61D-01 ExpMax= 5.48D+03 ExpMxC= 8.25D+02 IAcc=1 IRadAn=         1 AccDes= 0.00D+00
 Harris functional with IExCor=  402 and IRadAn=       1 diagonalized for initial guess.
 HarFok:  IExCor=  402 AccDes= 0.00D+00 IRadAn=         1 IDoV= 1 UseB2=F ITyADJ=14
 ICtDFT=  3500011 ScaDFX=  1.000000  1.000000  1.000000  1.000000
 FoFCou: FMM=F IPFlag=           0 FMFlag=      100000 FMFlg1=           0
[...]
 .04111822,-0.00871616,-0.02147916,-0.26412463,-0.00866046,-0.07083117,
 0.03667445,-0.05181041,-0.04686066,0.71571306,0.02168334,0.00992302,0.
 01624600,-0.05833488,-0.11142435,-0.08653821,-0.02052874,-0.00660594,-
 0.01370408,-0.13041005,0.44648946,0.01202840,0.00762648,0.01257556,-0.
 12557821,-0.07245694,-0.16335387,-0.01238395,-0.02257057,-0.02783487,0
 .02344002,0.31627493,0.48116133,0.00305070,-0.00117629,0.00043971,0.00
 259676,-0.02320943,-0.02582919,-0.00384534,0.00181667,-0.00042859,-0.0
 6487764,0.04032909,0.03617061,0.06447349,0.00072235,-0.00107805,0.0024
 0417,0.00074916,-0.00482678,-0.00894551,-0.00051327,0.00389993,-0.0010
 5999,0.03314465,-0.18362515,-0.15364430,-0.03563380,0.18674977,0.00253
 201,0.00186580,-0.00029964,0.00057453,-0.01573723,-0.01369722,-0.00299
 677,-0.00039896,0.00344063,0.02825322,-0.15160754,-0.19475690,-0.02792
 194,0.16877979,0.20252592,0.00949274,-0.00006094,0.00266629,-0.0185970
 6,-0.02778190,-0.03854250,-0.31792537,0.00960640,-0.06426933,-0.005622
 13,0.00346274,0.00146469,-0.00067501,0.00015595,-0.00005701,0.52616550
 ,-0.01354522,-0.01231900,-0.01724877,-0.03441224,-0.01447556,-0.036039
 11,-0.00927014,-0.08530083,-0.03734174,0.00481295,0.00057594,-0.000949
 00,-0.00092268,-0.00009374,-0.00051110,0.03297809,0.23325786,-0.012191
 89,-0.01342199,-0.01840485,-0.04585171,-0.03416075,-0.04126071,-0.0850
 6671,-0.03199181,-0.11315742,0.00295182,-0.00133209,0.00204469,-0.0012
 4564,-0.00020531,-0.00044673,0.16976947,0.20533988,0.32977028,0.005639
 40,0.00744435,0.00944180,-0.00892133,0.00209686,-0.00160314,-0.0217124
 4,-0.03512139,-0.04052708,0.00180031,-0.00007979,-0.00048189,-0.000211
 69,-0.00008275,-0.00030825,-0.11613197,0.02021378,0.00872357,0.9362210
 1,-0.00390170,0.00034338,-0.00213492,0.01004738,0.00705171,0.00522996,
 -0.03389733,-0.01076098,-0.00463804,0.00291360,-0.00045758,-0.00319367
 ,0.00024589,0.00043960,-0.00005646,0.00243047,-0.11311653,-0.04865473,
 -0.13328031,0.45034389,-0.00306202,0.00108014,0.00160298,0.00715469,0.
 00297602,0.01019642,-0.03917538,-0.00498290,-0.03186659,0.00281808,-0.
 00404225,-0.00046601,0.00005387,-0.00014966,0.00040427,-0.01087087,-0.
 04361481,-0.11946964,0.04506675,0.17286543,0.46241533,0.00020980,-0.00
 067584,-0.00050593,0.00171684,0.00182065,0.00263227,-0.01048738,-0.000
 10578,-0.00306199,0.00148971,-0.00103758,-0.00064417,0.00012744,0.0000
 2850,0.00007689,0.02010802,0.02227272,0.02308842,-0.30174975,0.1347379
 2,0.08784967,0.38992943,-0.00278382,-0.00228670,-0.00261395,-0.0007392
 4,-0.00331469,-0.00332004,0.01578636,0.00155138,0.00628805,0.00049120,
 0.00054302,0.00103730,-0.00010006,-0.00001585,-0.00000941,0.02023483,-
 0.02976938,-0.05487416,0.15006661,-0.21963888,-0.10258702,-0.20664958,
 0.22877319,-0.00282916,-0.00201525,-0.00365524,-0.00018825,-0.00259379
 ,-0.00340387,0.01444879,0.00178250,0.00596565,0.00104008,0.00060388,0.
 00068847,-0.00006476,0.00002703,-0.00002159,0.02084104,-0.05429787,-0.
 02868264,0.10474214,-0.10693169,-0.17606040,-0.12593323,0.15942313,0.1
 7088631,-0.15205929,-0.05923944,-0.10500903,-0.05780595,-0.01184904,-0
 .02963919,0.00008914,0.00506616,0.00465027,-0.00548963,0.00328210,0.00
 239848,-0.00024951,-0.00004320,0.00003794,-0.01236088,0.00037554,-0.00
 163628,0.00243207,-0.00064932,0.00107221,-0.00022948,-0.00009048,-0.00
 055136,0.22911610,-0.08599762,-0.09426154,-0.11495977,0.01130271,0.011
 11929,0.01476193,0.01955159,0.00333719,0.00550584,0.00122217,-0.003877
 96,-0.00260961,-0.00041228,-0.00042680,0.00002088,0.00009813,0.0003726
 1,0.00608980,-0.00915158,-0.00296977,-0.00159905,-0.00063341,0.0047248
 5,0.00352379,0.06466220,0.08081516,-0.13451951,-0.10737265,-0.16866462
 ,-0.00410823,0.00819201,0.00850739,0.02061633,0.00140026,0.01075609,0.
 00013245,-0.00202669,-0.00339189,-0.00036885,0.00012524,-0.00051791,-0
 .00194450,0.00617454,0.00111881,-0.00829694,0.00081083,-0.00533386,-0.
 00114994,0.00367749,0.00509100,0.13176956,0.08990487,0.15243458,0.0023
 6299,-0.00095570,-0.00048538,-0.00382127,0.00167520,0.00085160,0.00974
 426,-0.00239264,-0.00213038,-0.00280960,-0.00005591,-0.00060128,-0.000
 19582,-0.00002463,-0.00002843,-0.04350895,-0.03070121,-0.05177068,-0.4
 9458863,0.00699073,-0.10648022,-0.09492785,0.03356032,0.00136062,-0.00
 176763,0.00048346,0.00007304,0.62868900,0.00043051,0.00014130,-0.00011
 630,-0.00252035,-0.00098327,-0.00145541,0.00386404,0.00202311,-0.00544
 081,0.00021155,-0.00036653,0.00065317,-0.00013106,-0.00013621,0.000023
 27,-0.04427881,0.00610787,-0.02761813,-0.00337375,-0.10919933,-0.02014
 218,0.05578170,0.01940056,0.00334141,0.00003746,0.00037441,0.00058191,
 -0.00722198,0.08245081,0.00104279,-0.00050917,0.00009161,-0.00377182,-
 0.00026616,-0.00167258,0.00476429,-0.00721379,0.00135513,-0.00030700,0
 .00057742,-0.00035553,-0.00014577,0.00005346,-0.00017342,-0.06673032,-
 0.02377046,-0.02532627,-0.11790211,-0.01720343,-0.14416551,0.02584621,
 -0.00295759,0.03478637,-0.00041901,0.00070838,0.00051782,0.16039645,0.
 05045926,0.13586687,0.01041632,-0.00289475,-0.00178460,0.02260868,0.04
 258144,0.05235003,-0.22425686,0.05225472,0.01261907,-0.05258896,0.0020
 8147,-0.01184024,-0.00052949,0.00022610,0.00027127,-0.04884477,0.00832
 330,-0.00844537,0.00386208,0.01209346,0.01452511,-0.00532972,-0.004331
 47,-0.00656758,-0.00280467,-0.00674972,-0.00825745,-0.00500654,-0.0017
 2282,-0.00308363,0.63467970,-0.00181483,0.00181156,-0.00453162,0.02330
 774,-0.01995579,-0.01922454,0.07206236,-0.12197821,-0.04168798,0.00442
 728,-0.00239363,0.00161948,-0.00019271,-0.00012711,0.00047342,0.003349
 36,0.01658344,0.00455399,-0.00016066,-0.00065396,-0.00036175,0.0009462
 8,0.00102892,0.00029225,-0.00068987,0.00022817,-0.00003975,0.00004936,
 -0.00057616,0.00028910,-0.04570087,0.40842054,-0.00059421,-0.00483877,
 -0.00004184,0.03110450,-0.01376152,-0.00286803,0.03444485,-0.04730082,
 -0.10797564,-0.00925188,0.00095387,-0.00429532,-0.00019058,0.00059210,
 -0.00000760,-0.01392376,0.00596383,0.01593692,0.00102143,0.00311113,0.
 00335112,-0.00075258,-0.00120317,-0.00053228,-0.00157950,-0.00175648,-
 0.00229756,-0.00112990,-0.00021330,-0.00138112,0.09517151,0.30352734,0
 .48269778,-0.00481308,0.00073939,-0.00033602,-0.00694113,-0.01467914,-
 0.01663610,-0.05954699,0.01354350,-0.00128907,0.02054059,0.02131886,0.
 02784554,-0.00472596,0.00293300,-0.00046463,0.01015690,0.00588670,0.00
 726537,-0.00163248,-0.00546259,-0.00648050,-0.00059343,0.00090733,0.00
 063772,0.00046339,0.00212362,0.00250281,0.00328177,0.00051322,0.001757
 73,-0.27871546,-0.06044552,-0.12815531,0.64518179,-0.00468958,0.000420
 27,-0.00004002,-0.01979163,-0.02224968,-0.02425759,-0.00745492,0.02644
 145,0.02960471,0.05048028,-0.01696172,-0.01010243,0.00259019,0.0044487
 9,-0.00353178,0.00997546,0.00117708,-0.00404468,0.00042051,-0.00530127
 ,-0.00571454,-0.00372389,0.00127832,-0.00040017,0.00091509,0.00264135,
 0.00329255,0.00037898,0.00050645,0.00168421,-0.02305636,-0.10571889,-0
 .05516860,-0.04392874,0.39163681,-0.00631641,0.00149724,-0.00089015,-0
 .02226976,-0.02280734,-0.03677707,-0.02443537,0.03555493,0.02991939,0.
 05998526,-0.01836654,0.00195047,-0.00084342,-0.00343412,0.00429530,0.0
 1177226,-0.00520324,0.00501653,0.00000176,-0.00738382,-0.00814305,-0.0
 0446583,0.00091288,0.00042471,0.00117081,0.00363506,0.00422619,0.00161
 045,0.00172271,0.00143008,-0.08694943,-0.06576541,-0.15871068,0.083015
 96,0.21908084,0.44649224,-0.00075187,0.00107288,0.00110255,-0.00534412
 ,0.00309659,-0.00001113,0.00727457,0.01915722,0.02267980,-0.00185922,0
 .00016062,-0.00020895,0.00006395,-0.00011014,0.00015482,-0.00151523,-0
 .00376168,-0.00376308,-0.00564954,0.00695696,0.00633452,0.00036757,-0.
 00520545,-0.00555529,0.00050055,0.00057163,0.00074500,0.00222458,-0.00
 127311,-0.00105735,-0.05167461,0.00793310,0.00393801,0.00310045,-0.016
 26885,-0.01810308,0.05547823,-0.00022742,-0.00048875,-0.00008400,0.002
 82519,0.00309592,-0.00321010,0.00057149,-0.00621262,-0.00859981,0.0005
 2368,0.00008541,0.00079083,-0.00013200,-0.00052385,0.00038844,-0.00149
 021,-0.00175597,0.00079770,0.00036883,0.00002706,0.00118566,-0.0039245
 9,-0.00174877,-0.00274253,-0.00010559,0.00000193,-0.00013295,0.0002968
 8,0.00047616,-0.00050085,0.00996866,-0.18256565,-0.16009456,0.00096459
 ,-0.00025651,-0.00410681,-0.00970562,0.18678673,-0.00033030,0.00028472
 ,-0.00025107,-0.00031033,-0.00313425,0.00319395,0.00219788,-0.00333160
 ,-0.00130984,0.00019210,0.00068785,0.00031500,0.00013070,0.00039474,-0
 .00043836,-0.00126036,0.00015404,-0.00305041,-0.00092409,0.00305224,0.
 00214713,-0.00414374,-0.00310561,-0.00486478,-0.00000154,0.00005904,0.
 00016000,0.00067199,-0.00094555,0.00015554,0.00618107,-0.16067041,-0.2
 1002974,0.00089030,-0.00899333,-0.00594100,-0.00201366,0.17570421,0.21
 790047,-0.00384586,-0.00022381,-0.00233697,-0.06968505,-0.01318394,-0.
 03614617,-0.01310564,0.02394072,0.02354149,-0.32177581,0.12926814,0.06
 608614,0.00420177,-0.00069352,-0.00069847,-0.00001197,-0.00273013,-0.0
 0273556,0.00012558,0.00006212,0.00033618,-0.00089341,-0.00073435,-0.00
 102871,0.00012946,0.00233297,0.00219933,0.00049550,-0.00011018,-0.0000
 6613,0.03049471,-0.02205847,-0.01849781,-0.11663197,-0.00968033,-0.025
 10324,-0.00348742,0.00006784,-0.00280830,0.74561263,0.00492985,-0.0015
 7844,-0.00423075,0.01340962,0.03264678,0.03252637,0.02007944,-0.024030
 93,-0.01740105,0.09257483,-0.13680727,-0.06687381,0.01703179,-0.002277
 42,-0.00205634,-0.00799416,-0.00081579,-0.00209208,0.00032067,0.003995
 63,0.00539823,0.00161965,-0.00058563,-0.00005670,-0.00174590,-0.001677
 35,-0.00393108,-0.00197200,-0.00035880,-0.00128549,-0.04113651,-0.0008
 6509,-0.02361767,0.02900623,-0.16692457,-0.10332235,-0.00052588,0.0042
 8972,-0.00278479,-0.07568231,0.36492971,0.00334317,-0.00568980,-0.0017
 9634,-0.00683801,0.02498851,0.03218357,0.01928789,-0.01630732,-0.01558
 367,0.02564788,-0.05647377,-0.10728338,0.01883567,-0.00708058,0.001504
 88,-0.00853824,-0.00059978,-0.00405516,0.00062176,0.00532560,0.0052246
 2,0.00156500,-0.00072401,-0.00047210,-0.00229579,-0.00277639,-0.002268
 36,-0.00211829,-0.00075791,-0.00113501,-0.03952502,-0.01821118,-0.0212
 8346,0.01753411,-0.11428584,-0.18668598,-0.00346220,-0.00261734,0.0028
 1778,0.09653182,0.25867523,0.42315635,-0.00104758,-0.00058526,-0.00135
 588,-0.00190137,0.00436628,0.00221571,-0.00016140,0.00028792,0.0005142
 7,-0.01854181,-0.01005099,-0.01574348,0.00061710,-0.00066260,0.0006039
 7,0.00019298,-0.00011480,0.00001285,0.00006188,-0.00007159,-0.00001120
 ,-0.00002230,-0.00004028,-0.00001133,-0.00018493,0.00046701,0.00038905
 ,0.00000320,0.00001389,-0.00002912,0.00131565,0.00131095,0.00049166,0.
 00471023,0.00126312,0.00249751,0.00032814,0.00013509,0.00003572,-0.245
 48832,-0.05706972,-0.12452422,0.25912769,0.00100080,0.00115028,-0.0000
 5722,0.00368682,0.00270537,-0.00397351,0.00043545,-0.00112855,-0.00017
 637,0.01121519,0.00405626,0.00993664,-0.00093939,-0.00187380,0.0021770
 5,-0.00005603,0.00007101,0.00039131,0.00018402,-0.00030957,-0.00009393
 ,-0.00034282,0.00001358,0.00007089,0.00018655,-0.00010758,-0.00035114,
 -0.00008955,0.00013078,-0.00005754,0.00192319,-0.00038987,-0.00504077,
 -0.01854639,-0.00245763,-0.00886017,-0.00073418,0.00040578,-0.00056178
 ,-0.05861233,-0.06187815,-0.05393378,0.06127010,0.06027526,0.00039197,
 -0.00050674,0.00101257,0.00146724,-0.00378056,0.00350891,0.00067718,-0
 .00021863,-0.00090550,0.00769106,0.00390955,0.00441224,0.00029916,0.00
 225568,-0.00152040,0.00007766,0.00037472,0.00013640,0.00027054,-0.0001
 6660,-0.00028382,-0.00034489,0.00015666,-0.00006399,0.00007997,-0.0002
 7165,-0.00001777,-0.00014310,-0.00002816,0.00008833,0.00116567,-0.0052
 1483,-0.00073728,-0.01933207,-0.00324644,-0.00824436,-0.00092226,-0.00
 031521,0.00011786,-0.12622270,-0.05349588,-0.12273596,0.13446239,0.058
 53475,0.12552915,-0.00096491,0.00048540,0.00042423,-0.00139197,-0.0000
 8627,-0.00025071,0.00017442,-0.00041750,-0.00357026,0.00366159,-0.0021
 7135,-0.00260656,0.00060543,-0.00032655,-0.00011019,-0.00016735,0.0004
 2353,0.00095097,0.00023452,0.00007514,0.00002037,0.00010267,-0.0000516
 1,-0.00005509,0.00009822,0.00009843,0.00013760,0.00003842,-0.00005448,
 -0.00004905,-0.03055298,0.01282688,0.00319680,-0.17862763,0.04611851,0
 .02102598,0.00133130,-0.00004161,0.00190028,-0.00313881,0.00742712,0.0
 0612397,0.00050948,-0.00100155,-0.00046671,0.49443845,-0.00024643,-0.0
 0002034,0.00054247,0.00026097,-0.00030874,0.00065977,-0.00004429,0.004
 81457,-0.00698845,-0.00105880,0.00009091,-0.00507722,0.00071490,-0.000
 36824,0.00010302,-0.00085182,-0.00062557,0.00113654,0.00018706,0.00064
 604,0.00026352,0.00007754,-0.00015745,-0.00025769,0.00003622,-0.000078
 76,-0.00007076,-0.00007790,-0.00010405,-0.00013622,-0.00364987,0.00847
 434,-0.00053222,0.05179857,-0.10414668,-0.01906835,-0.00216420,-0.0024
 3367,0.00280667,0.02357193,-0.00919222,-0.00800647,-0.00005832,-0.0000
 2091,0.00188679,0.02839659,0.54482971,-0.00038703,0.00075168,0.0001438
 1,0.00013131,0.00056197,-0.00018401,-0.00314251,-0.00709407,0.00242606
 ,-0.00137866,-0.00539902,-0.00191141,0.00103905,-0.00019239,-0.0001957
 5,-0.00045660,0.00149550,-0.00035547,0.00014404,0.00023486,0.00075442,
 0.00008852,-0.00029535,-0.00020438,0.00007011,-0.00005230,-0.00004331,
 -0.00007534,-0.00013017,-0.00016535,-0.01496366,0.00414108,0.00833021,
 0.02732367,-0.02069760,-0.08856640,-0.00044112,0.00340421,-0.00190399,
 0.02391311,-0.01258397,-0.00294060,0.00057526,0.00162153,0.00020003,0.
 02003271,0.02154589,0.56175672,-0.00033835,0.00014649,0.00023316,0.000
 55607,0.00005270,0.00039810,0.00013417,0.00079981,-0.00188294,-0.00072
 786,0.00064766,-0.00077242,-0.00003269,-0.00006364,0.00007657,-0.00042
 140,-0.00003891,0.00029000,0.00024577,0.00026642,0.00028231,-0.0000446
 4,-0.00007431,-0.00014356,0.00005050,-0.00004878,-0.00000162,-0.000161
 05,-0.00005165,-0.00012223,-0.00214683,0.00222769,0.00165307,-0.023082
 64,-0.01877664,0.00727537,-0.00008981,-0.00047687,0.00068459,0.0014556
 9,-0.00048471,-0.00185707,0.00013712,-0.00016186,0.00076264,-0.1592739
 9,-0.12328570,0.04784840,0.17749363,0.00038668,-0.00019115,-0.00003296
 ,0.00027985,0.00032465,0.00019931,0.00000328,-0.00062103,0.00075862,-0
 .00082618,0.00036794,0.00047835,-0.00003663,0.00005559,-0.00005166,0.0
 0004003,0.00008343,-0.00015291,-0.00000960,-0.00010469,-0.00006189,-0.
 00004308,0.00008308,0.00004220,-0.00005244,-0.00009629,-0.00010023,-0.
 00001533,0.00002218,0.00002852,0.00101636,-0.00074417,-0.00020941,0.01
 103560,0.01199049,-0.00446916,0.00017972,0.00019752,-0.00000476,0.0007
 0357,-0.00026434,-0.00051951,-0.00025771,-0.00002972,0.00004862,-0.122
 04893,-0.17337239,0.04634436,0.13247090,0.18744420,0.00035629,-0.00022
 955,-0.00005006,-0.00001942,0.00018781,0.00003448,-0.00029397,0.000245
 69,0.00009083,-0.00051663,0.00012590,0.00022159,-0.00000203,0.00002361
 ,-0.00002463,-0.00006977,-0.00001892,-0.00002822,-0.00005012,-0.000033
 59,-0.00004781,0.00000036,0.00004776,0.00000977,-0.00005978,-0.0000617
 2,-0.00008585,0.00000921,0.00001162,0.00002283,-0.00011411,-0.00015255
 ,-0.00042434,0.00293571,0.00485272,-0.00214245,0.00003212,-0.00010036,
 0.00028784,0.00082084,-0.00090600,0.00057475,0.00000983,-0.00017614,-0
 .00041154,0.04833339,0.04661593,-0.06315054,-0.05231365,-0.05269004,0.
 06465269,-0.00018158,-0.00005508,-0.00011358,0.00021788,-0.00015126,-0
 .00010386,0.00035001,-0.00000678,0.00013968,0.00053750,0.00107183,0.00
 116093,-0.00041214,0.00010849,0.00006525,-0.00003562,-0.00019946,-0.00
 021814,-0.00022125,0.00026000,0.00021954,0.00026710,-0.00012133,-0.000
 03945,0.00001861,0.00008542,0.00010239,0.00009569,-0.00004479,-0.00002
 425,0.00145175,0.00070223,0.00128380,0.00276627,0.02041315,0.02377697,
 -0.00049845,-0.00036434,-0.00064924,-0.00552435,0.00193131,0.00009400,
 -0.00003850,0.00005590,0.00013951,-0.05083417,-0.02044213,-0.02371255,
 -0.00199544,-0.01252735,-0.01702334,0.05586341,0.00017554,0.00001978,0
 .00006693,-0.00004319,0.00025985,0.00027647,-0.00025242,-0.00007813,0.
 00003222,-0.00042212,-0.00006473,-0.00085259,0.00016938,-0.00017600,0.
 00009652,0.00016142,0.00014769,0.00025307,0.00006649,-0.00025784,-0.00
 028138,-0.00015753,0.00008409,0.00012032,-0.00002479,-0.00006639,-0.00
 006895,0.00001525,0.00005540,0.00005737,-0.00158794,0.00030403,0.00027
 540,-0.00217614,-0.01003866,-0.00992407,0.00056326,0.00054705,0.000345
 44,0.00296851,0.00040193,-0.00053594,-0.00007481,-0.00004149,0.0002756
 5,-0.01671121,-0.16278005,-0.13283934,-0.00153348,-0.01381852,-0.01683
 894,0.01750743,0.17397108,0.00014191,0.00000137,0.00004540,0.00001544,
 0.00024686,0.00027456,-0.00013126,0.00010028,-0.00009579,-0.00048657,-
 0.00042800,-0.00000900,0.00013192,0.00007933,-0.00009502,0.00017961,0.
 00015137,0.00017696,0.00000659,-0.00022742,-0.00023403,-0.00007977,0.0
 0013093,0.00005623,-0.00001932,-0.00003795,-0.00005750,0.00004180,0.00
 004057,0.00006376,-0.00123778,0.00092235,0.00031566,-0.00116622,-0.003
 49354,-0.00579268,0.00037430,0.00008436,0.00057386,0.00123716,-0.00082
 886,0.00108544,-0.00000542,0.00031242,0.00003185,-0.01959228,-0.133908
 14,-0.20011826,0.00058997,0.00697519,0.00768689,0.02233334,0.14703550,
 0.21393125,-0.00029343,0.00028807,0.00007186,0.00048451,0.00019321,0.0
 0015681,-0.00069063,-0.00193175,0.00070249,-0.00088170,-0.00063655,0.0
 0026634,0.00001863,0.00008589,-0.00006079,-0.00029843,0.00040984,-0.00
 012740,0.00019648,0.00018274,0.00034689,-0.00004061,-0.00012467,-0.000
 10262,0.00005395,-0.00000592,-0.00002054,-0.00014810,-0.00006939,-0.00
 009969,-0.00237800,0.00191968,0.00176991,-0.01489062,0.01481565,-0.023
 64580,0.00020092,0.00074599,-0.00044309,0.00107328,-0.00171933,-0.0004
 2641,0.00038273,0.00052608,-0.00005327,-0.07624270,0.04683568,-0.07660
 870,0.00824176,-0.01029874,0.01796508,-0.00182670,0.00135634,-0.002333
 42,0.08703867,0.00042399,-0.00020296,-0.00015146,-0.00023459,-0.000039
 75,0.00008568,-0.00017100,0.00061305,0.00004229,-0.00011320,0.00045289
 ,-0.00008703,-0.00001157,-0.00004468,0.00003229,0.00002101,-0.00010456
 ,-0.00001365,-0.00010935,-0.00007690,-0.00013765,0.00000915,0.00003635
 ,0.00006830,-0.00007126,-0.00005251,-0.00006550,0.00005666,0.00003530,
 0.00004300,0.00036162,-0.00088247,-0.00068636,0.00446790,-0.00648540,0
 .01030772,0.00005712,0.00007254,0.00004315,0.00079357,0.00099224,-0.00
 046971,-0.00012829,-0.00057103,-0.00019775,0.04705943,-0.10524651,0.09
 918312,0.00838489,-0.01132679,0.01909676,-0.00822324,0.01153092,-0.017
 15659,-0.05257284,0.11130027,0.00036406,-0.00006210,-0.00008527,0.0003
 5390,0.00015278,0.00047326,0.00016398,0.00028472,-0.00031782,-0.001040
 24,0.00053879,0.00028881,-0.00005991,-0.00002328,0.00002415,-0.0001077
 8,-0.00005908,0.00003692,0.00005324,-0.00000568,-0.00002556,-0.0000653
 0,0.00001613,0.00005276,-0.00003857,-0.00008467,-0.00013326,-0.0000521
 4,0.00001400,-0.00000356,0.00048513,0.00004100,-0.00004680,0.00215100,
 -0.00453847,0.00813889,0.00017702,0.00014911,0.00011977,0.00097798,-0.
 00113300,-0.00030736,-0.00012757,0.00023777,-0.00011672,-0.07544545,0.
 09848491,-0.21387179,-0.00300071,0.00341738,-0.00721622,-0.00743098,0.
 01250632,-0.01783958,0.08264235,-0.10993662,0.23082938\\-0.00000736,-0
 .00001175,-0.00000531,-0.00001916,0.00000361,-0.00000424,0.00001165,0.
 00001138,0.00000399,-0.00000827,0.00001727,0.00002046,0.00000503,-0.00
 001918,-0.00001849,-0.00000543,-0.00000827,-0.00000435,-0.00000066,-0.
 00000378,0.00000307,-0.00000269,0.00000767,0.00000591,0.00002887,0.000
 00566,0.00000291,-0.00000239,0.00000331,0.00000118,-0.00000330,-0.0000
 1418,-0.00001526,0.00000009,-0.00000051,0.00000065,-0.00000121,0.00001
 390,0.00001686,0.00002874,0.00000218,0.00001223,-0.00002106,-0.0000074
 1,-0.00001633,0.00000034,0.00008026,-0.00011069,-0.00003773,-0.0000396
 7,0.00001921,-0.00000064,0.00000514,0.00001040,0.00003517,-0.00004562,
 0.00007783\\\@
 Job cpu time:       0 days 18 hours 26 minutes 36.9 seconds.
 File lengths (MBytes):  RWF=  92968 Int=      0 D2E=      0 Chk=    106 Scr=      1
 Normal termination of Gaussian 09 at Fri Aug 27 17:37:17 2021.
