 Entering Gaussian System, Link 0=g09
 Input=G4.INEZUY.gjf
 Output=G4.INEZUY.log
 Initial command:
 /public/home/users/caep010/software/Gaussian09/g09/l1.exe "/public/home/users/caep010/.cache/gau_scr/Gau-137535.inp" -scrdir="/public/home/users/caep010/.cache/gau_scr/"
 Entering Link 1 = /public/home/users/caep010/software/Gaussian09/g09/l1.exe PID=    137536.
  
 Copyright (c) 1988,1990,1992,1993,1995,1998,2003,2009,2015,
            Gaussian, Inc.  All Rights Reserved.
  
 This is part of the Gaussian(R) 09 program.  It is based on
 the Gaussian(R) 03 system (copyright 2003, Gaussian, Inc.),
 the Gaussian(R) 98 system (copyright 1998, Gaussian, Inc.),
 the Gaussian(R) 94 system (copyright 1995, Gaussian, Inc.),
 the Gaussian 92(TM) system (copyright 1992, Gaussian, Inc.),
 the Gaussian 90(TM) system (copyright 1990, Gaussian, Inc.),
 the Gaussian 88(TM) system (copyright 1988, Gaussian, Inc.),
 the Gaussian 86(TM) system (copyright 1986, Carnegie Mellon
 University), and the Gaussian 82(TM) system (copyright 1983,
 Carnegie Mellon University). Gaussian is a federally registered
 trademark of Gaussian, Inc.
  
 This software contains proprietary and confidential information,
 including trade secrets, belonging to Gaussian, Inc.
  
 This software is provided under written license and may be
 used, copied, transmitted, or stored only in accord with that
 written license.
  
 The following legend is applicable only to US Government
 contracts under FAR:
  
                    RESTRICTED RIGHTS LEGEND
  
 Use, reproduction and disclosure by the US Government is
 subject to restrictions as set forth in subparagraphs (a)
 and (c) of the Commercial Computer Software - Restricted
 Rights clause in FAR 52.227-19.
  
 Gaussian, Inc.
 340 Quinnipiac St., Bldg. 40, Wallingford CT 06492
  
  
 ---------------------------------------------------------------
 Warning -- This program may not be used in any manner that
 competes with the business of Gaussian, Inc. or will provide
 assistance to any competitor of Gaussian, Inc.  The licensee
 of this program is prohibited from giving any competitor of
 Gaussian, Inc. access to this program.  By using this program,
 the user acknowledges that Gaussian, Inc. is engaged in the
 business of creating and licensing software in the field of
 computational chemistry and represents and warrants to the
 licensee that it is not a competitor of Gaussian, Inc. and that
 it will not use this program in any manner prohibited above.
 ---------------------------------------------------------------
  

 Cite this work as:
 Gaussian 09, Revision E.01,
 M. J. Frisch, G. W. Trucks, H. B. Schlegel, G. E. Scuseria, 
 M. A. Robb, J. R. Cheeseman, G. Scalmani, V. Barone, B. Mennucci, 
 G. A. Petersson, H. Nakatsuji, M. Caricato, X. Li, H. P. Hratchian, 
 A. F. Izmaylov, J. Bloino, G. Zheng, J. L. Sonnenberg, M. Hada, 
 M. Ehara, K. Toyota, R. Fukuda, J. Hasegawa, M. Ishida, T. Nakajima, 
 Y. Honda, O. Kitao, H. Nakai, T. Vreven, J. A. Montgomery, Jr., 
 J. E. Peralta, F. Ogliaro, M. Bearpark, J. J. Heyd, E. Brothers, 
 K. N. Kudin, V. N. Staroverov, T. Keith, R. Kobayashi, J. Normand, 
 K. Raghavachari, A. Rendell, J. C. Burant, S. S. Iyengar, J. Tomasi, 
 M. Cossi, N. Rega, J. M. Millam, M. Klene, J. E. Knox, J. B. Cross, 
 V. Bakken, C. Adamo, J. Jaramillo, R. Gomperts, R. E. Stratmann, 
 O. Yazyev, A. J. Austin, R. Cammi, C. Pomelli, J. W. Ochterski, 
 R. L. Martin, K. Morokuma, V. G. Zakrzewski, G. A. Voth, 
 P. Salvador, J. J. Dannenberg, S. Dapprich, A. D. Daniels, 
 O. Farkas, J. B. Foresman, J. V. Ortiz, J. Cioslowski, 
 and D. J. Fox, Gaussian, Inc., Wallingford CT, 2013.
 
 ******************************************
 Gaussian 09:  ES64L-G09RevE.01 30-Nov-2015
                27-Aug-2021 
 ******************************************
 %nproc=32
 Will use up to   32 processors via shared memory.
 %mem=180GB
 ----------------
 #P G4 OPT=calcfc
 ----------------
 1/10=4,14=-1,18=20,19=15,26=3,38=1/1,3;
 2/9=110,12=2,17=6,18=5,40=1/2;
 3/5=35,7=104,11=2,16=1,25=1,30=1,71=2,74=-5,140=1/1,2,3;
 4//1;
 5/5=2,38=5/2;
 8/6=4,10=90,11=11/1;
 11/6=1,8=1,9=11,15=111,16=1/1,2,10;
 10/6=1,13=1/2;
 6/7=2,8=2,9=2,10=2,28=1/1;
 7/10=1,18=20,25=1/1,2,3,16;
 1/10=4,14=-1,18=20,19=15,26=3/3(2);
 2/9=110/2;
 99//99;
 2/9=110/2;
 3/5=35,7=104,11=2,16=1,25=1,30=1,71=1,74=-5/1,2,3;
 4/5=5,16=3,69=1/1;
 5/5=2,38=5/2;
 7//1,2,3,16;
 1/14=-1,18=20,19=15,26=3/3(-5);
 2/9=110/2;
 6/7=2,8=2,9=2,10=2,19=2,28=1/1;
 99/9=1/99;
 Leave Link    1 at Fri Aug 27 03:40:38 2021, MaxMem= 24159191040 cpu:         4.2
 (Enter /public/home/users/caep010/software/Gaussian09/g09/l101.exe)
 ------
 INEZUY
 ------
 Symbolic Z-matrix:
 Charge =  0 Multiplicity = 1
 N                     0.6429    10.6231  -0.6772 
 C                     0.544     11.969   -0.8181 
 C                     0.1167    12.4592   0.4079 
 N                    -0.1642    13.7789   0.7711 
 N                     0.2674    10.4198   0.5901 
 N                    -0.0486    11.4444   1.3035 
 N                     0.8206    12.5887  -1.9594 
 H                     1.2199    12.033   -2.491 
 O                     0.0397    14.6527  -0.0747 
 N                     0.3752    9.1526    1.1265 
 H                     0.1915    8.4428    0.6315 
 O                    -0.5976    14.0068   1.9225 
 H                     0.6596    13.4445  -1.9552 
 H                    -0.2447    9.0493    1.7333 
 
 NAtoms=     14 NQM=       14 NQMF=       0 NMMI=      0 NMMIF=      0
                NMic=       0 NMicF=      0.
                    Isotopes and Nuclear Properties:
 (Nuclear quadrupole moments (NQMom) in fm**2, nuclear magnetic moments (NMagM)
  in nuclear magnetons)

  Atom         1           2           3           4           5           6           7           8           9          10
 IAtWgt=          14          12          12          14          14          14          14           1          16          14
 AtmWgt=  14.0030740  12.0000000  12.0000000  14.0030740  14.0030740  14.0030740  14.0030740   1.0078250  15.9949146  14.0030740
 NucSpn=           2           0           0           2           2           2           2           1           0           2
 AtZEff=   0.0000000   0.0000000   0.0000000   0.0000000   0.0000000   0.0000000   0.0000000   0.0000000   0.0000000   0.0000000
 NQMom=    2.0440000   0.0000000   0.0000000   2.0440000   2.0440000   2.0440000   2.0440000   0.0000000   0.0000000   2.0440000
 NMagM=    0.4037610   0.0000000   0.0000000   0.4037610   0.4037610   0.4037610   0.4037610   2.7928460   0.0000000   0.4037610
 AtZNuc=   7.0000000   6.0000000   6.0000000   7.0000000   7.0000000   7.0000000   7.0000000   1.0000000   8.0000000   7.0000000

  Atom        11          12          13          14
 IAtWgt=           1          16           1           1
 AtmWgt=   1.0078250  15.9949146   1.0078250   1.0078250
 NucSpn=           1           0           1           1
 AtZEff=   0.0000000   0.0000000   0.0000000   0.0000000
 NQMom=    0.0000000   0.0000000   0.0000000   0.0000000
 NMagM=    2.7928460   0.0000000   2.7928460   2.7928460
 AtZNuc=   1.0000000   8.0000000   1.0000000   1.0000000
 Leave Link  101 at Fri Aug 27 03:40:38 2021, MaxMem= 24159191040 cpu:        10.1
 (Enter /public/home/users/caep010/software/Gaussian09/g09/l103.exe)

 GradGradGradGradGradGradGradGradGradGradGradGradGradGradGradGradGradGrad
 Berny optimization.
 Initialization pass.
                           ----------------------------
                           !    Initial Parameters    !
                           ! (Angstroms and Degrees)  !
 --------------------------                            --------------------------
 ! Name  Definition              Value          Derivative Info.                !
 --------------------------------------------------------------------------------
 ! R1    R(1,2)                  1.3569         calculate D2E/DX2 analytically  !
 ! R2    R(1,5)                  1.3373         calculate D2E/DX2 analytically  !
 ! R3    R(2,3)                  1.3878         calculate D2E/DX2 analytically  !
 ! R4    R(2,7)                  1.3278         calculate D2E/DX2 analytically  !
 ! R5    R(3,4)                  1.3973         calculate D2E/DX2 analytically  !
 ! R6    R(3,6)                  1.3635         calculate D2E/DX2 analytically  !
 ! R7    R(4,9)                  1.2331         calculate D2E/DX2 analytically  !
 ! R8    R(4,12)                 1.2512         calculate D2E/DX2 analytically  !
 ! R9    R(5,6)                  1.2879         calculate D2E/DX2 analytically  !
 ! R10   R(5,10)                 1.3803         calculate D2E/DX2 analytically  !
 ! R11   R(7,8)                  0.8665         calculate D2E/DX2 analytically  !
 ! R12   R(7,13)                 0.8708         calculate D2E/DX2 analytically  !
 ! R13   R(10,11)                0.8846         calculate D2E/DX2 analytically  !
 ! R14   R(10,14)                0.8736         calculate D2E/DX2 analytically  !
 ! A1    A(2,1,5)              103.2226         calculate D2E/DX2 analytically  !
 ! A2    A(1,2,3)              106.3244         calculate D2E/DX2 analytically  !
 ! A3    A(1,2,7)              122.4801         calculate D2E/DX2 analytically  !
 ! A4    A(3,2,7)              131.1942         calculate D2E/DX2 analytically  !
 ! A5    A(2,3,4)              128.6921         calculate D2E/DX2 analytically  !
 ! A6    A(2,3,6)              110.7745         calculate D2E/DX2 analytically  !
 ! A7    A(4,3,6)              120.5182         calculate D2E/DX2 analytically  !
 ! A8    A(3,4,9)              117.2418         calculate D2E/DX2 analytically  !
 ! A9    A(3,4,12)             118.7419         calculate D2E/DX2 analytically  !
 ! A10   A(9,4,12)             124.0157         calculate D2E/DX2 analytically  !
 ! A11   A(1,5,6)              118.2222         calculate D2E/DX2 analytically  !
 ! A12   A(1,5,10)             119.0725         calculate D2E/DX2 analytically  !
 ! A13   A(6,5,10)             122.2964         calculate D2E/DX2 analytically  !
 ! A14   A(3,6,5)              101.4503         calculate D2E/DX2 analytically  !
 ! A15   A(2,7,8)              108.9055         calculate D2E/DX2 analytically  !
 ! A16   A(2,7,13)             114.582          calculate D2E/DX2 analytically  !
 ! A17   A(8,7,13)             135.9225         calculate D2E/DX2 analytically  !
 ! A18   A(5,10,11)            120.1962         calculate D2E/DX2 analytically  !
 ! A19   A(5,10,14)            108.8493         calculate D2E/DX2 analytically  !
 ! A20   A(11,10,14)            98.4205         calculate D2E/DX2 analytically  !
 ! D1    D(5,1,2,3)              0.3663         calculate D2E/DX2 analytically  !
 ! D2    D(5,1,2,7)           -179.2638         calculate D2E/DX2 analytically  !
 ! D3    D(2,1,5,6)             -0.7883         calculate D2E/DX2 analytically  !
 ! D4    D(2,1,5,10)          -173.6203         calculate D2E/DX2 analytically  !
 ! D5    D(1,2,3,4)           -178.4832         calculate D2E/DX2 analytically  !
 ! D6    D(1,2,3,6)              0.0827         calculate D2E/DX2 analytically  !
 ! D7    D(7,2,3,4)              1.102          calculate D2E/DX2 analytically  !
 ! D8    D(7,2,3,6)            179.668          calculate D2E/DX2 analytically  !
 ! D9    D(1,2,7,8)            -12.2156         calculate D2E/DX2 analytically  !
 ! D10   D(1,2,7,13)           175.1634         calculate D2E/DX2 analytically  !
 ! D11   D(3,2,7,8)            168.2562         calculate D2E/DX2 analytically  !
 ! D12   D(3,2,7,13)            -4.3648         calculate D2E/DX2 analytically  !
 ! D13   D(2,3,4,9)             -3.4005         calculate D2E/DX2 analytically  !
 ! D14   D(2,3,4,12)           176.8858         calculate D2E/DX2 analytically  !
 ! D15   D(6,3,4,9)            178.156          calculate D2E/DX2 analytically  !
 ! D16   D(6,3,4,12)            -1.5577         calculate D2E/DX2 analytically  !
 ! D17   D(2,3,6,5)             -0.5063         calculate D2E/DX2 analytically  !
 ! D18   D(4,3,6,5)            178.1944         calculate D2E/DX2 analytically  !
 ! D19   D(1,5,6,3)              0.8178         calculate D2E/DX2 analytically  !
 ! D20   D(10,5,6,3)           173.405          calculate D2E/DX2 analytically  !
 ! D21   D(1,5,10,11)          -38.1105         calculate D2E/DX2 analytically  !
 ! D22   D(1,5,10,14)         -150.3012         calculate D2E/DX2 analytically  !
 ! D23   D(6,5,10,11)          149.363          calculate D2E/DX2 analytically  !
 ! D24   D(6,5,10,14)           37.1723         calculate D2E/DX2 analytically  !
 --------------------------------------------------------------------------------
 Trust Radius=3.00D-01 FncErr=1.00D-07 GrdErr=1.00D-06
 Number of steps in this run=     68 maximum allowed number of steps=    100.
 GradGradGradGradGradGradGradGradGradGradGradGradGradGradGradGradGradGrad

 Leave Link  103 at Fri Aug 27 03:40:39 2021, MaxMem= 24159191040 cpu:         0.5
 (Enter /public/home/users/caep010/software/Gaussian09/g09/l202.exe)
                          Input orientation:                          
 ---------------------------------------------------------------------
 Center     Atomic      Atomic             Coordinates (Angstroms)
 Number     Number       Type             X           Y           Z
 ---------------------------------------------------------------------
      1          7           0        0.642900   10.623100   -0.677200
      2          6           0        0.544000   11.969000   -0.818100
      3          6           0        0.116700   12.459200    0.407900
      4          7           0       -0.164200   13.778900    0.771100
      5          7           0        0.267400   10.419800    0.590100
      6          7           0       -0.048600   11.444400    1.303500
      7          7           0        0.820600   12.588700   -1.959400
      8          1           0        1.219900   12.033000   -2.491000
      9          8           0        0.039700   14.652700   -0.074700
     10          7           0        0.375200    9.152600    1.126500
     11          1           0        0.191500    8.442800    0.631500
     12          8           0       -0.597600   14.006800    1.922500
     13          1           0        0.659600   13.444500   -1.955200
     14          1           0       -0.244700    9.049300    1.733300
 ---------------------------------------------------------------------
                    Distance matrix (angstroms):
                    1          2          3          4          5
     1  N    0.000000
     2  C    1.356864   0.000000
     3  C    2.196723   1.387789   0.000000
     4  N    3.564836   2.510546   1.397293   0.000000
     5  N    1.337303   2.111766   2.053061   3.391547   0.000000
     6  N    2.252971   2.264413   1.363540   2.397228   1.287867
     7  N    2.353550   1.327818   2.473127   3.137202   3.392655
     8  H    2.368674   1.805417   3.130865   3.950341   3.605946
     9  O    4.118802   2.830054   2.247281   1.233077   4.290833
    10  N    2.342513   3.426671   3.393643   4.671179   1.380269
    11  H    2.582666   3.828797   4.023315   5.349764   1.978890
    12  O    4.443727   3.600940   2.280198   1.251198   3.923020
    13  H    3.097396   1.866403   2.617212   2.867609   3.972554
    14  H    3.012506   3.956809   3.676236   4.827155   1.856724
                    6          7          8          9         10
     6  N    0.000000
     7  N    3.565312   0.000000
     8  H    4.043980   0.866511   0.000000
     9  O    3.492910   2.902067   3.754225   0.000000
    10  N    2.337367   4.639821   4.700694   5.639729   0.000000
    11  H    3.085261   4.929200   4.867972   6.251769   0.884639
    12  O    2.692667   4.369376   5.165092   2.193660   5.014301
    13  H    3.888582   0.870823   1.610388   2.319548   5.291329
    14  H    2.441247   5.224773   5.375149   5.894730   0.873586
                   11         12         13         14
    11  H    0.000000
    12  O    5.766061   0.000000
    13  H    5.650410   4.115008   0.000000
    14  H    1.331193   4.973645   5.808664   0.000000
 Stoichiometry    C2H4N6O2
 Framework group  C1[X(C2H4N6O2)]
 Deg. of freedom    36
 Full point group                 C1      NOp   1
 Largest Abelian subgroup         C1      NOp   1
 Largest concise Abelian subgroup C1      NOp   1
                         Standard orientation:                         
 ---------------------------------------------------------------------
 Center     Atomic      Atomic             Coordinates (Angstroms)
 Number     Number       Type             X           Y           Z
 ---------------------------------------------------------------------
      1          7           0       -1.478666    1.013508    0.020306
      2          6           0       -0.126075    1.120469    0.008583
      3          6           0        0.367596   -0.176368   -0.012921
      4          7           0        1.697462   -0.605055   -0.002459
      5          7           0       -1.681046   -0.308376    0.013545
      6          7           0       -0.651815   -1.081924   -0.016562
      7          7           0        0.496636    2.293100    0.024904
      8          1           0       -0.081052    2.919951   -0.130584
      9          8           0        2.571090    0.264541   -0.034948
     10          7           0       -2.968809   -0.789097   -0.111819
     11          1           0       -3.639339   -0.375282    0.290341
     12          8           0        1.933418   -1.833282    0.033307
     13          1           0        1.364083    2.241861    0.081853
     14          1           0       -3.025225   -1.556299    0.302151
 ---------------------------------------------------------------------
 Rotational constants (GHZ):      2.4512809      1.1598772      0.7883750
 Leave Link  202 at Fri Aug 27 03:40:39 2021, MaxMem= 24159191040 cpu:         1.1
 (Enter /public/home/users/caep010/software/Gaussian09/g09/l301.exe)
 Standard basis: GTBas3 (6D, 7F)
 Ernie: Thresh=  0.10000D-02 Tol=  0.10000D-05 Strict=F.
 There are   330 symmetry adapted cartesian basis functions of A   symmetry.
 There are   300 symmetry adapted basis functions of A   symmetry.
   300 basis functions,   468 primitive gaussians,   330 cartesian basis functions
    37 alpha electrons       37 beta electrons
       nuclear repulsion energy       549.1637496177 Hartrees.
 IExCor=  402 DFT=T Ex+Corr=B3LYP ExCW=0 ScaHFX=  0.200000
 ScaDFX=  0.800000  0.720000  1.000000  0.810000 ScalE2=  1.000000  1.000000
 IRadAn=      0 IRanWt=     -1 IRanGd=            0 ICorTp=0 IEmpDi=  4
 NAtoms=   14 NActive=   14 NUniq=   14 SFac= 1.00D+00 NAtFMM=   60 NAOKFM=F Big=F
 Integral buffers will be    131072 words long.
 Raffenetti 2 integral format.
 Two-electron integral symmetry is turned on.
 Leave Link  301 at Fri Aug 27 03:40:39 2021, MaxMem= 24159191040 cpu:         4.4
 (Enter /public/home/users/caep010/software/Gaussian09/g09/l302.exe)
 NPDir=0 NMtPBC=     1 NCelOv=     1 NCel=       1 NClECP=     1 NCelD=      1
         NCelK=      1 NCelE2=     1 NClLst=     1 CellRange=     0.0.
 One-electron integrals computed using PRISM.
 NBasis=   300 RedAO= T EigKep=  1.04D-04  NBF=   300
 NBsUse=   300 1.00D-06 EigRej= -1.00D+00 NBFU=   300
 Precomputing XC quadrature grid using
 IXCGrd= 4 IRadAn=           0 IRanWt=          -1 IRanGd=           0 AccXCQ= 0.00D+00.
 Generated NRdTot=       0 NPtTot=           0 NUsed=           0 NTot=          32
 NSgBfM=   329   329   329   329   329 MxSgAt=    14 MxSgA2=    14.
 Leave Link  302 at Fri Aug 27 03:40:40 2021, MaxMem= 24159191040 cpu:        16.1
 (Enter /public/home/users/caep010/software/Gaussian09/g09/l303.exe)
 DipDrv:  MaxL=1.
 Leave Link  303 at Fri Aug 27 03:40:40 2021, MaxMem= 24159191040 cpu:         1.1
 (Enter /public/home/users/caep010/software/Gaussian09/g09/l401.exe)
 ExpMin= 1.61D-01 ExpMax= 5.48D+03 ExpMxC= 8.25D+02 IAcc=1 IRadAn=         1 AccDes= 0.00D+00
 Harris functional with IExCor=  402 and IRadAn=       1 diagonalized for initial guess.
 HarFok:  IExCor=  402 AccDes= 0.00D+00 IRadAn=         1 IDoV= 1 UseB2=F ITyADJ=14
 ICtDFT=  3500011 ScaDFX=  1.000000  1.000000  1.000000  1.000000
 FoFCou: FMM=F IPFlag=           0 FMFlag=      100000 FMFlg1=           0
         NFxFlg=           0 DoJE=T BraDBF=F KetDBF=T FulRan=T
         wScrn=  0.000000 ICntrl=     500 IOpCl=  0 I1Cent=   200000004 NGrid=           0
         NMat0=    1 NMatS0=      1 NMatT0=    0 NMatD0=    1 NMtDS0=    0 NMtDT0=    0
 Petite list used in FoFCou.
 Harris En= -557.360449505144    
 JPrj=0 DoOrth=F DoCkMO=F.
 Leave Link  401 at Fri Aug 27 03:40:40 2021, MaxMem= 24159191040 cpu:        15.4
 (Enter /public/home/users/caep010/software/Gaussian09/g09/l502.exe)
 Closed shell SCF:
 Using DIIS extrapolation, IDIIS=  1040.
 Integral symmetry usage will be decided dynamically.
 Keep R1 ints in memory in canonical form, NReq=1037774195.
 IVT=      358190 IEndB=      358190 NGot= 24159191040 MDV= 23139549026
 LenX= 23139549026 LenY= 23139439685
 Requested convergence on RMS density matrix=1.00D-08 within 128 cycles.
 Requested convergence on MAX density matrix=1.00D-06.
 Requested convergence on             energy=1.00D-06.
 No special actions if energy rises.
 FoFCou: FMM=F IPFlag=           0 FMFlag=           0 FMFlg1=           0
         NFxFlg=           0 DoJE=F BraDBF=F KetDBF=F FulRan=T
         wScrn=  0.000000 ICntrl=     600 IOpCl=  0 I1Cent=           0 NGrid=           0
         NMat0=    1 NMatS0=  45150 NMatT0=    0 NMatD0=    1 NMtDS0=    0 NMtDT0=    0
 Symmetry not used in FoFCou.
 Integral accuracy reduced to 1.0D-05 until final iterations.

 Cycle   1  Pass 0  IDiag  1:
 E= -556.997057230471    
 DIIS: error= 3.46D-02 at cycle   1 NSaved=   1.
 NSaved= 1 IEnMin= 1 EnMin= -556.997057230471     IErMin= 1 ErrMin= 3.46D-02
 ErrMax= 3.46D-02  0.00D+00 EMaxC= 1.00D-01 BMatC= 4.81D-01 BMatP= 4.81D-01
 IDIUse=3 WtCom= 6.54D-01 WtEn= 3.46D-01
 Coeff-Com:  0.100D+01
 Coeff-En:   0.100D+01
 Coeff:      0.100D+01
 Gap=     0.142 Goal=   None    Shift=    0.000
 GapD=    0.142 DampG=1.000 DampE=0.500 DampFc=0.5000 IDamp=-1.
 Damping current iteration by 5.00D-01
 RMSDP=4.57D-03 MaxDP=2.36D-01              OVMax= 3.05D-01

 Cycle   2  Pass 0  IDiag  1:
 E= -557.058231698351     Delta-E=       -0.061174467880 Rises=F Damp=T
 DIIS: error= 1.33D-02 at cycle   2 NSaved=   2.
 NSaved= 2 IEnMin= 2 EnMin= -557.058231698351     IErMin= 2 ErrMin= 1.33D-02
 ErrMax= 1.33D-02  0.00D+00 EMaxC= 1.00D-01 BMatC= 9.11D-02 BMatP= 4.81D-01
 IDIUse=3 WtCom= 8.67D-01 WtEn= 1.33D-01
 Coeff-Com:  0.263D+00 0.737D+00
 Coeff-En:   0.421D+00 0.579D+00
 Coeff:      0.284D+00 0.716D+00
 Gap=     0.226 Goal=   None    Shift=    0.000
 RMSDP=1.36D-03 MaxDP=6.89D-02 DE=-6.12D-02 OVMax= 2.67D-01

 Cycle   3  Pass 0  IDiag  1:
 E= -557.325437972225     Delta-E=       -0.267206273874 Rises=F Damp=F
 DIIS: error= 5.99D-03 at cycle   3 NSaved=   3.
 NSaved= 3 IEnMin= 3 EnMin= -557.325437972225     IErMin= 3 ErrMin= 5.99D-03
 ErrMax= 5.99D-03  0.00D+00 EMaxC= 1.00D-01 BMatC= 2.18D-02 BMatP= 9.11D-02
 IDIUse=3 WtCom= 9.40D-01 WtEn= 5.99D-02
 Coeff-Com:  0.937D-01 0.330D+00 0.576D+00
 Coeff-En:   0.000D+00 0.000D+00 0.100D+01
 Coeff:      0.881D-01 0.310D+00 0.602D+00
 Gap=     0.167 Goal=   None    Shift=    0.000
 RMSDP=8.69D-04 MaxDP=5.36D-02 DE=-2.67D-01 OVMax= 8.95D-02

 Cycle   4  Pass 0  IDiag  1:
 E= -557.331357533693     Delta-E=       -0.005919561468 Rises=F Damp=F
 DIIS: error= 8.19D-03 at cycle   4 NSaved=   4.
 NSaved= 4 IEnMin= 4 EnMin= -557.331357533693     IErMin= 3 ErrMin= 5.99D-03
 ErrMax= 8.19D-03  0.00D+00 EMaxC= 1.00D-01 BMatC= 1.57D-02 BMatP= 2.18D-02
 IDIUse=3 WtCom= 9.18D-01 WtEn= 8.19D-02
 Coeff-Com:  0.337D-01 0.121D+00 0.441D+00 0.405D+00
 Coeff-En:   0.000D+00 0.000D+00 0.421D+00 0.579D+00
 Coeff:      0.309D-01 0.111D+00 0.439D+00 0.419D+00
 Gap=     0.160 Goal=   None    Shift=    0.000
 RMSDP=4.88D-04 MaxDP=3.82D-02 DE=-5.92D-03 OVMax= 7.98D-02

 Cycle   5  Pass 0  IDiag  1:
 E= -557.341217545610     Delta-E=       -0.009860011916 Rises=F Damp=F
 DIIS: error= 3.74D-03 at cycle   5 NSaved=   5.
 NSaved= 5 IEnMin= 5 EnMin= -557.341217545610     IErMin= 5 ErrMin= 3.74D-03
 ErrMax= 3.74D-03  0.00D+00 EMaxC= 1.00D-01 BMatC= 3.58D-03 BMatP= 1.57D-02
 IDIUse=3 WtCom= 9.63D-01 WtEn= 3.74D-02
 Coeff-Com:  0.705D-02 0.135D-01 0.210D+00 0.337D+00 0.432D+00
 Coeff-En:   0.000D+00 0.000D+00 0.000D+00 0.228D+00 0.772D+00
 Coeff:      0.679D-02 0.130D-01 0.202D+00 0.333D+00 0.445D+00
 Gap=     0.157 Goal=   None    Shift=    0.000
 RMSDP=1.97D-04 MaxDP=1.50D-02 DE=-9.86D-03 OVMax= 2.89D-02

 Cycle   6  Pass 0  IDiag  1:
 E= -557.344021779296     Delta-E=       -0.002804233686 Rises=F Damp=F
 DIIS: error= 4.49D-04 at cycle   6 NSaved=   6.
 NSaved= 6 IEnMin= 6 EnMin= -557.344021779296     IErMin= 6 ErrMin= 4.49D-04
 ErrMax= 4.49D-04  0.00D+00 EMaxC= 1.00D-01 BMatC= 1.53D-04 BMatP= 3.58D-03
 IDIUse=3 WtCom= 9.96D-01 WtEn= 4.49D-03
 Coeff-Com:  0.161D-02 0.266D-03 0.837D-01 0.159D+00 0.260D+00 0.495D+00
 Coeff-En:   0.000D+00 0.000D+00 0.000D+00 0.000D+00 0.000D+00 0.100D+01
 Coeff:      0.160D-02 0.265D-03 0.833D-01 0.159D+00 0.259D+00 0.497D+00
 Gap=     0.160 Goal=   None    Shift=    0.000
 RMSDP=5.47D-05 MaxDP=2.83D-03 DE=-2.80D-03 OVMax= 7.08D-03

 Cycle   7  Pass 0  IDiag  1:
 E= -557.344139509828     Delta-E=       -0.000117730533 Rises=F Damp=F
 DIIS: error= 1.79D-04 at cycle   7 NSaved=   7.
 NSaved= 7 IEnMin= 7 EnMin= -557.344139509828     IErMin= 7 ErrMin= 1.79D-04
 ErrMax= 1.79D-04  0.00D+00 EMaxC= 1.00D-01 BMatC= 2.21D-05 BMatP= 1.53D-04
 IDIUse=3 WtCom= 9.98D-01 WtEn= 1.79D-03
 Coeff-Com:  0.246D-03-0.121D-02 0.355D-01 0.729D-01 0.130D+00 0.328D+00
 Coeff-Com:  0.435D+00
 Coeff-En:   0.000D+00 0.000D+00 0.000D+00 0.000D+00 0.000D+00 0.975D-01
 Coeff-En:   0.903D+00
 Coeff:      0.246D-03-0.121D-02 0.354D-01 0.727D-01 0.129D+00 0.328D+00
 Coeff:      0.436D+00
 Gap=     0.159 Goal=   None    Shift=    0.000
 RMSDP=1.81D-05 MaxDP=1.02D-03 DE=-1.18D-04 OVMax= 2.17D-03

 Cycle   8  Pass 0  IDiag  1:
 E= -557.344157083970     Delta-E=       -0.000017574142 Rises=F Damp=F
 DIIS: error= 6.15D-05 at cycle   8 NSaved=   8.
 NSaved= 8 IEnMin= 8 EnMin= -557.344157083970     IErMin= 8 ErrMin= 6.15D-05
 ErrMax= 6.15D-05  0.00D+00 EMaxC= 1.00D-01 BMatC= 2.76D-06 BMatP= 2.21D-05
 IDIUse=1 WtCom= 1.00D+00 WtEn= 0.00D+00
 Coeff-Com: -0.203D-03-0.890D-03 0.634D-02 0.151D-01 0.328D-01 0.121D+00
 Coeff-Com:  0.284D+00 0.542D+00
 Coeff:     -0.203D-03-0.890D-03 0.634D-02 0.151D-01 0.328D-01 0.121D+00
 Coeff:      0.284D+00 0.542D+00
 Gap=     0.159 Goal=   None    Shift=    0.000
 RMSDP=5.63D-06 MaxDP=3.64D-04 DE=-1.76D-05 OVMax= 3.95D-04

 Initial convergence to 1.0D-05 achieved.  Increase integral accuracy.
 Cycle   9  Pass 1  IDiag  1:
 E= -557.344107878819     Delta-E=        0.000049205151 Rises=F Damp=F
 DIIS: error= 1.20D-05 at cycle   1 NSaved=   1.
 NSaved= 1 IEnMin= 1 EnMin= -557.344107878819     IErMin= 1 ErrMin= 1.20D-05
 ErrMax= 1.20D-05  0.00D+00 EMaxC= 1.00D-01 BMatC= 1.66D-07 BMatP= 1.66D-07
 IDIUse=1 WtCom= 1.00D+00 WtEn= 0.00D+00
 Coeff-Com:  0.100D+01
 Coeff:      0.100D+01
 Gap=     0.159 Goal=   None    Shift=    0.000
 RMSDP=5.63D-06 MaxDP=3.64D-04 DE= 4.92D-05 OVMax= 1.93D-04

 Cycle  10  Pass 1  IDiag  1:
 E= -557.344107835838     Delta-E=        0.000000042981 Rises=F Damp=F
 DIIS: error= 1.65D-05 at cycle   2 NSaved=   2.
 NSaved= 2 IEnMin= 1 EnMin= -557.344107878819     IErMin= 1 ErrMin= 1.20D-05
 ErrMax= 1.65D-05  0.00D+00 EMaxC= 1.00D-01 BMatC= 2.10D-07 BMatP= 1.66D-07
 IDIUse=1 WtCom= 1.00D+00 WtEn= 0.00D+00
 Coeff-Com:  0.537D+00 0.463D+00
 Coeff:      0.537D+00 0.463D+00
 Gap=     0.159 Goal=   None    Shift=    0.000
 RMSDP=1.92D-06 MaxDP=1.07D-04 DE= 4.30D-08 OVMax= 1.79D-04

 Cycle  11  Pass 1  IDiag  1:
 E= -557.344107967552     Delta-E=       -0.000000131713 Rises=F Damp=F
 DIIS: error= 7.87D-06 at cycle   3 NSaved=   3.
 NSaved= 3 IEnMin= 3 EnMin= -557.344107967552     IErMin= 3 ErrMin= 7.87D-06
 ErrMax= 7.87D-06  0.00D+00 EMaxC= 1.00D-01 BMatC= 4.83D-08 BMatP= 1.66D-07
 IDIUse=1 WtCom= 1.00D+00 WtEn= 0.00D+00
 Coeff-Com:  0.903D-01 0.315D+00 0.595D+00
 Coeff:      0.903D-01 0.315D+00 0.595D+00
 Gap=     0.159 Goal=   None    Shift=    0.000
 RMSDP=9.50D-07 MaxDP=4.96D-05 DE=-1.32D-07 OVMax= 9.85D-05

 Cycle  12  Pass 1  IDiag  1:
 E= -557.344107995356     Delta-E=       -0.000000027805 Rises=F Damp=F
 DIIS: error= 5.55D-06 at cycle   4 NSaved=   4.
 NSaved= 4 IEnMin= 4 EnMin= -557.344107995356     IErMin= 4 ErrMin= 5.55D-06
 ErrMax= 5.55D-06  0.00D+00 EMaxC= 1.00D-01 BMatC= 1.46D-08 BMatP= 4.83D-08
 IDIUse=1 WtCom= 1.00D+00 WtEn= 0.00D+00
 Coeff-Com: -0.508D-02 0.167D+00 0.436D+00 0.402D+00
 Coeff:     -0.508D-02 0.167D+00 0.436D+00 0.402D+00
 Gap=     0.159 Goal=   None    Shift=    0.000
 RMSDP=4.00D-07 MaxDP=2.56D-05 DE=-2.78D-08 OVMax= 4.69D-05

 Cycle  13  Pass 1  IDiag  1:
 E= -557.344108007556     Delta-E=       -0.000000012200 Rises=F Damp=F
 DIIS: error= 2.16D-06 at cycle   5 NSaved=   5.
 NSaved= 5 IEnMin= 5 EnMin= -557.344108007556     IErMin= 5 ErrMin= 2.16D-06
 ErrMax= 2.16D-06  0.00D+00 EMaxC= 1.00D-01 BMatC= 1.06D-09 BMatP= 1.46D-08
 IDIUse=1 WtCom= 1.00D+00 WtEn= 0.00D+00
 Coeff-Com: -0.844D-02 0.101D+00 0.275D+00 0.283D+00 0.349D+00
 Coeff:     -0.844D-02 0.101D+00 0.275D+00 0.283D+00 0.349D+00
 Gap=     0.159 Goal=   None    Shift=    0.000
 RMSDP=1.13D-07 MaxDP=7.79D-06 DE=-1.22D-08 OVMax= 1.63D-05

 Cycle  14  Pass 1  IDiag  1:
 E= -557.344108008332     Delta-E=       -0.000000000776 Rises=F Damp=F
 DIIS: error= 4.72D-07 at cycle   6 NSaved=   6.
 NSaved= 6 IEnMin= 6 EnMin= -557.344108008332     IErMin= 6 ErrMin= 4.72D-07
 ErrMax= 4.72D-07  0.00D+00 EMaxC= 1.00D-01 BMatC= 9.35D-11 BMatP= 1.06D-09
 IDIUse=1 WtCom= 1.00D+00 WtEn= 0.00D+00
 Coeff-Com: -0.480D-02 0.364D-01 0.100D+00 0.114D+00 0.244D+00 0.511D+00
 Coeff:     -0.480D-02 0.364D-01 0.100D+00 0.114D+00 0.244D+00 0.511D+00
 Gap=     0.159 Goal=   None    Shift=    0.000
 RMSDP=2.94D-08 MaxDP=1.67D-06 DE=-7.76D-10 OVMax= 3.22D-06

 Cycle  15  Pass 1  IDiag  1:
 E= -557.344108008381     Delta-E=       -0.000000000049 Rises=F Damp=F
 DIIS: error= 6.00D-08 at cycle   7 NSaved=   7.
 NSaved= 7 IEnMin= 7 EnMin= -557.344108008381     IErMin= 7 ErrMin= 6.00D-08
 ErrMax= 6.00D-08  0.00D+00 EMaxC= 1.00D-01 BMatC= 2.95D-12 BMatP= 9.35D-11
 IDIUse=1 WtCom= 1.00D+00 WtEn= 0.00D+00
 Coeff-Com: -0.143D-02 0.938D-02 0.248D-01 0.309D-01 0.874D-01 0.228D+00
 Coeff-Com:  0.621D+00
 Coeff:     -0.143D-02 0.938D-02 0.248D-01 0.309D-01 0.874D-01 0.228D+00
 Coeff:      0.621D+00
 Gap=     0.159 Goal=   None    Shift=    0.000
 RMSDP=7.03D-09 MaxDP=4.14D-07 DE=-4.87D-11 OVMax= 9.25D-07

 SCF Done:  E(RB3LYP) =  -557.344108008     A.U. after   15 cycles
            NFock= 15  Conv=0.70D-08     -V/T= 2.0040
 KE= 5.551291123849D+02 PE=-2.403034279173D+03 EE= 7.413973091618D+02
 Leave Link  502 at Fri Aug 27 03:41:11 2021, MaxMem= 24159191040 cpu:       205.6
 (Enter /public/home/users/caep010/software/Gaussian09/g09/l801.exe)
 DoSCS=F DFT=T ScalE2(SS,OS)=  1.000000  1.000000
 Range of M.O.s used for correlation:     1   300
 NBasis=   300 NAE=    37 NBE=    37 NFC=     0 NFV=     0
 NROrb=    300 NOA=    37 NOB=    37 NVA=   263 NVB=   263

 **** Warning!!: The largest alpha MO coefficient is  0.49205847D+02

 Leave Link  801 at Fri Aug 27 03:41:11 2021, MaxMem= 24159191040 cpu:         0.6
 (Enter /public/home/users/caep010/software/Gaussian09/g09/l1101.exe)
 Using compressed storage, NAtomX=    14.
 Will process     15 centers per pass.
 Leave Link 1101 at Fri Aug 27 03:41:12 2021, MaxMem= 24159191040 cpu:        19.3
 (Enter /public/home/users/caep010/software/Gaussian09/g09/l1102.exe)
 Symmetrizing basis deriv contribution to polar:
 IMax=3 JMax=2 DiffMx= 0.00D+00
 Leave Link 1102 at Fri Aug 27 03:41:13 2021, MaxMem= 24159191040 cpu:         0.8
 (Enter /public/home/users/caep010/software/Gaussian09/g09/l1110.exe)
 Forming Gx(P) for the SCF density, NAtomX=    14.
 Integral derivatives from FoFJK, PRISM(SPDF).
 Do as many integral derivatives as possible in FoFJK.
 G2DrvN: MDV=   24159190824.
 G2DrvN: will do    15 centers at a time, making    1 passes.
 Calling FoFCou, ICntrl=  3107 FMM=F I1Cent=   0 AccDes= 0.00D+00.
 FoFJK:  IHMeth= 1 ICntrl=    3107 DoSepK=F KAlg= 0 I1Cent=   0 FoldK=F
 IRaf=         0 NMat=   1 IRICut=       1 DoRegI=T DoRafI=F ISym2E= 0.
 FoFCou: FMM=F IPFlag=           0 FMFlag=      100000 FMFlg1=           0
         NFxFlg=           0 DoJE=F BraDBF=F KetDBF=F FulRan=T
         wScrn=  0.000000 ICntrl=    3107 IOpCl=  0 I1Cent=           0 NGrid=           0
         NMat0=    1 NMatS0=      1 NMatT0=    0 NMatD0=    1 NMtDS0=    0 NMtDT0=    0
 Symmetry not used in FoFCou.
 End of G2Drv F.D. properties file   721 does not exist.
 End of G2Drv F.D. properties file   722 does not exist.
 End of G2Drv F.D. properties file   788 does not exist.
 Leave Link 1110 at Fri Aug 27 03:41:25 2021, MaxMem= 24159191040 cpu:       393.5
 (Enter /public/home/users/caep010/software/Gaussian09/g09/l1002.exe)
 Minotr:  Closed shell wavefunction.
          IDoAtm=11111111111111
          Direct CPHF calculation.
          Differentiating once with respect to nuclear coordinates.
          Requested convergence is 1.0D-08 RMS, and 1.0D-07 maximum.
          Secondary convergence is 1.0D-12 RMS, and 1.0D-12 maximum.
          NewPWx=T KeepS1=F KeepF1=F KeepIn=T MapXYZ=F SortEE=F KeepMc=T.
          MDV=   24159190596 using IRadAn=       2.
 Generate precomputed XC quadrature information.
 Keep R1 ints in memory in canonical form, NReq=1037421331.
 FoFCou: FMM=F IPFlag=           0 FMFlag=           0 FMFlg1=           0
         NFxFlg=           0 DoJE=F BraDBF=F KetDBF=F FulRan=T
         wScrn=  0.000000 ICntrl=     600 IOpCl=  0 I1Cent=           0 NGrid=           0
         NMat0=    1 NMatS0=  45150 NMatT0=    0 NMatD0=    1 NMtDS0=    0 NMtDT0=    0
 Symmetry not used in FoFCou.
          Solving linear equations simultaneously, MaxMat=       0.
          There are    45 degrees of freedom in the 1st order CPHF.  IDoFFX=6 NUNeed=     0.
     39 vectors produced by pass  0 Test12= 2.16D-14 2.22D-09 XBig12= 2.68D-01 2.12D-01.
 AX will form    39 AO Fock derivatives at one time.
     39 vectors produced by pass  1 Test12= 2.16D-14 2.22D-09 XBig12= 6.76D-02 1.26D-01.
     39 vectors produced by pass  2 Test12= 2.16D-14 2.22D-09 XBig12= 1.02D-03 6.04D-03.
     39 vectors produced by pass  3 Test12= 2.16D-14 2.22D-09 XBig12= 1.11D-05 4.80D-04.
     39 vectors produced by pass  4 Test12= 2.16D-14 2.22D-09 XBig12= 3.88D-08 2.48D-05.
     39 vectors produced by pass  5 Test12= 2.16D-14 2.22D-09 XBig12= 7.62D-11 1.49D-06.
     22 vectors produced by pass  6 Test12= 2.16D-14 2.22D-09 XBig12= 1.35D-13 5.91D-08.
      1 vectors produced by pass  7 Test12= 2.16D-14 2.22D-09 XBig12= 2.69D-16 2.98D-09.
 InvSVY:  IOpt=1 It=  1 EMax= 3.33D-15
 Solved reduced A of dimension   257 with    39 vectors.
 End of Minotr F.D. properties file   721 does not exist.
 End of Minotr F.D. properties file   722 does not exist.
 End of Minotr F.D. properties file   788 does not exist.
 Leave Link 1002 at Fri Aug 27 03:41:46 2021, MaxMem= 24159191040 cpu:       594.6
 (Enter /public/home/users/caep010/software/Gaussian09/g09/l601.exe)
 Copying SCF densities to generalized density rwf, IOpCl= 0 IROHF=0.

 **********************************************************************

            Population analysis using the SCF density.

 **********************************************************************

 Orbital symmetries:
       Occupied  (A) (A) (A) (A) (A) (A) (A) (A) (A) (A) (A) (A)
                 (A) (A) (A) (A) (A) (A) (A) (A) (A) (A) (A) (A)
                 (A) (A) (A) (A) (A) (A) (A) (A) (A) (A) (A) (A)
                 (A)
       Virtual   (A) (A) (A) (A) (A) (A) (A) (A) (A) (A) (A) (A)
                 (A) (A) (A) (A) (A) (A) (A) (A) (A) (A) (A) (A)
                 (A) (A) (A) (A) (A) (A) (A) (A) (A) (A) (A) (A)
                 (A) (A) (A) (A) (A) (A) (A) (A) (A) (A) (A) (A)
                 (A) (A) (A) (A) (A) (A) (A) (A) (A) (A) (A) (A)
                 (A) (A) (A) (A) (A) (A) (A) (A) (A) (A) (A) (A)
                 (A) (A) (A) (A) (A) (A) (A) (A) (A) (A) (A) (A)
                 (A) (A) (A) (A) (A) (A) (A) (A) (A) (A) (A) (A)
                 (A) (A) (A) (A) (A) (A) (A) (A) (A) (A) (A) (A)
                 (A) (A) (A) (A) (A) (A) (A) (A) (A) (A) (A) (A)
                 (A) (A) (A) (A) (A) (A) (A) (A) (A) (A) (A) (A)
                 (A) (A) (A) (A) (A) (A) (A) (A) (A) (A) (A) (A)
                 (A) (A) (A) (A) (A) (A) (A) (A) (A) (A) (A) (A)
                 (A) (A) (A) (A) (A) (A) (A) (A) (A) (A) (A) (A)
                 (A) (A) (A) (A) (A) (A) (A) (A) (A) (A) (A) (A)
                 (A) (A) (A) (A) (A) (A) (A) (A) (A) (A) (A) (A)
                 (A) (A) (A) (A) (A) (A) (A) (A) (A) (A) (A) (A)
                 (A) (A) (A) (A) (A) (A) (A) (A) (A) (A) (A) (A)
                 (A) (A) (A) (A) (A) (A) (A) (A) (A) (A) (A) (A)
                 (A) (A) (A) (A) (A) (A) (A) (A) (A) (A) (A) (A)
                 (A) (A) (A) (A) (A) (A) (A) (A) (A) (A) (A) (A)
                 (A) (A) (A) (A) (A) (A) (A) (A) (A) (A) (A)
 The electronic state is 1-A.
 Alpha  occ. eigenvalues --  -19.16358 -19.15397 -14.55688 -14.51613 -14.39591
 Alpha  occ. eigenvalues --  -14.38657 -14.37716 -14.34834 -10.28208 -10.26064
 Alpha  occ. eigenvalues --   -1.20856  -1.16829  -1.03134  -1.01641  -0.98637
 Alpha  occ. eigenvalues --   -0.92020  -0.83962  -0.75385  -0.66911  -0.65913
 Alpha  occ. eigenvalues --   -0.60124  -0.56587  -0.55832  -0.54433  -0.53382
 Alpha  occ. eigenvalues --   -0.51488  -0.50452  -0.48965  -0.40660  -0.37157
 Alpha  occ. eigenvalues --   -0.34190  -0.32664  -0.30168  -0.29616  -0.29235
 Alpha  occ. eigenvalues --   -0.27665  -0.23637
 Alpha virt. eigenvalues --   -0.07699  -0.01141   0.07613   0.08527   0.09872
 Alpha virt. eigenvalues --    0.12882   0.15106   0.16961   0.19085   0.21480
 Alpha virt. eigenvalues --    0.24502   0.24618   0.25462   0.28639   0.34712
 Alpha virt. eigenvalues --    0.36926   0.39160   0.41691   0.44224   0.46452
 Alpha virt. eigenvalues --    0.48286   0.48675   0.51052   0.51540   0.52916
 Alpha virt. eigenvalues --    0.56037   0.57001   0.58110   0.59297   0.59620
 Alpha virt. eigenvalues --    0.61134   0.63419   0.64661   0.65833   0.67996
 Alpha virt. eigenvalues --    0.68489   0.70595   0.71633   0.75205   0.76885
 Alpha virt. eigenvalues --    0.79225   0.79883   0.80868   0.82319   0.82439
 Alpha virt. eigenvalues --    0.83675   0.85007   0.86875   0.88065   0.88820
 Alpha virt. eigenvalues --    0.90366   0.91831   0.92487   0.95367   0.96195
 Alpha virt. eigenvalues --    0.97499   0.98977   0.99437   1.00597   1.04427
 Alpha virt. eigenvalues --    1.07546   1.08310   1.11230   1.12767   1.13615
 Alpha virt. eigenvalues --    1.15051   1.22735   1.25660   1.26194   1.28122
 Alpha virt. eigenvalues --    1.29967   1.32175   1.34374   1.35000   1.35499
 Alpha virt. eigenvalues --    1.39778   1.39991   1.41620   1.47727   1.48948
 Alpha virt. eigenvalues --    1.53256   1.53878   1.58661   1.58919   1.59427
 Alpha virt. eigenvalues --    1.61915   1.62919   1.64969   1.66127   1.67839
 Alpha virt. eigenvalues --    1.68570   1.71989   1.75829   1.80462   1.82459
 Alpha virt. eigenvalues --    1.83675   1.87649   1.89461   1.91682   1.96305
 Alpha virt. eigenvalues --    1.99620   2.01811   2.06863   2.17191   2.18977
 Alpha virt. eigenvalues --    2.19841   2.21475   2.32626   2.32774   2.36087
 Alpha virt. eigenvalues --    2.39791   2.44267   2.48491   2.53505   2.62084
 Alpha virt. eigenvalues --    2.68927   2.75663   2.79664   2.91356   2.97673
 Alpha virt. eigenvalues --    2.97786   3.00071   3.01038   3.02555   3.04994
 Alpha virt. eigenvalues --    3.08229   3.11256   3.14787   3.17048   3.21551
 Alpha virt. eigenvalues --    3.26060   3.29145   3.30138   3.34409   3.36893
 Alpha virt. eigenvalues --    3.39366   3.41738   3.44935   3.45926   3.49517
 Alpha virt. eigenvalues --    3.53782   3.56586   3.57798   3.59641   3.61112
 Alpha virt. eigenvalues --    3.64491   3.67215   3.68253   3.72195   3.75257
 Alpha virt. eigenvalues --    3.77587   3.83909   3.84266   3.86659   3.90893
 Alpha virt. eigenvalues --    3.93419   3.94720   3.98475   4.01811   4.03387
 Alpha virt. eigenvalues --    4.05282   4.07670   4.07980   4.09345   4.11111
 Alpha virt. eigenvalues --    4.12088   4.13244   4.15340   4.15695   4.16425
 Alpha virt. eigenvalues --    4.19171   4.21259   4.23803   4.26440   4.27967
 Alpha virt. eigenvalues --    4.28943   4.31568   4.32895   4.34192   4.35877
 Alpha virt. eigenvalues --    4.36418   4.41120   4.42285   4.44635   4.45178
 Alpha virt. eigenvalues --    4.46908   4.48445   4.49962   4.50712   4.52741
 Alpha virt. eigenvalues --    4.55187   4.57286   4.58714   4.60081   4.61036
 Alpha virt. eigenvalues --    4.63224   4.65094   4.65649   4.69545   4.72272
 Alpha virt. eigenvalues --    4.73064   4.74073   4.75364   4.77714   4.78541
 Alpha virt. eigenvalues --    4.81209   4.85338   4.88384   4.93324   4.96798
 Alpha virt. eigenvalues --    5.00544   5.02031   5.03193   5.04569   5.06327
 Alpha virt. eigenvalues --    5.09083   5.11997   5.20516   5.22167   5.26102
 Alpha virt. eigenvalues --    5.27139   5.32051   5.34319   5.36880   5.42073
 Alpha virt. eigenvalues --    5.46174   5.48689   5.52851   5.54878   5.59353
 Alpha virt. eigenvalues --    5.62302   5.65585   5.70185   5.86851   5.88772
 Alpha virt. eigenvalues --    5.92608   5.95201   6.07083   6.11794   6.15792
 Alpha virt. eigenvalues --    6.23178   6.30838   6.40393   6.67910   6.70084
 Alpha virt. eigenvalues --    6.84417   7.01439   7.10564   9.92286  10.92243
 Alpha virt. eigenvalues --   11.24926  11.27294  11.30323  11.35601  11.41540
 Alpha virt. eigenvalues --   11.59858  11.65956  12.94095  13.20767  15.71290
 Alpha virt. eigenvalues --   16.72088  23.05659  24.33460
          Condensed to atoms (all electrons):
               1          2          3          4          5          6
     1  N    6.686867   0.446281   0.021603   0.003107   0.415205  -0.166617
     2  C    0.446281   4.548959   0.464632  -0.034975  -0.096208  -0.022400
     3  C    0.021603   0.464632   4.721437   0.361312  -0.113995   0.416469
     4  N    0.003107  -0.034975   0.361312   5.339041  -0.002372  -0.017583
     5  N    0.415205  -0.096208  -0.113995  -0.002372   5.905601   0.408234
     6  N   -0.166617  -0.022400   0.416469  -0.017583   0.408234   6.701999
     7  N   -0.033192   0.462693  -0.037001  -0.007414   0.001164   0.005189
     8  H   -0.002116  -0.025893   0.004433   0.000023   0.000096   0.000125
     9  O    0.000156  -0.009966  -0.098162   0.512433   0.000111   0.002768
    10  N   -0.061528   0.005779   0.002768  -0.000016   0.388426  -0.056235
    11  H    0.002020   0.000865  -0.000782  -0.000002  -0.029685   0.004373
    12  O   -0.000112   0.004177  -0.096806   0.500025   0.001471   0.000750
    13  H    0.004868  -0.023771  -0.012762   0.001152  -0.000306   0.000404
    14  H    0.005571  -0.000743   0.000983  -0.000019  -0.029137   0.003570
               7          8          9         10         11         12
     1  N   -0.033192  -0.002116   0.000156  -0.061528   0.002020  -0.000112
     2  C    0.462693  -0.025893  -0.009966   0.005779   0.000865   0.004177
     3  C   -0.037001   0.004433  -0.098162   0.002768  -0.000782  -0.096806
     4  N   -0.007414   0.000023   0.512433  -0.000016  -0.000002   0.500025
     5  N    0.001164   0.000096   0.000111   0.388426  -0.029685   0.001471
     6  N    0.005189   0.000125   0.002768  -0.056235   0.004373   0.000750
     7  N    6.326913   0.373624  -0.004957  -0.000040  -0.000008   0.000009
     8  H    0.373624   0.428112   0.000353   0.000012   0.000008   0.000003
     9  O   -0.004957   0.000353   8.053068   0.000000  -0.000000  -0.078735
    10  N   -0.000040   0.000012   0.000000   6.275315   0.372700   0.000000
    11  H   -0.000008   0.000008  -0.000000   0.372700   0.433772   0.000000
    12  O    0.000009   0.000003  -0.078735   0.000000   0.000000   8.048015
    13  H    0.362261  -0.019270   0.033180   0.000004  -0.000000   0.000267
    14  H   -0.000000   0.000001  -0.000000   0.368884  -0.042055   0.000001
              13         14
     1  N    0.004868   0.005571
     2  C   -0.023771  -0.000743
     3  C   -0.012762   0.000983
     4  N    0.001152  -0.000019
     5  N   -0.000306  -0.029137
     6  N    0.000404   0.003570
     7  N    0.362261  -0.000000
     8  H   -0.019270   0.000001
     9  O    0.033180  -0.000000
    10  N    0.000004   0.368884
    11  H   -0.000000  -0.042055
    12  O    0.000267   0.000001
    13  H    0.407192  -0.000000
    14  H   -0.000000   0.444342
 Mulliken charges:
               1
     1  N   -0.322114
     2  C    0.280570
     3  C    0.365872
     4  N    0.345286
     5  N    0.151392
     6  N   -0.281046
     7  N   -0.449241
     8  H    0.240489
     9  O   -0.410249
    10  N   -0.296070
    11  H    0.258793
    12  O   -0.379066
    13  H    0.246781
    14  H    0.248603
 Sum of Mulliken charges =  -0.00000
 Mulliken charges with hydrogens summed into heavy atoms:
               1
     1  N   -0.322114
     2  C    0.280570
     3  C    0.365872
     4  N    0.345286
     5  N    0.151392
     6  N   -0.281046
     7  N    0.038029
     9  O   -0.410249
    10  N    0.211327
    12  O   -0.379066
 APT charges:
               1
     1  N    0.248740
     2  C   -0.413588
     3  C   -0.190531
     4  N   -1.040823
     5  N   -0.452507
     6  N    0.022738
     7  N   -0.530036
     8  H    0.583533
     9  O    0.335492
    10  N   -0.823276
    11  H    0.847722
    12  O    0.413192
    13  H    0.405187
    14  H    0.594156
 Sum of APT charges =  -0.00000
 APT charges with hydrogens summed into heavy atoms:
               1
     1  N    0.248740
     2  C   -0.413588
     3  C   -0.190531
     4  N   -1.040823
     5  N   -0.452507
     6  N    0.022738
     7  N    0.458684
     9  O    0.335492
    10  N    0.618602
    12  O    0.413192
 Electronic spatial extent (au):  <R**2>=           1337.4585
 Charge=             -0.0000 electrons
 Dipole moment (field-independent basis, Debye):
    X=             -4.7403    Y=              2.6908    Z=              1.1059  Tot=              5.5618
 Quadrupole moment (field-independent basis, Debye-Ang):
   XX=            -52.8491   YY=            -53.3525   ZZ=            -54.8757
   XY=              8.8353   XZ=             -4.2885   YZ=             -1.9142
 Traceless Quadrupole moment (field-independent basis, Debye-Ang):
   XX=              0.8434   YY=              0.3399   ZZ=             -1.1833
   XY=              8.8353   XZ=             -4.2885   YZ=             -1.9142
 Octapole moment (field-independent basis, Debye-Ang**2):
  XXX=            -62.1621  YYY=             27.9287  ZZZ=              0.9907  XYY=             -4.5230
  XXY=             -9.1103  XXZ=             16.4061  XZZ=              4.8599  YZZ=             -2.8440
  YYZ=             -0.2935  XYZ=              5.4766
 Hexadecapole moment (field-independent basis, Debye-Ang**3):
 XXXX=           -897.5891 YYYY=           -458.5207 ZZZZ=            -46.8880 XXXY=             65.8991
 XXXZ=            -56.2680 YYYX=             35.2884 YYYZ=             -9.8976 ZZZX=             -4.0243
 ZZZY=             -2.0112 XXYY=           -249.5475 XXZZ=           -176.7677 YYZZ=            -97.4501
 XXYZ=            -14.3382 YYXZ=             -5.5063 ZZXY=             -2.1200
 N-N= 5.491637496177D+02 E-N=-2.403034287134D+03  KE= 5.551291123849D+02
  Exact polarizability:   0.000   0.000   0.000   0.000   0.000   0.000
 Approx polarizability: 174.146  -1.461 160.154   0.426  -0.615  52.985
 No NMR shielding tensors so no spin-rotation constants.
 Leave Link  601 at Fri Aug 27 03:41:47 2021, MaxMem= 24159191040 cpu:        14.3
 (Enter /public/home/users/caep010/software/Gaussian09/g09/l701.exe)
 Compute integral second derivatives.
 ... and contract with generalized density number  0.
 Leave Link  701 at Fri Aug 27 03:41:47 2021, MaxMem= 24159191040 cpu:        17.5
 (Enter /public/home/users/caep010/software/Gaussian09/g09/l702.exe)
 L702 exits ... SP integral derivatives will be done elsewhere.
 Leave Link  702 at Fri Aug 27 03:41:48 2021, MaxMem= 24159191040 cpu:         0.5
 (Enter /public/home/users/caep010/software/Gaussian09/g09/l703.exe)
 Compute integral second derivatives, UseDBF=F ICtDFT=           0.
 Integral derivatives from FoFJK, PRISM(SPDF).
 Calling FoFJK, ICntrl=    100147 FMM=F ISym2X=0 I1Cent= 0 IOpClX= 0 NMat=1 NMatS=1 NMatT=0.
 FoFJK:  IHMeth= 1 ICntrl=  100147 DoSepK=F KAlg= 0 I1Cent=   0 FoldK=F
 IRaf=         0 NMat=   1 IRICut=       1 DoRegI=T DoRafI=F ISym2E= 0.
 FoFCou: FMM=F IPFlag=           0 FMFlag=      100000 FMFlg1=         800
         NFxFlg=           0 DoJE=F BraDBF=F KetDBF=F FulRan=T
         wScrn=  0.000000 ICntrl=  100147 IOpCl=  0 I1Cent=           0 NGrid=           0
         NMat0=    1 NMatS0=      1 NMatT0=    0 NMatD0=    1 NMtDS0=    0 NMtDT0=    0
 Symmetry not used in FoFCou.
 Leave Link  703 at Fri Aug 27 03:42:14 2021, MaxMem= 24159191040 cpu:       824.1
 (Enter /public/home/users/caep010/software/Gaussian09/g09/l716.exe)
 Dipole        =-1.86497999D+00 1.05864662D+00 4.35083765D-01
 Polarizability= 0.00000000D+00 0.00000000D+00 0.00000000D+00
                 0.00000000D+00 0.00000000D+00 0.00000000D+00
 ***** Axes restored to original set *****
 -------------------------------------------------------------------
 Center     Atomic                   Forces (Hartrees/Bohr)
 Number     Number              X              Y              Z
 -------------------------------------------------------------------
      1        7           0.001333658    0.001048196   -0.003756216
      2        6          -0.006998890   -0.024547360    0.024578651
      3        6          -0.008139363   -0.002127216    0.020544784
      4        7          -0.013189377    0.014768101    0.036208339
      5        7           0.005416755   -0.011035446   -0.022142511
      6        7          -0.001443220    0.000899233   -0.002471639
      7        7          -0.057198941   -0.071606251    0.128810805
      8        1           0.093142453   -0.105544952   -0.144093751
      9        8           0.001790146    0.001076641   -0.009298933
     10        7           0.149724685    0.136233554   -0.006047710
     11        1          -0.019432173   -0.120686994   -0.133096628
     12        8           0.010403871   -0.005828386   -0.026772763
     13        1          -0.024763141    0.189204029   -0.016318126
     14        1          -0.130646464   -0.001853147    0.153855697
 -------------------------------------------------------------------
 Cartesian Forces:  Max     0.189204029 RMS     0.072658856
 FormGI is forming the generalized inverse of G from B-inverse, IUseBI=4.
 Leave Link  716 at Fri Aug 27 03:42:14 2021, MaxMem= 24159191040 cpu:         1.0
 (Enter /public/home/users/caep010/software/Gaussian09/g09/l103.exe)

 GradGradGradGradGradGradGradGradGradGradGradGradGradGradGradGradGradGrad
 Berny optimization.
 Red2BG is reusing G-inverse.
 Internal  Forces:  Max     0.199789750 RMS     0.051573665
 Search for a local minimum.
 Step number   1 out of a maximum of   68
 All quantities printed in internal units (Hartrees-Bohrs-Radians)
 RMS Force = .51574D-01 SwitMx=.10000D-02 MixMth= 1
 Mixed Optimization -- RFO/linear search
 Second derivative matrix not updated -- analytic derivatives used.
 ITU=  0
     Eigenvalues ---    0.00013   0.00855   0.01114   0.01418   0.01872
     Eigenvalues ---    0.02134   0.02906   0.04747   0.04823   0.05546
     Eigenvalues ---    0.10135   0.11905   0.14398   0.14966   0.16898
     Eigenvalues ---    0.18845   0.20537   0.24147   0.25436   0.25601
     Eigenvalues ---    0.27064   0.31556   0.34217   0.39234   0.41721
     Eigenvalues ---    0.44503   0.47162   0.51267   0.54250   0.58504
     Eigenvalues ---    0.62266   0.71877   1.02179   1.09224   1.10916
     Eigenvalues ---    1.14533
 RFO step:  Lambda=-1.38637318D-01 EMin= 1.32302643D-04
 Linear search not attempted -- first point.
 Maximum step size (   0.300) exceeded in Quadratic search.
    -- Step size scaled by   0.763
 Iteration  1 RMS(Cart)=  0.04324199 RMS(Int)=  0.00202762
 Iteration  2 RMS(Cart)=  0.00226164 RMS(Int)=  0.00004156
 Iteration  3 RMS(Cart)=  0.00000879 RMS(Int)=  0.00004076
 Iteration  4 RMS(Cart)=  0.00000000 RMS(Int)=  0.00004076
 ITry= 1 IFail=0 DXMaxC= 1.60D-01 DCOld= 1.00D+10 DXMaxT= 3.00D-01 DXLimC= 3.00D+00 Rises=F
 Variable       Old X    -DE/DX   Delta X   Delta X   Delta X     New X
                                 (Linear)    (Quad)   (Total)
    R1        2.56410  -0.00453   0.00000  -0.00854  -0.00855   2.55555
    R2        2.52714  -0.00118   0.00000  -0.00104  -0.00105   2.52609
    R3        2.62254   0.01479   0.00000   0.02123   0.02123   2.64377
    R4        2.50921   0.03512   0.00000   0.02693   0.02693   2.53614
    R5        2.64050   0.00969   0.00000   0.01549   0.01549   2.65599
    R6        2.57672  -0.00678   0.00000  -0.01114  -0.01113   2.56559
    R7        2.33018   0.00743   0.00000   0.01126   0.01126   2.34144
    R8        2.36442  -0.02930   0.00000  -0.03588  -0.03588   2.32855
    R9        2.43372   0.00537   0.00000   0.00659   0.00660   2.44031
   R10        2.60833  -0.00688   0.00000   0.00350   0.00350   2.61183
   R11        1.63747   0.19900   0.00000   0.11890   0.11890   1.75637
   R12        1.64562   0.19044   0.00000   0.11723   0.11723   1.76285
   R13        1.67173   0.17535   0.00000   0.11417   0.11417   1.78589
   R14        1.65084   0.19979   0.00000   0.12203   0.12203   1.77287
    A1        1.80157  -0.00549   0.00000  -0.00672  -0.00675   1.79482
    A2        1.85571   0.00529   0.00000   0.00860   0.00859   1.86430
    A3        2.13768  -0.00032   0.00000   0.00607   0.00607   2.14375
    A4        2.28977  -0.00497   0.00000  -0.01466  -0.01465   2.27512
    A5        2.24610  -0.00686   0.00000  -0.01341  -0.01341   2.23269
    A6        1.93338  -0.00560   0.00000  -0.01045  -0.01043   1.92295
    A7        2.10344   0.01247   0.00000   0.02385   0.02384   2.12728
    A8        2.04626  -0.00859   0.00000  -0.01720  -0.01720   2.02905
    A9        2.07244   0.00366   0.00000   0.00811   0.00810   2.08054
   A10        2.16448   0.00493   0.00000   0.00911   0.00911   2.17359
   A11        2.06337   0.00548   0.00000   0.00470   0.00469   2.06806
   A12        2.07821   0.00340   0.00000   0.00598   0.00598   2.08419
   A13        2.13447  -0.00877   0.00000  -0.01027  -0.01028   2.12420
   A14        1.77064   0.00034   0.00000   0.00392   0.00394   1.77458
   A15        1.90076   0.02358   0.00000   0.06569   0.06568   1.96644
   A16        1.99983   0.00498   0.00000   0.01678   0.01677   2.01660
   A17        2.37229  -0.02792   0.00000  -0.08191  -0.08192   2.29037
   A18        2.09782  -0.04407   0.00000  -0.10992  -0.11002   1.98780
   A19        1.89978  -0.00389   0.00000  -0.01095  -0.01106   1.88872
   A20        1.71776   0.03272   0.00000   0.07576   0.07555   1.79332
    D1        0.00639  -0.00047   0.00000  -0.00171  -0.00171   0.00468
    D2       -3.12874  -0.00081   0.00000  -0.00251  -0.00252  -3.13126
    D3       -0.01376   0.00073   0.00000   0.00295   0.00295  -0.01081
    D4       -3.03025   0.00042   0.00000   0.00017   0.00014  -3.03011
    D5       -3.11512  -0.00007   0.00000   0.00026   0.00026  -3.11486
    D6        0.00144   0.00012   0.00000   0.00025   0.00026   0.00170
    D7        0.01923   0.00033   0.00000   0.00128   0.00127   0.02051
    D8        3.13580   0.00053   0.00000   0.00127   0.00127   3.13707
    D9       -0.21320   0.00290   0.00000   0.00822   0.00821  -0.20499
   D10        3.05718   0.00144   0.00000   0.01213   0.01212   3.06930
   D11        2.93663   0.00243   0.00000   0.00707   0.00707   2.94369
   D12       -0.07618   0.00096   0.00000   0.01098   0.01098  -0.06520
   D13       -0.05935   0.00135   0.00000   0.00568   0.00568  -0.05367
   D14        3.08724   0.00025   0.00000   0.00253   0.00253   3.08977
   D15        3.10941   0.00139   0.00000   0.00618   0.00618   3.11559
   D16       -0.02719   0.00029   0.00000   0.00303   0.00303  -0.02415
   D17       -0.00884   0.00031   0.00000   0.00139   0.00138  -0.00746
   D18        3.11008   0.00020   0.00000   0.00082   0.00080   3.11088
   D19        0.01427  -0.00058   0.00000  -0.00263  -0.00265   0.01163
   D20        3.02649   0.00071   0.00000   0.00152   0.00150   3.02799
   D21       -0.66515   0.00670   0.00000   0.01177   0.01185  -0.65330
   D22       -2.62325  -0.00634   0.00000  -0.01216  -0.01224  -2.63549
   D23        2.60688   0.00526   0.00000   0.00768   0.00777   2.61465
   D24        0.64878  -0.00778   0.00000  -0.01624  -0.01632   0.63246
         Item               Value     Threshold  Converged?
 Maximum Force            0.199790     0.000450     NO 
 RMS     Force            0.051574     0.000300     NO 
 Maximum Displacement     0.159720     0.001800     NO 
 RMS     Displacement     0.043716     0.001200     NO 
 Predicted change in Energy=-7.172635D-02
 Lowest energy point so far.  Saving SCF results.
 GradGradGradGradGradGradGradGradGradGradGradGradGradGradGradGradGradGrad

 Leave Link  103 at Fri Aug 27 03:42:14 2021, MaxMem= 24159191040 cpu:         2.4
 (Enter /public/home/users/caep010/software/Gaussian09/g09/l202.exe)
                          Input orientation:                          
 ---------------------------------------------------------------------
 Center     Atomic      Atomic             Coordinates (Angstroms)
 Number     Number       Type             X           Y           Z
 ---------------------------------------------------------------------
      1          7           0        0.649856   10.608039   -0.665480
      2          6           0        0.543475   11.949416   -0.800417
      3          6           0        0.111925   12.447390    0.433703
      4          7           0       -0.170475   13.780964    0.776102
      5          7           0        0.278406   10.406765    0.602749
      6          7           0       -0.044538   11.430912    1.319990
      7          7           0        0.816780   12.589142   -1.948112
      8          1           0        1.244991   12.045151   -2.568230
      9          8           0        0.036281   14.628374   -0.103875
     10          7           0        0.389279    9.142477    1.150059
     11          1           0        0.182601    8.444835    0.546980
     12          8           0       -0.596145   14.034860    1.904238
     13          1           0        0.651884   13.507310   -1.945947
     14          1           0       -0.271918    9.049166    1.809040
 ---------------------------------------------------------------------
                    Distance matrix (angstroms):
                    1          2          3          4          5
     1  N    0.000000
     2  C    1.352338   0.000000
     3  C    2.209249   1.399023   0.000000
     4  N    3.580301   2.519862   1.405492   0.000000
     5  N    1.336747   2.102121   2.054372   3.408338   0.000000
     6  N    2.258627   2.260693   1.357649   2.415454   1.291358
     7  N    2.365962   1.342068   2.487962   3.133121   3.399928
     8  H    2.457628   1.904324   3.233765   4.025064   3.697797
     9  O    4.105480   2.814113   2.247533   1.239036   4.287182
    10  N    2.347755   3.421555   3.393013   4.687081   1.382123
    11  H    2.523458   3.771976   4.004781   5.352703   1.965059
    12  O    4.460837   3.600412   2.276817   1.232213   3.952441
    13  H    3.169443   1.936756   2.660398   2.856695   4.030970
    14  H    3.066432   3.985672   3.686029   4.844292   1.897648
                    6          7          8          9         10
     6  N    0.000000
     7  N    3.572654   0.000000
     8  H    4.142274   0.929428   0.000000
     9  O    3.501098   2.858121   3.769226   0.000000
    10  N    2.335382   4.654129   4.794104   5.638441   0.000000
    11  H    3.092862   4.878827   4.878062   6.219420   0.945053
    12  O    2.725098   4.350523   5.229884   2.187405   5.047301
    13  H    3.932273   0.932859   1.696148   2.242539   5.357795
    14  H    2.442046   5.275688   5.517013   5.906081   0.938160
                   11         12         13         14
    11  H    0.000000
    12  O    5.804910   0.000000
    13  H    5.662470   4.081643   0.000000
    14  H    1.471258   4.997132   5.901557   0.000000
 Stoichiometry    C2H4N6O2
 Framework group  C1[X(C2H4N6O2)]
 Deg. of freedom    36
 Full point group                 C1      NOp   1
 RotChk:  IX=0 Diff= 1.24D-02
 Largest Abelian subgroup         C1      NOp   1
 Largest concise Abelian subgroup C1      NOp   1
                         Standard orientation:                         
 ---------------------------------------------------------------------
 Center     Atomic      Atomic             Coordinates (Angstroms)
 Number     Number       Type             X           Y           Z
 ---------------------------------------------------------------------
      1          7           0       -1.480799    1.020195    0.019408
      2          6           0       -0.131415    1.108771    0.007902
      3          6           0        0.360000   -0.200925   -0.013874
      4          7           0        1.701329   -0.620579   -0.002330
      5          7           0       -1.691852   -0.299753    0.010196
      6          7           0       -0.668609   -1.087017   -0.017999
      7          7           0        0.520887    2.281548    0.023514
      8          1           0       -0.040488    3.005768   -0.132052
      9          8           0        2.556346    0.275790   -0.028422
     10          7           0       -2.981655   -0.780089   -0.116094
     11          1           0       -3.628469   -0.264955    0.341502
     12          8           0        1.953880   -1.826193    0.030232
     13          1           0        1.450595    2.224063    0.074174
     14          1           0       -3.030056   -1.608858    0.320878
 ---------------------------------------------------------------------
 Rotational constants (GHZ):      2.4554713      1.1525607      0.7855209
 Leave Link  202 at Fri Aug 27 03:42:14 2021, MaxMem= 24159191040 cpu:         0.2
 (Enter /public/home/users/caep010/software/Gaussian09/g09/l301.exe)
 Standard basis: GTBas3 (6D, 7F)
 Ernie: Thresh=  0.10000D-02 Tol=  0.10000D-05 Strict=F.
 There are   330 symmetry adapted cartesian basis functions of A   symmetry.
 There are   300 symmetry adapted basis functions of A   symmetry.
   300 basis functions,   468 primitive gaussians,   330 cartesian basis functions
    37 alpha electrons       37 beta electrons
       nuclear repulsion energy       547.2056687608 Hartrees.
 IExCor=  402 DFT=T Ex+Corr=B3LYP ExCW=0 ScaHFX=  0.200000
 ScaDFX=  0.800000  0.720000  1.000000  0.810000 ScalE2=  1.000000  1.000000
 IRadAn=      0 IRanWt=     -1 IRanGd=            0 ICorTp=0 IEmpDi=  4
 NAtoms=   14 NActive=   14 NUniq=   14 SFac= 1.00D+00 NAtFMM=   60 NAOKFM=F Big=F
 Integral buffers will be    131072 words long.
 Raffenetti 2 integral format.
 Two-electron integral symmetry is turned on.
 Leave Link  301 at Fri Aug 27 03:42:15 2021, MaxMem= 24159191040 cpu:         1.7
 (Enter /public/home/users/caep010/software/Gaussian09/g09/l302.exe)
 NPDir=0 NMtPBC=     1 NCelOv=     1 NCel=       1 NClECP=     1 NCelD=      1
         NCelK=      1 NCelE2=     1 NClLst=     1 CellRange=     0.0.
 One-electron integrals computed using PRISM.
 NBasis=   300 RedAO= T EigKep=  1.06D-04  NBF=   300
 NBsUse=   300 1.00D-06 EigRej= -1.00D+00 NBFU=   300
 Precomputing XC quadrature grid using
 IXCGrd= 4 IRadAn=           0 IRanWt=          -1 IRanGd=           0 AccXCQ= 0.00D+00.
 Generated NRdTot=       0 NPtTot=           0 NUsed=           0 NTot=          32
 NSgBfM=   329   329   329   329   329 MxSgAt=    14 MxSgA2=    14.
 Leave Link  302 at Fri Aug 27 03:42:15 2021, MaxMem= 24159191040 cpu:        15.5
 (Enter /public/home/users/caep010/software/Gaussian09/g09/l303.exe)
 DipDrv:  MaxL=1.
 Leave Link  303 at Fri Aug 27 03:42:15 2021, MaxMem= 24159191040 cpu:         2.7
 (Enter /public/home/users/caep010/software/Gaussian09/g09/l401.exe)
 Initial guess from the checkpoint file:  "/public/home/users/caep010/.cache/gau_scr/Gau-137536.chk"
 B after Tr=     0.000000   -0.000000   -0.000000
         Rot=    0.999999   -0.000004   -0.000120    0.001572 Ang=  -0.18 deg.
 Guess basis will be translated and rotated to current coordinates.
 JPrj=2 DoOrth=T DoCkMO=T.
 Generating alternative initial guess.
 ExpMin= 1.61D-01 ExpMax= 5.48D+03 ExpMxC= 8.25D+02 IAcc=1 IRadAn=         1 AccDes= 0.00D+00
 Harris functional with IExCor=  402 and IRadAn=       1 diagonalized for initial guess.
 HarFok:  IExCor=  402 AccDes= 0.00D+00 IRadAn=         1 IDoV= 1 UseB2=F ITyADJ=14
 ICtDFT=  3500011 ScaDFX=  1.000000  1.000000  1.000000  1.000000
 FoFCou: FMM=F IPFlag=           0 FMFlag=      100000 FMFlg1=           0
         NFxFlg=           0 DoJE=T BraDBF=F KetDBF=T FulRan=T
         wScrn=  0.000000 ICntrl=     500 IOpCl=  0 I1Cent=   200000004 NGrid=           0
         NMat0=    1 NMatS0=      1 NMatT0=    0 NMatD0=    1 NMtDS0=    0 NMtDT0=    0
 Petite list used in FoFCou.
 Harris En= -557.407855821719    
 Leave Link  401 at Fri Aug 27 03:42:16 2021, MaxMem= 24159191040 cpu:        18.5
 (Enter /public/home/users/caep010/software/Gaussian09/g09/l502.exe)
 Closed shell SCF:
 Using DIIS extrapolation, IDIIS=  1040.
 Integral symmetry usage will be decided dynamically.
 Keep R1 ints in memory in canonical form, NReq=1037774195.
 IVT=      358190 IEndB=      358190 NGot= 24159191040 MDV= 23139549026
 LenX= 23139549026 LenY= 23139439685
 Requested convergence on RMS density matrix=1.00D-08 within 128 cycles.
 Requested convergence on MAX density matrix=1.00D-06.
 Requested convergence on             energy=1.00D-06.
 No special actions if energy rises.
 FoFCou: FMM=F IPFlag=           0 FMFlag=           0 FMFlg1=           0
         NFxFlg=           0 DoJE=F BraDBF=F KetDBF=F FulRan=T
         wScrn=  0.000000 ICntrl=     600 IOpCl=  0 I1Cent=           0 NGrid=           0
         NMat0=    1 NMatS0=  45150 NMatT0=    0 NMatD0=    1 NMtDS0=    0 NMtDT0=    0
 Symmetry not used in FoFCou.
 Integral accuracy reduced to 1.0D-05 until final iterations.

 Cycle   1  Pass 0  IDiag  1:
 E= -557.411771465381    
 DIIS: error= 5.24D-03 at cycle   1 NSaved=   1.
 NSaved= 1 IEnMin= 1 EnMin= -557.411771465381     IErMin= 1 ErrMin= 5.24D-03
 ErrMax= 5.24D-03  0.00D+00 EMaxC= 1.00D-01 BMatC= 9.44D-03 BMatP= 9.44D-03
 IDIUse=3 WtCom= 9.48D-01 WtEn= 5.24D-02
 Coeff-Com:  0.100D+01
 Coeff-En:   0.100D+01
 Coeff:      0.100D+01
 Gap=     1.073 Goal=   None    Shift=    0.000
 GapD=    1.073 DampG=2.000 DampE=1.000 DampFc=2.0000 IDamp=-1.
 RMSDP=4.70D-04 MaxDP=3.58D-02              OVMax= 2.30D-02

 Cycle   2  Pass 0  IDiag  1:
 E= -557.417355586659     Delta-E=       -0.005584121277 Rises=F Damp=F
 DIIS: error= 1.84D-03 at cycle   2 NSaved=   2.
 NSaved= 2 IEnMin= 2 EnMin= -557.417355586659     IErMin= 2 ErrMin= 1.84D-03
 ErrMax= 1.84D-03  0.00D+00 EMaxC= 1.00D-01 BMatC= 2.38D-03 BMatP= 9.44D-03
 IDIUse=3 WtCom= 9.82D-01 WtEn= 1.84D-02
 Coeff-Com:  0.263D+00 0.737D+00
 Coeff-En:   0.000D+00 0.100D+01
 Coeff:      0.258D+00 0.742D+00
 Gap=     0.163 Goal=   None    Shift=    0.000
 RMSDP=2.63D-04 MaxDP=2.12D-02 DE=-5.58D-03 OVMax= 3.44D-02

 Cycle   3  Pass 0  IDiag  1:
 E= -557.417623761701     Delta-E=       -0.000268175042 Rises=F Damp=F
 DIIS: error= 1.45D-03 at cycle   3 NSaved=   3.
 NSaved= 3 IEnMin= 3 EnMin= -557.417623761701     IErMin= 3 ErrMin= 1.45D-03
 ErrMax= 1.45D-03  0.00D+00 EMaxC= 1.00D-01 BMatC= 2.06D-03 BMatP= 2.38D-03
 IDIUse=3 WtCom= 9.86D-01 WtEn= 1.45D-02
 Coeff-Com:  0.103D-01 0.480D+00 0.510D+00
 Coeff-En:   0.000D+00 0.470D+00 0.530D+00
 Coeff:      0.102D-01 0.480D+00 0.510D+00
 Gap=     0.157 Goal=   None    Shift=    0.000
 RMSDP=1.53D-04 MaxDP=9.68D-03 DE=-2.68D-04 OVMax= 1.87D-02

 Cycle   4  Pass 0  IDiag  1:
 E= -557.419275107246     Delta-E=       -0.001651345545 Rises=F Damp=F
 DIIS: error= 7.92D-04 at cycle   4 NSaved=   4.
 NSaved= 4 IEnMin= 4 EnMin= -557.419275107246     IErMin= 4 ErrMin= 7.92D-04
 ErrMax= 7.92D-04  0.00D+00 EMaxC= 1.00D-01 BMatC= 1.37D-04 BMatP= 2.06D-03
 IDIUse=3 WtCom= 9.92D-01 WtEn= 7.92D-03
 Coeff-Com: -0.659D-03 0.287D+00 0.329D+00 0.385D+00
 Coeff-En:   0.000D+00 0.000D+00 0.000D+00 0.100D+01
 Coeff:     -0.654D-03 0.285D+00 0.326D+00 0.390D+00
 Gap=     0.157 Goal=   None    Shift=    0.000
 RMSDP=4.66D-05 MaxDP=3.35D-03 DE=-1.65D-03 OVMax= 7.14D-03

 Cycle   5  Pass 0  IDiag  1:
 E= -557.419364016809     Delta-E=       -0.000088909563 Rises=F Damp=F
 DIIS: error= 3.89D-04 at cycle   5 NSaved=   5.
 NSaved= 5 IEnMin= 5 EnMin= -557.419364016809     IErMin= 5 ErrMin= 3.89D-04
 ErrMax= 3.89D-04  0.00D+00 EMaxC= 1.00D-01 BMatC= 3.39D-05 BMatP= 1.37D-04
 IDIUse=3 WtCom= 9.96D-01 WtEn= 3.89D-03
 Coeff-Com: -0.390D-02 0.107D+00 0.132D+00 0.309D+00 0.457D+00
 Coeff-En:   0.000D+00 0.000D+00 0.000D+00 0.235D+00 0.765D+00
 Coeff:     -0.388D-02 0.107D+00 0.131D+00 0.308D+00 0.458D+00
 Gap=     0.157 Goal=   None    Shift=    0.000
 RMSDP=1.89D-05 MaxDP=1.43D-03 DE=-8.89D-05 OVMax= 2.97D-03

 Cycle   6  Pass 0  IDiag  1:
 E= -557.419388375506     Delta-E=       -0.000024358697 Rises=F Damp=F
 DIIS: error= 5.80D-05 at cycle   6 NSaved=   6.
 NSaved= 6 IEnMin= 6 EnMin= -557.419388375506     IErMin= 6 ErrMin= 5.80D-05
 ErrMax= 5.80D-05  0.00D+00 EMaxC= 1.00D-01 BMatC= 2.24D-06 BMatP= 3.39D-05
 IDIUse=1 WtCom= 1.00D+00 WtEn= 0.00D+00
 Coeff-Com: -0.216D-02 0.297D-01 0.383D-01 0.141D+00 0.280D+00 0.514D+00
 Coeff:     -0.216D-02 0.297D-01 0.383D-01 0.141D+00 0.280D+00 0.514D+00
 Gap=     0.157 Goal=   None    Shift=    0.000
 RMSDP=5.35D-06 MaxDP=3.40D-04 DE=-2.44D-05 OVMax= 5.57D-04

 Initial convergence to 1.0D-05 achieved.  Increase integral accuracy.
 Cycle   7  Pass 1  IDiag  1:
 E= -557.419380609889     Delta-E=        0.000007765617 Rises=F Damp=F
 DIIS: error= 1.54D-05 at cycle   1 NSaved=   1.
 NSaved= 1 IEnMin= 1 EnMin= -557.419380609889     IErMin= 1 ErrMin= 1.54D-05
 ErrMax= 1.54D-05  0.00D+00 EMaxC= 1.00D-01 BMatC= 2.97D-07 BMatP= 2.97D-07
 IDIUse=1 WtCom= 1.00D+00 WtEn= 0.00D+00
 Coeff-Com:  0.100D+01
 Coeff:      0.100D+01
 Gap=     0.157 Goal=   None    Shift=    0.000
 RMSDP=5.35D-06 MaxDP=3.40D-04 DE= 7.77D-06 OVMax= 3.54D-04

 Cycle   8  Pass 1  IDiag  1:
 E= -557.419380076091     Delta-E=        0.000000533797 Rises=F Damp=F
 DIIS: error= 3.40D-05 at cycle   2 NSaved=   2.
 NSaved= 2 IEnMin= 1 EnMin= -557.419380609889     IErMin= 1 ErrMin= 1.54D-05
 ErrMax= 3.40D-05  0.00D+00 EMaxC= 1.00D-01 BMatC= 9.21D-07 BMatP= 2.97D-07
 IDIUse=1 WtCom= 1.00D+00 WtEn= 0.00D+00
 Coeff-Com:  0.653D+00 0.347D+00
 Coeff:      0.653D+00 0.347D+00
 Gap=     0.157 Goal=   None    Shift=    0.000
 RMSDP=3.43D-06 MaxDP=2.06D-04 DE= 5.34D-07 OVMax= 3.63D-04

 Cycle   9  Pass 1  IDiag  1:
 E= -557.419380799933     Delta-E=       -0.000000723841 Rises=F Damp=F
 DIIS: error= 1.35D-05 at cycle   3 NSaved=   3.
 NSaved= 3 IEnMin= 3 EnMin= -557.419380799933     IErMin= 3 ErrMin= 1.35D-05
 ErrMax= 1.35D-05  0.00D+00 EMaxC= 1.00D-01 BMatC= 5.35D-08 BMatP= 2.97D-07
 IDIUse=1 WtCom= 1.00D+00 WtEn= 0.00D+00
 Coeff-Com:  0.201D+00 0.206D+00 0.594D+00
 Coeff:      0.201D+00 0.206D+00 0.594D+00
 Gap=     0.157 Goal=   None    Shift=    0.000
 RMSDP=1.03D-06 MaxDP=7.04D-05 DE=-7.24D-07 OVMax= 1.48D-04

 Cycle  10  Pass 1  IDiag  1:
 E= -557.419380821558     Delta-E=       -0.000000021625 Rises=F Damp=F
 DIIS: error= 1.03D-05 at cycle   4 NSaved=   4.
 NSaved= 4 IEnMin= 4 EnMin= -557.419380821558     IErMin= 4 ErrMin= 1.03D-05
 ErrMax= 1.03D-05  0.00D+00 EMaxC= 1.00D-01 BMatC= 2.71D-08 BMatP= 5.35D-08
 IDIUse=1 WtCom= 1.00D+00 WtEn= 0.00D+00
 Coeff-Com:  0.249D-01 0.915D-01 0.466D+00 0.418D+00
 Coeff:      0.249D-01 0.915D-01 0.466D+00 0.418D+00
 Gap=     0.157 Goal=   None    Shift=    0.000
 RMSDP=5.43D-07 MaxDP=3.69D-05 DE=-2.16D-08 OVMax= 7.35D-05

 Cycle  11  Pass 1  IDiag  1:
 E= -557.419380841770     Delta-E=       -0.000000020212 Rises=F Damp=F
 DIIS: error= 2.43D-06 at cycle   5 NSaved=   5.
 NSaved= 5 IEnMin= 5 EnMin= -557.419380841770     IErMin= 5 ErrMin= 2.43D-06
 ErrMax= 2.43D-06  0.00D+00 EMaxC= 1.00D-01 BMatC= 2.56D-09 BMatP= 2.71D-08
 IDIUse=1 WtCom= 1.00D+00 WtEn= 0.00D+00
 Coeff-Com: -0.563D-02 0.395D-01 0.254D+00 0.290D+00 0.422D+00
 Coeff:     -0.563D-02 0.395D-01 0.254D+00 0.290D+00 0.422D+00
 Gap=     0.157 Goal=   None    Shift=    0.000
 RMSDP=1.85D-07 MaxDP=9.74D-06 DE=-2.02D-08 OVMax= 1.72D-05

 Cycle  12  Pass 1  IDiag  1:
 E= -557.419380843824     Delta-E=       -0.000000002054 Rises=F Damp=F
 DIIS: error= 4.40D-07 at cycle   6 NSaved=   6.
 NSaved= 6 IEnMin= 6 EnMin= -557.419380843824     IErMin= 6 ErrMin= 4.40D-07
 ErrMax= 4.40D-07  0.00D+00 EMaxC= 1.00D-01 BMatC= 1.78D-10 BMatP= 2.56D-09
 IDIUse=1 WtCom= 1.00D+00 WtEn= 0.00D+00
 Coeff-Com: -0.535D-02 0.176D-01 0.123D+00 0.151D+00 0.268D+00 0.446D+00
 Coeff:     -0.535D-02 0.176D-01 0.123D+00 0.151D+00 0.268D+00 0.446D+00
 Gap=     0.157 Goal=   None    Shift=    0.000
 RMSDP=4.50D-08 MaxDP=2.56D-06 DE=-2.05D-09 OVMax= 5.78D-06

 Cycle  13  Pass 1  IDiag  1:
 E= -557.419380843951     Delta-E=       -0.000000000127 Rises=F Damp=F
 DIIS: error= 1.83D-07 at cycle   7 NSaved=   7.
 NSaved= 7 IEnMin= 7 EnMin= -557.419380843951     IErMin= 7 ErrMin= 1.83D-07
 ErrMax= 1.83D-07  0.00D+00 EMaxC= 1.00D-01 BMatC= 1.56D-11 BMatP= 1.78D-10
 IDIUse=1 WtCom= 1.00D+00 WtEn= 0.00D+00
 Coeff-Com: -0.298D-02 0.710D-02 0.535D-01 0.682D-01 0.129D+00 0.280D+00
 Coeff-Com:  0.465D+00
 Coeff:     -0.298D-02 0.710D-02 0.535D-01 0.682D-01 0.129D+00 0.280D+00
 Coeff:      0.465D+00
 Gap=     0.157 Goal=   None    Shift=    0.000
 RMSDP=1.08D-08 MaxDP=8.67D-07 DE=-1.27D-10 OVMax= 9.70D-07

 Cycle  14  Pass 1  IDiag  1:
 E= -557.419380843995     Delta-E=       -0.000000000044 Rises=F Damp=F
 DIIS: error= 5.17D-08 at cycle   8 NSaved=   8.
 NSaved= 8 IEnMin= 8 EnMin= -557.419380843995     IErMin= 8 ErrMin= 5.17D-08
 ErrMax= 5.17D-08  0.00D+00 EMaxC= 1.00D-01 BMatC= 9.40D-13 BMatP= 1.56D-11
 IDIUse=1 WtCom= 1.00D+00 WtEn= 0.00D+00
 Coeff-Com: -0.482D-03 0.447D-03 0.529D-02 0.803D-02 0.166D-01 0.654D-01
 Coeff-Com:  0.223D+00 0.682D+00
 Coeff:     -0.482D-03 0.447D-03 0.529D-02 0.803D-02 0.166D-01 0.654D-01
 Coeff:      0.223D+00 0.682D+00
 Gap=     0.157 Goal=   None    Shift=    0.000
 RMSDP=3.79D-09 MaxDP=2.28D-07 DE=-4.39D-11 OVMax= 3.25D-07

 SCF Done:  E(RB3LYP) =  -557.419380844     A.U. after   14 cycles
            NFock= 14  Conv=0.38D-08     -V/T= 2.0052
 KE= 5.545367579536D+02 PE=-2.399006258221D+03 EE= 7.398444506628D+02
 Leave Link  502 at Fri Aug 27 03:42:46 2021, MaxMem= 24159191040 cpu:       203.7
 (Enter /public/home/users/caep010/software/Gaussian09/g09/l701.exe)
 Compute integral first derivatives.
 ... and contract with generalized density number  0.
 Leave Link  701 at Fri Aug 27 03:42:46 2021, MaxMem= 24159191040 cpu:        14.5
 (Enter /public/home/users/caep010/software/Gaussian09/g09/l702.exe)
 L702 exits ... SP integral derivatives will be done elsewhere.
 Leave Link  702 at Fri Aug 27 03:42:46 2021, MaxMem= 24159191040 cpu:         0.4
 (Enter /public/home/users/caep010/software/Gaussian09/g09/l703.exe)
 Compute integral first derivatives, UseDBF=F ICtDFT=           0.
 Integral derivatives from FoFJK, PRISM(SPDF).
 Calling FoFJK, ICntrl=      2127 FMM=F ISym2X=0 I1Cent= 0 IOpClX= 0 NMat=1 NMatS=1 NMatT=0.
 FoFJK:  IHMeth= 1 ICntrl=    2127 DoSepK=F KAlg= 0 I1Cent=   0 FoldK=F
 IRaf=         0 NMat=   1 IRICut=       1 DoRegI=T DoRafI=F ISym2E= 0.
 FoFCou: FMM=F IPFlag=           0 FMFlag=      100000 FMFlg1=         800
         NFxFlg=           0 DoJE=F BraDBF=F KetDBF=F FulRan=T
         wScrn=  0.000000 ICntrl=    2127 IOpCl=  0 I1Cent=           0 NGrid=           0
         NMat0=    1 NMatS0=      1 NMatT0=    0 NMatD0=    1 NMtDS0=    0 NMtDT0=    0
 Symmetry not used in FoFCou.
 Leave Link  703 at Fri Aug 27 03:42:51 2021, MaxMem= 24159191040 cpu:       130.4
 (Enter /public/home/users/caep010/software/Gaussian09/g09/l716.exe)
 Dipole        =-1.80431547D+00 1.03228627D+00 4.52141432D-01
 ***** Axes restored to original set *****
 -------------------------------------------------------------------
 Center     Atomic                   Forces (Hartrees/Bohr)
 Number     Number              X              Y              Z
 -------------------------------------------------------------------
      1        7           0.000918513    0.001060528   -0.001295204
      2        6          -0.002257936   -0.010060316    0.008732690
      3        6          -0.004504256   -0.000628020    0.009521227
      4        7          -0.005025703    0.006986048    0.014074803
      5        7           0.002265265   -0.004291477   -0.010809559
      6        7          -0.001319096    0.000126507   -0.002390376
      7        7          -0.027818181   -0.042797198    0.067815381
      8        1           0.039946848   -0.036640262   -0.070168356
      9        8           0.000407988    0.000300383   -0.004499526
     10        7           0.064000045    0.047184791    0.004793840
     11        1          -0.007761183   -0.044928283   -0.066264406
     12        8           0.004049114   -0.002206135   -0.009466062
     13        1          -0.007368218    0.083164686   -0.009857844
     14        1          -0.055533199    0.002728747    0.069813391
 -------------------------------------------------------------------
 Cartesian Forces:  Max     0.083164686 RMS     0.032279825
 Leave Link  716 at Fri Aug 27 03:42:51 2021, MaxMem= 24159191040 cpu:         0.6
 (Enter /public/home/users/caep010/software/Gaussian09/g09/l103.exe)

 GradGradGradGradGradGradGradGradGradGradGradGradGradGradGradGradGradGrad
 Berny optimization.
 Using GEDIIS/GDIIS optimizer.
 FormGI is forming the generalized inverse of G from B-inverse, IUseBI=4.
 Internal  Forces:  Max     0.087900095 RMS     0.022825456
 Search for a local minimum.
 Step number   2 out of a maximum of   68
 All quantities printed in internal units (Hartrees-Bohrs-Radians)
 RMS Force = .22825D-01 SwitMx=.10000D-02 MixMth= 1
 Mixed Optimization -- RFO/linear search
 Update second derivatives using D2CorX and points    1    2
 DE= -7.53D-02 DEPred=-7.17D-02 R= 1.05D+00
 TightC=F SS=  1.41D+00  RLast= 3.02D-01 DXNew= 5.0454D-01 9.0549D-01
 Trust test= 1.05D+00 RLast= 3.02D-01 DXMaxT set to 5.05D-01
 ITU=  1  0
 Use linear search instead of GDIIS.
     Eigenvalues ---    0.00013   0.00855   0.01114   0.01418   0.01872
     Eigenvalues ---    0.02134   0.02906   0.04746   0.04815   0.05545
     Eigenvalues ---    0.10159   0.11905   0.14405   0.15086   0.16879
     Eigenvalues ---    0.18848   0.20537   0.24157   0.25436   0.25636
     Eigenvalues ---    0.27082   0.31607   0.34217   0.39249   0.41717
     Eigenvalues ---    0.44502   0.47159   0.51313   0.54333   0.58544
     Eigenvalues ---    0.62306   0.71866   0.90036   1.04289   1.10037
     Eigenvalues ---    1.14007
 RFO step:  Lambda=-2.42718724D-02 EMin= 1.32302550D-04
 Quartic linear search produced a step of  1.27658.
 Iteration  1 RMS(Cart)=  0.08556670 RMS(Int)=  0.02767947
 Iteration  2 RMS(Cart)=  0.03525936 RMS(Int)=  0.00224474
 Iteration  3 RMS(Cart)=  0.00173148 RMS(Int)=  0.00109493
[...]
     1  N    6.867007   0.546786  -0.069301   0.009725   0.296684  -0.070301
     2  C    0.546786   4.485630   0.479844  -0.042141  -0.134164  -0.088639
     3  C   -0.069301   0.479844   4.886897   0.332687  -0.165491   0.526619
     4  N    0.009725  -0.042141   0.332687   5.529254   0.006654  -0.008195
     5  N    0.296684  -0.134164  -0.165491   0.006654   6.008263   0.345194
     6  N   -0.070301  -0.088639   0.526619  -0.008195   0.345194   6.684808
     7  N   -0.069966   0.378248  -0.084286   0.005823   0.011382   0.010471
     8  H   -0.002441  -0.022863   0.005616  -0.000780  -0.001963   0.000275
     9  O    0.000835  -0.018826  -0.049134   0.311729  -0.001747   0.005114
    10  N   -0.066696   0.009052   0.004901  -0.000072   0.252473  -0.077697
    11  H    0.003140   0.006102  -0.005270   0.000444  -0.033108  -0.004135
    12  O   -0.001289   0.011075  -0.082675   0.381154   0.002455  -0.013189
    13  H    0.004204  -0.014466  -0.016167   0.005147  -0.001228   0.000659
    14  H    0.002130  -0.001381   0.001267  -0.000044  -0.033820   0.000793
               7          8          9         10         11         12
     1  N   -0.069966  -0.002441   0.000835  -0.066696   0.003140  -0.001289
     2  C    0.378248  -0.022863  -0.018826   0.009052   0.006102   0.011075
     3  C   -0.084286   0.005616  -0.049134   0.004901  -0.005270  -0.082675
     4  N    0.005823  -0.000780   0.311729  -0.000072   0.000444   0.381154
     5  N    0.011382  -0.001963  -0.001747   0.252473  -0.033108   0.002455
     6  N    0.010471   0.000275   0.005114  -0.077697  -0.004135  -0.013189
     7  N    6.722303   0.380007  -0.015327  -0.001243  -0.000717  -0.001039
     8  H    0.380007   0.323182   0.000793  -0.000197   0.000028   0.000089
     9  O   -0.015327   0.000793   8.309290   0.000068  -0.000033  -0.090180
    10  N   -0.001243  -0.000197   0.000068   6.723337   0.378971  -0.000194
    11  H   -0.000717   0.000028  -0.000033   0.378971   0.339823  -0.000069
    12  O   -0.001039   0.000089  -0.090180  -0.000194  -0.000069   8.194855
    13  H    0.380873  -0.021138   0.003783   0.000045   0.000011  -0.000210
    14  H   -0.000082   0.000000  -0.000010   0.385369  -0.025831  -0.000106
              13         14
     1  N    0.004204   0.002130
     2  C   -0.014466  -0.001381
     3  C   -0.016167   0.001267
     4  N    0.005147  -0.000044
     5  N   -0.001228  -0.033820
     6  N    0.000659   0.000793
     7  N    0.380873  -0.000082
     8  H   -0.021138   0.000000
     9  O    0.003783  -0.000010
    10  N    0.000045   0.385369
    11  H    0.000011  -0.025831
    12  O   -0.000210  -0.000106
    13  H    0.297609  -0.000002
    14  H   -0.000002   0.326007
 Mulliken charges:
               1
     1  N   -0.450517
     2  C    0.405743
     3  C    0.234491
     4  N    0.468616
     5  N    0.448418
     6  N   -0.311778
     7  N   -0.716448
     8  H    0.339391
     9  O   -0.456355
    10  N   -0.608116
    11  H    0.340644
    12  O   -0.400676
    13  H    0.360878
    14  H    0.345709
 Sum of Mulliken charges =  -0.00000
 Mulliken charges with hydrogens summed into heavy atoms:
               1
     1  N   -0.450517
     2  C    0.405743
     3  C    0.234491
     4  N    0.468616
     5  N    0.448418
     6  N   -0.311778
     7  N   -0.016178
     9  O   -0.456355
    10  N    0.078237
    12  O   -0.400676
 Electronic spatial extent (au):  <R**2>=           1357.2719
 Charge=             -0.0000 electrons
 Dipole moment (field-independent basis, Debye):
    X=             -4.4149    Y=              1.8493    Z=              0.6209  Tot=              4.8267
 Quadrupole moment (field-independent basis, Debye-Ang):
   XX=            -58.2450   YY=            -53.8642   ZZ=            -57.1337
   XY=             10.1708   XZ=             -5.6659   YZ=             -2.8084
 Traceless Quadrupole moment (field-independent basis, Debye-Ang):
   XX=             -1.8307   YY=              2.5501   ZZ=             -0.7194
   XY=             10.1708   XZ=             -5.6659   YZ=             -2.8084
 Octapole moment (field-independent basis, Debye-Ang**2):
  XXX=            -50.1302  YYY=             26.5507  ZZZ=              0.7624  XYY=             -6.9766
  XXY=            -10.3758  XXZ=             19.0281  XZZ=              3.9186  YZZ=             -4.0591
  YYZ=             -6.7156  XYZ=              0.7722
 Hexadecapole moment (field-independent basis, Debye-Ang**3):
 XXXX=          -1030.9402 YYYY=           -462.4678 ZZZZ=            -55.7999 XXXY=             71.4267
 XXXZ=            -72.9865 YYYX=             48.3631 YYYZ=            -22.2383 ZZZX=             -6.1327
 ZZZY=             -2.5517 XXYY=           -254.7824 XXZZ=           -186.8381 YYZZ=           -107.0826
 XXYZ=             -9.4098 YYXZ=             -5.5812 ZZXY=             -3.6520
 N-N= 5.445940287148D+02 E-N=-2.391174144729D+03  KE= 5.535895639024D+02
 No NMR shielding tensors so no spin-rotation constants.
 Leave Link  601 at Fri Aug 27 05:34:30 2021, MaxMem= 24159191040 cpu:        36.8
 (Enter /public/home/users/caep010/software/Gaussian09/g09/l9999.exe)
 1\1\GINC-B1624\SP\RHF\GFHFB2\C2H4N6O2\ROOT\27-Aug-2021\0\\#P Geom=AllC
 heck Guess=TCheck SCRF=Check HF/GFHFB2 SCF=Tight\\INEZUY\\0,1\N,0,0.68
 98379949,10.5894339255,-0.679122806\C,0,0.5302584484,11.9188890134,-0.
 8131214904\C,0,0.0646249465,12.4125900102,0.4249545773\N,0,-0.21214035
 31,13.7571117515,0.7723074993\N,0,0.3017537342,10.3723661508,0.5802123
 608\N,0,-0.0797556458,11.3866113643,1.2913500919\N,0,0.7489644336,12.5
 856709314,-1.9721055123\H,0,1.3410522017,12.1419625314,-2.654839209\O,
 0,-0.0117510242,14.5956490954,-0.1218283384\N,0,0.4147550679,9.0974659
 737,1.1244409932\H,0,-0.0936565722,8.460125343,0.5149637689\O,0,-0.617
 5399319,14.0156446144,1.8956167569\H,0,0.7917924215,13.5895753116,-1.8
 817562923\H,0,-0.0457957215,9.1417039834,2.0297276002\\Version=ES64L-G
 09RevE.01\State=1-A\HF=-554.5177125\RMSD=4.023e-09\Dipole=0.1946587,-1
 .7587459,-0.6892051\Quadrupole=-0.5879025,-0.4067028,0.9946053,6.34159
 34,-1.9834103,-6.1033583\PG=C01 [X(C2H4N6O2)]\\@


 HERE WE GO......
 SLIDING DOWN THE RAZOR BLADE OF LIFE......
                                 TOM LEHRER
 Diagonal vibrational polarizability:
        0.0000000       0.0000000       0.0000000

 Temperature=              298.150000 Pressure=                      1.000000
 E(ZPE)=                     0.094385 E(Thermal)=                    0.103150
 E(CCSD(T))=              -555.950743 E(Empiric)=                   -0.187569
 DE(Plus)=                  -0.044875 DE(2DF)=                      -0.387121
 E(Delta-G3XP)=             -0.670513 DE(HF)=                       -0.054850
 G4(0 K)=                 -557.201286 G4 Energy=                  -557.192521
 G4 Enthalpy=             -557.191576 G4 Free Energy=             -557.235145
 1\1\GINC-B1624\Mixed\G4\G4\C2H4N6O2\ROOT\27-Aug-2021\0\\#P Geom=AllChe
 ck Guess=TCheck SCRF=Check HF/GFHFB2 SCF=Tight\\INEZUY\\0,1\N,0,0.6898
 379949,10.5894339255,-0.679122806\C,0,0.5302584484,11.9188890134,-0.81
 31214904\C,0,0.0646249465,12.4125900102,0.4249545773\N,0,-0.2121403531
 ,13.7571117515,0.7723074993\N,0,0.3017537342,10.3723661508,0.580212360
 8\N,0,-0.0797556458,11.3866113643,1.2913500919\N,0,0.7489644336,12.585
 6709314,-1.9721055123\H,0,1.3410522017,12.1419625314,-2.654839209\O,0,
 -0.0117510242,14.5956490954,-0.1218283384\N,0,0.4147550679,9.097465973
 7,1.1244409932\H,0,-0.0936565722,8.460125343,0.5149637689\O,0,-0.61753
 99319,14.0156446144,1.8956167569\H,0,0.7917924215,13.5895753116,-1.881
 7562923\H,0,-0.0457957215,9.1417039834,2.0297276002\\Version=ES64L-G09
 RevE.01\State=1-A\MP2/GTBas1=-555.8783535\MP4/GTBas1=-555.9688098\CCSD
 (T)/G3Bas1=-555.9507428\MP2/GTBas2=-555.9204264\MP4/GTBas2=-556.013684
 5\MP2/GTBas3=-556.2440532\MP4/GTBas3=-556.3559309\HF/GTLargeXP=-554.46
 49809\MP2/GTLargeXP=-556.9566395\HF/GFHFB1=-554.5090193\HF/GFHFB2=-554
 .5177125\G4=-557.2012859\FreqCoord=1.3036048864,20.0111300214,-1.28335
 61138,1.0020432472,22.5234360437,-1.5365769296,0.1221234503,23.4563957
 19,0.80304777,-0.400887169,25.9971735898,1.459449664,0.5702319172,19.6
 00931375,1.0964424607,-0.1507163281,21.5175770601,2.4402980153,1.41533
 76628,23.783471259,-3.7267393234,2.5342213911,22.9449839001,-5.0169190
 318,-0.0222062176,27.5817795221,-0.2302221948,0.7837734906,17.19171919
 36,2.1248855297,-0.176985272,15.9873199481,0.9731404917,-1.1669813474,
 26.4857298971,3.5821965234,1.4962708307,25.6805756011,-3.5560040413,-0
 .0865413718,17.2753169166,3.8356292887\PG=C01 [X(C2H4N6O2)]\NImag=0\\0
 .13151541,-0.06664737,0.54199796,-0.11009688,-0.02444185,0.44145346,-0
 .08221597,0.03856310,0.01248468,0.23323841,0.03425396,-0.31949502,0.01
 695698,-0.02550360,0.68377356,0.01976000,-0.00678515,-0.12488780,-0.17
 706069,-0.15432761,0.78241069,0.01103608,0.03014017,-0.00034946,-0.092
 37913,0.01537348,0.05789940,0.17961980,0.00804628,-0.03732076,0.003985
 36,0.02402389,-0.12005905,-0.04284185,-0.07771212,0.72849957,0.0081859
 7,-0.06939020,0.01642600,0.05514386,-0.02806306,-0.23227531,-0.1531060
 3,-0.00901043,0.60019574,0.00552985,0.00383954,0.00481396,-0.00869483,
 0.00868221,0.00023585,-0.07761319,0.02096696,0.01273379,0.31022058,0.0
 0170184,-0.00112447,-0.00456193,0.00997781,-0.00367930,-0.04029086,0.0
 2028956,-0.17050188,-0.02309399,-0.03897987,0.68651325,0.00504483,-0.0
 0588763,-0.00642111,-0.00037683,-0.02918544,0.00444712,0.01330795,-0.0
 2820202,-0.10244449,-0.20279942,-0.04280035,0.86020158,-0.08383264,-0.
 00076298,0.05837837,0.00849439,-0.01892028,-0.00027371,0.00747986,0.02
 161916,0.00919947,0.00186198,-0.00272826,0.00249001,0.18956580,0.01712
 224,-0.11425722,-0.01297413,-0.00892318,-0.06567903,0.05892367,0.01793
 041,-0.13712606,0.01357125,-0.00163638,0.00487546,0.00872870,-0.081261
 19,0.87925307,0.05376943,0.04607239,-0.24293959,0.00387030,0.07606199,
 -0.02761039,0.00894930,-0.01113143,-0.00961937,0.00197406,0.01233318,-
 0.00653691,-0.15124846,-0.06451916,0.65064867,0.01575675,0.01049293,0.
 04162164,0.00613511,0.00311763,0.01703944,-0.06718027,-0.01125470,0.02
 934894,-0.00985142,0.00318239,-0.01009054,-0.09171508,0.04697576,0.057
 09009,0.14698576,0.01734236,-0.03973473,-0.03036054,-0.01702318,0.0278
 9491,0.03920239,-0.02622769,-0.18204541,0.13192197,0.00019716,-0.05013
 017,0.01154026,0.07636801,-0.26403372,-0.13193132,-0.06108218,0.549739
 78,0.03584505,-0.00019239,-0.07897073,0.02547346,-0.01708725,-0.057361
 79,0.03424453,0.08883367,-0.20266530,-0.00984316,0.00580063,0.01375962
 ,0.04763888,-0.07171825,-0.18962229,-0.12958613,-0.00786013,0.49482821
 ,0.00515742,0.00325675,-0.00641701,-0.06317853,-0.02113864,0.09113412,
 0.00474990,-0.01037009,0.01087057,-0.00032092,0.00246139,-0.00086135,0
 .00273388,0.00079921,0.00139186,0.00267267,0.00240813,0.00313418,0.226
 19722,-0.00848914,-0.03119062,0.04614707,-0.00242465,-0.18259097,0.106
 33607,-0.00091689,0.02563643,-0.00738206,0.00052553,-0.01417558,0.0037
 0873,0.00180049,-0.00316479,0.00417995,0.00114005,-0.01138577,-0.00002
 073,-0.07340897,0.80221011,-0.00678492,0.01942590,0.01084198,0.0563886
 4,0.10482461,-0.30347345,0.01150824,-0.00324222,-0.03479980,-0.0032221
 1,0.02221110,0.00107429,0.00799074,-0.00855601,-0.01447592,0.00092937,
 0.01224640,-0.00299051,-0.29943125,0.01019734,0.61724360,-0.00029891,-
 0.00036558,-0.00178999,-0.00453376,0.00245407,-0.00599553,0.00113296,0
 .00214229,0.00041923,0.00054497,-0.00173429,0.00060602,-0.00142499,0.0
 0010504,0.00120841,0.00245312,-0.00052791,-0.00009571,-0.16108253,0.11
 645151,0.20237144,0.16418347,0.00085496,0.00095220,-0.00164095,-0.0135
 2590,0.01483582,0.01191838,-0.00048860,-0.00042043,0.00277801,0.000248
 48,-0.00412696,0.00088127,-0.00113372,0.00008596,0.00167538,0.00058781
 ,-0.00140456,0.00111558,0.10627589,-0.14799269,-0.11217501,-0.11489765
 ,0.13955630,-0.00075894,-0.00321523,0.00233489,0.02022724,-0.01285010,
 -0.03040895,0.00023679,0.00583403,0.00140594,0.00081761,-0.00186641,-0
 .00081549,-0.00122190,0.00017513,0.00002461,0.00082320,-0.00093706,-0.
 00046558,0.17151904,-0.10979614,-0.21760571,-0.18845385,0.12020428,0.2
 4431567,0.00010110,0.00044105,-0.00002868,-0.00145086,-0.00118019,0.00
 399600,0.01936223,-0.00147365,-0.00099371,-0.09186788,-0.02516152,0.04
 758282,0.00039726,0.00003195,-0.00042542,0.00470632,0.00174733,0.00106
 579,-0.00049944,0.00305606,0.00025539,0.00080695,0.00095637,0.00026154
 ,0.05492654,-0.00014703,0.00210503,0.00033698,-0.00312460,-0.00233855,
 0.01326898,-0.00220364,-0.06838951,0.03793369,-0.03466448,-0.30940589,
 0.18450183,-0.00063958,-0.00225982,0.00097474,0.00336497,-0.00088231,-
 0.00822664,0.00076949,0.00471066,-0.01002367,0.00026211,0.00047437,0.0
 0044540,0.04005675,0.35292306,0.00024021,-0.00251949,0.00008758,0.0035
 8843,0.00382070,-0.01598381,-0.00130592,0.03675999,0.00919039,0.051449
 45,0.15616571,-0.28624725,0.00037928,-0.00014144,0.00060123,0.00053442
 ,-0.00247918,0.00512613,0.00398600,-0.00954047,0.00403917,-0.00111067,
 -0.00338655,-0.00042490,-0.08370824,-0.23492901,0.36320083,-0.00094907
 ,-0.01937273,0.00195430,-0.00173174,0.00494109,0.00748174,0.00653611,0
 .00613203,-0.00223313,0.00539232,-0.00420497,-0.00076952,-0.03220402,-
 0.00975007,0.02615388,-0.00940074,0.00322735,-0.00603032,0.00128083,-0
 .00111254,-0.00149935,-0.00006470,0.00021107,-0.00015483,-0.00120509,0
 .00191834,-0.00166386,0.25753080,-0.00427539,0.00244715,0.01032282,0.0
 0367183,-0.00637194,-0.00478492,-0.00048318,-0.01549178,0.00269446,-0.
 00383143,0.01014296,0.00490094,0.04153490,-0.24978763,0.04189685,0.007
 78091,-0.03289994,0.01022222,0.00019776,0.00228129,0.00021368,-0.00012
 826,-0.00011952,0.00002766,-0.00005021,-0.00462061,0.00270906,0.118193
 46,0.53115573,-0.00494204,0.04464649,-0.01608530,0.00066362,-0.0005356
 2,-0.00769817,0.00367711,0.00339471,-0.00465999,0.00378286,-0.00399543
 ,0.00034225,0.00658428,0.05373835,-0.15115836,-0.00795101,-0.02802165,
 0.01921139,0.00009588,0.00231186,0.00161139,-0.00007933,-0.00015544,0.
 00016630,-0.00073000,0.00050722,-0.00084797,-0.06095433,0.09079035,0.6
 9553064,-0.00009774,0.00179636,-0.00003356,0.00074079,-0.00242518,-0.0
 0142418,-0.00061656,-0.00253694,0.00325302,-0.00031911,0.00263766,0.00
 085906,0.00070663,0.00878259,0.00402604,-0.00080197,0.00817729,-0.0020
 4425,-0.00006172,0.00023943,0.00058306,-0.00003646,-0.00013212,-0.0000
 2873,-0.00018552,-0.00082549,0.00058122,-0.12058211,-0.15662292,-0.136
 39461,0.11602898,-0.00053441,0.00229236,-0.00166637,0.00063499,-0.0008
 8079,0.00009756,0.00124272,-0.00009049,-0.00015709,0.00096192,-0.00089
 520,0.00046154,-0.01550762,-0.04179019,-0.02188534,-0.00490778,-0.0035
 5993,0.00303563,0.00018831,0.00027996,0.00010222,-0.00005250,-0.000039
 57,0.00003006,-0.00023003,0.00018214,-0.00036997,-0.10769517,-0.172872
 20,-0.12006412,0.12592927,0.21543156,-0.00092028,-0.00113592,0.0006199
 1,0.00023554,0.00119725,0.00040569,0.00016575,0.00344203,-0.00043081,-
 0.00027496,-0.00175431,-0.00097875,0.00921467,0.01885494,0.01538390,0.
 00107775,-0.00098372,-0.00127269,-0.00015541,-0.00035204,0.00002354,-0
 .00004831,0.00005405,-0.00000317,0.00019880,0.00078064,-0.00046074,-0.
 10478677,-0.13923767,-0.20063435,0.11844776,0.13955778,0.20297062,-0.0
 0189536,0.00029517,-0.00119210,0.00559527,0.00068062,-0.00133503,0.009
 55425,0.01828844,0.02587282,-0.13325514,0.03922113,0.14238108,-0.00006
 977,0.00033804,0.00117037,0.00080849,-0.00270936,0.00065069,-0.0004204
 6,0.00038905,0.00190676,-0.00071199,-0.00010688,-0.00064341,0.01629383
 ,-0.00778741,0.03074609,-0.00076526,0.00135226,-0.00096794,0.00025337,
 -0.00017215,-0.00006019,0.10323297,0.00086582,-0.00335274,-0.00174160,
 -0.00148832,-0.00513832,0.01003422,0.02121478,-0.01760896,-0.05036168,
 0.04451703,-0.15822487,-0.10694951,0.00120688,0.00008219,-0.00441849,0
 .00028543,0.00273428,-0.00172878,-0.00046379,0.00238765,-0.00383511,0.
 00024533,0.00074998,0.00022269,-0.01852434,0.03604137,0.05191227,0.000
 62876,-0.00128325,0.00057846,-0.00030339,0.00018002,0.00023653,-0.0494
 4946,0.14532174,-0.00114161,-0.00086601,0.00220203,-0.00010326,0.00220
 193,0.00650474,0.02510346,-0.04210368,-0.04021430,0.14021616,-0.089634
 44,-0.46985890,0.00040317,-0.00143202,-0.00178254,-0.00080721,0.008001
 07,-0.00057557,0.00025951,-0.00129015,-0.00465366,-0.00009808,-0.00008
 253,0.00081111,0.03498030,0.01952591,-0.08384950,0.00141042,-0.0034369
 0,0.00171985,-0.00079589,0.00032185,0.00052185,-0.19839946,0.10800159,
 0.58692797,0.00069601,-0.00187576,0.00054799,-0.00183601,-0.00097529,-
 0.01138527,-0.00116679,0.00289444,0.00143657,-0.00098560,-0.00722759,0
 .00260377,0.00209584,0.00088665,0.00164469,-0.00154026,-0.00197102,0.0
 0040829,-0.01738684,-0.03723383,0.02882632,-0.00096975,0.02114735,-0.0
 0258421,-0.00147566,0.00331325,-0.00388211,0.00027656,0.00055937,0.000
 17020,0.00005633,0.00008001,-0.00007094,0.00129417,0.00143222,-0.00082
 760,0.02088975,-0.00169482,0.00350410,0.00082018,-0.00434888,-0.019706
 21,0.00685735,0.00199468,-0.00320767,-0.00187929,-0.00084552,0.0104675
 5,-0.00218228,0.00062321,-0.00151153,-0.00073739,0.00042692,0.00151844
 ,-0.00140968,-0.01119206,-0.44630223,-0.03080681,-0.00398583,-0.002612
 49,0.00177687,0.00034939,-0.00868233,0.00207419,0.00010465,-0.00025042
 ,0.00014383,-0.00004631,0.00000609,0.00009363,-0.00041446,-0.00200237,
 0.00119086,0.01897737,0.46884653,0.00199386,0.00165963,-0.00567400,-0.
 00124419,0.03743609,0.00678639,0.00043114,-0.00349996,-0.00015681,0.00
 094813,0.00996294,-0.00744089,0.00026643,0.00133460,-0.00037225,-0.000
 59129,0.00151939,-0.00102835,0.02450823,-0.04463725,-0.05729391,-0.006
 93446,-0.02116450,0.00067899,-0.00259516,-0.00439002,0.00529090,0.0006
 6391,-0.00085728,-0.00048186,-0.00017882,0.00000157,0.00014762,-0.0003
 6685,-0.00163748,0.00289354,-0.01687336,0.02405531,0.05679522,-0.00050
 293,0.00019935,0.00010674,0.00181687,0.00064012,-0.00007215,-0.0005152
 4,-0.00076600,-0.00013137,-0.00064160,0.00056471,0.00002213,-0.0040891
 5,0.00859894,-0.00957455,0.00097152,0.00007371,-0.00086130,0.00015851,
 -0.00001610,0.00017769,0.00000161,0.00000293,-0.00003954,0.00009022,-0
 .00029267,0.00016571,-0.10411387,-0.00789912,0.19704531,0.00491509,0.0
 0006242,-0.02302340,0.00008563,-0.00016695,-0.00019991,0.00005224,0.00
 005168,-0.00002758,0.10177110,0.00160070,-0.00682325,-0.00118203,-0.00
 050930,-0.00056512,0.00239176,-0.00015368,-0.00187399,0.00043842,0.000
 01884,0.00026513,0.00048395,-0.02219902,-0.00468669,0.05142864,-0.0001
 1012,0.00418914,-0.00076389,0.00021662,-0.00070344,-0.00058242,0.00003
 165,0.00006161,-0.00005118,-0.00001894,0.00014241,-0.00007581,0.006778
 71,-0.06232984,-0.04333903,0.01532975,0.00175626,-0.02075317,0.0000750
 0,0.00011329,-0.00039749,-0.00000717,-0.00006745,0.00021696,-0.0010530
 4,0.07052195,-0.00019469,0.00262945,0.00101269,0.00070920,-0.00045046,
 -0.00085495,-0.00076225,-0.00221819,0.00004813,-0.00083221,0.00152416,
 0.00091893,0.01019877,0.00401437,-0.02254078,0.00056134,-0.00185789,0.
 00202747,-0.00003438,0.00013782,0.00045900,0.00000083,-0.00002198,-0.0
 0001372,0.00014056,-0.00070607,0.00027794,0.14042788,-0.01546129,-0.33
 701584,0.01314988,0.00053467,-0.01629260,0.00023716,-0.00031310,-0.000
 64661,-0.00001433,0.00000322,-0.00014460,-0.16358776,0.01218528,0.3727
 6494\\-0.00000007,-0.00000021,0.00000200,-0.00001169,-0.00001017,0.000
 02358,0.00000164,0.00000066,-0.00000369,-0.00000096,-0.00000322,0.0000
 0312,-0.00000210,-0.00000266,-0.00000232,-0.00000077,-0.00000871,-0.00
 000162,0.00005612,0.00004481,-0.00003256,-0.00003031,0.00002616,0.0000
 3067,-0.00000128,-0.00000060,0.00000675,0.00002581,0.00001496,-0.00002
 992,-0.00000691,-0.00001596,-0.00002297,-0.00000372,-0.00000470,0.0000
 0166,-0.00000582,-0.00004132,-0.00000861,-0.00001994,0.00000097,0.0000
 3390\\\@
 Job cpu time:       0 days 11 hours  0 minutes 53.0 seconds.
 File lengths (MBytes):  RWF=  36490 Int=      0 D2E=      0 Chk=     69 Scr=      1
 Normal termination of Gaussian 09 at Fri Aug 27 05:34:31 2021.
