 Entering Gaussian System, Link 0=g09
 Input=G4.IVEREH.gjf
 Output=G4.IVEREH.log
 Initial command:
 /public/home/users/caep010/software/Gaussian09/g09/l1.exe "/public/home/users/caep010/.cache/gau_scr/Gau-38105.inp" -scrdir="/public/home/users/caep010/.cache/gau_scr/"
 Entering Link 1 = /public/home/users/caep010/software/Gaussian09/g09/l1.exe PID=     38106.
  
 Copyright (c) 1988,1990,1992,1993,1995,1998,2003,2009,2015,
            Gaussian, Inc.  All Rights Reserved.
  
 This is part of the Gaussian(R) 09 program.  It is based on
 the Gaussian(R) 03 system (copyright 2003, Gaussian, Inc.),
 the Gaussian(R) 98 system (copyright 1998, Gaussian, Inc.),
 the Gaussian(R) 94 system (copyright 1995, Gaussian, Inc.),
 the Gaussian 92(TM) system (copyright 1992, Gaussian, Inc.),
 the Gaussian 90(TM) system (copyright 1990, Gaussian, Inc.),
 the Gaussian 88(TM) system (copyright 1988, Gaussian, Inc.),
 the Gaussian 86(TM) system (copyright 1986, Carnegie Mellon
 University), and the Gaussian 82(TM) system (copyright 1983,
 Carnegie Mellon University). Gaussian is a federally registered
 trademark of Gaussian, Inc.
  
 This software contains proprietary and confidential information,
 including trade secrets, belonging to Gaussian, Inc.
  
 This software is provided under written license and may be
 used, copied, transmitted, or stored only in accord with that
 written license.
  
 The following legend is applicable only to US Government
 contracts under FAR:
  
                    RESTRICTED RIGHTS LEGEND
  
 Use, reproduction and disclosure by the US Government is
 subject to restrictions as set forth in subparagraphs (a)
 and (c) of the Commercial Computer Software - Restricted
 Rights clause in FAR 52.227-19.
  
 Gaussian, Inc.
 340 Quinnipiac St., Bldg. 40, Wallingford CT 06492
  
  
 ---------------------------------------------------------------
 Warning -- This program may not be used in any manner that
 competes with the business of Gaussian, Inc. or will provide
 assistance to any competitor of Gaussian, Inc.  The licensee
 of this program is prohibited from giving any competitor of
 Gaussian, Inc. access to this program.  By using this program,
 the user acknowledges that Gaussian, Inc. is engaged in the
 business of creating and licensing software in the field of
 computational chemistry and represents and warrants to the
 licensee that it is not a competitor of Gaussian, Inc. and that
 it will not use this program in any manner prohibited above.
 ---------------------------------------------------------------
  

 Cite this work as:
 Gaussian 09, Revision E.01,
 M. J. Frisch, G. W. Trucks, H. B. Schlegel, G. E. Scuseria, 
 M. A. Robb, J. R. Cheeseman, G. Scalmani, V. Barone, B. Mennucci, 
 G. A. Petersson, H. Nakatsuji, M. Caricato, X. Li, H. P. Hratchian, 
 A. F. Izmaylov, J. Bloino, G. Zheng, J. L. Sonnenberg, M. Hada, 
 M. Ehara, K. Toyota, R. Fukuda, J. Hasegawa, M. Ishida, T. Nakajima, 
 Y. Honda, O. Kitao, H. Nakai, T. Vreven, J. A. Montgomery, Jr., 
 J. E. Peralta, F. Ogliaro, M. Bearpark, J. J. Heyd, E. Brothers, 
 K. N. Kudin, V. N. Staroverov, T. Keith, R. Kobayashi, J. Normand, 
 K. Raghavachari, A. Rendell, J. C. Burant, S. S. Iyengar, J. Tomasi, 
 M. Cossi, N. Rega, J. M. Millam, M. Klene, J. E. Knox, J. B. Cross, 
 V. Bakken, C. Adamo, J. Jaramillo, R. Gomperts, R. E. Stratmann, 
 O. Yazyev, A. J. Austin, R. Cammi, C. Pomelli, J. W. Ochterski, 
 R. L. Martin, K. Morokuma, V. G. Zakrzewski, G. A. Voth, 
 P. Salvador, J. J. Dannenberg, S. Dapprich, A. D. Daniels, 
 O. Farkas, J. B. Foresman, J. V. Ortiz, J. Cioslowski, 
 and D. J. Fox, Gaussian, Inc., Wallingford CT, 2013.
 
 ******************************************
 Gaussian 09:  ES64L-G09RevE.01 30-Nov-2015
                26-Aug-2021 
 ******************************************
 %nproc=32
 Will use up to   32 processors via shared memory.
 %mem=180GB
 ----------------
 #P G4 OPT=calcfc
 ----------------
 1/10=4,14=-1,18=20,19=15,26=3,38=1/1,3;
 2/9=110,12=2,17=6,18=5,40=1/2;
 3/5=35,7=104,11=2,16=1,25=1,30=1,71=2,74=-5,140=1/1,2,3;
 4//1;
 5/5=2,38=5/2;
 8/6=4,10=90,11=11/1;
 11/6=1,8=1,9=11,15=111,16=1/1,2,10;
 10/6=1,13=1/2;
 6/7=2,8=2,9=2,10=2,28=1/1;
 7/10=1,18=20,25=1/1,2,3,16;
 1/10=4,14=-1,18=20,19=15,26=3/3(2);
 2/9=110/2;
 99//99;
 2/9=110/2;
 3/5=35,7=104,11=2,16=1,25=1,30=1,71=1,74=-5/1,2,3;
 4/5=5,16=3,69=1/1;
 5/5=2,38=5/2;
 7//1,2,3,16;
 1/14=-1,18=20,19=15,26=3/3(-5);
 2/9=110/2;
 6/7=2,8=2,9=2,10=2,19=2,28=1/1;
 99/9=1/99;
 Leave Link    1 at Thu Aug 26 05:01:18 2021, MaxMem= 24159191040 cpu:         3.2
 (Enter /public/home/users/caep010/software/Gaussian09/g09/l101.exe)
 ------
 IVEREH
 ------
 Symbolic Z-matrix:
 Charge =  0 Multiplicity = 1
 O                     0.2266    5.0207    5.8804 
 C                     1.0179    5.3422    4.9585 
 C                     2.1991    4.568     4.6683 
 C                     0.7987    6.492     4.138 
 C                     1.6256    6.8001    3.1055 
 C                     2.739     5.9931    2.8308 
 N                     3.581     6.3053    1.7094 
 O                     3.2585    7.2268    0.9751 
 O                     4.5912    5.6365    1.5128 
 C                     3.0314    4.9047    3.6016 
 C                     2.5368    3.4351    5.4423 
 H                     3.3281    2.9555    5.2425 
 N                     1.8502    3.01      6.4469 
 C                     2.1669    1.8181    7.2086 
 H                     2.2123    2.0867    8.1273 
 C                     1.1417    0.7474    6.979 
 H                     1.1208    3.4821    6.6771 
 H                     0.0828    7.021     4.357 
 H                     1.4326    7.6198    2.5722 
 H                     3.8106    4.3325    3.457 
 H                     1.3839   -0.0653    7.5188 
 H                     1.1061    0.5384    6.0405 
 H                     3.0358    1.549     6.9394 
 H                     0.2436    1.0617    7.3131 
 
 NAtoms=     24 NQM=       24 NQMF=       0 NMMI=      0 NMMIF=      0
                NMic=       0 NMicF=      0.
                    Isotopes and Nuclear Properties:
 (Nuclear quadrupole moments (NQMom) in fm**2, nuclear magnetic moments (NMagM)
  in nuclear magnetons)

  Atom         1           2           3           4           5           6           7           8           9          10
 IAtWgt=          16          12          12          12          12          12          14          16          16          12
 AtmWgt=  15.9949146  12.0000000  12.0000000  12.0000000  12.0000000  12.0000000  14.0030740  15.9949146  15.9949146  12.0000000
 NucSpn=           0           0           0           0           0           0           2           0           0           0
 AtZEff=   0.0000000   0.0000000   0.0000000   0.0000000   0.0000000   0.0000000   0.0000000   0.0000000   0.0000000   0.0000000
 NQMom=    0.0000000   0.0000000   0.0000000   0.0000000   0.0000000   0.0000000   2.0440000   0.0000000   0.0000000   0.0000000
 NMagM=    0.0000000   0.0000000   0.0000000   0.0000000   0.0000000   0.0000000   0.4037610   0.0000000   0.0000000   0.0000000
 AtZNuc=   8.0000000   6.0000000   6.0000000   6.0000000   6.0000000   6.0000000   7.0000000   8.0000000   8.0000000   6.0000000

  Atom        11          12          13          14          15          16          17          18          19          20
 IAtWgt=          12           1          14          12           1          12           1           1           1           1
 AtmWgt=  12.0000000   1.0078250  14.0030740  12.0000000   1.0078250  12.0000000   1.0078250   1.0078250   1.0078250   1.0078250
 NucSpn=           0           1           2           0           1           0           1           1           1           1
 AtZEff=   0.0000000   0.0000000   0.0000000   0.0000000   0.0000000   0.0000000   0.0000000   0.0000000   0.0000000   0.0000000
 NQMom=    0.0000000   0.0000000   2.0440000   0.0000000   0.0000000   0.0000000   0.0000000   0.0000000   0.0000000   0.0000000
 NMagM=    0.0000000   2.7928460   0.4037610   0.0000000   2.7928460   0.0000000   2.7928460   2.7928460   2.7928460   2.7928460
 AtZNuc=   6.0000000   1.0000000   7.0000000   6.0000000   1.0000000   6.0000000   1.0000000   1.0000000   1.0000000   1.0000000

  Atom        21          22          23          24
 IAtWgt=           1           1           1           1
 AtmWgt=   1.0078250   1.0078250   1.0078250   1.0078250
 NucSpn=           1           1           1           1
 AtZEff=   0.0000000   0.0000000   0.0000000   0.0000000
 NQMom=    0.0000000   0.0000000   0.0000000   0.0000000
 NMagM=    2.7928460   2.7928460   2.7928460   2.7928460
 AtZNuc=   1.0000000   1.0000000   1.0000000   1.0000000
 Leave Link  101 at Thu Aug 26 05:01:18 2021, MaxMem= 24159191040 cpu:        10.3
 (Enter /public/home/users/caep010/software/Gaussian09/g09/l103.exe)

 GradGradGradGradGradGradGradGradGradGradGradGradGradGradGradGradGradGrad
 Berny optimization.
 Initialization pass.
                           ----------------------------
                           !    Initial Parameters    !
                           ! (Angstroms and Degrees)  !
 --------------------------                            --------------------------
 ! Name  Definition              Value          Derivative Info.                !
 --------------------------------------------------------------------------------
 ! R1    R(1,2)                  1.2567         calculate D2E/DX2 analytically  !
 ! R2    R(2,3)                  1.4418         calculate D2E/DX2 analytically  !
 ! R3    R(2,4)                  1.4294         calculate D2E/DX2 analytically  !
 ! R4    R(3,10)                 1.3943         calculate D2E/DX2 analytically  !
 ! R5    R(3,11)                 1.413          calculate D2E/DX2 analytically  !
 ! R6    R(4,5)                  1.3582         calculate D2E/DX2 analytically  !
 ! R7    R(4,18)                 0.9167         calculate D2E/DX2 analytically  !
 ! R8    R(5,6)                  1.4023         calculate D2E/DX2 analytically  !
 ! R9    R(5,19)                 0.9968         calculate D2E/DX2 analytically  !
 ! R10   R(6,7)                  1.4367         calculate D2E/DX2 analytically  !
 ! R11   R(6,10)                 1.3654         calculate D2E/DX2 analytically  !
 ! R12   R(7,8)                  1.2216         calculate D2E/DX2 analytically  !
 ! R13   R(7,9)                  1.2274         calculate D2E/DX2 analytically  !
 ! R14   R(10,20)                0.9775         calculate D2E/DX2 analytically  !
 ! R15   R(11,12)                0.9466         calculate D2E/DX2 analytically  !
 ! R16   R(11,13)                1.2889         calculate D2E/DX2 analytically  !
 ! R17   R(13,14)                1.4495         calculate D2E/DX2 analytically  !
 ! R18   R(13,17)                0.8988         calculate D2E/DX2 analytically  !
 ! R19   R(14,15)                0.9582         calculate D2E/DX2 analytically  !
 ! R20   R(14,16)                1.5            calculate D2E/DX2 analytically  !
 ! R21   R(14,23)                0.9486         calculate D2E/DX2 analytically  !
 ! R22   R(16,21)                1.0052         calculate D2E/DX2 analytically  !
 ! R23   R(16,22)                0.9621         calculate D2E/DX2 analytically  !
 ! R24   R(16,24)                1.0085         calculate D2E/DX2 analytically  !
 ! A1    A(1,2,3)              121.7431         calculate D2E/DX2 analytically  !
 ! A2    A(1,2,4)              122.0245         calculate D2E/DX2 analytically  !
 ! A3    A(3,2,4)              116.2323         calculate D2E/DX2 analytically  !
 ! A4    A(2,3,10)             120.8883         calculate D2E/DX2 analytically  !
 ! A5    A(2,3,11)             121.0684         calculate D2E/DX2 analytically  !
 ! A6    A(10,3,11)            118.0365         calculate D2E/DX2 analytically  !
 ! A7    A(2,4,5)              121.6988         calculate D2E/DX2 analytically  !
 ! A8    A(2,4,18)             116.5393         calculate D2E/DX2 analytically  !
 ! A9    A(5,4,18)             121.747          calculate D2E/DX2 analytically  !
 ! A10   A(4,5,6)              120.1171         calculate D2E/DX2 analytically  !
 ! A11   A(4,5,19)             118.3842         calculate D2E/DX2 analytically  !
 ! A12   A(6,5,19)             121.4789         calculate D2E/DX2 analytically  !
 ! A13   A(5,6,7)              119.551          calculate D2E/DX2 analytically  !
 ! A14   A(5,6,10)             121.2116         calculate D2E/DX2 analytically  !
 ! A15   A(7,6,10)             119.2336         calculate D2E/DX2 analytically  !
 ! A16   A(6,7,8)              118.5801         calculate D2E/DX2 analytically  !
 ! A17   A(6,7,9)              119.2748         calculate D2E/DX2 analytically  !
 ! A18   A(8,7,9)              122.1429         calculate D2E/DX2 analytically  !
 ! A19   A(3,10,6)             119.7735         calculate D2E/DX2 analytically  !
 ! A20   A(3,10,20)            116.5944         calculate D2E/DX2 analytically  !
 ! A21   A(6,10,20)            123.6304         calculate D2E/DX2 analytically  !
 ! A22   A(3,11,12)            119.3652         calculate D2E/DX2 analytically  !
 ! A23   A(3,11,13)            124.3365         calculate D2E/DX2 analytically  !
 ! A24   A(12,11,13)           116.276          calculate D2E/DX2 analytically  !
 ! A25   A(11,13,14)           124.3586         calculate D2E/DX2 analytically  !
 ! A26   A(11,13,17)           117.3008         calculate D2E/DX2 analytically  !
 ! A27   A(14,13,17)           118.3338         calculate D2E/DX2 analytically  !
 ! A28   A(13,14,15)           106.4791         calculate D2E/DX2 analytically  !
 ! A29   A(13,14,16)           110.9261         calculate D2E/DX2 analytically  !
 ! A30   A(13,14,23)           106.5148         calculate D2E/DX2 analytically  !
 ! A31   A(15,14,16)           112.2843         calculate D2E/DX2 analytically  !
 ! A32   A(15,14,23)           107.9503         calculate D2E/DX2 analytically  !
 ! A33   A(16,14,23)           112.3395         calculate D2E/DX2 analytically  !
 ! A34   A(14,16,21)           109.2809         calculate D2E/DX2 analytically  !
 ! A35   A(14,16,22)           109.2466         calculate D2E/DX2 analytically  !
 ! A36   A(14,16,24)           109.602          calculate D2E/DX2 analytically  !
 ! A37   A(21,16,22)           110.9211         calculate D2E/DX2 analytically  !
 ! A38   A(21,16,24)           106.7762         calculate D2E/DX2 analytically  !
 ! A39   A(22,16,24)           110.9715         calculate D2E/DX2 analytically  !
 ! D1    D(1,2,3,10)           176.9673         calculate D2E/DX2 analytically  !
 ! D2    D(1,2,3,11)            -2.0625         calculate D2E/DX2 analytically  !
 ! D3    D(4,2,3,10)            -2.9425         calculate D2E/DX2 analytically  !
 ! D4    D(4,2,3,11)           178.0277         calculate D2E/DX2 analytically  !
 ! D5    D(1,2,4,5)           -177.0205         calculate D2E/DX2 analytically  !
 ! D6    D(1,2,4,18)             4.3639         calculate D2E/DX2 analytically  !
 ! D7    D(3,2,4,5)              2.889          calculate D2E/DX2 analytically  !
 ! D8    D(3,2,4,18)          -175.7267         calculate D2E/DX2 analytically  !
 ! D9    D(2,3,10,6)             0.9866         calculate D2E/DX2 analytically  !
 ! D10   D(2,3,10,20)         -179.4751         calculate D2E/DX2 analytically  !
 ! D11   D(11,3,10,6)         -179.9549         calculate D2E/DX2 analytically  !
 ! D12   D(11,3,10,20)          -0.4167         calculate D2E/DX2 analytically  !
 ! D13   D(2,3,11,12)         -178.6579         calculate D2E/DX2 analytically  !
 ! D14   D(2,3,11,13)           -0.4386         calculate D2E/DX2 analytically  !
 ! D15   D(10,3,11,12)           2.2854         calculate D2E/DX2 analytically  !
 ! D16   D(10,3,11,13)        -179.4952         calculate D2E/DX2 analytically  !
 ! D17   D(2,4,5,6)             -0.8703         calculate D2E/DX2 analytically  !
 ! D18   D(2,4,5,19)          -179.2776         calculate D2E/DX2 analytically  !
 ! D19   D(18,4,5,6)           177.6733         calculate D2E/DX2 analytically  !
 ! D20   D(18,4,5,19)           -0.734          calculate D2E/DX2 analytically  !
 ! D21   D(4,5,6,7)            177.991          calculate D2E/DX2 analytically  !
 ! D22   D(4,5,6,10)            -1.2861         calculate D2E/DX2 analytically  !
 ! D23   D(19,5,6,7)            -3.652          calculate D2E/DX2 analytically  !
 ! D24   D(19,5,6,10)          177.0709         calculate D2E/DX2 analytically  !
 ! D25   D(5,6,7,8)             -4.1573         calculate D2E/DX2 analytically  !
 ! D26   D(5,6,7,9)            176.3771         calculate D2E/DX2 analytically  !
 ! D27   D(10,6,7,8)           175.1342         calculate D2E/DX2 analytically  !
 ! D28   D(10,6,7,9)            -4.3313         calculate D2E/DX2 analytically  !
 ! D29   D(5,6,10,3)             1.2034         calculate D2E/DX2 analytically  !
 ! D30   D(5,6,10,20)         -178.3007         calculate D2E/DX2 analytically  !
 ! D31   D(7,6,10,3)          -178.0759         calculate D2E/DX2 analytically  !
 ! D32   D(7,6,10,20)            2.42           calculate D2E/DX2 analytically  !
 ! D33   D(3,11,13,14)         177.4618         calculate D2E/DX2 analytically  !
 ! D34   D(3,11,13,17)          -1.5748         calculate D2E/DX2 analytically  !
 ! D35   D(12,11,13,14)         -4.2688         calculate D2E/DX2 analytically  !
 ! D36   D(12,11,13,17)        176.6945         calculate D2E/DX2 analytically  !
 ! D37   D(11,13,14,15)        126.374          calculate D2E/DX2 analytically  !
 ! D38   D(11,13,14,16)       -111.1811         calculate D2E/DX2 analytically  !
 ! D39   D(11,13,14,23)         11.3542         calculate D2E/DX2 analytically  !
 ! D40   D(17,13,14,15)        -54.5986         calculate D2E/DX2 analytically  !
 ! D41   D(17,13,14,16)         67.8463         calculate D2E/DX2 analytically  !
 ! D42   D(17,13,14,23)       -169.6184         calculate D2E/DX2 analytically  !
 ! D43   D(13,14,16,21)       -179.902          calculate D2E/DX2 analytically  !
 ! D44   D(13,14,16,22)         58.5753         calculate D2E/DX2 analytically  !
 ! D45   D(13,14,16,24)        -63.2111         calculate D2E/DX2 analytically  !
 ! D46   D(15,14,16,21)        -60.895          calculate D2E/DX2 analytically  !
 ! D47   D(15,14,16,22)        177.5822         calculate D2E/DX2 analytically  !
 ! D48   D(15,14,16,24)         55.7959         calculate D2E/DX2 analytically  !
 ! D49   D(23,14,16,21)         61.0091         calculate D2E/DX2 analytically  !
 ! D50   D(23,14,16,22)        -60.5136         calculate D2E/DX2 analytically  !
 ! D51   D(23,14,16,24)        177.7            calculate D2E/DX2 analytically  !
 --------------------------------------------------------------------------------
 Trust Radius=3.00D-01 FncErr=1.00D-07 GrdErr=1.00D-06
 Number of steps in this run=    124 maximum allowed number of steps=    144.
 GradGradGradGradGradGradGradGradGradGradGradGradGradGradGradGradGradGrad

 Leave Link  103 at Thu Aug 26 05:01:18 2021, MaxMem= 24159191040 cpu:         0.4
 (Enter /public/home/users/caep010/software/Gaussian09/g09/l202.exe)
                          Input orientation:                          
 ---------------------------------------------------------------------
 Center     Atomic      Atomic             Coordinates (Angstroms)
 Number     Number       Type             X           Y           Z
 ---------------------------------------------------------------------
      1          8           0        0.226600    5.020700    5.880400
      2          6           0        1.017900    5.342200    4.958500
      3          6           0        2.199100    4.568000    4.668300
      4          6           0        0.798700    6.492000    4.138000
      5          6           0        1.625600    6.800100    3.105500
      6          6           0        2.739000    5.993100    2.830800
      7          7           0        3.581000    6.305300    1.709400
      8          8           0        3.258500    7.226800    0.975100
      9          8           0        4.591200    5.636500    1.512800
     10          6           0        3.031400    4.904700    3.601600
     11          6           0        2.536800    3.435100    5.442300
     12          1           0        3.328100    2.955500    5.242500
     13          7           0        1.850200    3.010000    6.446900
     14          6           0        2.166900    1.818100    7.208600
     15          1           0        2.212300    2.086700    8.127300
     16          6           0        1.141700    0.747400    6.979000
     17          1           0        1.120800    3.482100    6.677100
     18          1           0        0.082800    7.021000    4.357000
     19          1           0        1.432600    7.619800    2.572200
     20          1           0        3.810600    4.332500    3.457000
     21          1           0        1.383900   -0.065300    7.518800
     22          1           0        1.106100    0.538400    6.040500
     23          1           0        3.035800    1.549000    6.939400
     24          1           0        0.243600    1.061700    7.313100
 ---------------------------------------------------------------------
                    Distance matrix (angstroms):
                    1          2          3          4          5
     1  O    0.000000
     2  C    1.256749   0.000000
     3  C    2.359000   1.441817   0.000000
     4  C    2.351166   1.429444   2.438055   0.000000
     5  C    3.580996   2.434827   2.784514   1.358214   0.000000
     6  C    4.069125   2.812999   2.387218   2.392162   1.402273
     7  N    5.504492   4.248964   3.699047   3.697857   2.453062
     8  O    6.174242   4.943630   4.672395   4.073633   2.717911
     9  O    6.205229   4.972719   4.101343   4.691120   3.561663
    10  C    3.615700   2.467137   1.394252   2.791450   2.411417
    11  C    2.836033   2.485588   1.413004   3.750577   4.196921
    12  H    3.780380   3.333769   2.050488   4.486047   4.716590
    13  N    2.645735   2.889155   2.390086   4.308247   5.057693
    14  C    3.973100   4.336177   3.743810   5.757247   6.476786
    15  H    4.195226   4.697464   4.256960   6.108965   6.912223
    16  C    4.506154   5.020949   4.588509   6.417894   7.202315
    17  H    1.949773   2.534590   2.525309   3.950984   4.901048
    18  H    2.518457   2.013600   3.254665   0.916687   1.998820
    19  H    4.376522   3.324735   3.780825   2.031131   0.996778
    20  H    4.380815   3.327637   2.029690   3.768122   3.314638
    21  H    5.467275   5.994176   5.500670   7.400706   8.165130
    22  H    4.570576   4.924936   4.394913   6.257744   6.934911
    23  H    4.589748   4.731200   3.869409   6.106202   6.652932
    24  H    4.210297   4.946348   4.807607   6.314868   7.248659
                    6          7          8          9         10
     6  C    0.000000
     7  N    1.436653   0.000000
     8  O    2.288126   1.221624   0.000000
     9  O    2.301072   1.227375   2.143424   0.000000
    10  C    1.365374   2.417470   3.513150   2.707691   0.000000
    11  C    3.661172   4.823167   5.903704   4.950524   2.406768
    12  H    3.923054   4.875235   6.038174   4.763806   2.565144
    13  N    4.771271   6.024830   7.050199   6.225506   3.616746
    14  C    6.076435   7.237116   8.324791   7.273207   4.825444
    15  H    6.602294   7.801241   8.869562   7.874761   5.393886
    16  C    6.875776   8.037980   9.083517   8.104424   5.679871
    17  H    4.870084   6.221020   7.148800   6.584460   3.890101
    18  H    3.231294   4.445156   4.643778   5.507448   3.707236
    19  H    2.102310   2.662322   2.457456   3.877185   3.314754
    20  H    2.073173   2.645517   3.852482   2.467725   0.977484
    21  H    7.779322   8.897242   9.975413   8.880841   6.539083
    22  H    6.536229   7.625004   8.661743   7.657455   5.359066
    23  H    6.059596   7.090313   8.237711   6.969571   4.733038
    24  H    7.115950   8.368694   9.341752   8.571692   6.026252
                   11         12         13         14         15
    11  C    0.000000
    12  H    0.946621   0.000000
    13  N    1.288934   1.907286   0.000000
    14  C    2.423083   2.551002   1.449521   0.000000
    15  H    3.022037   3.212770   1.951242   0.958236   0.000000
    16  C    3.395804   3.559703   2.429910   1.500050   2.063614
    17  H    1.879361   2.684690   0.898830   2.036103   2.289453
    18  H    4.478691   5.276777   4.855873   6.288503   6.564849
    19  H    5.193115   5.699045   6.036385   7.462917   7.879230
    20  H    2.523749   2.305850   3.812044   4.806086   5.423088
    21  H    4.230110   4.252845   3.289966   2.063131   2.384874
    22  H    3.285668   3.378825   2.612978   2.031597   2.824119
    23  H    2.459204   2.223320   1.944923   0.948615   1.542200
    24  H    3.793638   4.169892   2.669708   2.069334   2.364176
                   16         17         18         19         20
    16  C    0.000000
    17  H    2.751393   0.000000
    18  H    6.881440   4.357077   0.000000
    19  H    8.169112   5.836779   2.316470   0.000000
    20  H    5.690383   4.281034   4.683431   4.152601   0.000000
    21  H    1.005249   3.655370   7.868004   9.139583   6.459701
    22  H    0.962149   3.011784   6.775354   7.891890   5.327662
    23  H    2.057121   2.733661   6.732888   7.648353   4.524964
    24  H    1.008460   2.651851   6.654145   8.179152   6.187983
                   21         22         23         24
    21  H    0.000000
    22  H    1.620801   0.000000
    23  H    2.381269   2.356496   0.000000
    24  H    1.616393   1.623964   2.858932   0.000000
 Stoichiometry    C9H10N2O3
 Framework group  C1[X(C9H10N2O3)]
 Deg. of freedom    66
 Full point group                 C1      NOp   1
 Largest Abelian subgroup         C1      NOp   1
 Largest concise Abelian subgroup C1      NOp   1
                         Standard orientation:                         
 ---------------------------------------------------------------------
 Center     Atomic      Atomic             Coordinates (Angstroms)
 Number     Number       Type             X           Y           Z
 ---------------------------------------------------------------------
      1          8           0        1.403701    2.113011   -0.037949
      2          6           0        0.337195    1.448508   -0.058406
      3          6           0        0.341226    0.010729   -0.166154
      4          6           0       -0.946253    2.072223    0.025560
      5          6           0       -2.092383    1.344388    0.062794
      6          6           0       -2.039247   -0.055492    0.000492
      7          7           0       -3.255720   -0.815170    0.084480
      8          8           0       -4.303487   -0.220280    0.286115
      9          8           0       -3.210811   -2.035621   -0.037712
     10          6           0       -0.849417   -0.713526   -0.124171
     11          6           0        1.551141   -0.707330   -0.296835
     12          1           0        1.524600   -1.649463   -0.384997
     13          7           0        2.718743   -0.162987   -0.338630
     14          6           0        3.963286   -0.901658   -0.419820
     15          1           0        4.438768   -0.551022   -1.174265
     16          6           0        4.745235   -0.775565    0.854074
     17          1           0        2.756834    0.734292   -0.302109
     18          1           0       -0.956495    2.988821    0.033167
     19          1           0       -2.961183    1.830682    0.110440
     20          1           0       -0.773118   -1.685458   -0.194891
     21          1           0        5.602086   -1.294527    0.770346
     22          1           0        4.214386   -1.104619    1.585957
     23          1           0        3.731025   -1.800923   -0.612815
     24          1           0        5.002008    0.188770    0.999394
 ---------------------------------------------------------------------
 Rotational constants (GHZ):      1.5703881      0.3356657      0.2833012
 Leave Link  202 at Thu Aug 26 05:01:19 2021, MaxMem= 24159191040 cpu:         0.8
 (Enter /public/home/users/caep010/software/Gaussian09/g09/l301.exe)
 Standard basis: GTBas3 (6D, 7F)
 Ernie: Thresh=  0.10000D-02 Tol=  0.10000D-05 Strict=F.
 There are   484 symmetry adapted cartesian basis functions of A   symmetry.
 There are   442 symmetry adapted basis functions of A   symmetry.
   442 basis functions,   686 primitive gaussians,   484 cartesian basis functions
    51 alpha electrons       51 beta electrons
       nuclear repulsion energy       858.2327829484 Hartrees.
 IExCor=  402 DFT=T Ex+Corr=B3LYP ExCW=0 ScaHFX=  0.200000
 ScaDFX=  0.800000  0.720000  1.000000  0.810000 ScalE2=  1.000000  1.000000
 IRadAn=      0 IRanWt=     -1 IRanGd=            0 ICorTp=0 IEmpDi=  4
 NAtoms=   24 NActive=   24 NUniq=   24 SFac= 1.00D+00 NAtFMM=   60 NAOKFM=F Big=F
 Integral buffers will be    131072 words long.
 Raffenetti 2 integral format.
 Two-electron integral symmetry is turned on.
 Leave Link  301 at Thu Aug 26 05:01:19 2021, MaxMem= 24159191040 cpu:         2.2
 (Enter /public/home/users/caep010/software/Gaussian09/g09/l302.exe)
 NPDir=0 NMtPBC=     1 NCelOv=     1 NCel=       1 NClECP=     1 NCelD=      1
         NCelK=      1 NCelE2=     1 NClLst=     1 CellRange=     0.0.
 One-electron integrals computed using PRISM.
 NBasis=   442 RedAO= T EigKep=  1.05D-04  NBF=   442
 NBsUse=   442 1.00D-06 EigRej= -1.00D+00 NBFU=   442
 Precomputing XC quadrature grid using
 IXCGrd= 4 IRadAn=           0 IRanWt=          -1 IRanGd=           0 AccXCQ= 0.00D+00.
 Generated NRdTot=       0 NPtTot=           0 NUsed=           0 NTot=          32
 NSgBfM=   481   481   481   481   481 MxSgAt=    24 MxSgA2=    24.
 Leave Link  302 at Thu Aug 26 05:01:19 2021, MaxMem= 24159191040 cpu:        21.5
 (Enter /public/home/users/caep010/software/Gaussian09/g09/l303.exe)
 DipDrv:  MaxL=1.
 Leave Link  303 at Thu Aug 26 05:01:19 2021, MaxMem= 24159191040 cpu:         1.2
 (Enter /public/home/users/caep010/software/Gaussian09/g09/l401.exe)
 ExpMin= 1.61D-01 ExpMax= 5.48D+03 ExpMxC= 8.25D+02 IAcc=1 IRadAn=         1 AccDes= 0.00D+00
 Harris functional with IExCor=  402 and IRadAn=       1 diagonalized for initial guess.
 HarFok:  IExCor=  402 AccDes= 0.00D+00 IRadAn=         1 IDoV= 1 UseB2=F ITyADJ=14
 ICtDFT=  3500011 ScaDFX=  1.000000  1.000000  1.000000  1.000000
 FoFCou: FMM=F IPFlag=           0 FMFlag=      100000 FMFlg1=           0
         NFxFlg=           0 DoJE=T BraDBF=F KetDBF=T FulRan=T
         wScrn=  0.000000 ICntrl=     500 IOpCl=  0 I1Cent=   200000004 NGrid=           0
         NMat0=    1 NMatS0=      1 NMatT0=    0 NMatD0=    1 NMtDS0=    0 NMtDT0=    0
 Petite list used in FoFCou.
 Harris En= -684.115348774482    
 JPrj=0 DoOrth=F DoCkMO=F.
 Leave Link  401 at Thu Aug 26 05:01:20 2021, MaxMem= 24159191040 cpu:        20.3
 (Enter /public/home/users/caep010/software/Gaussian09/g09/l502.exe)
 Closed shell SCF:
 Using DIIS extrapolation, IDIIS=  1040.
 Integral symmetry usage will be decided dynamically.
 Keep R1 ints in memory in canonical form, NReq=4850329790.
 IVT=      740314 IEndB=      740314 NGot= 24159191040 MDV= 19365903071
 LenX= 19365903071 LenY= 19365668331
 Requested convergence on RMS density matrix=1.00D-08 within 128 cycles.
 Requested convergence on MAX density matrix=1.00D-06.
 Requested convergence on             energy=1.00D-06.
 No special actions if energy rises.
 FoFCou: FMM=F IPFlag=           0 FMFlag=           0 FMFlg1=           0
         NFxFlg=           0 DoJE=F BraDBF=F KetDBF=F FulRan=T
         wScrn=  0.000000 ICntrl=     600 IOpCl=  0 I1Cent=           0 NGrid=           0
         NMat0=    1 NMatS0=  97903 NMatT0=    0 NMatD0=    1 NMtDS0=    0 NMtDT0=    0
 Symmetry not used in FoFCou.
 Integral accuracy reduced to 1.0D-05 until final iterations.

 Cycle   1  Pass 0  IDiag  1:
 E= -683.499250716448    
 DIIS: error= 2.12D-02 at cycle   1 NSaved=   1.
 NSaved= 1 IEnMin= 1 EnMin= -683.499250716448     IErMin= 1 ErrMin= 2.12D-02
 ErrMax= 2.12D-02  0.00D+00 EMaxC= 1.00D-01 BMatC= 5.53D-01 BMatP= 5.53D-01
 IDIUse=3 WtCom= 7.88D-01 WtEn= 2.12D-01
 Coeff-Com:  0.100D+01
 Coeff-En:   0.100D+01
 Coeff:      0.100D+01
 Gap=     0.113 Goal=   None    Shift=    0.000
 GapD=    0.113 DampG=1.000 DampE=0.500 DampFc=0.5000 IDamp=-1.
 Damping current iteration by 5.00D-01
 RMSDP=4.57D-03 MaxDP=4.07D-01              OVMax= 9.55D-01

 Cycle   2  Pass 0  IDiag  1:
 E= -683.052596379115     Delta-E=        0.446654337333 Rises=F Damp=T
 DIIS: error= 2.57D-02 at cycle   2 NSaved=   2.
 NSaved= 2 IEnMin= 1 EnMin= -683.499250716448     IErMin= 1 ErrMin= 2.12D-02
 ErrMax= 2.57D-02  0.00D+00 EMaxC= 1.00D-01 BMatC= 3.37D-01 BMatP= 5.53D-01
 IDIUse=3 WtCom= 7.43D-01 WtEn= 2.57D-01
 Coeff-Com:  0.409D+00 0.591D+00
 Coeff-En:   0.722D+00 0.278D+00
 Coeff:      0.489D+00 0.511D+00
 Gap=    -0.393 Goal=   None    Shift=    0.000
 RMSDP=2.83D-03 MaxDP=1.82D-01 DE= 4.47D-01 OVMax= 5.72D-01

 Cycle   3  Pass 0  IDiag  1:
 E= -683.508126027562     Delta-E=       -0.455529648447 Rises=F Damp=F
 DIIS: error= 2.04D-02 at cycle   3 NSaved=   3.
 NSaved= 3 IEnMin= 3 EnMin= -683.508126027562     IErMin= 3 ErrMin= 2.04D-02
 ErrMax= 2.04D-02  0.00D+00 EMaxC= 1.00D-01 BMatC= 4.50D-01 BMatP= 3.37D-01
 IDIUse=2 WtCom= 0.00D+00 WtEn= 1.00D+00
 EnCoef did     2 forward-backward iterations
 Coeff-En:   0.297D+00 0.234D+00 0.469D+00
 Coeff:      0.297D+00 0.234D+00 0.469D+00
 Gap=     0.218 Goal=   None    Shift=    0.000
 RMSDP=3.31D-03 MaxDP=2.38D-01 DE=-4.56D-01 OVMax= 5.76D-01

 Cycle   4  Pass 0  IDiag  1:
 E= -683.801103104389     Delta-E=       -0.292977076827 Rises=F Damp=F
 DIIS: error= 1.79D-02 at cycle   4 NSaved=   4.
 NSaved= 4 IEnMin= 4 EnMin= -683.801103104389     IErMin= 4 ErrMin= 1.79D-02
 ErrMax= 1.79D-02  0.00D+00 EMaxC= 1.00D-01 BMatC= 1.85D-01 BMatP= 3.37D-01
 IDIUse=3 WtCom= 8.21D-01 WtEn= 1.79D-01
 Coeff-Com:  0.169D+00 0.586D-01 0.310D+00 0.462D+00
 Coeff-En:   0.000D+00 0.000D+00 0.306D+00 0.694D+00
 Coeff:      0.139D+00 0.481D-01 0.309D+00 0.504D+00
 Gap=     0.176 Goal=   None    Shift=    0.000
 RMSDP=1.54D-03 MaxDP=1.30D-01 DE=-2.93D-01 OVMax= 2.46D-01

 Cycle   5  Pass 0  IDiag  1:
 E= -683.959290101389     Delta-E=       -0.158186997000 Rises=F Damp=F
 DIIS: error= 3.81D-03 at cycle   5 NSaved=   5.
 NSaved= 5 IEnMin= 5 EnMin= -683.959290101389     IErMin= 5 ErrMin= 3.81D-03
 ErrMax= 3.81D-03  0.00D+00 EMaxC= 1.00D-01 BMatC= 1.60D-02 BMatP= 1.85D-01
 IDIUse=3 WtCom= 9.62D-01 WtEn= 3.81D-02
 Coeff-Com:  0.287D-01 0.148D-01 0.989D-01 0.264D+00 0.594D+00
 Coeff-En:   0.000D+00 0.000D+00 0.000D+00 0.668D-01 0.933D+00
 Coeff:      0.276D-01 0.142D-01 0.952D-01 0.257D+00 0.606D+00
 Gap=     0.130 Goal=   None    Shift=    0.000
 RMSDP=4.06D-04 MaxDP=3.28D-02 DE=-1.58D-01 OVMax= 5.13D-02

 Cycle   6  Pass 0  IDiag  1:
 E= -683.970114965068     Delta-E=       -0.010824863679 Rises=F Damp=F
 DIIS: error= 2.05D-03 at cycle   6 NSaved=   6.
 NSaved= 6 IEnMin= 6 EnMin= -683.970114965068     IErMin= 6 ErrMin= 2.05D-03
 ErrMax= 2.05D-03  0.00D+00 EMaxC= 1.00D-01 BMatC= 2.57D-03 BMatP= 1.60D-02
 IDIUse=3 WtCom= 9.80D-01 WtEn= 2.05D-02
 Coeff-Com: -0.127D-01 0.545D-02-0.855D-02 0.483D-01 0.366D+00 0.601D+00
 Coeff-En:   0.000D+00 0.000D+00 0.000D+00 0.000D+00 0.133D+00 0.867D+00
 Coeff:     -0.124D-01 0.534D-02-0.838D-02 0.473D-01 0.361D+00 0.607D+00
 Gap=     0.130 Goal=   None    Shift=    0.000
 RMSDP=1.49D-04 MaxDP=9.76D-03 DE=-1.08D-02 OVMax= 1.65D-02

 Cycle   7  Pass 0  IDiag  1:
 E= -683.972121893930     Delta-E=       -0.002006928862 Rises=F Damp=F
 DIIS: error= 5.12D-04 at cycle   7 NSaved=   7.
 NSaved= 7 IEnMin= 7 EnMin= -683.972121893930     IErMin= 7 ErrMin= 5.12D-04
 ErrMax= 5.12D-04  0.00D+00 EMaxC= 1.00D-01 BMatC= 3.98D-04 BMatP= 2.57D-03
 IDIUse=3 WtCom= 9.95D-01 WtEn= 5.12D-03
 Coeff-Com: -0.987D-02 0.550D-02-0.112D-01 0.157D-01 0.199D+00 0.396D+00
 Coeff-Com:  0.405D+00
 Coeff-En:   0.000D+00 0.000D+00 0.000D+00 0.000D+00 0.000D+00 0.665D-01
 Coeff-En:   0.934D+00
 Coeff:     -0.982D-02 0.547D-02-0.112D-01 0.156D-01 0.198D+00 0.395D+00
 Coeff:      0.407D+00
 Gap=     0.131 Goal=   None    Shift=    0.000
 RMSDP=5.19D-05 MaxDP=4.29D-03 DE=-2.01D-03 OVMax= 9.10D-03

 Cycle   8  Pass 0  IDiag  1:
 E= -683.972407690063     Delta-E=       -0.000285796132 Rises=F Damp=F
 DIIS: error= 2.49D-04 at cycle   8 NSaved=   8.
 NSaved= 8 IEnMin= 8 EnMin= -683.972407690063     IErMin= 8 ErrMin= 2.49D-04
 ErrMax= 2.49D-04  0.00D+00 EMaxC= 1.00D-01 BMatC= 7.19D-05 BMatP= 3.98D-04
 IDIUse=3 WtCom= 9.98D-01 WtEn= 2.49D-03
 Coeff-Com: -0.568D-02 0.475D-02-0.772D-02 0.514D-02 0.908D-01 0.202D+00
 Coeff-Com:  0.289D+00 0.422D+00
 Coeff-En:   0.000D+00 0.000D+00 0.000D+00 0.000D+00 0.000D+00 0.000D+00
 Coeff-En:   0.109D+00 0.891D+00
 Coeff:     -0.566D-02 0.474D-02-0.770D-02 0.512D-02 0.906D-01 0.201D+00
 Coeff:      0.288D+00 0.424D+00
 Gap=     0.131 Goal=   None    Shift=    0.000
 RMSDP=2.07D-05 MaxDP=2.01D-03 DE=-2.86D-04 OVMax= 4.12D-03

 Cycle   9  Pass 0  IDiag  1:
 E= -683.972452874971     Delta-E=       -0.000045184908 Rises=F Damp=F
 DIIS: error= 1.60D-04 at cycle   9 NSaved=   9.
 NSaved= 9 IEnMin= 9 EnMin= -683.972452874971     IErMin= 9 ErrMin= 1.60D-04
 ErrMax= 1.60D-04  0.00D+00 EMaxC= 1.00D-01 BMatC= 1.70D-05 BMatP= 7.19D-05
 IDIUse=3 WtCom= 9.98D-01 WtEn= 1.60D-03
 Coeff-Com: -0.223D-02 0.278D-02-0.395D-02 0.197D-02 0.230D-01 0.613D-01
 Coeff-Com:  0.116D+00 0.298D+00 0.503D+00
 Coeff-En:   0.000D+00 0.000D+00 0.000D+00 0.000D+00 0.000D+00 0.000D+00
 Coeff-En:   0.000D+00 0.921D-01 0.908D+00
 Coeff:     -0.223D-02 0.278D-02-0.394D-02 0.197D-02 0.230D-01 0.612D-01
 Coeff:      0.115D+00 0.298D+00 0.504D+00
 Gap=     0.131 Goal=   None    Shift=    0.000
 RMSDP=9.44D-06 MaxDP=6.62D-04 DE=-4.52D-05 OVMax= 1.89D-03

 Initial convergence to 1.0D-05 achieved.  Increase integral accuracy.
 Cycle  10  Pass 1  IDiag  1:
 E= -683.972445591091     Delta-E=        0.000007283880 Rises=F Damp=F
 DIIS: error= 5.82D-05 at cycle   1 NSaved=   1.
 NSaved= 1 IEnMin= 1 EnMin= -683.972445591091     IErMin= 1 ErrMin= 5.82D-05
 ErrMax= 5.82D-05  0.00D+00 EMaxC= 1.00D-01 BMatC= 3.16D-06 BMatP= 3.16D-06
 IDIUse=1 WtCom= 1.00D+00 WtEn= 0.00D+00
 Coeff-Com:  0.100D+01
 Coeff:      0.100D+01
 Gap=     0.130 Goal=   None    Shift=    0.000
 RMSDP=9.44D-06 MaxDP=6.62D-04 DE= 7.28D-06 OVMax= 2.88D-03

 Cycle  11  Pass 1  IDiag  1:
 E= -683.972434996485     Delta-E=        0.000010594606 Rises=F Damp=F
 DIIS: error= 1.30D-04 at cycle   2 NSaved=   2.
 NSaved= 2 IEnMin= 1 EnMin= -683.972445591091     IErMin= 1 ErrMin= 5.82D-05
 ErrMax= 1.30D-04  0.00D+00 EMaxC= 1.00D-01 BMatC= 1.60D-05 BMatP= 3.16D-06
 IDIUse=3 WtCom= 4.68D-01 WtEn= 5.32D-01
 Coeff-Com:  0.699D+00 0.301D+00
 Coeff-En:   0.767D+00 0.233D+00
 Coeff:      0.735D+00 0.265D+00
 Gap=     0.131 Goal=   None    Shift=    0.000
 RMSDP=9.58D-06 MaxDP=8.60D-04 DE= 1.06D-05 OVMax= 1.49D-03

 Cycle  12  Pass 1  IDiag  1:
 E= -683.972448487844     Delta-E=       -0.000013491359 Rises=F Damp=F
 DIIS: error= 1.89D-05 at cycle   3 NSaved=   3.
 NSaved= 3 IEnMin= 3 EnMin= -683.972448487844     IErMin= 3 ErrMin= 1.89D-05
 ErrMax= 1.89D-05  0.00D+00 EMaxC= 1.00D-01 BMatC= 3.09D-07 BMatP= 3.16D-06
 IDIUse=1 WtCom= 1.00D+00 WtEn= 0.00D+00
 Coeff-Com:  0.304D+00 0.590D-01 0.637D+00
 Coeff:      0.304D+00 0.590D-01 0.637D+00
 Gap=     0.131 Goal=   None    Shift=    0.000
 RMSDP=2.16D-06 MaxDP=1.07D-04 DE=-1.35D-05 OVMax= 2.75D-04

 Cycle  13  Pass 1  IDiag  1:
 E= -683.972448724235     Delta-E=       -0.000000236391 Rises=F Damp=F
 DIIS: error= 9.74D-06 at cycle   4 NSaved=   4.
 NSaved= 4 IEnMin= 4 EnMin= -683.972448724235     IErMin= 4 ErrMin= 9.74D-06
 ErrMax= 9.74D-06  0.00D+00 EMaxC= 1.00D-01 BMatC= 7.74D-08 BMatP= 3.09D-07
 IDIUse=1 WtCom= 1.00D+00 WtEn= 0.00D+00
 Coeff-Com:  0.469D-01-0.379D-01 0.450D+00 0.541D+00
 Coeff:      0.469D-01-0.379D-01 0.450D+00 0.541D+00
 Gap=     0.131 Goal=   None    Shift=    0.000
 RMSDP=8.28D-07 MaxDP=8.84D-05 DE=-2.36D-07 OVMax= 1.63D-04

 Cycle  14  Pass 1  IDiag  1:
 E= -683.972448765542     Delta-E=       -0.000000041307 Rises=F Damp=F
 DIIS: error= 5.29D-06 at cycle   5 NSaved=   5.
 NSaved= 5 IEnMin= 5 EnMin= -683.972448765542     IErMin= 5 ErrMin= 5.29D-06
 ErrMax= 5.29D-06  0.00D+00 EMaxC= 1.00D-01 BMatC= 2.64D-08 BMatP= 7.74D-08
 IDIUse=1 WtCom= 1.00D+00 WtEn= 0.00D+00
 Coeff-Com: -0.503D-02-0.383D-01 0.269D+00 0.420D+00 0.354D+00
 Coeff:     -0.503D-02-0.383D-01 0.269D+00 0.420D+00 0.354D+00
 Gap=     0.131 Goal=   None    Shift=    0.000
 RMSDP=3.89D-07 MaxDP=3.71D-05 DE=-4.13D-08 OVMax= 6.88D-05

 Cycle  15  Pass 1  IDiag  1:
 E= -683.972448786462     Delta-E=       -0.000000020920 Rises=F Damp=F
 DIIS: error= 8.99D-07 at cycle   6 NSaved=   6.
 NSaved= 6 IEnMin= 6 EnMin= -683.972448786462     IErMin= 6 ErrMin= 8.99D-07
 ErrMax= 8.99D-07  0.00D+00 EMaxC= 1.00D-01 BMatC= 6.35D-10 BMatP= 2.64D-08
 IDIUse=1 WtCom= 1.00D+00 WtEn= 0.00D+00
 Coeff-Com: -0.587D-02-0.166D-01 0.109D+00 0.174D+00 0.190D+00 0.550D+00
 Coeff:     -0.587D-02-0.166D-01 0.109D+00 0.174D+00 0.190D+00 0.550D+00
 Gap=     0.131 Goal=   None    Shift=    0.000
 RMSDP=6.92D-08 MaxDP=5.77D-06 DE=-2.09D-08 OVMax= 1.15D-05

 Cycle  16  Pass 1  IDiag  1:
 E= -683.972448786948     Delta-E=       -0.000000000485 Rises=F Damp=F
 DIIS: error= 3.39D-07 at cycle   7 NSaved=   7.
 NSaved= 7 IEnMin= 7 EnMin= -683.972448786948     IErMin= 7 ErrMin= 3.39D-07
 ErrMax= 3.39D-07  0.00D+00 EMaxC= 1.00D-01 BMatC= 1.12D-10 BMatP= 6.35D-10
 IDIUse=1 WtCom= 1.00D+00 WtEn= 0.00D+00
 Coeff-Com: -0.291D-02-0.459D-02 0.287D-01 0.442D-01 0.640D-01 0.339D+00
 Coeff-Com:  0.531D+00
 Coeff:     -0.291D-02-0.459D-02 0.287D-01 0.442D-01 0.640D-01 0.339D+00
 Coeff:      0.531D+00
 Gap=     0.131 Goal=   None    Shift=    0.000
 RMSDP=2.10D-08 MaxDP=2.08D-06 DE=-4.85D-10 OVMax= 2.84D-06

 Cycle  17  Pass 1  IDiag  1:
 E= -683.972448787034     Delta-E=       -0.000000000086 Rises=F Damp=F
 DIIS: error= 8.92D-08 at cycle   8 NSaved=   8.
 NSaved= 8 IEnMin= 8 EnMin= -683.972448787034     IErMin= 8 ErrMin= 8.92D-08
 ErrMax= 8.92D-08  0.00D+00 EMaxC= 1.00D-01 BMatC= 8.46D-12 BMatP= 1.12D-10
 IDIUse=1 WtCom= 1.00D+00 WtEn= 0.00D+00
 Coeff-Com: -0.601D-03-0.114D-03-0.419D-03-0.221D-02 0.630D-02 0.108D+00
 Coeff-Com:  0.267D+00 0.622D+00
 Coeff:     -0.601D-03-0.114D-03-0.419D-03-0.221D-02 0.630D-02 0.108D+00
 Coeff:      0.267D+00 0.622D+00
 Gap=     0.131 Goal=   None    Shift=    0.000
 RMSDP=8.63D-09 MaxDP=5.18D-07 DE=-8.64D-11 OVMax= 1.56D-06

 SCF Done:  E(RB3LYP) =  -683.972448787     A.U. after   17 cycles
            NFock= 17  Conv=0.86D-08     -V/T= 2.0034
 KE= 6.816768448713D+02 PE=-3.314305969071D+03 EE= 1.090423892465D+03
 Leave Link  502 at Thu Aug 26 05:03:50 2021, MaxMem= 24159191040 cpu:       664.1
 (Enter /public/home/users/caep010/software/Gaussian09/g09/l801.exe)
 DoSCS=F DFT=T ScalE2(SS,OS)=  1.000000  1.000000
 Range of M.O.s used for correlation:     1   442
 NBasis=   442 NAE=    51 NBE=    51 NFC=     0 NFV=     0
 NROrb=    442 NOA=    51 NOB=    51 NVA=   391 NVB=   391

 **** Warning!!: The largest alpha MO coefficient is  0.52561788D+02

 Leave Link  801 at Thu Aug 26 05:03:51 2021, MaxMem= 24159191040 cpu:         0.6
 (Enter /public/home/users/caep010/software/Gaussian09/g09/l1101.exe)
 Using compressed storage, NAtomX=    24.
 Will process     25 centers per pass.
 Leave Link 1101 at Thu Aug 26 05:03:52 2021, MaxMem= 24159191040 cpu:        28.4
 (Enter /public/home/users/caep010/software/Gaussian09/g09/l1102.exe)
 Symmetrizing basis deriv contribution to polar:
 IMax=3 JMax=2 DiffMx= 0.00D+00
 Leave Link 1102 at Thu Aug 26 05:03:52 2021, MaxMem= 24159191040 cpu:         1.4
 (Enter /public/home/users/caep010/software/Gaussian09/g09/l1110.exe)
 Forming Gx(P) for the SCF density, NAtomX=    24.
 Integral derivatives from FoFJK, PRISM(SPDF).
 Do as many integral derivatives as possible in FoFJK.
 G2DrvN: MDV=   24159190744.
 G2DrvN: will do    25 centers at a time, making    1 passes.
 Calling FoFCou, ICntrl=  3107 FMM=F I1Cent=   0 AccDes= 0.00D+00.
 FoFJK:  IHMeth= 1 ICntrl=    3107 DoSepK=F KAlg= 0 I1Cent=   0 FoldK=F
 IRaf=         0 NMat=   1 IRICut=       1 DoRegI=T DoRafI=F ISym2E= 0.
 FoFCou: FMM=F IPFlag=           0 FMFlag=      100000 FMFlg1=           0
         NFxFlg=           0 DoJE=F BraDBF=F KetDBF=F FulRan=T
         wScrn=  0.000000 ICntrl=    3107 IOpCl=  0 I1Cent=           0 NGrid=           0
         NMat0=    1 NMatS0=      1 NMatT0=    0 NMatD0=    1 NMtDS0=    0 NMtDT0=    0
 Symmetry not used in FoFCou.
 End of G2Drv F.D. properties file   721 does not exist.
 End of G2Drv F.D. properties file   722 does not exist.
 End of G2Drv F.D. properties file   788 does not exist.
 Leave Link 1110 at Thu Aug 26 05:04:27 2021, MaxMem= 24159191040 cpu:      1113.4
 (Enter /public/home/users/caep010/software/Gaussian09/g09/l1002.exe)
 Minotr:  Closed shell wavefunction.
          IDoAtm=111111111111111111111111
          Direct CPHF calculation.
          Differentiating once with respect to nuclear coordinates.
          Requested convergence is 1.0D-08 RMS, and 1.0D-07 maximum.
          Secondary convergence is 1.0D-12 RMS, and 1.0D-12 maximum.
          NewPWx=T KeepS1=F KeepF1=F KeepIn=T MapXYZ=F SortEE=F KeepMc=T.
          MDV=   24159190354 using IRadAn=       2.
 Generate precomputed XC quadrature information.
 Keep R1 ints in memory in canonical form, NReq=4849598104.
 FoFCou: FMM=F IPFlag=           0 FMFlag=           0 FMFlg1=           0
         NFxFlg=           0 DoJE=F BraDBF=F KetDBF=F FulRan=T
         wScrn=  0.000000 ICntrl=     600 IOpCl=  0 I1Cent=           0 NGrid=           0
         NMat0=    1 NMatS0=  97903 NMatT0=    0 NMatD0=    1 NMtDS0=    0 NMtDT0=    0
 Symmetry not used in FoFCou.
          Solving linear equations simultaneously, MaxMat=       0.
          There are    75 degrees of freedom in the 1st order CPHF.  IDoFFX=6 NUNeed=     0.
     69 vectors produced by pass  0 Test12= 2.66D-14 1.33D-09 XBig12= 2.48D-01 1.70D-01.
 AX will form    69 AO Fock derivatives at one time.
     69 vectors produced by pass  1 Test12= 2.66D-14 1.33D-09 XBig12= 4.64D-02 7.45D-02.
     69 vectors produced by pass  2 Test12= 2.66D-14 1.33D-09 XBig12= 7.66D-04 4.38D-03.
     69 vectors produced by pass  3 Test12= 2.66D-14 1.33D-09 XBig12= 3.88D-06 2.83D-04.
     69 vectors produced by pass  4 Test12= 2.66D-14 1.33D-09 XBig12= 1.40D-08 2.06D-05.
     59 vectors produced by pass  5 Test12= 2.66D-14 1.33D-09 XBig12= 2.07D-11 4.85D-07.
     25 vectors produced by pass  6 Test12= 2.66D-14 1.33D-09 XBig12= 2.56D-14 2.47D-08.
      1 vectors produced by pass  7 Test12= 2.66D-14 1.33D-09 XBig12= 1.50D-16 1.73D-09.
 InvSVY:  IOpt=1 It=  1 EMax= 7.22D-16
 Solved reduced A of dimension   430 with    75 vectors.
 End of Minotr F.D. properties file   721 does not exist.
 End of Minotr F.D. properties file   722 does not exist.
 End of Minotr F.D. properties file   788 does not exist.
 Leave Link 1002 at Thu Aug 26 05:05:53 2021, MaxMem= 24159191040 cpu:      2458.9
 (Enter /public/home/users/caep010/software/Gaussian09/g09/l601.exe)
 Copying SCF densities to generalized density rwf, IOpCl= 0 IROHF=0.

 **********************************************************************

            Population analysis using the SCF density.

 **********************************************************************

 Orbital symmetries:
       Occupied  (A) (A) (A) (A) (A) (A) (A) (A) (A) (A) (A) (A)
                 (A) (A) (A) (A) (A) (A) (A) (A) (A) (A) (A) (A)
                 (A) (A) (A) (A) (A) (A) (A) (A) (A) (A) (A) (A)
                 (A) (A) (A) (A) (A) (A) (A) (A) (A) (A) (A) (A)
                 (A) (A) (A)
       Virtual   (A) (A) (A) (A) (A) (A) (A) (A) (A) (A) (A) (A)
                 (A) (A) (A) (A) (A) (A) (A) (A) (A) (A) (A) (A)
                 (A) (A) (A) (A) (A) (A) (A) (A) (A) (A) (A) (A)
                 (A) (A) (A) (A) (A) (A) (A) (A) (A) (A) (A) (A)
                 (A) (A) (A) (A) (A) (A) (A) (A) (A) (A) (A) (A)
                 (A) (A) (A) (A) (A) (A) (A) (A) (A) (A) (A) (A)
                 (A) (A) (A) (A) (A) (A) (A) (A) (A) (A) (A) (A)
                 (A) (A) (A) (A) (A) (A) (A) (A) (A) (A) (A) (A)
                 (A) (A) (A) (A) (A) (A) (A) (A) (A) (A) (A) (A)
                 (A) (A) (A) (A) (A) (A) (A) (A) (A) (A) (A) (A)
                 (A) (A) (A) (A) (A) (A) (A) (A) (A) (A) (A) (A)
                 (A) (A) (A) (A) (A) (A) (A) (A) (A) (A) (A) (A)
                 (A) (A) (A) (A) (A) (A) (A) (A) (A) (A) (A) (A)
                 (A) (A) (A) (A) (A) (A) (A) (A) (A) (A) (A) (A)
                 (A) (A) (A) (A) (A) (A) (A) (A) (A) (A) (A) (A)
                 (A) (A) (A) (A) (A) (A) (A) (A) (A) (A) (A) (A)
                 (A) (A) (A) (A) (A) (A) (A) (A) (A) (A) (A) (A)
                 (A) (A) (A) (A) (A) (A) (A) (A) (A) (A) (A) (A)
                 (A) (A) (A) (A) (A) (A) (A) (A) (A) (A) (A) (A)
                 (A) (A) (A) (A) (A) (A) (A) (A) (A) (A) (A) (A)
                 (A) (A) (A) (A) (A) (A) (A) (A) (A) (A) (A) (A)
                 (A) (A) (A) (A) (A) (A) (A) (A) (A) (A) (A) (A)
                 (A) (A) (A) (A) (A) (A) (A) (A) (A) (A) (A) (A)
                 (A) (A) (A) (A) (A) (A) (A) (A) (A) (A) (A) (A)
                 (A) (A) (A) (A) (A) (A) (A) (A) (A) (A) (A) (A)
                 (A) (A) (A) (A) (A) (A) (A) (A) (A) (A) (A) (A)
                 (A) (A) (A) (A) (A) (A) (A) (A) (A) (A) (A) (A)
                 (A) (A) (A) (A) (A) (A) (A) (A) (A) (A) (A) (A)
                 (A) (A) (A) (A) (A) (A) (A) (A) (A) (A) (A) (A)
                 (A) (A) (A) (A) (A) (A) (A) (A) (A) (A) (A) (A)
                 (A) (A) (A) (A) (A) (A) (A) (A) (A) (A) (A) (A)
                 (A) (A) (A) (A) (A) (A) (A) (A) (A) (A) (A) (A)
                 (A) (A) (A) (A) (A) (A) (A)
 The electronic state is 1-A.
 Alpha  occ. eigenvalues --  -19.14481 -19.14223 -19.09772 -14.54045 -14.39982
 Alpha  occ. eigenvalues --  -10.26885 -10.24452 -10.23478 -10.22446 -10.20541
 Alpha  occ. eigenvalues --  -10.20078 -10.19364 -10.18369 -10.16383  -1.20533
 Alpha  occ. eigenvalues --   -1.02838  -1.02448  -0.99620  -0.88064  -0.84216
 Alpha  occ. eigenvalues --   -0.79538  -0.77880  -0.72364  -0.70673  -0.66729
 Alpha  occ. eigenvalues --   -0.64280  -0.61436  -0.56174  -0.54464  -0.53651
 Alpha  occ. eigenvalues --   -0.51419  -0.50797  -0.49668  -0.48341  -0.47172
 Alpha  occ. eigenvalues --   -0.46020  -0.45563  -0.44858  -0.42887  -0.41822
 Alpha  occ. eigenvalues --   -0.41548  -0.38685  -0.38327  -0.36839  -0.33271
 Alpha  occ. eigenvalues --   -0.28866  -0.28683  -0.27399  -0.26440  -0.23765
 Alpha  occ. eigenvalues --   -0.21402
 Alpha virt. eigenvalues --   -0.08342  -0.05408   0.01321   0.05364   0.07457
 Alpha virt. eigenvalues --    0.09461   0.12680   0.14068   0.15008   0.15730
 Alpha virt. eigenvalues --    0.16277   0.16805   0.17953   0.18740   0.20464
 Alpha virt. eigenvalues --    0.21146   0.21548   0.22091   0.24303   0.27190
 Alpha virt. eigenvalues --    0.27819   0.30369   0.30638   0.32123   0.35832
 Alpha virt. eigenvalues --    0.36551   0.39297   0.40054   0.41373   0.41970
 Alpha virt. eigenvalues --    0.43360   0.44615   0.45924   0.46790   0.47273
 Alpha virt. eigenvalues --    0.48317   0.49530   0.50302   0.50580   0.51750
 Alpha virt. eigenvalues --    0.52227   0.54028   0.55565   0.56708   0.57841
 Alpha virt. eigenvalues --    0.59446   0.59952   0.60431   0.61322   0.63648
 Alpha virt. eigenvalues --    0.65619   0.66649   0.67481   0.68074   0.68582
 Alpha virt. eigenvalues --    0.69847   0.70860   0.72020   0.73397   0.74659
 Alpha virt. eigenvalues --    0.74748   0.76787   0.76912   0.77749   0.78378
 Alpha virt. eigenvalues --    0.78669   0.79659   0.82218   0.82548   0.83084
 Alpha virt. eigenvalues --    0.84490   0.84972   0.86060   0.86340   0.87137
 Alpha virt. eigenvalues --    0.87547   0.88140   0.90997   0.91295   0.93517
 Alpha virt. eigenvalues --    0.95519   0.95767   0.96712   0.97166   0.97982
 Alpha virt. eigenvalues --    0.98771   1.00050   1.00861   1.01200   1.04047
 Alpha virt. eigenvalues --    1.04526   1.05304   1.06622   1.08837   1.09424
 Alpha virt. eigenvalues --    1.11424   1.12277   1.14286   1.15514   1.16533
 Alpha virt. eigenvalues --    1.17356   1.19496   1.20458   1.21123   1.27059
 Alpha virt. eigenvalues --    1.27537   1.28229   1.28627   1.30558   1.32857
 Alpha virt. eigenvalues --    1.36024   1.36701   1.38189   1.38445   1.39993
 Alpha virt. eigenvalues --    1.40257   1.41477   1.42829   1.44604   1.46444
 Alpha virt. eigenvalues --    1.46646   1.49057   1.49783   1.49952   1.50633
 Alpha virt. eigenvalues --    1.53708   1.54863   1.55923   1.56164   1.57205
 Alpha virt. eigenvalues --    1.60398   1.63146   1.63499   1.65544   1.66753
 Alpha virt. eigenvalues --    1.70080   1.70427   1.71837   1.72864   1.74229
 Alpha virt. eigenvalues --    1.75781   1.77323   1.78175   1.81048   1.82961
 Alpha virt. eigenvalues --    1.85519   1.89674   1.90937   1.94105   1.95695
 Alpha virt. eigenvalues --    1.96978   1.99211   2.00624   2.02745   2.04574
 Alpha virt. eigenvalues --    2.08103   2.12266   2.13317   2.14977   2.21302
 Alpha virt. eigenvalues --    2.24447   2.26276   2.27745   2.28863   2.30714
 Alpha virt. eigenvalues --    2.33047   2.33384   2.34971   2.36475   2.37354
 Alpha virt. eigenvalues --    2.39689   2.42627   2.45630   2.48879   2.52637
 Alpha virt. eigenvalues --    2.56958   2.62009   2.67669   2.68455   2.72817
 Alpha virt. eigenvalues --    2.74891   2.77113   2.79448   2.82163   2.86814
 Alpha virt. eigenvalues --    2.88646   2.90083   2.92438   2.96138   2.96795
 Alpha virt. eigenvalues --    2.97082   2.98572   3.00327   3.02598   3.02984
 Alpha virt. eigenvalues --    3.03371   3.05427   3.07189   3.08141   3.08442
 Alpha virt. eigenvalues --    3.09896   3.10218   3.11672   3.13378   3.15149
 Alpha virt. eigenvalues --    3.16490   3.18924   3.20186   3.21077   3.21244
 Alpha virt. eigenvalues --    3.25422   3.28143   3.29757   3.31102   3.32124
 Alpha virt. eigenvalues --    3.33108   3.33942   3.34228   3.37318   3.39213
 Alpha virt. eigenvalues --    3.40072   3.42559   3.45597   3.46284   3.47682
 Alpha virt. eigenvalues --    3.47952   3.49645   3.50732   3.51675   3.54311
 Alpha virt. eigenvalues --    3.54420   3.56784   3.60793   3.61327   3.62555
 Alpha virt. eigenvalues --    3.63636   3.65493   3.67202   3.68710   3.70088
 Alpha virt. eigenvalues --    3.71927   3.73269   3.74152   3.74568   3.78950
 Alpha virt. eigenvalues --    3.79995   3.80515   3.81794   3.84055   3.85579
 Alpha virt. eigenvalues --    3.88630   3.93237   3.95243   3.97893   3.99145
 Alpha virt. eigenvalues --    4.00084   4.02555   4.02969   4.04824   4.07109
 Alpha virt. eigenvalues --    4.09797   4.11893   4.13062   4.14012   4.14642
 Alpha virt. eigenvalues --    4.17825   4.18569   4.24056   4.26217   4.26492
 Alpha virt. eigenvalues --    4.27496   4.29008   4.29738   4.31651   4.31754
 Alpha virt. eigenvalues --    4.32689   4.33747   4.34751   4.37357   4.39414
 Alpha virt. eigenvalues --    4.41535   4.42177   4.42851   4.43104   4.43737
 Alpha virt. eigenvalues --    4.45005   4.47320   4.48516   4.49866   4.50520
 Alpha virt. eigenvalues --    4.51182   4.52901   4.54057   4.54543   4.55225
 Alpha virt. eigenvalues --    4.56647   4.57119   4.59315   4.60479   4.60724
 Alpha virt. eigenvalues --    4.62288   4.64276   4.66625   4.67194   4.68230
 Alpha virt. eigenvalues --    4.68315   4.72477   4.73574   4.74184   4.77967
 Alpha virt. eigenvalues --    4.82166   4.82764   4.86760   4.88621   4.89424
 Alpha virt. eigenvalues --    4.91040   4.92688   4.95305   4.96954   4.99315
 Alpha virt. eigenvalues --    5.01943   5.05230   5.05720   5.06269   5.07933
 Alpha virt. eigenvalues --    5.08367   5.10110   5.10760   5.12021   5.13364
 Alpha virt. eigenvalues --    5.15345   5.18765   5.21876   5.23416   5.24056
 Alpha virt. eigenvalues --    5.25796   5.26463   5.27244   5.34125   5.38666
 Alpha virt. eigenvalues --    5.39596   5.44361   5.51791   5.54277   5.56897
 Alpha virt. eigenvalues --    5.59707   5.60448   5.64074   5.64383   5.64922
 Alpha virt. eigenvalues --    5.72362   5.75455   5.77961   5.80881   5.88609
 Alpha virt. eigenvalues --    5.92529   5.96646   6.00708   6.02174   6.02729
 Alpha virt. eigenvalues --    6.06063   6.17389   6.27489   6.28311   6.37688
 Alpha virt. eigenvalues --    6.40432   6.47488   6.58411   6.63798   6.73089
 Alpha virt. eigenvalues --    6.79726   6.88469   6.97673   7.10507   8.94382
 Alpha virt. eigenvalues --    9.70828  10.34891  10.76899  11.02234  11.20240
 Alpha virt. eigenvalues --   11.33968  11.38624  11.70086  11.92201  12.10292
 Alpha virt. eigenvalues --   12.68764  12.99604  13.22483  13.47123  17.45400
 Alpha virt. eigenvalues --   19.60541
          Condensed to atoms (all electrons):
               1          2          3          4          5          6
     1  O    7.852068   0.722065  -0.094781  -0.054516   0.002997  -0.000124
     2  C    0.722065   4.356273   0.267565   0.457300   0.004077  -0.031200
     3  C   -0.094781   0.267565   5.065073  -0.002274  -0.050755  -0.020251
     4  C   -0.054516   0.457300  -0.002274   4.989244   0.517771   0.000228
     5  C    0.002997   0.004077  -0.050755   0.517771   4.977016   0.412842
     6  C   -0.000124  -0.031200  -0.020251   0.000228   0.412842   4.972407
     7  N   -0.000000   0.000381   0.002392   0.001656  -0.028469   0.344244
     8  O    0.000000  -0.000008   0.000036   0.001449   0.009454  -0.144660
     9  O   -0.000000   0.000008   0.001699   0.000035   0.009282  -0.139127
    10  C    0.005289   0.012589   0.349814  -0.081569  -0.025089   0.406411
    11  C   -0.022457  -0.036930   0.485601   0.004166   0.001541   0.001436
    12  H   -0.000158   0.002495  -0.000440  -0.000142  -0.000088   0.000348
    13  N   -0.024862  -0.014446  -0.004799  -0.000027   0.000011  -0.000044
    14  C    0.000676   0.000468   0.003865  -0.000001   0.000001  -0.000002
    15  H    0.000003   0.000016  -0.000475   0.000000  -0.000000  -0.000000
    16  C   -0.000006   0.000009  -0.000186   0.000000  -0.000000   0.000000
    17  H    0.073078   0.001327  -0.021271   0.001380  -0.000073   0.000010
    18  H    0.002468  -0.008845   0.008699   0.297207  -0.020678  -0.000233
    19  H   -0.000048   0.001557   0.000776  -0.020351   0.338516  -0.027683
    20  H   -0.000043   0.002525  -0.023527   0.000578   0.004668  -0.016168
    21  H    0.000000  -0.000000   0.000005  -0.000000   0.000000   0.000000
    22  H    0.000001   0.000009  -0.000270   0.000000  -0.000000   0.000000
    23  H   -0.000056  -0.000025   0.000665  -0.000000   0.000000   0.000000
    24  H   -0.000026  -0.000004   0.000033  -0.000000   0.000000   0.000000
               7          8          9         10         11         12
     1  O   -0.000000   0.000000  -0.000000   0.005289  -0.022457  -0.000158
     2  C    0.000381  -0.000008   0.000008   0.012589  -0.036930   0.002495
     3  C    0.002392   0.000036   0.001699   0.349814   0.485601  -0.000440
     4  C    0.001656   0.001449   0.000035  -0.081569   0.004166  -0.000142
     5  C   -0.028469   0.009454   0.009282  -0.025089   0.001541  -0.000088
     6  C    0.344244  -0.144660  -0.139127   0.406411   0.001436   0.000348
     7  N    5.227641   0.569216   0.557198  -0.011211  -0.000146   0.000003
     8  O    0.569216   8.019475  -0.114098   0.009987  -0.000000  -0.000000
     9  O    0.557198  -0.114098   8.041928   0.007856  -0.000038  -0.000008
    10  C   -0.011211   0.009987   0.007856   5.234430  -0.032947  -0.011919
    11  C   -0.000146  -0.000000  -0.000038  -0.032947   4.748416   0.310279
    12  H    0.000003  -0.000000  -0.000008  -0.011919   0.310279   0.580885
    13  N    0.000000   0.000000   0.000000   0.000905   0.557005  -0.024569
    14  C   -0.000000   0.000000  -0.000000  -0.000112  -0.058376  -0.012390
    15  H   -0.000000  -0.000000  -0.000000   0.000006   0.003144   0.000236
    16  C   -0.000000   0.000000   0.000000   0.000005   0.000333   0.000276
    17  H    0.000000  -0.000000  -0.000000  -0.000433  -0.025908   0.007514
    18  H   -0.000077  -0.000005   0.000001   0.002328  -0.000225   0.000009
    19  H   -0.010805   0.021317   0.000385   0.004895   0.000020  -0.000001
    20  H   -0.013892   0.000512   0.025723   0.321131  -0.012828   0.005594
    21  H    0.000000  -0.000000  -0.000000  -0.000000  -0.000140  -0.000033
    22  H   -0.000000  -0.000000  -0.000000  -0.000000   0.002452   0.000220
    23  H   -0.000000   0.000000   0.000000  -0.000031  -0.003545   0.007828
    24  H    0.000000  -0.000000   0.000000  -0.000000   0.000122   0.000040
              13         14         15         16         17         18
     1  O   -0.024862   0.000676   0.000003  -0.000006   0.073078   0.002468
     2  C   -0.014446   0.000468   0.000016   0.000009   0.001327  -0.008845
     3  C   -0.004799   0.003865  -0.000475  -0.000186  -0.021271   0.008699
     4  C   -0.000027  -0.000001   0.000000   0.000000   0.001380   0.297207
     5  C    0.000011   0.000001  -0.000000  -0.000000  -0.000073  -0.020678
     6  C   -0.000044  -0.000002  -0.000000   0.000000   0.000010  -0.000233
     7  N    0.000000  -0.000000  -0.000000  -0.000000   0.000000  -0.000077
     8  O    0.000000   0.000000  -0.000000   0.000000  -0.000000  -0.000005
     9  O    0.000000  -0.000000  -0.000000   0.000000  -0.000000   0.000001
    10  C    0.000905  -0.000112   0.000006   0.000005  -0.000433   0.002328
    11  C    0.557005  -0.058376   0.003144   0.000333  -0.025908  -0.000225
    12  H   -0.024569  -0.012390   0.000236   0.000276   0.007514   0.000009
    13  N    6.101701   0.389046  -0.021425  -0.051296   0.311588  -0.000001
    14  C    0.389046   4.687947   0.388134   0.425173  -0.028051  -0.000000
    15  H   -0.021425   0.388134   0.596006  -0.037937  -0.002527   0.000000
    16  C   -0.051296   0.425173  -0.037937   4.871692   0.001323   0.000000
    17  H    0.311588  -0.028051  -0.002527   0.001323   0.431836  -0.000069
    18  H   -0.000001  -0.000000   0.000000   0.000000  -0.000069   0.632936
    19  H    0.000000   0.000000  -0.000000  -0.000000   0.000001  -0.005382
    20  H    0.000029  -0.000022  -0.000000   0.000000  -0.000034   0.000079
    21  H    0.004014  -0.020703  -0.000100   0.379145  -0.000197  -0.000000
    22  H   -0.000382  -0.029800   0.007546   0.398417  -0.000228   0.000000
    23  H   -0.023964   0.383245  -0.050868  -0.031859   0.003832   0.000000
    24  H   -0.002565  -0.027858  -0.006302   0.398471   0.001856   0.000000
              19         20         21         22         23         24
     1  O   -0.000048  -0.000043   0.000000   0.000001  -0.000056  -0.000026
     2  C    0.001557   0.002525  -0.000000   0.000009  -0.000025  -0.000004
     3  C    0.000776  -0.023527   0.000005  -0.000270   0.000665   0.000033
     4  C   -0.020351   0.000578  -0.000000   0.000000  -0.000000  -0.000000
     5  C    0.338516   0.004668   0.000000  -0.000000   0.000000   0.000000
     6  C   -0.027683  -0.016168   0.000000   0.000000   0.000000   0.000000
     7  N   -0.010805  -0.013892   0.000000  -0.000000  -0.000000   0.000000
     8  O    0.021317   0.000512  -0.000000  -0.000000   0.000000  -0.000000
     9  O    0.000385   0.025723  -0.000000  -0.000000   0.000000   0.000000
    10  C    0.004895   0.321131  -0.000000  -0.000000  -0.000031  -0.000000
    11  C    0.000020  -0.012828  -0.000140   0.002452  -0.003545   0.000122
    12  H   -0.000001   0.005594  -0.000033   0.000220   0.007828   0.000040
    13  N    0.000000   0.000029   0.004014  -0.000382  -0.023964  -0.002565
    14  C    0.000000  -0.000022  -0.020703  -0.029800   0.383245  -0.027858
    15  H   -0.000000  -0.000000  -0.000100   0.007546  -0.050868  -0.006302
    16  C   -0.000000   0.000000   0.379145   0.398417  -0.031859   0.398471
    17  H    0.000001  -0.000034  -0.000197  -0.000228   0.003832   0.001856
    18  H   -0.005382   0.000079  -0.000000   0.000000   0.000000   0.000000
    19  H    0.569707  -0.000298   0.000000  -0.000000  -0.000000  -0.000000
    20  H   -0.000298   0.588692   0.000000  -0.000000   0.000009   0.000000
    21  H    0.000000   0.000000   0.575331  -0.031428  -0.002002  -0.032959
    22  H   -0.000000  -0.000000  -0.031428   0.563457  -0.005743  -0.035480
    23  H   -0.000000   0.000009  -0.002002  -0.005743   0.600574   0.006674
    24  H   -0.000000   0.000000  -0.032959  -0.035480   0.006674   0.558383
 Mulliken charges:
               1
     1  O   -0.461571
     2  C    0.262794
     3  C    0.032804
     4  C   -0.112131
     5  C   -0.153028
     6  C    0.241565
     7  N    0.361870
     8  O   -0.372675
     9  O   -0.390846
    10  C   -0.192334
    11  C    0.079024
    12  H    0.134021
    13  N   -0.195921
    14  C   -0.101240
    15  H    0.124543
    16  C   -0.353559
    17  H    0.245046
    18  H    0.091791
    19  H    0.127395
    20  H    0.117272
    21  H    0.129067
    22  H    0.131230
    23  H    0.115267
    24  H    0.139615
 Sum of Mulliken charges =  -0.00000
 Mulliken charges with hydrogens summed into heavy atoms:
               1
     1  O   -0.461571
     2  C    0.262794
     3  C    0.032804
     4  C   -0.020339
     5  C   -0.025633
     6  C    0.241565
     7  N    0.361870
     8  O   -0.372675
     9  O   -0.390846
    10  C   -0.075062
    11  C    0.213046
    13  N    0.049125
    14  C    0.138570
    16  C    0.046353
 APT charges:
               1
     1  O    0.306187
     2  C   -0.974575
     3  C   -0.492533
     4  C   -0.084729
     5  C   -0.383057
     6  C   -0.098821
     7  N   -1.487563
     8  O    0.983774
     9  O    0.424429
    10  C   -0.438596
    11  C   -0.183024
    12  H    0.345203
    13  N   -0.182440
    14  C   -0.470583
    15  H    0.505764
    16  C   -1.107711
    17  H    0.359254
    18  H    0.476222
    19  H    0.624431
    20  H    0.305592
    21  H    0.817642
    22  H    0.062147
    23  H    0.291719
    24  H    0.401269
 Sum of APT charges =  -0.00000
 APT charges with hydrogens summed into heavy atoms:
               1
     1  O    0.306187
     2  C   -0.974575
     3  C   -0.492533
     4  C    0.391494
     5  C    0.241374
     6  C   -0.098821
     7  N   -1.487563
     8  O    0.983774
     9  O    0.424429
    10  C   -0.133004
    11  C    0.162178
    13  N    0.176813
    14  C    0.326899
    16  C    0.173347
 Electronic spatial extent (au):  <R**2>=           3690.8567
 Charge=             -0.0000 electrons
 Dipole moment (field-independent basis, Debye):
    X=              8.3538    Y=             -1.8851    Z=             -0.7357  Tot=              8.5954
 Quadrupole moment (field-independent basis, Debye-Ang):
   XX=            -79.9676   YY=            -84.1448   ZZ=            -78.2437
   XY=            -17.8463   XZ=             -0.3208   YZ=              0.3871
 Traceless Quadrupole moment (field-independent basis, Debye-Ang):
   XX=              0.8177   YY=             -3.3594   ZZ=              2.5417
   XY=            -17.8463   XZ=             -0.3208   YZ=              0.3871
 Octapole moment (field-independent basis, Debye-Ang**2):
  XXX=            179.7188  YYY=             -8.4074  ZZZ=              0.6737  XYY=              3.5101
  XXY=              7.2009  XXZ=            -10.4657  XZZ=             -1.6084  YZZ=             -4.0544
  YYZ=             -0.3327  XYZ=              1.0181
 Hexadecapole moment (field-independent basis, Debye-Ang**3):
 XXXX=          -3682.1775 YYYY=           -820.4284 ZZZZ=           -133.4316 XXXY=           -135.5997
 XXXZ=             10.4130 YYYX=            -65.7615 YYYZ=              2.6679 ZZZX=             -8.2193
 ZZZY=             -1.0995 XXYY=           -772.1928 XXZZ=           -612.8075 YYZZ=           -154.6898
 XXYZ=              1.6168 YYXZ=             -5.6716 ZZXY=             13.2809
 N-N= 8.582327829484D+02 E-N=-3.314305992490D+03  KE= 6.816768448713D+02
  Exact polarizability:   0.000   0.000   0.000   0.000   0.000   0.000
 Approx polarizability: 352.138  -0.324 227.931 -16.901  10.358  93.727
 No NMR shielding tensors so no spin-rotation constants.
 Leave Link  601 at Thu Aug 26 05:05:54 2021, MaxMem= 24159191040 cpu:        17.3
 (Enter /public/home/users/caep010/software/Gaussian09/g09/l701.exe)
 Compute integral second derivatives.
 ... and contract with generalized density number  0.
 Leave Link  701 at Thu Aug 26 05:05:54 2021, MaxMem= 24159191040 cpu:        18.7
 (Enter /public/home/users/caep010/software/Gaussian09/g09/l702.exe)
 L702 exits ... SP integral derivatives will be done elsewhere.
 Leave Link  702 at Thu Aug 26 05:05:55 2021, MaxMem= 24159191040 cpu:         0.7
 (Enter /public/home/users/caep010/software/Gaussian09/g09/l703.exe)
 Compute integral second derivatives, UseDBF=F ICtDFT=           0.
 Integral derivatives from FoFJK, PRISM(SPDF).
 Calling FoFJK, ICntrl=    100147 FMM=F ISym2X=0 I1Cent= 0 IOpClX= 0 NMat=1 NMatS=1 NMatT=0.
 FoFJK:  IHMeth= 1 ICntrl=  100147 DoSepK=F KAlg= 0 I1Cent=   0 FoldK=F
 IRaf=         0 NMat=   1 IRICut=       1 DoRegI=T DoRafI=F ISym2E= 0.
 FoFCou: FMM=F IPFlag=           0 FMFlag=      100000 FMFlg1=         800
         NFxFlg=           0 DoJE=F BraDBF=F KetDBF=F FulRan=T
         wScrn=  0.000000 ICntrl=  100147 IOpCl=  0 I1Cent=           0 NGrid=           0
         NMat0=    1 NMatS0=      1 NMatT0=    0 NMatD0=    1 NMtDS0=    0 NMtDT0=    0
 Symmetry not used in FoFCou.
 Leave Link  703 at Thu Aug 26 05:06:56 2021, MaxMem= 24159191040 cpu:      1947.4
 (Enter /public/home/users/caep010/software/Gaussian09/g09/l716.exe)
 Dipole        = 3.28665150D+00-7.41639865D-01-2.89464907D-01
 Polarizability= 0.00000000D+00 0.00000000D+00 0.00000000D+00
                 0.00000000D+00 0.00000000D+00 0.00000000D+00
 ***** Axes restored to original set *****
 -------------------------------------------------------------------
 Center     Atomic                   Forces (Hartrees/Bohr)
 Number     Number              X              Y              Z
 -------------------------------------------------------------------
      1        8           0.005704305    0.001419124   -0.002441910
      2        6          -0.018011662   -0.006293879    0.018074064
      3        6           0.003910015   -0.013481574    0.008584395
      4        6           0.141435088   -0.100112255   -0.044175522
      5        6           0.001305289   -0.049827503    0.044027731
      6        6           0.009723201   -0.005752402   -0.005440965
      7        7           0.009764063   -0.000546623   -0.008577267
      8        8          -0.010056875    0.012264923   -0.002874403
      9        8           0.004759680   -0.009610866    0.006214977
     10        6          -0.067456785    0.049977261    0.015469528
     11        6          -0.104646456    0.089638514    0.004754271
     12        1           0.120066322   -0.073637679   -0.033745370
     13        7           0.099523977   -0.079298485   -0.017071081
     14        6          -0.113762097    0.018285054   -0.074682494
     15        1           0.003748643    0.032628230    0.127711337
     16        6           0.038097355    0.052079742    0.061035015
     17        1          -0.124238964    0.081092698    0.033882630
     18        1          -0.148705258    0.109048314    0.042842745
     19        1          -0.010089552    0.060724957   -0.045418125
     20        1           0.081600137   -0.052709699   -0.023355474
     21        1           0.018842622   -0.062032478    0.037386881
     22        1          -0.007831011   -0.030329017   -0.120622747
     23        1           0.131151049   -0.045445665   -0.041249427
     24        1          -0.064833087    0.021919308    0.019671209
 -------------------------------------------------------------------
 Cartesian Forces:  Max     0.148705258 RMS     0.061014132
 FormGI is forming the generalized inverse of G from B-inverse, IUseBI=4.
 GSVD:  received Info=                   1 from GESDD.
 Leave Link  716 at Thu Aug 26 05:06:56 2021, MaxMem= 24159191040 cpu:         1.3
 (Enter /public/home/users/caep010/software/Gaussian09/g09/l103.exe)

 GradGradGradGradGradGradGradGradGradGradGradGradGradGradGradGradGradGrad
 Berny optimization.
 Red2BG is reusing G-inverse.
 Internal  Forces:  Max     0.189298360 RMS     0.038000179
 Search for a local minimum.
 Step number   1 out of a maximum of  124
 All quantities printed in internal units (Hartrees-Bohrs-Radians)
 RMS Force = .38000D-01 SwitMx=.10000D-02 MixMth= 1
 Mixed Optimization -- RFO/linear search
 Second derivative matrix not updated -- analytic derivatives used.
 ITU=  0
     Eigenvalues ---    0.00118   0.00242   0.00654   0.00948   0.01170
     Eigenvalues ---    0.01412   0.01672   0.01887   0.02018   0.02092
     Eigenvalues ---    0.02237   0.02643   0.03070   0.03438   0.03991
     Eigenvalues ---    0.04638   0.04749   0.04848   0.05120   0.05247
     Eigenvalues ---    0.08271   0.10614   0.11226   0.11606   0.11836
     Eigenvalues ---    0.12020   0.13229   0.13639   0.14191   0.14326
     Eigenvalues ---    0.17184   0.17435   0.18058   0.18602   0.20813
     Eigenvalues ---    0.21081   0.22635   0.23018   0.24396   0.26876
     Eigenvalues ---    0.27745   0.31933   0.32639   0.34228   0.37126
     Eigenvalues ---    0.38223   0.41631   0.43463   0.45285   0.51216
     Eigenvalues ---    0.54697   0.55019   0.56051   0.59356   0.60508
     Eigenvalues ---    0.61574   0.65793   0.68752   0.70887   0.71299
     Eigenvalues ---    0.72409   0.76465   0.77979   0.80129   0.91915
     Eigenvalues ---    0.92082
 RFO step:  Lambda=-1.76371885D-01 EMin= 1.17917020D-03
 Linear search not attempted -- first point.
 Maximum step size (   0.300) exceeded in Quadratic search.
    -- Step size scaled by   0.679
 Iteration  1 RMS(Cart)=  0.03605693 RMS(Int)=  0.00031333
 Iteration  2 RMS(Cart)=  0.00044454 RMS(Int)=  0.00000961
 Iteration  3 RMS(Cart)=  0.00000026 RMS(Int)=  0.00000961
 ITry= 1 IFail=0 DXMaxC= 1.27D-01 DCOld= 1.00D+10 DXMaxT= 3.00D-01 DXLimC= 3.00D+00 Rises=F
 Variable       Old X    -DE/DX   Delta X   Delta X   Delta X     New X
                                 (Linear)    (Quad)   (Total)
    R1        2.37491  -0.00575   0.00000  -0.00706  -0.00706   2.36786
    R2        2.72464   0.01653   0.00000   0.02328   0.02329   2.74792
    R3        2.70126   0.01498   0.00000   0.01795   0.01795   2.71921
    R4        2.63475   0.01810   0.00000   0.01762   0.01762   2.65237
    R5        2.67019  -0.00646   0.00000  -0.00898  -0.00898   2.66121
    R6        2.56665   0.00991   0.00000   0.00577   0.00577   2.57242
    R7        1.73229   0.18930   0.00000   0.11736   0.11736   1.84965
    R8        2.64991   0.01723   0.00000   0.01865   0.01864   2.66855
    R9        1.88364   0.07619   0.00000   0.06733   0.06733   1.95096
   R10        2.71488   0.00716   0.00000   0.01121   0.01121   2.72609
   R11        2.58018   0.00597   0.00000   0.00429   0.00428   2.58447
   R12        2.30853   0.01363   0.00000   0.00815   0.00815   2.31669
   R13        2.31940   0.00816   0.00000   0.00360   0.00360   2.32300
   R14        1.84718   0.09936   0.00000   0.08103   0.08103   1.92820
   R15        1.78886   0.14480   0.00000   0.10292   0.10292   1.89178
   R16        2.43573   0.03425   0.00000   0.02575   0.02575   2.46148
   R17        2.73920   0.01664   0.00000   0.01434   0.01434   2.75354
   R18        1.69854   0.15209   0.00000   0.09497   0.09497   1.79351
   R19        1.81080   0.13176   0.00000   0.09908   0.09908   1.90988
   R20        2.83468   0.02425   0.00000   0.02762   0.02762   2.86230
   R21        1.79262   0.14473   0.00000   0.10434   0.10434   1.89696
   R22        1.89965   0.07477   0.00000   0.06883   0.06883   1.96848
   R23        1.81820   0.12454   0.00000   0.09536   0.09536   1.91356
   R24        1.90571   0.07109   0.00000   0.06642   0.06642   1.97214
    A1        2.12482  -0.00089   0.00000   0.00130   0.00129   2.12611
    A2        2.12973   0.00297   0.00000   0.00337   0.00337   2.13310
    A3        2.02864  -0.00209   0.00000  -0.00467  -0.00466   2.02398
    A4        2.10990   0.00237   0.00000   0.00171   0.00171   2.11161
    A5        2.11304  -0.00666   0.00000  -0.00880  -0.00881   2.10424
    A6        2.06013   0.00429   0.00000   0.00711   0.00711   2.06723
    A7        2.12404  -0.00115   0.00000  -0.00009  -0.00009   2.12396
    A8        2.03399   0.00188   0.00000   0.00195   0.00195   2.03594
    A9        2.12489  -0.00071   0.00000  -0.00182  -0.00182   2.12306
   A10        2.09644   0.00251   0.00000   0.00405   0.00405   2.10049
   A11        2.06619   0.00508   0.00000   0.01354   0.01354   2.07974
   A12        2.12021  -0.00758   0.00000  -0.01755  -0.01755   2.10266
   A13        2.08656   0.00019   0.00000  -0.00023  -0.00022   2.08633
   A14        2.11554   0.00089   0.00000   0.00010   0.00009   2.11563
   A15        2.08102  -0.00108   0.00000   0.00014   0.00014   2.08116
   A16        2.06961  -0.00594   0.00000  -0.00719  -0.00719   2.06242
   A17        2.08174  -0.00785   0.00000  -0.00904  -0.00904   2.07270
   A18        2.13180   0.01380   0.00000   0.01624   0.01624   2.14804
   A19        2.09044  -0.00250   0.00000  -0.00100  -0.00101   2.08943
   A20        2.03496   0.01093   0.00000   0.02170   0.02170   2.05666
   A21        2.15776  -0.00842   0.00000  -0.02069  -0.02069   2.13707
   A22        2.08332   0.00046   0.00000   0.00197   0.00197   2.08528
   A23        2.17008  -0.00463   0.00000  -0.00560  -0.00560   2.16448
   A24        2.02940   0.00419   0.00000   0.00370   0.00370   2.03310
   A25        2.17047   0.00186   0.00000   0.00595   0.00595   2.17642
   A26        2.04729  -0.00467   0.00000  -0.01822  -0.01822   2.02906
   A27        2.06531   0.00280   0.00000   0.01225   0.01225   2.07756
   A28        1.85841   0.00206   0.00000   0.00549   0.00550   1.86391
   A29        1.93603   0.00127   0.00000   0.00330   0.00332   1.93934
   A30        1.85903   0.00193   0.00000   0.00503   0.00504   1.86407
   A31        1.95973  -0.00348   0.00000  -0.00827  -0.00829   1.95144
   A32        1.88409   0.00164   0.00000   0.00185   0.00179   1.88588
   A33        1.96069  -0.00289   0.00000  -0.00618  -0.00620   1.95449
   A34        1.90731   0.00045   0.00000   0.00184   0.00183   1.90914
   A35        1.90671   0.00469   0.00000   0.00983   0.00981   1.91653
   A36        1.91292   0.00182   0.00000   0.00493   0.00491   1.91783
   A37        1.93594  -0.00345   0.00000  -0.00856  -0.00857   1.92737
   A38        1.86360   0.00044   0.00000   0.00195   0.00193   1.86553
   A39        1.93682  -0.00399   0.00000  -0.00998  -0.01000   1.92682
    D1        3.08866   0.00111   0.00000   0.00386   0.00385   3.09252
    D2       -0.03600   0.00086   0.00000   0.00286   0.00287  -0.03313
    D3       -0.05136   0.00061   0.00000   0.00235   0.00236  -0.04900
    D4        3.10717   0.00036   0.00000   0.00136   0.00137   3.10854
    D5       -3.08959  -0.00098   0.00000  -0.00322  -0.00322  -3.09281
    D6        0.07616  -0.00150   0.00000  -0.00495  -0.00495   0.07122
    D7        0.05042  -0.00048   0.00000  -0.00171  -0.00171   0.04871
    D8       -3.06701  -0.00100   0.00000  -0.00344  -0.00344  -3.07045
    D9        0.01722  -0.00041   0.00000  -0.00146  -0.00146   0.01576
   D10       -3.13243  -0.00004   0.00000  -0.00024  -0.00023  -3.13266
   D11       -3.14081  -0.00027   0.00000  -0.00064  -0.00064  -3.14145
[...]
 614273,0.07659503,0.30251354,-0.00104621,-0.00077819,0.00111645,0.0012
 7857,0.00037743,-0.00118736,-0.00029875,0.00139966,-0.00213562,-0.0000
 0077,-0.00048364,0.00053091,0.00068311,-0.00013600,-0.00048532,-0.0003
 4095,0.00106131,-0.00054796,-0.00050973,-0.00005658,0.00060161,0.00007
 979,0.00017999,-0.00027109,0.00026502,-0.00009240,-0.00015402,-0.00073
 397,-0.00075807,0.00093670,-0.00153700,0.00007771,0.00159595,0.0002203
 5,-0.00004386,-0.00000304,0.01105332,0.00208853,0.00157262,-0.14482834
 ,-0.05375889,-0.00751065,-0.00374380,-0.00308288,-0.00019265,0.5169111
 0,0.00025602,0.00069237,-0.00058944,-0.00084822,-0.00007570,0.00041534
 ,0.00017303,-0.00062684,0.00218269,-0.00007604,0.00013884,-0.00029644,
 -0.00031008,0.00013832,0.00022405,0.00008212,-0.00061248,0.00027440,0.
 00023518,-0.00003117,-0.00036657,-0.00003742,-0.00006580,0.00014859,-0
 .00014771,0.00005180,0.00008503,0.00066414,0.00057423,-0.00033840,0.00
 171211,-0.00128286,-0.00438752,-0.00034950,-0.00015581,0.00012081,-0.0
 2268873,-0.03169237,0.01165138,-0.05023180,-0.11990989,-0.01109465,-0.
 01093659,-0.00806638,-0.00182222,-0.05563670,0.52166961,-0.00022107,-0
 .00007819,0.00014095,0.00047336,0.00009148,-0.00016766,-0.00047974,0.0
 0025053,-0.00232287,0.00007283,-0.00007008,0.00017459,0.00024495,-0.00
 007148,-0.00020413,-0.00000922,0.00063387,-0.00034033,-0.00033540,0.00
 000370,0.00049596,0.00004710,0.00011257,-0.00021140,0.00020556,-0.0000
 7830,-0.00013698,-0.00063583,-0.00051163,0.00035394,-0.00102388,0.0025
 3639,0.00219518,0.00037328,0.00030931,0.00039167,0.01871080,0.02208197
 ,-0.00388548,-0.01096470,-0.01349772,-0.07835341,-0.02409673,-0.022309
 03,-0.00097760,-0.00132108,-0.00600263,0.57867102,-0.01816960,-0.01402
 696,0.01971247,0.02040606,0.00026173,-0.01720419,-0.00680697,0.0093347
 0,-0.00742177,-0.00277920,-0.00452178,0.00830334,0.00612182,-0.0021612
 5,-0.00310505,-0.00347226,0.00488283,-0.00137457,-0.00022758,0.0005082
 0,0.00002535,0.00012525,0.00001980,-0.00019570,-0.00024457,0.00002752,
 0.00012918,-0.00342985,-0.00281454,0.00471722,-0.02305006,-0.00298170,
 0.02680136,0.00360975,0.00063918,0.00270744,-0.21412152,0.11830632,0.0
 4480606,0.00765399,-0.00160611,-0.00728167,-0.00029134,0.00052227,0.00
 016264,0.00139753,0.00064774,-0.00032336,0.23242058,0.00546550,0.01588
 116,-0.02888898,-0.02449821,-0.00882355,0.02918777,0.00521437,-0.01585
 335,0.00533087,0.00422129,0.00752360,-0.00856490,-0.00749014,0.0025886
 3,0.00407142,0.00476523,-0.00559122,0.00131950,-0.00000214,-0.00053158
 ,0.00082673,-0.00015479,0.00014160,-0.00007895,0.00055645,-0.00016212,
 -0.00038289,0.00329660,0.00258982,-0.00606941,-0.00362991,0.02899802,-
 0.01879999,-0.00181978,0.00243731,0.00613267,0.11159710,-0.12857182,-0
 .00485762,0.00699743,-0.00783539,-0.00067698,0.00036046,0.00002139,0.0
 0037828,0.00109640,-0.00006882,-0.00058719,-0.10391032,0.10684503,0.00
 165741,-0.01208668,-0.00050396,0.00563343,0.00806447,-0.01207824,-0.00
 365037,0.00202541,-0.00411800,0.00022914,-0.00120640,0.00300367,0.0018
 6803,-0.00046581,-0.00103216,-0.00129294,0.00131604,0.00009525,0.00043
 592,0.00037258,-0.00035661,-0.00002577,-0.00020416,0.00012578,-0.00032
 624,0.00005692,0.00016096,-0.00098500,-0.00094656,0.00077954,0.0277363
 1,-0.01963232,-0.00000753,0.00493814,0.00418490,-0.00059507,0.05167628
 ,-0.01111974,-0.06502616,-0.01523545,0.00704156,0.00455083,-0.00042648
 ,-0.00028037,0.00000033,-0.00041523,-0.00022236,0.00030611,-0.07216534
 ,0.02041927,0.07647771,0.00047876,-0.00145402,-0.00164360,-0.00335715,
 0.00193473,0.00467424,0.00131720,0.00199229,0.00018963,-0.24178359,0.1
 3054112,0.05558534,-0.01155580,0.00992708,0.00209279,0.00288590,0.0002
 4846,0.00491217,0.00014072,0.00130884,0.00008121,-0.00003280,-0.000149
 03,0.00013784,-0.00052741,-0.00030604,0.00007342,0.00041573,-0.0001211
 6,-0.00032172,-0.00047193,-0.00031625,0.00040948,-0.00000837,0.0001356
 5,-0.00001519,0.00021383,-0.00000264,-0.00019931,0.00007109,-0.0000653
 2,0.00003862,-0.00001230,0.00002306,-0.00001933,-0.00001970,0.00000961
 ,-0.00001736,-0.00009822,0.00007145,-0.00007640,0.25361915,-0.00322805
 ,0.00203905,-0.00194796,0.02322918,-0.00904841,-0.00741105,0.00117149,
 -0.00216710,0.00442522,0.13043380,-0.12833301,-0.02378001,-0.00935703,
 0.00743494,0.00265946,0.00113700,0.00326086,0.00428244,-0.00005880,0.0
 0104342,0.00061871,0.00006068,-0.00002075,-0.00006196,-0.00041118,-0.0
 0031561,-0.00007376,-0.00071888,-0.00065741,0.00112722,0.00125338,-0.0
 0044716,-0.00096098,0.00017425,-0.00034880,0.00028721,-0.00026869,0.00
 026454,-0.00004835,-0.00006864,0.00007735,0.00002529,-0.00000531,-0.00
 001853,0.00002111,0.00002342,-0.00000933,0.00001262,0.00024399,-0.0003
 6978,0.00003580,-0.14155155,0.12915066,-0.00000553,-0.00346359,0.00015
 360,-0.01495858,0.01063740,0.00711314,0.00093307,0.00373373,-0.0005211
 0,0.05569294,-0.02385963,-0.05939331,0.01986462,-0.01367976,-0.0025051
 4,0.00410994,0.00502653,0.00083949,0.00134168,-0.00053960,0.00102375,-
 0.00005640,0.00011676,-0.00009248,0.00016974,-0.00016487,-0.00076711,0
 .00022702,0.00062569,-0.00086874,-0.00103666,0.00037542,0.00019828,-0.
 00005055,0.00032054,-0.00013012,0.00004273,-0.00027439,0.00018662,0.00
 003584,0.00002471,-0.00001822,-0.00000322,0.00000058,-0.00000199,0.000
 00589,-0.00000505,-0.00000124,-0.00023385,0.00017909,-0.00007661,-0.06
 339937,0.02381018,0.05663029,-0.00034939,-0.00154749,0.00025661,0.0008
 2089,0.00358344,0.00591113,-0.00039829,-0.00091771,0.00042930,0.008674
 43,-0.01539209,0.01237800,-0.06401336,0.05178863,-0.02873658,-0.000408
 46,0.02041641,-0.01415947,-0.00020734,0.00239375,-0.00425127,-0.000049
 57,-0.00258986,0.00223239,0.00100452,-0.00118821,0.00045856,-0.0040087
 1,0.00289648,0.00252207,-0.00006640,0.00003178,-0.00038089,0.00010677,
 0.00003706,0.00013247,-0.00007652,-0.00019124,0.00001739,0.00003509,0.
 00008547,0.00001500,0.00000735,-0.00001853,0.00000925,0.00000689,0.000
 00533,0.00000114,-0.00019189,0.00005023,-0.00010837,-0.00095536,-0.001
 78386,-0.00241806,0.06005274,-0.00060716,-0.00083289,-0.00031122,0.002
 97187,0.00489819,0.00374398,-0.00045461,0.00029426,-0.00070966,0.00299
 647,-0.00023624,0.00371096,0.05303554,-0.23624868,0.13474400,0.0035774
 3,-0.00941397,0.01040000,-0.00071758,-0.00379223,0.00167530,-0.0029731
 4,0.00178632,0.00065650,-0.00010174,0.00064757,-0.00027949,0.00324068,
 -0.00001953,-0.00078204,-0.00015496,-0.00028562,-0.00004596,0.00009417
 ,0.00012819,0.00008085,-0.00004991,-0.00008011,-0.00012261,0.00006114,
 0.00003503,0.00005632,0.00000051,-0.00000593,-0.00000044,-0.00001121,0
 .00001451,-0.00000783,-0.00013404,-0.00003010,-0.00010419,-0.00200055,
 -0.00128384,-0.00242401,-0.05901548,0.24475570,-0.00060315,0.00048491,
 -0.00166238,0.00646963,0.00323369,0.00322077,-0.00000121,-0.00030477,-
 0.00061026,-0.00459619,0.01928533,-0.00735397,-0.02991362,0.13585095,-
 0.14143643,0.00142163,-0.00391129,0.00755118,-0.00140180,-0.00093604,-
 0.00057783,0.00260370,0.00028504,-0.00271831,-0.00054675,0.00064251,0.
 00012378,0.00219845,-0.00049212,0.00070645,-0.00020532,-0.00021049,-0.
 00011044,0.00007778,0.00013108,0.00011544,-0.00011345,-0.00000390,-0.0
 0015533,0.00003811,0.00002822,0.00008959,0.00000417,-0.00000676,-0.000
 00399,-0.00000781,0.00001448,-0.00001170,0.00005982,-0.00025944,-0.000
 07620,-0.00221426,-0.00260290,-0.00147026,0.02644226,-0.15094963,0.143
 74438,-0.00123967,0.00028668,0.00041774,0.00310022,-0.00073120,0.00308
 405,-0.01000937,0.00890182,0.00346245,0.00041410,-0.00007146,0.0000817
 2,0.00188041,0.00203105,0.00020595,-0.00241386,0.00510368,0.00380297,-
 0.00328167,-0.00089946,-0.00150473,0.00028915,0.00038688,0.00002159,-0
 .00061197,-0.00246090,0.00284042,-0.24479836,0.12862794,0.05570012,-0.
 00039342,0.00010600,-0.00305854,0.00036653,-0.00069483,0.00068061,0.00
 001155,-0.00051719,0.00037274,0.00010031,0.00015788,0.00011361,0.00000
 991,-0.00004360,0.00001808,-0.00001941,0.00001795,-0.00001471,-0.00007
 475,0.00026640,-0.00016397,-0.00032290,-0.00023978,-0.00028517,0.00000
 409,0.00023505,0.00028384,0.25695881,-0.00066008,0.00015406,0.00001978
 ,0.00053558,0.00111505,0.00399132,-0.00738859,0.00781211,0.00252888,-0
 .00039939,0.00036743,0.00040122,0.00094890,-0.00231037,0.00532917,0.02
 325695,-0.00729238,-0.00588443,0.00206339,-0.00321517,-0.00435594,-0.0
 0070026,0.00132765,0.00004973,-0.00231981,0.00210737,0.00011268,0.1259
 4147,-0.12698631,-0.02545628,-0.00262357,-0.00035115,-0.00103047,0.000
 41577,0.00014504,-0.00009393,0.00030432,0.00006991,-0.00042411,0.00012
 896,0.00008195,0.00018609,0.00001058,-0.00002756,-0.00000653,-0.000028
 02,0.00003285,-0.00004004,-0.00020878,0.00026202,-0.00004274,-0.000225
 58,-0.00026710,-0.00041262,0.00136772,-0.00033787,-0.00029693,-0.14043
 825,0.12730898,0.00130348,-0.00078672,-0.00080640,0.00191994,0.0050588
 3,-0.00035629,0.01846096,-0.01128086,-0.00147829,0.00038616,0.00012476
 ,-0.00001057,0.00120249,0.00441419,-0.00075250,-0.01289361,0.00941289,
 0.00985042,-0.00424732,-0.00185142,-0.00074106,0.00102411,-0.00087761,
 0.00067533,0.00266454,0.00029730,-0.00249673,0.05818667,-0.02768319,-0
 .06272813,-0.00053513,-0.00335723,-0.00032323,-0.00033693,0.00085649,-
 0.00008019,-0.00039386,0.00026980,-0.00003887,0.00014354,0.00014974,0.
 00015435,0.00000123,-0.00004734,0.00001707,-0.00000441,0.00004744,-0.0
 0001950,0.00027510,-0.00044581,0.00020294,-0.00029877,-0.00039951,-0.0
 0030026,-0.00076048,0.00066113,0.00063062,-0.06606789,0.02540806,0.058
 61600,0.00041868,0.00025319,-0.00034168,-0.00047550,-0.00011569,0.0004
 0452,0.00014394,-0.00040561,0.00095620,-0.00000493,0.00014318,-0.00019
 650,-0.00023339,0.00005742,0.00016454,0.00009765,-0.00036741,0.0001857
 1,0.00016428,0.00000096,-0.00020913,-0.00002651,-0.00005362,0.00009373
 ,-0.00008903,0.00003227,0.00005438,0.00030085,0.00026112,-0.00029071,0
 .00081110,-0.00046568,-0.00101614,-0.00013438,-0.00005956,-0.00011006,
 -0.00448040,-0.00458601,0.00095717,0.00612555,-0.01804624,0.01526900,0
 .00098745,0.00068245,-0.00025393,-0.05960345,0.04623079,-0.03635924,-0
 .00035945,-0.00048735,0.00012533,0.00000775,-0.00001071,-0.00000043,-0
 .00000023,0.00000467,0.00000495,0.00000824,0.00001580,0.00000424,0.062
 37163,0.00022981,0.00006704,-0.00021862,-0.00038609,-0.00001910,0.0002
 3277,0.00008902,-0.00072035,0.00110442,-0.00002954,0.00013115,-0.00011
 801,-0.00024324,0.00005854,0.00016714,0.00008331,-0.00050827,0.0003352
 4,0.00032019,0.00006633,-0.00039863,-0.00004963,-0.00011895,0.00017142
 ,-0.00017791,0.00005072,0.00011144,0.00039707,0.00041504,-0.00047153,0
 .00073036,-0.00005110,-0.00184887,-0.00010099,-0.00002854,-0.00001835,
 -0.00552182,-0.00319682,0.00147526,0.00764937,-0.01584320,0.01304088,0
 .00055855,0.00041028,-0.00052782,0.04431635,-0.20567275,0.12217045,0.0
 0005440,0.00031898,-0.00002687,0.00001302,-0.00000868,-0.00000275,-0.0
 0000602,0.00000278,0.00000478,0.00000413,0.00001466,0.00000068,-0.0471
 9133,0.22343119,-0.00002073,-0.00002496,0.00009903,0.00008919,-0.00004
 183,-0.00007029,-0.00007058,0.00028209,-0.00014819,0.00000660,-0.00003
 503,0.00002340,0.00006233,-0.00001748,-0.00003214,-0.00003432,0.000130
 81,-0.00010356,-0.00011020,-0.00003562,0.00011590,0.00001996,0.0000364
 9,-0.00004647,0.00006014,-0.00001392,-0.00003506,-0.00006616,-0.000126
 87,0.00019137,-0.00028078,-0.00059767,0.00092435,-0.00003477,0.0000022
 1,-0.00002226,-0.00012059,-0.00012397,0.00082657,0.00084998,-0.0032240
 5,0.00032456,0.00047881,0.00024241,0.00032526,-0.03531165,0.12365171,-
 0.14256239,0.00003280,0.00008297,-0.00017040,-0.00000349,0.00000004,0.
 ,0.00000130,-0.00000115,-0.00000044,-0.00000095,-0.00000001,0.00000107
 ,0.03889458,-0.13552167,0.15076336,0.00001164,-0.00003311,-0.00003398,
 0.00000937,0.00001843,-0.00000654,-0.00014570,-0.00015658,0.00004761,-
 0.00000716,0.00002234,-0.00000102,-0.00002082,0.00000053,0.00001220,0.
 00001158,-0.00004611,0.00005137,0.00006377,0.00000312,-0.00004158,-0.0
 0001331,-0.00000919,0.00001449,-0.00003367,0.00001781,0.00001605,0.000
 03302,0.00001202,-0.00008350,0.00027030,0.00004162,0.00016603,-0.00006
 437,0.00002895,0.00000397,0.00080692,0.00201147,0.00026132,-0.00373618
 ,-0.00923456,-0.02550781,-0.00312129,-0.00415902,0.00006498,-0.0494166
 2,-0.00687973,-0.01979310,-0.00005972,-0.00010865,0.00014385,-0.000000
 26,0.00000303,-0.00000047,-0.00000134,0.00000067,-0.00000138,-0.000008
 73,-0.00000849,-0.00000287,-0.00163008,-0.00257105,-0.00646438,0.05248
 195,0.00006443,0.00006991,0.00009082,0.00000914,-0.00007648,0.00000594
 ,-0.00004343,0.00003315,-0.00013031,0.00000568,-0.00000042,-0.00000334
 ,0.00001261,-0.00000727,-0.00000272,0.00000737,0.00006687,-0.00006189,
 -0.00007717,-0.00003128,0.00008604,0.00001368,0.00003042,-0.00003550,0
 .00004479,-0.00000458,-0.00002509,-0.00004105,-0.00005819,0.00009728,-
 0.00033009,-0.00023683,0.00065959,-0.00004505,0.00000196,-0.00003012,0
 .00151264,0.00249516,-0.00086424,-0.00290109,-0.00981617,-0.02236149,-
 0.00374884,-0.00253194,0.00006134,-0.00664228,-0.07587044,-0.08126789,
 -0.00012877,-0.00021343,-0.00023421,-0.00000460,-0.00000194,-0.0000039
 6,0.00000012,-0.00000066,-0.00000036,-0.00000704,-0.00000417,-0.000002
 50,0.00182870,0.00974616,0.02393248,0.01143466,0.08020055,0.00007040,0
 .00003458,-0.00000372,-0.00007538,-0.00003008,0.00005526,-0.00004155,-
 0.00018988,0.00015943,0.00000088,0.00003048,-0.00001844,-0.00004900,0.
 00000664,0.00003505,0.00002203,-0.00009510,0.00007124,0.00006944,0.000
 01154,-0.00007463,-0.00001103,-0.00002213,0.00003350,-0.00003613,0.000
 01450,0.00002468,0.00006666,0.00006051,-0.00010209,0.00015277,-0.00025
 895,-0.00018928,0.00001044,-0.00000090,0.00001218,0.00003259,-0.000136
 98,0.00180023,-0.00018112,0.00081304,-0.00152243,-0.00015760,0.0004345
 2,0.00155673,-0.02151708,-0.08289789,-0.28412456,-0.00003727,-0.000066
 12,-0.00006188,0.00000078,-0.00000431,-0.00000326,-0.00000190,-0.00000
 043,-0.00000027,-0.00000357,-0.00000134,-0.00000562,-0.00071368,-0.006
 90869,-0.01628262,0.02414945,0.09114048,0.30606901,-0.00019018,0.00094
 152,-0.00061421,-0.00037061,-0.00027558,0.00053254,0.00041721,0.000118
 41,-0.00049404,0.00011123,0.00008229,-0.00026522,-0.00009922,0.0000608
 1,0.00004881,0.00008026,0.00005167,-0.00011272,-0.00015261,-0.00001307
 ,0.00015116,0.00002536,0.00002770,-0.00005119,0.00010166,-0.00004573,-
 0.00004893,-0.00009132,-0.00005170,0.00007997,0.00072637,-0.00227802,0
 .00160196,0.00060285,0.00034393,-0.00083891,-0.00827677,0.00699341,0.0
 0069249,-0.24314250,0.08733955,0.06801792,0.00323332,-0.00169029,-0.00
 058421,-0.02099054,0.00744854,0.00779926,0.00215614,-0.00118014,-0.000
 14791,-0.00000746,-0.00002114,0.00001877,0.00001375,0.00000355,0.00000
 149,0.00002583,0.00000692,-0.00001753,0.00074937,-0.00012417,0.0002006
 9,0.00101654,0.00056617,-0.00052122,0.26604540,0.00077184,-0.00228486,
 0.00147533,0.00100994,0.00043538,-0.00127347,-0.00066040,-0.00004635,0
 .00055842,-0.00026868,-0.00016264,0.00030111,0.00010989,-0.00005752,-0
 .00002264,-0.00008040,-0.00015939,0.00021503,0.00025025,0.00007035,-0.
 00026845,-0.00003619,-0.00007823,0.00009896,-0.00015593,0.00005215,0.0
 0007546,0.00012271,0.00012835,-0.00025716,0.00231147,0.00150249,-0.003
 37381,-0.00105288,0.00028194,0.00070683,0.02970371,-0.02106857,-0.0042
 8714,0.08108502,-0.08421028,-0.02735946,0.00825011,-0.00318216,-0.0035
 2915,-0.02179330,0.00953494,0.00746598,-0.00301404,0.00079016,0.003000
 60,-0.00000722,0.00002842,-0.00002552,-0.00000799,0.00000645,0.0000156
 2,-0.00002183,-0.00000426,0.00003915,0.00087895,0.00076792,0.00013914,
 0.00089502,0.00090073,-0.00011960,-0.09435047,0.09998071,-0.00038374,0
 .00132703,-0.00078835,-0.00072399,-0.00017361,0.00073533,0.00031084,-0
 .00026511,-0.00005874,0.00007055,-0.00001247,-0.00018426,-0.00003328,0
 .00003252,0.00002730,0.00001840,0.00002084,-0.00003235,-0.00002970,-0.
 00001204,0.00004847,-0.00000090,0.00000881,-0.00001402,0.00001790,-0.0
 0001576,-0.00001316,-0.00003031,-0.00005288,0.00002701,-0.00282883,0.0
 0073530,0.00188646,0.00045180,-0.00046978,-0.00003362,-0.02075710,0.01
 386258,0.00387343,0.07468611,-0.03327112,-0.07813006,0.02647951,-0.011
 41946,-0.00787343,-0.00315426,0.00056859,0.00109527,0.00131733,0.00130
 906,-0.00171364,0.00001142,-0.00002068,0.00000401,0.00001205,0.0000094
 8,0.00000572,0.00001821,0.00002104,-0.00001085,0.00037111,0.00019809,0
 .00002007,-0.00023173,0.00077815,0.00050565,-0.07487022,0.02695057,0.0
 7950902,0.00027915,0.00000494,-0.00019257,-0.00017484,-0.00005312,0.00
 024681,0.00011860,-0.00003876,-0.00003082,0.00003987,0.00005492,-0.000
 08108,-0.00006524,0.00001214,0.00003764,0.00004650,-0.00002337,-0.0000
 1042,-0.00003044,0.00000833,0.00002336,0.00000530,-0.00000674,0.000000
 61,0.00002705,-0.00001593,-0.00000654,-0.00000798,-0.00000905,-0.00002
 410,0.00015393,-0.00013471,0.00017575,0.00006472,0.00002456,-0.0002290
 2,0.00188142,0.00084422,-0.00059683,-0.02297991,0.00962257,0.00675706,
 0.00092485,0.00025121,-0.00025060,-0.24880641,0.09065995,0.06766715,-0
 .00051414,-0.00067746,0.00057565,0.00000310,-0.00000659,0.00000604,0.0
 0000033,-0.00000136,-0.00000090,0.00000497,0.00000445,-0.00001366,-0.0
 0514916,0.00195621,0.00182225,0.00355418,-0.00153057,-0.00122891,-0.00
 198409,-0.00393959,-0.00072118,0.27260823,0.00005294,0.00002113,-0.000
 08015,-0.00002653,-0.00005479,0.00011094,0.00007633,0.00012786,-0.0002
 4483,0.00002968,0.00000570,-0.00002670,0.00001641,-0.00000373,-0.00001
 497,0.00000382,0.00009779,-0.00007902,-0.00007779,-0.00002568,0.000100
 56,0.00000954,0.00003209,-0.00004140,0.00004589,-0.00001186,-0.0000258
 8,-0.00007312,-0.00008804,0.00010144,-0.00018693,-0.00017739,0.0005343
 5,0.00012456,-0.00008880,-0.00007889,0.00059721,0.00256908,-0.00077575
 ,-0.02351729,0.00871164,0.00786597,0.00102756,0.00107918,0.00016227,0.
 09268123,-0.08870684,-0.03114687,0.00005959,-0.00034658,0.00005485,-0.
 00000136,-0.00000179,0.00000510,0.00000204,-0.00000133,-0.00000197,0.0
 0000009,-0.00000273,-0.00000827,0.02139970,-0.00931305,-0.00873611,0.0
 0871682,-0.00469113,-0.00181390,-0.00395416,-0.00322574,-0.00010916,-0
 .09700623,0.09409500,-0.00021670,-0.00026951,0.00016841,0.00021346,0.0
 0009994,-0.00026446,-0.00008529,0.00000675,0.00005599,-0.00002827,-0.0
 0005400,0.00009234,0.00005671,-0.00001805,-0.00003503,-0.00004784,-0.0
 0001774,0.00006072,0.00008531,0.00002535,-0.00009085,-0.00001377,-0.00
 002669,0.00003327,-0.00005356,0.00001676,0.00003049,0.00002337,0.00002
 416,-0.00004722,0.00004518,0.00006870,-0.00016802,-0.00004265,0.000002
 76,0.00001754,0.00021428,-0.00051303,0.00003335,-0.00277025,0.00191743
 ,-0.00002619,-0.00026582,0.00071080,0.00038156,0.06785911,-0.03136136,
 -0.07050542,0.00029266,0.00044064,0.00011335,0.00000187,0.00000619,0.0
 0000066,-0.00000190,0.00000014,-0.00000010,-0.00000456,-0.00000258,0.0
 0000071,-0.01799396,0.00704921,0.00585888,0.02723706,-0.01182847,-0.00
 793415,-0.00057875,-0.00052579,0.00111473,-0.07392569,0.03424839,0.071
 10944\\0.00001537,-0.00000813,-0.00000559,-0.00003681,-0.00000012,0.00
 002976,0.00001551,-0.00002137,0.00000988,0.00025560,-0.00014910,-0.000
 07271,-0.00005170,0.00007154,-0.00001929,0.00002082,-0.00001178,-0.000
 00471,0.00002077,0.00000327,-0.00002924,-0.00001678,0.00001308,0.00000
 008,0.00000402,-0.00001434,0.00001098,0.00010675,-0.00007808,-0.000023
 26,-0.00001435,0.00004827,-0.00002407,0.00003408,-0.00002231,-0.000012
 95,-0.00007465,0.00002151,0.00002128,-0.00000883,0.00004294,0.00000622
 ,-0.00000079,0.00000094,0.00002979,-0.00005431,-0.00006651,0.00002406,
 0.00002197,-0.00002000,0.00000613,-0.00025463,0.00016822,0.00006756,0.
 00002605,-0.00004639,0.00002448,-0.00008189,0.00006835,0.00000391,-0.0
 0001506,0.00004779,-0.00004880,-0.00000766,0.00000926,0.00004419,0.000
 05942,-0.00003525,-0.00001705,0.00003709,-0.00002179,-0.00002063\\\@
 Job cpu time:       1 days  7 hours 17 minutes 24.0 seconds.
 File lengths (MBytes):  RWF= 195482 Int=      0 D2E=      0 Chk=    160 Scr=      1
 Normal termination of Gaussian 09 at Thu Aug 26 21:16:02 2021.
