 Entering Gaussian System, Link 0=g09
 Input=G4.ISAYAC02.gjf
 Output=G4.ISAYAC02.log
 Initial command:
 /public/home/users/caep010/software/Gaussian09/g09/l1.exe "/public/home/users/caep010/.cache/gau_scr/Gau-74983.inp" -scrdir="/public/home/users/caep010/.cache/gau_scr/"
 Entering Link 1 = /public/home/users/caep010/software/Gaussian09/g09/l1.exe PID=     74984.
  
 Copyright (c) 1988,1990,1992,1993,1995,1998,2003,2009,2015,
            Gaussian, Inc.  All Rights Reserved.
  
 This is part of the Gaussian(R) 09 program.  It is based on
 the Gaussian(R) 03 system (copyright 2003, Gaussian, Inc.),
 the Gaussian(R) 98 system (copyright 1998, Gaussian, Inc.),
 the Gaussian(R) 94 system (copyright 1995, Gaussian, Inc.),
 the Gaussian 92(TM) system (copyright 1992, Gaussian, Inc.),
 the Gaussian 90(TM) system (copyright 1990, Gaussian, Inc.),
 the Gaussian 88(TM) system (copyright 1988, Gaussian, Inc.),
 the Gaussian 86(TM) system (copyright 1986, Carnegie Mellon
 University), and the Gaussian 82(TM) system (copyright 1983,
 Carnegie Mellon University). Gaussian is a federally registered
 trademark of Gaussian, Inc.
  
 This software contains proprietary and confidential information,
 including trade secrets, belonging to Gaussian, Inc.
  
 This software is provided under written license and may be
 used, copied, transmitted, or stored only in accord with that
 written license.
  
 The following legend is applicable only to US Government
 contracts under FAR:
  
                    RESTRICTED RIGHTS LEGEND
  
 Use, reproduction and disclosure by the US Government is
 subject to restrictions as set forth in subparagraphs (a)
 and (c) of the Commercial Computer Software - Restricted
 Rights clause in FAR 52.227-19.
  
 Gaussian, Inc.
 340 Quinnipiac St., Bldg. 40, Wallingford CT 06492
  
  
 ---------------------------------------------------------------
 Warning -- This program may not be used in any manner that
 competes with the business of Gaussian, Inc. or will provide
 assistance to any competitor of Gaussian, Inc.  The licensee
 of this program is prohibited from giving any competitor of
 Gaussian, Inc. access to this program.  By using this program,
 the user acknowledges that Gaussian, Inc. is engaged in the
 business of creating and licensing software in the field of
 computational chemistry and represents and warrants to the
 licensee that it is not a competitor of Gaussian, Inc. and that
 it will not use this program in any manner prohibited above.
 ---------------------------------------------------------------
  

 Cite this work as:
 Gaussian 09, Revision E.01,
 M. J. Frisch, G. W. Trucks, H. B. Schlegel, G. E. Scuseria, 
 M. A. Robb, J. R. Cheeseman, G. Scalmani, V. Barone, B. Mennucci, 
 G. A. Petersson, H. Nakatsuji, M. Caricato, X. Li, H. P. Hratchian, 
 A. F. Izmaylov, J. Bloino, G. Zheng, J. L. Sonnenberg, M. Hada, 
 M. Ehara, K. Toyota, R. Fukuda, J. Hasegawa, M. Ishida, T. Nakajima, 
 Y. Honda, O. Kitao, H. Nakai, T. Vreven, J. A. Montgomery, Jr., 
 J. E. Peralta, F. Ogliaro, M. Bearpark, J. J. Heyd, E. Brothers, 
 K. N. Kudin, V. N. Staroverov, T. Keith, R. Kobayashi, J. Normand, 
 K. Raghavachari, A. Rendell, J. C. Burant, S. S. Iyengar, J. Tomasi, 
 M. Cossi, N. Rega, J. M. Millam, M. Klene, J. E. Knox, J. B. Cross, 
 V. Bakken, C. Adamo, J. Jaramillo, R. Gomperts, R. E. Stratmann, 
 O. Yazyev, A. J. Austin, R. Cammi, C. Pomelli, J. W. Ochterski, 
 R. L. Martin, K. Morokuma, V. G. Zakrzewski, G. A. Voth, 
 P. Salvador, J. J. Dannenberg, S. Dapprich, A. D. Daniels, 
 O. Farkas, J. B. Foresman, J. V. Ortiz, J. Cioslowski, 
 and D. J. Fox, Gaussian, Inc., Wallingford CT, 2013.
 
 ******************************************
 Gaussian 09:  ES64L-G09RevE.01 30-Nov-2015
                26-Aug-2021 
 ******************************************
 %nproc=32
 Will use up to   32 processors via shared memory.
 %mem=180GB
 ----------------
 #P G4 OPT=calcfc
 ----------------
 1/10=4,14=-1,18=20,19=15,26=3,38=1/1,3;
 2/9=110,12=2,17=6,18=5,40=1/2;
 3/5=35,7=104,11=2,16=1,25=1,30=1,71=2,74=-5,140=1/1,2,3;
 4//1;
 5/5=2,38=5/2;
 8/6=4,10=90,11=11/1;
 11/6=1,8=1,9=11,15=111,16=1/1,2,10;
 10/6=1,13=1/2;
 6/7=2,8=2,9=2,10=2,28=1/1;
 7/10=1,18=20,25=1/1,2,3,16;
 1/10=4,14=-1,18=20,19=15,26=3/3(2);
 2/9=110/2;
 99//99;
 2/9=110/2;
 3/5=35,7=104,11=2,16=1,25=1,30=1,71=1,74=-5/1,2,3;
 4/5=5,16=3,69=1/1;
 5/5=2,38=5/2;
 7//1,2,3,16;
 1/14=-1,18=20,19=15,26=3/3(-5);
 2/9=110/2;
 6/7=2,8=2,9=2,10=2,19=2,28=1/1;
 99/9=1/99;
 Leave Link    1 at Thu Aug 26 12:35:32 2021, MaxMem= 24159191040 cpu:         3.0
 (Enter /public/home/users/caep010/software/Gaussian09/g09/l101.exe)
 --------
 ISAYAC02
 --------
 Symbolic Z-matrix:
 Charge =  0 Multiplicity = 1
 O                     8.8073    2.2116    12.4307 
 N                     9.3153    1.478     13.2573 
 C                     8.5142    1.1108    14.443 
 C                     9.1483    0.7815    15.6439 
 C                     8.2299    0.4593    16.6388 
 N                     8.7135    0.0479    17.9738 
 O                     8.1469    0.4943    18.9468 
 C                     7.1513    1.123     14.2382 
 C                     6.2858    0.7979    15.2816 
 N                     4.9288    0.7586    15.0958 
 H                     4.4452    0.7072    15.7999 
 H                     4.5624    1.0287    14.336 
 C                     6.8592    0.4615    16.5006 
 H                     6.318     0.2372    17.2219 
 O                     10.4369   1.0144    13.1434 
 H                     6.8084    1.3473    13.4044 
 C                     10.6303   0.8815    15.8968 
 H                     10.7837   1.098     16.8202 
 H                     11.0475   0.0421    15.6915 
 O                     9.6475   -0.7379    18.0276 
 H                     11.0045   1.5694    15.3415 
 
 NAtoms=     21 NQM=       21 NQMF=       0 NMMI=      0 NMMIF=      0
                NMic=       0 NMicF=      0.
                    Isotopes and Nuclear Properties:
 (Nuclear quadrupole moments (NQMom) in fm**2, nuclear magnetic moments (NMagM)
  in nuclear magnetons)

  Atom         1           2           3           4           5           6           7           8           9          10
 IAtWgt=          16          14          12          12          12          14          16          12          12          14
 AtmWgt=  15.9949146  14.0030740  12.0000000  12.0000000  12.0000000  14.0030740  15.9949146  12.0000000  12.0000000  14.0030740
 NucSpn=           0           2           0           0           0           2           0           0           0           2
 AtZEff=   0.0000000   0.0000000   0.0000000   0.0000000   0.0000000   0.0000000   0.0000000   0.0000000   0.0000000   0.0000000
 NQMom=    0.0000000   2.0440000   0.0000000   0.0000000   0.0000000   2.0440000   0.0000000   0.0000000   0.0000000   2.0440000
 NMagM=    0.0000000   0.4037610   0.0000000   0.0000000   0.0000000   0.4037610   0.0000000   0.0000000   0.0000000   0.4037610
 AtZNuc=   8.0000000   7.0000000   6.0000000   6.0000000   6.0000000   7.0000000   8.0000000   6.0000000   6.0000000   7.0000000

  Atom        11          12          13          14          15          16          17          18          19          20
 IAtWgt=           1           1          12           1          16           1          12           1           1          16
 AtmWgt=   1.0078250   1.0078250  12.0000000   1.0078250  15.9949146   1.0078250  12.0000000   1.0078250   1.0078250  15.9949146
 NucSpn=           1           1           0           1           0           1           0           1           1           0
 AtZEff=   0.0000000   0.0000000   0.0000000   0.0000000   0.0000000   0.0000000   0.0000000   0.0000000   0.0000000   0.0000000
 NQMom=    0.0000000   0.0000000   0.0000000   0.0000000   0.0000000   0.0000000   0.0000000   0.0000000   0.0000000   0.0000000
 NMagM=    2.7928460   2.7928460   0.0000000   2.7928460   0.0000000   2.7928460   0.0000000   2.7928460   2.7928460   0.0000000
 AtZNuc=   1.0000000   1.0000000   6.0000000   1.0000000   8.0000000   1.0000000   6.0000000   1.0000000   1.0000000   8.0000000

  Atom        21
 IAtWgt=           1
 AtmWgt=   1.0078250
 NucSpn=           1
 AtZEff=   0.0000000
 NQMom=    0.0000000
 NMagM=    2.7928460
 AtZNuc=   1.0000000
 Leave Link  101 at Thu Aug 26 12:35:32 2021, MaxMem= 24159191040 cpu:        10.2
 (Enter /public/home/users/caep010/software/Gaussian09/g09/l103.exe)

 GradGradGradGradGradGradGradGradGradGradGradGradGradGradGradGradGradGrad
 Berny optimization.
 Initialization pass.
                           ----------------------------
                           !    Initial Parameters    !
                           ! (Angstroms and Degrees)  !
 --------------------------                            --------------------------
 ! Name  Definition              Value          Derivative Info.                !
 --------------------------------------------------------------------------------
 ! R1    R(1,2)                  1.2163         calculate D2E/DX2 analytically  !
 ! R2    R(2,3)                  1.4773         calculate D2E/DX2 analytically  !
 ! R3    R(2,15)                 1.219          calculate D2E/DX2 analytically  !
 ! R4    R(3,4)                  1.3974         calculate D2E/DX2 analytically  !
 ! R5    R(3,8)                  1.3783         calculate D2E/DX2 analytically  !
 ! R6    R(4,5)                  1.3918         calculate D2E/DX2 analytically  !
 ! R7    R(4,17)                 1.5067         calculate D2E/DX2 analytically  !
 ! R8    R(5,6)                  1.4783         calculate D2E/DX2 analytically  !
 ! R9    R(5,13)                 1.3777         calculate D2E/DX2 analytically  !
 ! R10   R(6,7)                  1.2112         calculate D2E/DX2 analytically  !
 ! R11   R(6,20)                 1.2218         calculate D2E/DX2 analytically  !
 ! R12   R(8,9)                  1.3941         calculate D2E/DX2 analytically  !
 ! R13   R(8,16)                 0.929          calculate D2E/DX2 analytically  !
 ! R14   R(9,10)                 1.3702         calculate D2E/DX2 analytically  !
 ! R15   R(9,13)                 1.3885         calculate D2E/DX2 analytically  !
 ! R16   R(10,11)                0.8557         calculate D2E/DX2 analytically  !
 ! R17   R(10,12)                0.8857         calculate D2E/DX2 analytically  !
 ! R18   R(13,14)                0.9292         calculate D2E/DX2 analytically  !
 ! R19   R(17,18)                0.9608         calculate D2E/DX2 analytically  !
 ! R20   R(17,19)                0.9596         calculate D2E/DX2 analytically  !
 ! R21   R(17,21)                0.96           calculate D2E/DX2 analytically  !
 ! A1    A(1,2,3)              117.9606         calculate D2E/DX2 analytically  !
 ! A2    A(1,2,15)             123.3782         calculate D2E/DX2 analytically  !
 ! A3    A(3,2,15)             118.6471         calculate D2E/DX2 analytically  !
 ! A4    A(2,3,4)              120.1493         calculate D2E/DX2 analytically  !
 ! A5    A(2,3,8)              114.5043         calculate D2E/DX2 analytically  !
 ! A6    A(4,3,8)              125.3456         calculate D2E/DX2 analytically  !
 ! A7    A(3,4,5)              111.6812         calculate D2E/DX2 analytically  !
 ! A8    A(3,4,17)             125.0946         calculate D2E/DX2 analytically  !
 ! A9    A(5,4,17)             122.9845         calculate D2E/DX2 analytically  !
 ! A10   A(4,5,6)              119.6106         calculate D2E/DX2 analytically  !
 ! A11   A(4,5,13)             125.7648         calculate D2E/DX2 analytically  !
 ! A12   A(6,5,13)             114.6151         calculate D2E/DX2 analytically  !
 ! A13   A(5,6,7)              118.0253         calculate D2E/DX2 analytically  !
 ! A14   A(5,6,20)             117.9588         calculate D2E/DX2 analytically  !
 ! A15   A(7,6,20)             124.006          calculate D2E/DX2 analytically  !
 ! A16   A(3,8,9)              120.0425         calculate D2E/DX2 analytically  !
 ! A17   A(3,8,16)             120.0316         calculate D2E/DX2 analytically  !
 ! A18   A(9,8,16)             119.9259         calculate D2E/DX2 analytically  !
 ! A19   A(8,9,10)             121.3354         calculate D2E/DX2 analytically  !
 ! A20   A(8,9,13)             117.2066         calculate D2E/DX2 analytically  !
 ! A21   A(10,9,13)            121.4045         calculate D2E/DX2 analytically  !
 ! A22   A(9,10,11)            116.7328         calculate D2E/DX2 analytically  !
 ! A23   A(9,10,12)            121.1484         calculate D2E/DX2 analytically  !
 ! A24   A(11,10,12)           119.3649         calculate D2E/DX2 analytically  !
 ! A25   A(5,13,9)             119.9563         calculate D2E/DX2 analytically  !
 ! A26   A(5,13,14)            120.0808         calculate D2E/DX2 analytically  !
 ! A27   A(9,13,14)            119.9629         calculate D2E/DX2 analytically  !
 ! A28   A(4,17,18)            109.4701         calculate D2E/DX2 analytically  !
 ! A29   A(4,17,19)            109.4915         calculate D2E/DX2 analytically  !
 ! A30   A(4,17,21)            109.5033         calculate D2E/DX2 analytically  !
 ! A31   A(18,17,19)           109.4709         calculate D2E/DX2 analytically  !
 ! A32   A(18,17,21)           109.4045         calculate D2E/DX2 analytically  !
 ! A33   A(19,17,21)           109.487          calculate D2E/DX2 analytically  !
 ! D1    D(1,2,3,4)           -152.941          calculate D2E/DX2 analytically  !
 ! D2    D(1,2,3,8)             27.3648         calculate D2E/DX2 analytically  !
 ! D3    D(15,2,3,4)            28.3837         calculate D2E/DX2 analytically  !
 ! D4    D(15,2,3,8)          -151.3104         calculate D2E/DX2 analytically  !
 ! D5    D(2,3,4,5)           -179.7094         calculate D2E/DX2 analytically  !
 ! D6    D(2,3,4,17)             5.7927         calculate D2E/DX2 analytically  !
 ! D7    D(8,3,4,5)             -0.0506         calculate D2E/DX2 analytically  !
 ! D8    D(8,3,4,17)          -174.5484         calculate D2E/DX2 analytically  !
 ! D9    D(2,3,8,9)           -179.8399         calculate D2E/DX2 analytically  !
 ! D10   D(2,3,8,16)             0.2052         calculate D2E/DX2 analytically  !
 ! D11   D(4,3,8,9)              0.4843         calculate D2E/DX2 analytically  !
 ! D12   D(4,3,8,16)          -179.4706         calculate D2E/DX2 analytically  !
 ! D13   D(3,4,5,6)            178.385          calculate D2E/DX2 analytically  !
 ! D14   D(3,4,5,13)            -0.4276         calculate D2E/DX2 analytically  !
 ! D15   D(17,4,5,6)            -6.9815         calculate D2E/DX2 analytically  !
 ! D16   D(17,4,5,13)          174.2058         calculate D2E/DX2 analytically  !
 ! D17   D(3,4,17,18)          147.9283         calculate D2E/DX2 analytically  !
 ! D18   D(3,4,17,19)          -92.0604         calculate D2E/DX2 analytically  !
 ! D19   D(3,4,17,21)           27.991          calculate D2E/DX2 analytically  !
 ! D20   D(5,4,17,18)          -25.9742         calculate D2E/DX2 analytically  !
 ! D21   D(5,4,17,19)           94.0371         calculate D2E/DX2 analytically  !
 ! D22   D(5,4,17,21)         -145.9114         calculate D2E/DX2 analytically  !
 ! D23   D(4,5,6,7)            137.4577         calculate D2E/DX2 analytically  !
 ! D24   D(4,5,6,20)           -43.6418         calculate D2E/DX2 analytically  !
 ! D25   D(13,5,6,7)           -43.6021         calculate D2E/DX2 analytically  !
 ! D26   D(13,5,6,20)          135.2985         calculate D2E/DX2 analytically  !
 ! D27   D(4,5,13,9)             0.4621         calculate D2E/DX2 analytically  !
 ! D28   D(4,5,13,14)         -179.6072         calculate D2E/DX2 analytically  !
 ! D29   D(6,5,13,9)          -178.4024         calculate D2E/DX2 analytically  !
 ! D30   D(6,5,13,14)            1.5283         calculate D2E/DX2 analytically  !
 ! D31   D(3,8,9,10)          -177.8196         calculate D2E/DX2 analytically  !
 ! D32   D(3,8,9,13)            -0.4435         calculate D2E/DX2 analytically  !
 ! D33   D(16,8,9,10)            2.1354         calculate D2E/DX2 analytically  !
 ! D34   D(16,8,9,13)          179.5114         calculate D2E/DX2 analytically  !
 ! D35   D(8,9,10,11)         -168.2153         calculate D2E/DX2 analytically  !
 ! D36   D(8,9,10,12)           -7.1377         calculate D2E/DX2 analytically  !
 ! D37   D(13,9,10,11)          14.519          calculate D2E/DX2 analytically  !
 ! D38   D(13,9,10,12)         175.5966         calculate D2E/DX2 analytically  !
 ! D39   D(8,9,13,5)             0.0076         calculate D2E/DX2 analytically  !
 ! D40   D(8,9,13,14)         -179.9232         calculate D2E/DX2 analytically  !
 ! D41   D(10,9,13,5)          177.3817         calculate D2E/DX2 analytically  !
 ! D42   D(10,9,13,14)          -2.5491         calculate D2E/DX2 analytically  !
 --------------------------------------------------------------------------------
 Trust Radius=3.00D-01 FncErr=1.00D-07 GrdErr=1.00D-06
 Number of steps in this run=    106 maximum allowed number of steps=    126.
 GradGradGradGradGradGradGradGradGradGradGradGradGradGradGradGradGradGrad

 Leave Link  103 at Thu Aug 26 12:35:32 2021, MaxMem= 24159191040 cpu:         0.6
 (Enter /public/home/users/caep010/software/Gaussian09/g09/l202.exe)
                          Input orientation:                          
 ---------------------------------------------------------------------
 Center     Atomic      Atomic             Coordinates (Angstroms)
 Number     Number       Type             X           Y           Z
 ---------------------------------------------------------------------
      1          8           0        8.807300    2.211600   12.430700
      2          7           0        9.315300    1.478000   13.257300
      3          6           0        8.514200    1.110800   14.443000
      4          6           0        9.148300    0.781500   15.643900
      5          6           0        8.229900    0.459300   16.638800
      6          7           0        8.713500    0.047900   17.973800
      7          8           0        8.146900    0.494300   18.946800
      8          6           0        7.151300    1.123000   14.238200
      9          6           0        6.285800    0.797900   15.281600
     10          7           0        4.928800    0.758600   15.095800
     11          1           0        4.445200    0.707200   15.799900
     12          1           0        4.562400    1.028700   14.336000
     13          6           0        6.859200    0.461500   16.500600
     14          1           0        6.318000    0.237200   17.221900
     15          8           0       10.436900    1.014400   13.143400
     16          1           0        6.808400    1.347300   13.404400
     17          6           0       10.630300    0.881500   15.896800
     18          1           0       10.783700    1.098000   16.820200
     19          1           0       11.047500    0.042100   15.691500
     20          8           0        9.647500   -0.737900   18.027600
     21          1           0       11.004500    1.569400   15.341500
 ---------------------------------------------------------------------
                    Distance matrix (angstroms):
                    1          2          3          4          5
     1  O    0.000000
     2  N    1.216347   0.000000
     3  C    2.312362   1.477322   0.000000
     4  C    3.533571   2.491759   1.397384   0.000000
     5  C    4.594785   3.694643   2.307990   1.391796   0.000000
     6  N    5.951164   4.965151   3.692699   2.481059   1.478291
     7  O    6.770879   5.890945   4.560614   3.463298   2.309757
     8  C    2.682246   2.402308   1.378256   2.465892   2.714177
     9  C    4.060067   3.706507   2.401442   2.885383   2.395030
    10  N    4.925112   4.810302   3.661323   4.255011   3.656185
    11  H    5.713374   5.547686   4.308228   4.706273   3.884477
    12  H    4.800895   4.894438   3.954101   4.775164   4.367798
    13  C    4.839631   4.193411   2.719252   2.465018   1.377651
    14  H    5.748954   5.122640   3.648117   3.285870   2.011143
    15  O    2.144021   1.218969   2.322720   2.822629   4.170948
    16  H    2.385520   2.514611   2.011063   3.287951   3.642877
    17  C    4.135982   3.008654   2.577594   1.506746   2.547692
    18  H    4.941050   3.872319   3.286620   2.039212   2.638700
    19  H    4.511989   3.314763   3.019682   2.038612   3.001717
    20  O    6.382067   5.270326   4.189441   2.870506   2.317681
    21  H    3.703089   2.684332   2.686859   2.039046   3.257870
                    6          7          8          9         10
     6  N    0.000000
     7  O    1.211213   0.000000
     8  C    4.189393   4.853596   0.000000
     9  C    3.701914   4.121839   1.394082   0.000000
    10  N    4.807487   5.025557   2.409932   1.370224   0.000000
    11  H    4.835173   4.863218   3.151948   1.914333   0.855726
    12  H    5.605996   5.864614   2.592462   1.979277   0.885719
    13  C    2.404124   2.764623   2.375154   1.388493   2.405863
    14  H    2.517858   2.527104   3.222033   2.019947   2.592689
    15  O    5.218907   6.260516   3.464902   4.674441   5.849484
    16  H    5.118326   5.765188   0.929039   2.024557   2.596208
    17  C    2.946683   3.952177   3.861699   4.388638   5.758803
    18  H    2.592148   3.440871   4.456644   4.763240   6.112986
    19  H    3.264427   4.383485   4.296603   4.838702   6.189242
    20  O    1.221774   2.148266   4.904438   4.604370   5.753355
    21  H    3.806921   4.724395   4.032827   4.781729   6.134484
                   11         12         13         14         15
    11  H    0.000000
    12  H    1.503363   0.000000
    13  C    2.525618   3.206634   0.000000
    14  H    2.397992   3.469441   0.929237   0.000000
    15  O    6.561390   5.994351   4.937249   5.848379   0.000000
    16  H    3.425327   2.452326   3.220819   4.005761   3.653075
    17  C    6.188314   6.267150   3.842157   4.557076   2.763382
    18  H    6.431976   6.699300   3.988606   4.565612   3.694065
    19  H    6.636601   6.698304   4.286303   4.974772   2.794819
    20  O    5.840795   6.527406   3.397780   3.561677   5.248725
    21  H    6.631586   6.542480   4.444600   5.222446   2.337058
                   16         17         18         19         20
    16  H    0.000000
    17  C    4.586496   0.000000
    18  H    5.247175   0.960766   0.000000
    19  H    4.990425   0.959581   1.567954   0.000000
    20  O    5.812274   2.851081   2.473721   2.832978   0.000000
    21  H    4.626980   0.959995   1.567649   1.567480   3.792125
                   21
    21  H    0.000000
 Stoichiometry    C7H7N3O4
 Framework group  C1[X(C7H7N3O4)]
 Deg. of freedom    57
 Full point group                 C1      NOp   1
 Largest Abelian subgroup         C1      NOp   1
 Largest concise Abelian subgroup C1      NOp   1
                         Standard orientation:                         
 ---------------------------------------------------------------------
 Center     Atomic      Atomic             Coordinates (Angstroms)
 Number     Number       Type             X           Y           Z
 ---------------------------------------------------------------------
      1          8           0        3.418258   -0.080843    0.478092
      2          7           0        2.474060   -0.698982    0.024337
      3          6           0        1.156052   -0.032034    0.001581
      4          6           0       -0.015878   -0.791867    0.045342
      5          6           0       -1.151509    0.011919    0.008330
      6          7           0       -2.490356   -0.614843    0.009610
      7          8           0       -3.348583   -0.122424    0.708186
      8          6           0        1.212446    1.343177   -0.070548
      9          6           0        0.035307    2.089630   -0.095347
     10          7           0        0.059488    3.454737   -0.211160
     11          1           0       -0.676334    3.866519   -0.065319
     12          1           0        0.822252    3.903806   -0.179118
     13          6           0       -1.162227    1.388106   -0.054238
     14          1           0       -1.969896    1.847351   -0.069931
     15          8           0        2.566948   -1.825442   -0.432112
     16          1           0        2.035049    1.773717   -0.103328
     17          6           0       -0.073572   -2.284752    0.240915
     18          1           0       -0.875205   -2.514473    0.718077
     19          1           0       -0.074594   -2.719904   -0.614327
     20          8           0       -2.668936   -1.585888   -0.710052
     21          1           0        0.691162   -2.571706    0.745323
 ---------------------------------------------------------------------
 Rotational constants (GHZ):      0.9649288      0.5874251      0.3792650
 Leave Link  202 at Thu Aug 26 12:35:32 2021, MaxMem= 24159191040 cpu:         0.5
 (Enter /public/home/users/caep010/software/Gaussian09/g09/l301.exe)
 Standard basis: GTBas3 (6D, 7F)
 Ernie: Thresh=  0.10000D-02 Tol=  0.10000D-05 Strict=F.
 There are   469 symmetry adapted cartesian basis functions of A   symmetry.
 There are   427 symmetry adapted basis functions of A   symmetry.
   427 basis functions,   665 primitive gaussians,   469 cartesian basis functions
    51 alpha electrons       51 beta electrons
       nuclear repulsion energy       903.7718126655 Hartrees.
 IExCor=  402 DFT=T Ex+Corr=B3LYP ExCW=0 ScaHFX=  0.200000
 ScaDFX=  0.800000  0.720000  1.000000  0.810000 ScalE2=  1.000000  1.000000
 IRadAn=      0 IRanWt=     -1 IRanGd=            0 ICorTp=0 IEmpDi=  4
 NAtoms=   21 NActive=   21 NUniq=   21 SFac= 1.00D+00 NAtFMM=   60 NAOKFM=F Big=F
 Integral buffers will be    131072 words long.
 Raffenetti 2 integral format.
 Two-electron integral symmetry is turned on.
 Leave Link  301 at Thu Aug 26 12:35:32 2021, MaxMem= 24159191040 cpu:         2.3
 (Enter /public/home/users/caep010/software/Gaussian09/g09/l302.exe)
 NPDir=0 NMtPBC=     1 NCelOv=     1 NCel=       1 NClECP=     1 NCelD=      1
         NCelK=      1 NCelE2=     1 NClLst=     1 CellRange=     0.0.
 One-electron integrals computed using PRISM.
 NBasis=   427 RedAO= T EigKep=  8.67D-05  NBF=   427
 NBsUse=   427 1.00D-06 EigRej= -1.00D+00 NBFU=   427
 Precomputing XC quadrature grid using
 IXCGrd= 4 IRadAn=           0 IRanWt=          -1 IRanGd=           0 AccXCQ= 0.00D+00.
 Generated NRdTot=       0 NPtTot=           0 NUsed=           0 NTot=          32
 NSgBfM=   468   468   468   468   468 MxSgAt=    21 MxSgA2=    21.
 Leave Link  302 at Thu Aug 26 12:35:33 2021, MaxMem= 24159191040 cpu:        19.5
 (Enter /public/home/users/caep010/software/Gaussian09/g09/l303.exe)
 DipDrv:  MaxL=1.
 Leave Link  303 at Thu Aug 26 12:35:33 2021, MaxMem= 24159191040 cpu:         1.3
 (Enter /public/home/users/caep010/software/Gaussian09/g09/l401.exe)
 ExpMin= 1.61D-01 ExpMax= 5.48D+03 ExpMxC= 8.25D+02 IAcc=1 IRadAn=         1 AccDes= 0.00D+00
 Harris functional with IExCor=  402 and IRadAn=       1 diagonalized for initial guess.
 HarFok:  IExCor=  402 AccDes= 0.00D+00 IRadAn=         1 IDoV= 1 UseB2=F ITyADJ=14
 ICtDFT=  3500011 ScaDFX=  1.000000  1.000000  1.000000  1.000000
 FoFCou: FMM=F IPFlag=           0 FMFlag=      100000 FMFlg1=           0
         NFxFlg=           0 DoJE=T BraDBF=F KetDBF=T FulRan=T
         wScrn=  0.000000 ICntrl=     500 IOpCl=  0 I1Cent=   200000004 NGrid=           0
         NMat0=    1 NMatS0=      1 NMatT0=    0 NMatD0=    1 NMtDS0=    0 NMtDT0=    0
 Petite list used in FoFCou.
 Harris En= -735.984791621794    
 JPrj=0 DoOrth=F DoCkMO=F.
 Leave Link  401 at Thu Aug 26 12:35:34 2021, MaxMem= 24159191040 cpu:        25.6
 (Enter /public/home/users/caep010/software/Gaussian09/g09/l502.exe)
 Closed shell SCF:
 Using DIIS extrapolation, IDIIS=  1040.
 Integral symmetry usage will be decided dynamically.
 Keep R1 ints in memory in canonical form, NReq=4227623225.
 IVT=      696829 IEndB=      696829 NGot= 24159191040 MDV= 19983479081
 LenX= 19983479081 LenY= 19983258651
 Requested convergence on RMS density matrix=1.00D-08 within 128 cycles.
 Requested convergence on MAX density matrix=1.00D-06.
 Requested convergence on             energy=1.00D-06.
 No special actions if energy rises.
 FoFCou: FMM=F IPFlag=           0 FMFlag=           0 FMFlg1=           0
         NFxFlg=           0 DoJE=F BraDBF=F KetDBF=F FulRan=T
         wScrn=  0.000000 ICntrl=     600 IOpCl=  0 I1Cent=           0 NGrid=           0
         NMat0=    1 NMatS0=  91378 NMatT0=    0 NMatD0=    1 NMtDS0=    0 NMtDT0=    0
 Symmetry not used in FoFCou.
 Integral accuracy reduced to 1.0D-05 until final iterations.

 Cycle   1  Pass 0  IDiag  1:
 E= -735.284542425246    
 DIIS: error= 2.34D-02 at cycle   1 NSaved=   1.
 NSaved= 1 IEnMin= 1 EnMin= -735.284542425246     IErMin= 1 ErrMin= 2.34D-02
 ErrMax= 2.34D-02  0.00D+00 EMaxC= 1.00D-01 BMatC= 7.11D-01 BMatP= 7.11D-01
 IDIUse=3 WtCom= 7.66D-01 WtEn= 2.34D-01
 Coeff-Com:  0.100D+01
 Coeff-En:   0.100D+01
 Coeff:      0.100D+01
 Gap=     0.084 Goal=   None    Shift=    0.000
 GapD=    0.084 DampG=0.500 DampE=0.500 DampFc=0.2500 IDamp=-1.
 Damping current iteration by 2.50D-01
 RMSDP=3.68D-03 MaxDP=2.34D-01              OVMax= 3.26D-01

 Cycle   2  Pass 0  IDiag  1:
 E= -735.488019430015     Delta-E=       -0.203477004770 Rises=F Damp=T
 DIIS: error= 1.08D-02 at cycle   2 NSaved=   2.
 NSaved= 2 IEnMin= 2 EnMin= -735.488019430015     IErMin= 2 ErrMin= 1.08D-02
 ErrMax= 1.08D-02  0.00D+00 EMaxC= 1.00D-01 BMatC= 1.23D-01 BMatP= 7.11D-01
 IDIUse=3 WtCom= 8.92D-01 WtEn= 1.08D-01
 Coeff-Com: -0.516D+00 0.152D+01
 Coeff-En:   0.000D+00 0.100D+01
 Coeff:     -0.460D+00 0.146D+01
 Gap=     0.144 Goal=   None    Shift=    0.000
 RMSDP=1.26D-03 MaxDP=9.08D-02 DE=-2.03D-01 OVMax= 2.13D-01

 Cycle   3  Pass 0  IDiag  1:
 E= -735.806276142668     Delta-E=       -0.318256712653 Rises=F Damp=F
 DIIS: error= 5.50D-03 at cycle   3 NSaved=   3.
 NSaved= 3 IEnMin= 3 EnMin= -735.806276142668     IErMin= 3 ErrMin= 5.50D-03
 ErrMax= 5.50D-03  0.00D+00 EMaxC= 1.00D-01 BMatC= 3.39D-02 BMatP= 1.23D-01
 IDIUse=3 WtCom= 9.45D-01 WtEn= 5.50D-02
 Coeff-Com: -0.268D+00 0.717D+00 0.551D+00
 Coeff-En:   0.000D+00 0.000D+00 0.100D+01
 Coeff:     -0.253D+00 0.678D+00 0.575D+00
 Gap=     0.153 Goal=   None    Shift=    0.000
 RMSDP=5.93D-04 MaxDP=2.83D-02 DE=-3.18D-01 OVMax= 7.27D-02

 Cycle   4  Pass 0  IDiag  1:
 E= -735.832389812890     Delta-E=       -0.026113670221 Rises=F Damp=F
 DIIS: error= 2.62D-03 at cycle   4 NSaved=   4.
 NSaved= 4 IEnMin= 4 EnMin= -735.832389812890     IErMin= 4 ErrMin= 2.62D-03
 ErrMax= 2.62D-03  0.00D+00 EMaxC= 1.00D-01 BMatC= 6.26D-03 BMatP= 3.39D-02
 IDIUse=3 WtCom= 9.74D-01 WtEn= 2.62D-02
 Coeff-Com: -0.585D-01 0.171D+00 0.311D+00 0.576D+00
 Coeff-En:   0.000D+00 0.000D+00 0.145D+00 0.855D+00
 Coeff:     -0.570D-01 0.167D+00 0.307D+00 0.583D+00
 Gap=     0.148 Goal=   None    Shift=    0.000
 RMSDP=2.44D-04 MaxDP=1.59D-02 DE=-2.61D-02 OVMax= 4.17D-02

 Cycle   5  Pass 0  IDiag  1:
 E= -735.836967591015     Delta-E=       -0.004577778125 Rises=F Damp=F
 DIIS: error= 9.43D-04 at cycle   5 NSaved=   5.
 NSaved= 5 IEnMin= 5 EnMin= -735.836967591015     IErMin= 5 ErrMin= 9.43D-04
 ErrMax= 9.43D-04  0.00D+00 EMaxC= 1.00D-01 BMatC= 1.61D-03 BMatP= 6.26D-03
 IDIUse=3 WtCom= 9.91D-01 WtEn= 9.43D-03
 Coeff-Com: -0.505D-02 0.254D-01 0.143D+00 0.397D+00 0.440D+00
 Coeff-En:   0.000D+00 0.000D+00 0.000D+00 0.192D+00 0.808D+00
 Coeff:     -0.501D-02 0.251D-01 0.142D+00 0.395D+00 0.443D+00
 Gap=     0.148 Goal=   None    Shift=    0.000
 RMSDP=1.05D-04 MaxDP=6.11D-03 DE=-4.58D-03 OVMax= 1.51D-02

 Cycle   6  Pass 0  IDiag  1:
 E= -735.838152973106     Delta-E=       -0.001185382091 Rises=F Damp=F
 DIIS: error= 5.61D-04 at cycle   6 NSaved=   6.
 NSaved= 6 IEnMin= 6 EnMin= -735.838152973106     IErMin= 6 ErrMin= 5.61D-04
 ErrMax= 5.61D-04  0.00D+00 EMaxC= 1.00D-01 BMatC= 3.16D-04 BMatP= 1.61D-03
 IDIUse=3 WtCom= 9.94D-01 WtEn= 5.61D-03
 Coeff-Com:  0.299D-02-0.960D-03 0.666D-01 0.217D+00 0.328D+00 0.386D+00
 Coeff-En:   0.000D+00 0.000D+00 0.000D+00 0.000D+00 0.152D+00 0.848D+00
 Coeff:      0.298D-02-0.954D-03 0.663D-01 0.216D+00 0.327D+00 0.389D+00
 Gap=     0.149 Goal=   None    Shift=    0.000
 RMSDP=4.27D-05 MaxDP=3.61D-03 DE=-1.19D-03 OVMax= 7.47D-03

 Cycle   7  Pass 0  IDiag  1:
 E= -735.838375275848     Delta-E=       -0.000222302743 Rises=F Damp=F
 DIIS: error= 1.41D-04 at cycle   7 NSaved=   7.
 NSaved= 7 IEnMin= 7 EnMin= -735.838375275848     IErMin= 7 ErrMin= 1.41D-04
 ErrMax= 1.41D-04  0.00D+00 EMaxC= 1.00D-01 BMatC= 2.93D-05 BMatP= 3.16D-04
 IDIUse=3 WtCom= 9.99D-01 WtEn= 1.41D-03
 Coeff-Com:  0.251D-02-0.369D-02 0.241D-01 0.882D-01 0.158D+00 0.266D+00
 Coeff-Com:  0.466D+00
 Coeff-En:   0.000D+00 0.000D+00 0.000D+00 0.000D+00 0.000D+00 0.869D-01
 Coeff-En:   0.913D+00
 Coeff:      0.251D-02-0.369D-02 0.241D-01 0.881D-01 0.158D+00 0.265D+00
 Coeff:      0.466D+00
 Gap=     0.149 Goal=   None    Shift=    0.000
 RMSDP=1.41D-05 MaxDP=9.51D-04 DE=-2.22D-04 OVMax= 2.14D-03

 Cycle   8  Pass 0  IDiag  1:
 E= -735.838399545901     Delta-E=       -0.000024270053 Rises=F Damp=F
 DIIS: error= 5.27D-05 at cycle   8 NSaved=   8.
 NSaved= 8 IEnMin= 8 EnMin= -735.838399545901     IErMin= 8 ErrMin= 5.27D-05
 ErrMax= 5.27D-05  0.00D+00 EMaxC= 1.00D-01 BMatC= 1.73D-06 BMatP= 2.93D-05
 IDIUse=1 WtCom= 1.00D+00 WtEn= 0.00D+00
 Coeff-Com:  0.106D-02-0.220D-02 0.459D-02 0.217D-01 0.449D-01 0.934D-01
 Coeff-Com:  0.253D+00 0.583D+00
 Coeff:      0.106D-02-0.220D-02 0.459D-02 0.217D-01 0.449D-01 0.934D-01
 Coeff:      0.253D+00 0.583D+00
 Gap=     0.149 Goal=   None    Shift=    0.000
 RMSDP=4.09D-06 MaxDP=2.08D-04 DE=-2.43D-05 OVMax= 5.90D-04

 Initial convergence to 1.0D-05 achieved.  Increase integral accuracy.
 Cycle   9  Pass 1  IDiag  1:
 E= -735.838411673211     Delta-E=       -0.000012127309 Rises=F Damp=F
 DIIS: error= 2.44D-05 at cycle   1 NSaved=   1.
 NSaved= 1 IEnMin= 1 EnMin= -735.838411673211     IErMin= 1 ErrMin= 2.44D-05
 ErrMax= 2.44D-05  0.00D+00 EMaxC= 1.00D-01 BMatC= 3.44D-07 BMatP= 3.44D-07
 IDIUse=1 WtCom= 1.00D+00 WtEn= 0.00D+00
 Coeff-Com:  0.100D+01
 Coeff:      0.100D+01
 Gap=     0.149 Goal=   None    Shift=    0.000
 RMSDP=4.09D-06 MaxDP=2.08D-04 DE=-1.21D-05 OVMax= 2.07D-04

 Cycle  10  Pass 1  IDiag  1:
 E= -735.838411813659     Delta-E=       -0.000000140448 Rises=F Damp=F
 DIIS: error= 1.54D-05 at cycle   2 NSaved=   2.
 NSaved= 2 IEnMin= 2 EnMin= -735.838411813659     IErMin= 2 ErrMin= 1.54D-05
 ErrMax= 1.54D-05  0.00D+00 EMaxC= 1.00D-01 BMatC= 1.64D-07 BMatP= 3.44D-07
 IDIUse=1 WtCom= 1.00D+00 WtEn= 0.00D+00
 Coeff-Com:  0.370D+00 0.630D+00
 Coeff:      0.370D+00 0.630D+00
 Gap=     0.149 Goal=   None    Shift=    0.000
 RMSDP=1.68D-06 MaxDP=1.18D-04 DE=-1.40D-07 OVMax= 2.44D-04

 Cycle  11  Pass 1  IDiag  1:
 E= -735.838411889961     Delta-E=       -0.000000076303 Rises=F Damp=F
 DIIS: error= 1.02D-05 at cycle   3 NSaved=   3.
 NSaved= 3 IEnMin= 3 EnMin= -735.838411889961     IErMin= 3 ErrMin= 1.02D-05
 ErrMax= 1.02D-05  0.00D+00 EMaxC= 1.00D-01 BMatC= 8.97D-08 BMatP= 1.64D-07
 IDIUse=1 WtCom= 1.00D+00 WtEn= 0.00D+00
 Coeff-Com:  0.126D-01 0.422D+00 0.566D+00
 Coeff:      0.126D-01 0.422D+00 0.566D+00
 Gap=     0.149 Goal=   None    Shift=    0.000
 RMSDP=8.54D-07 MaxDP=5.94D-05 DE=-7.63D-08 OVMax= 1.08D-04

 Cycle  12  Pass 1  IDiag  1:
 E= -735.838411957436     Delta-E=       -0.000000067475 Rises=F Damp=F
 DIIS: error= 5.03D-06 at cycle   4 NSaved=   4.
 NSaved= 4 IEnMin= 4 EnMin= -735.838411957436     IErMin= 4 ErrMin= 5.03D-06
 ErrMax= 5.03D-06  0.00D+00 EMaxC= 1.00D-01 BMatC= 2.09D-08 BMatP= 8.97D-08
 IDIUse=1 WtCom= 1.00D+00 WtEn= 0.00D+00
 Coeff-Com: -0.139D-01 0.272D+00 0.420D+00 0.322D+00
 Coeff:     -0.139D-01 0.272D+00 0.420D+00 0.322D+00
 Gap=     0.149 Goal=   None    Shift=    0.000
 RMSDP=3.15D-07 MaxDP=2.64D-05 DE=-6.75D-08 OVMax= 5.80D-05

 Cycle  13  Pass 1  IDiag  1:
 E= -735.838411973416     Delta-E=       -0.000000015980 Rises=F Damp=F
 DIIS: error= 8.55D-07 at cycle   5 NSaved=   5.
 NSaved= 5 IEnMin= 5 EnMin= -735.838411973416     IErMin= 5 ErrMin= 8.55D-07
 ErrMax= 8.55D-07  0.00D+00 EMaxC= 1.00D-01 BMatC= 9.57D-10 BMatP= 2.09D-08
 IDIUse=1 WtCom= 1.00D+00 WtEn= 0.00D+00
 Coeff-Com: -0.986D-02 0.150D+00 0.236D+00 0.218D+00 0.406D+00
 Coeff:     -0.986D-02 0.150D+00 0.236D+00 0.218D+00 0.406D+00
 Gap=     0.149 Goal=   None    Shift=    0.000
 RMSDP=7.34D-08 MaxDP=5.00D-06 DE=-1.60D-08 OVMax= 9.92D-06

 Cycle  14  Pass 1  IDiag  1:
 E= -735.838411974217     Delta-E=       -0.000000000801 Rises=F Damp=F
 DIIS: error= 2.77D-07 at cycle   6 NSaved=   6.
 NSaved= 6 IEnMin= 6 EnMin= -735.838411974217     IErMin= 6 ErrMin= 2.77D-07
 ErrMax= 2.77D-07  0.00D+00 EMaxC= 1.00D-01 BMatC= 6.23D-11 BMatP= 9.57D-10
 IDIUse=1 WtCom= 1.00D+00 WtEn= 0.00D+00
 Coeff-Com: -0.433D-02 0.565D-01 0.905D-01 0.906D-01 0.238D+00 0.529D+00
 Coeff:     -0.433D-02 0.565D-01 0.905D-01 0.906D-01 0.238D+00 0.529D+00
 Gap=     0.149 Goal=   None    Shift=    0.000
 RMSDP=2.22D-08 MaxDP=1.64D-06 DE=-8.01D-10 OVMax= 4.69D-06

 Cycle  15  Pass 1  IDiag  1:
 E= -735.838411974240     Delta-E=       -0.000000000024 Rises=F Damp=F
 DIIS: error= 1.11D-07 at cycle   7 NSaved=   7.
 NSaved= 7 IEnMin= 7 EnMin= -735.838411974240     IErMin= 7 ErrMin= 1.11D-07
 ErrMax= 1.11D-07  0.00D+00 EMaxC= 1.00D-01 BMatC= 8.66D-12 BMatP= 6.23D-11
 IDIUse=1 WtCom= 1.00D+00 WtEn= 0.00D+00
 Coeff-Com: -0.917D-03 0.949D-02 0.154D-01 0.174D-01 0.698D-01 0.310D+00
 Coeff-Com:  0.579D+00
 Coeff:     -0.917D-03 0.949D-02 0.154D-01 0.174D-01 0.698D-01 0.310D+00
 Coeff:      0.579D+00
 Gap=     0.149 Goal=   None    Shift=    0.000
 RMSDP=7.57D-09 MaxDP=5.13D-07 DE=-2.36D-11 OVMax= 1.01D-06

 SCF Done:  E(RB3LYP) =  -735.838411974     A.U. after   15 cycles
            NFock= 15  Conv=0.76D-08     -V/T= 2.0038
 KE= 7.330631250545D+02 PE=-3.529117352457D+03 EE= 1.156444002762D+03
 Leave Link  502 at Thu Aug 26 12:37:32 2021, MaxMem= 24159191040 cpu:       581.2
 (Enter /public/home/users/caep010/software/Gaussian09/g09/l801.exe)
 DoSCS=F DFT=T ScalE2(SS,OS)=  1.000000  1.000000
 Range of M.O.s used for correlation:     1   427
 NBasis=   427 NAE=    51 NBE=    51 NFC=     0 NFV=     0
 NROrb=    427 NOA=    51 NOB=    51 NVA=   376 NVB=   376

 **** Warning!!: The largest alpha MO coefficient is  0.36660466D+02

 Leave Link  801 at Thu Aug 26 12:37:32 2021, MaxMem= 24159191040 cpu:         0.6
 (Enter /public/home/users/caep010/software/Gaussian09/g09/l1101.exe)
 Using compressed storage, NAtomX=    21.
 Will process     22 centers per pass.
 Leave Link 1101 at Thu Aug 26 12:37:33 2021, MaxMem= 24159191040 cpu:        25.9
 (Enter /public/home/users/caep010/software/Gaussian09/g09/l1102.exe)
 Symmetrizing basis deriv contribution to polar:
 IMax=3 JMax=2 DiffMx= 0.00D+00
 Leave Link 1102 at Thu Aug 26 12:37:34 2021, MaxMem= 24159191040 cpu:         1.4
 (Enter /public/home/users/caep010/software/Gaussian09/g09/l1110.exe)
 Forming Gx(P) for the SCF density, NAtomX=    21.
 Integral derivatives from FoFJK, PRISM(SPDF).
 Do as many integral derivatives as possible in FoFJK.
 G2DrvN: MDV=   24159190768.
 G2DrvN: will do    22 centers at a time, making    1 passes.
 Calling FoFCou, ICntrl=  3107 FMM=F I1Cent=   0 AccDes= 0.00D+00.
 FoFJK:  IHMeth= 1 ICntrl=    3107 DoSepK=F KAlg= 0 I1Cent=   0 FoldK=F
 IRaf=         0 NMat=   1 IRICut=       1 DoRegI=T DoRafI=F ISym2E= 0.
 FoFCou: FMM=F IPFlag=           0 FMFlag=      100000 FMFlg1=           0
         NFxFlg=           0 DoJE=F BraDBF=F KetDBF=F FulRan=T
         wScrn=  0.000000 ICntrl=    3107 IOpCl=  0 I1Cent=           0 NGrid=           0
         NMat0=    1 NMatS0=      1 NMatT0=    0 NMatD0=    1 NMtDS0=    0 NMtDT0=    0
 Symmetry not used in FoFCou.
 End of G2Drv F.D. properties file   721 does not exist.
 End of G2Drv F.D. properties file   722 does not exist.
 End of G2Drv F.D. properties file   788 does not exist.
 Leave Link 1110 at Thu Aug 26 12:38:10 2021, MaxMem= 24159191040 cpu:      1146.3
 (Enter /public/home/users/caep010/software/Gaussian09/g09/l1002.exe)
 Minotr:  Closed shell wavefunction.
          IDoAtm=111111111111111111111
          Direct CPHF calculation.
          Differentiating once with respect to nuclear coordinates.
          Requested convergence is 1.0D-08 RMS, and 1.0D-07 maximum.
          Secondary convergence is 1.0D-12 RMS, and 1.0D-12 maximum.
          NewPWx=T KeepS1=F KeepF1=F KeepIn=T MapXYZ=F SortEE=F KeepMc=T.
          MDV=   24159190399 using IRadAn=       2.
 Generate precomputed XC quadrature information.
 Keep R1 ints in memory in canonical form, NReq=4226934175.
 FoFCou: FMM=F IPFlag=           0 FMFlag=           0 FMFlg1=           0
         NFxFlg=           0 DoJE=F BraDBF=F KetDBF=F FulRan=T
         wScrn=  0.000000 ICntrl=     600 IOpCl=  0 I1Cent=           0 NGrid=           0
         NMat0=    1 NMatS0=  91378 NMatT0=    0 NMatD0=    1 NMtDS0=    0 NMtDT0=    0
 Symmetry not used in FoFCou.
          Solving linear equations simultaneously, MaxMat=       0.
          There are    66 degrees of freedom in the 1st order CPHF.  IDoFFX=6 NUNeed=     0.
     60 vectors produced by pass  0 Test12= 2.91D-14 1.52D-09 XBig12= 2.35D-01 1.25D-01.
 AX will form    60 AO Fock derivatives at one time.
     60 vectors produced by pass  1 Test12= 2.91D-14 1.52D-09 XBig12= 6.62D-02 1.08D-01.
     60 vectors produced by pass  2 Test12= 2.91D-14 1.52D-09 XBig12= 1.12D-03 5.44D-03.
     60 vectors produced by pass  3 Test12= 2.91D-14 1.52D-09 XBig12= 6.75D-06 3.43D-04.
     60 vectors produced by pass  4 Test12= 2.91D-14 1.52D-09 XBig12= 2.64D-08 1.58D-05.
     59 vectors produced by pass  5 Test12= 2.91D-14 1.52D-09 XBig12= 6.65D-11 5.88D-07.
     27 vectors produced by pass  6 Test12= 2.91D-14 1.52D-09 XBig12= 9.64D-14 2.41D-08.
      1 vectors produced by pass  7 Test12= 2.91D-14 1.52D-09 XBig12= 2.42D-16 1.88D-09.
 InvSVY:  IOpt=1 It=  1 EMax= 6.66D-16
 Solved reduced A of dimension   387 with    66 vectors.
 End of Minotr F.D. properties file   721 does not exist.
 End of Minotr F.D. properties file   722 does not exist.
 End of Minotr F.D. properties file   788 does not exist.
 Leave Link 1002 at Thu Aug 26 12:39:22 2021, MaxMem= 24159191040 cpu:      2046.9
 (Enter /public/home/users/caep010/software/Gaussian09/g09/l601.exe)
 Copying SCF densities to generalized density rwf, IOpCl= 0 IROHF=0.

 **********************************************************************

            Population analysis using the SCF density.

 **********************************************************************

 Orbital symmetries:
       Occupied  (A) (A) (A) (A) (A) (A) (A) (A) (A) (A) (A) (A)
                 (A) (A) (A) (A) (A) (A) (A) (A) (A) (A) (A) (A)
                 (A) (A) (A) (A) (A) (A) (A) (A) (A) (A) (A) (A)
                 (A) (A) (A) (A) (A) (A) (A) (A) (A) (A) (A) (A)
                 (A) (A) (A)
       Virtual   (A) (A) (A) (A) (A) (A) (A) (A) (A) (A) (A) (A)
                 (A) (A) (A) (A) (A) (A) (A) (A) (A) (A) (A) (A)
                 (A) (A) (A) (A) (A) (A) (A) (A) (A) (A) (A) (A)
                 (A) (A) (A) (A) (A) (A) (A) (A) (A) (A) (A) (A)
                 (A) (A) (A) (A) (A) (A) (A) (A) (A) (A) (A) (A)
                 (A) (A) (A) (A) (A) (A) (A) (A) (A) (A) (A) (A)
                 (A) (A) (A) (A) (A) (A) (A) (A) (A) (A) (A) (A)
                 (A) (A) (A) (A) (A) (A) (A) (A) (A) (A) (A) (A)
                 (A) (A) (A) (A) (A) (A) (A) (A) (A) (A) (A) (A)
                 (A) (A) (A) (A) (A) (A) (A) (A) (A) (A) (A) (A)
                 (A) (A) (A) (A) (A) (A) (A) (A) (A) (A) (A) (A)
                 (A) (A) (A) (A) (A) (A) (A) (A) (A) (A) (A) (A)
                 (A) (A) (A) (A) (A) (A) (A) (A) (A) (A) (A) (A)
                 (A) (A) (A) (A) (A) (A) (A) (A) (A) (A) (A) (A)
                 (A) (A) (A) (A) (A) (A) (A) (A) (A) (A) (A) (A)
                 (A) (A) (A) (A) (A) (A) (A) (A) (A) (A) (A) (A)
                 (A) (A) (A) (A) (A) (A) (A) (A) (A) (A) (A) (A)
                 (A) (A) (A) (A) (A) (A) (A) (A) (A) (A) (A) (A)
                 (A) (A) (A) (A) (A) (A) (A) (A) (A) (A) (A) (A)
                 (A) (A) (A) (A) (A) (A) (A) (A) (A) (A) (A) (A)
                 (A) (A) (A) (A) (A) (A) (A) (A) (A) (A) (A) (A)
                 (A) (A) (A) (A) (A) (A) (A) (A) (A) (A) (A) (A)
                 (A) (A) (A) (A) (A) (A) (A) (A) (A) (A) (A) (A)
                 (A) (A) (A) (A) (A) (A) (A) (A) (A) (A) (A) (A)
                 (A) (A) (A) (A) (A) (A) (A) (A) (A) (A) (A) (A)
                 (A) (A) (A) (A) (A) (A) (A) (A) (A) (A) (A) (A)
                 (A) (A) (A) (A) (A) (A) (A) (A) (A) (A) (A) (A)
                 (A) (A) (A) (A) (A) (A) (A) (A) (A) (A) (A) (A)
                 (A) (A) (A) (A) (A) (A) (A) (A) (A) (A) (A) (A)
                 (A) (A) (A) (A) (A) (A) (A) (A) (A) (A) (A) (A)
                 (A) (A) (A) (A) (A) (A) (A) (A) (A) (A) (A) (A)
                 (A) (A) (A) (A)
 The electronic state is 1-A.
 Alpha  occ. eigenvalues --  -19.18101 -19.17883 -19.17715 -19.17687 -14.57172
 Alpha  occ. eigenvalues --  -14.57062 -14.34837 -10.26392 -10.26180 -10.26164
 Alpha  occ. eigenvalues --  -10.23575 -10.20893 -10.20702 -10.15763  -1.24170
 Alpha  occ. eigenvalues --   -1.23924  -1.06388  -1.06098  -0.98641  -0.91273
 Alpha  occ. eigenvalues --   -0.84252  -0.81539  -0.76366  -0.72997  -0.70649
 Alpha  occ. eigenvalues --   -0.63964  -0.61555  -0.59101  -0.57463  -0.55076
 Alpha  occ. eigenvalues --   -0.54613  -0.54136  -0.53057  -0.52209  -0.51854
 Alpha  occ. eigenvalues --   -0.49091  -0.48374  -0.46020  -0.43831  -0.42291
 Alpha  occ. eigenvalues --   -0.41428  -0.40858  -0.35128  -0.32077  -0.31813
 Alpha  occ. eigenvalues --   -0.31689  -0.31499  -0.30739  -0.29589  -0.27981
 Alpha  occ. eigenvalues --   -0.23985
 Alpha virt. eigenvalues --   -0.09104  -0.08072  -0.01164  -0.00565   0.07938
 Alpha virt. eigenvalues --    0.09723   0.12054   0.13015   0.14184   0.17282
 Alpha virt. eigenvalues --    0.17527   0.19808   0.20805   0.21108   0.21780
 Alpha virt. eigenvalues --    0.22983   0.24433   0.28375   0.29020   0.30247
 Alpha virt. eigenvalues --    0.32581   0.33334   0.35444   0.36901   0.39133
 Alpha virt. eigenvalues --    0.39721   0.41787   0.42326   0.43325   0.43664
 Alpha virt. eigenvalues --    0.46707   0.47932   0.48235   0.48629   0.51692
 Alpha virt. eigenvalues --    0.52120   0.52487   0.53579   0.55868   0.56019
 Alpha virt. eigenvalues --    0.58161   0.60122   0.61498   0.61520   0.62814
 Alpha virt. eigenvalues --    0.63469   0.65508   0.67658   0.68306   0.70128
 Alpha virt. eigenvalues --    0.70678   0.71267   0.72309   0.73556   0.73693
 Alpha virt. eigenvalues --    0.75529   0.75864   0.77395   0.79219   0.79658
 Alpha virt. eigenvalues --    0.79917   0.80124   0.81498   0.81518   0.82322
 Alpha virt. eigenvalues --    0.83188   0.84555   0.85070   0.85654   0.87043
 Alpha virt. eigenvalues --    0.89241   0.89842   0.91177   0.91856   0.92689
 Alpha virt. eigenvalues --    0.92915   0.94608   0.95564   0.95886   0.96640
 Alpha virt. eigenvalues --    0.97819   0.99036   1.00192   1.02238   1.02754
 Alpha virt. eigenvalues --    1.03639   1.06596   1.08475   1.11088   1.12468
 Alpha virt. eigenvalues --    1.12968   1.13614   1.15237   1.16225   1.17149
 Alpha virt. eigenvalues --    1.20609   1.21462   1.22722   1.24788   1.25532
 Alpha virt. eigenvalues --    1.27031   1.28042   1.29288   1.29901   1.31782
 Alpha virt. eigenvalues --    1.32867   1.34619   1.37794   1.38689   1.39374
 Alpha virt. eigenvalues --    1.40359   1.41702   1.43311   1.45428   1.45994
 Alpha virt. eigenvalues --    1.47888   1.50105   1.51620   1.52278   1.53654
 Alpha virt. eigenvalues --    1.54128   1.57011   1.57500   1.60496   1.60669
 Alpha virt. eigenvalues --    1.64408   1.66286   1.67035   1.67254   1.69628
 Alpha virt. eigenvalues --    1.70570   1.72242   1.73967   1.75509   1.76368
 Alpha virt. eigenvalues --    1.78100   1.78662   1.83063   1.83488   1.85654
 Alpha virt. eigenvalues --    1.90850   1.90955   1.92932   1.97324   2.00598
 Alpha virt. eigenvalues --    2.04452   2.07211   2.08894   2.09729   2.11933
 Alpha virt. eigenvalues --    2.14370   2.14962   2.18304   2.23071   2.25697
 Alpha virt. eigenvalues --    2.26881   2.28259   2.29394   2.30347   2.34612
 Alpha virt. eigenvalues --    2.39097   2.41800   2.42674   2.43550   2.48740
 Alpha virt. eigenvalues --    2.54024   2.57239   2.60510   2.62627   2.71404
 Alpha virt. eigenvalues --    2.80207   2.80624   2.82234   2.84340   2.90190
 Alpha virt. eigenvalues --    2.94309   2.95830   2.97674   3.00105   3.00898
 Alpha virt. eigenvalues --    3.02558   3.05079   3.07579   3.08269   3.09573
 Alpha virt. eigenvalues --    3.10439   3.11686   3.13369   3.15366   3.18541
 Alpha virt. eigenvalues --    3.18857   3.21619   3.22120   3.23867   3.26518
 Alpha virt. eigenvalues --    3.28634   3.29964   3.31098   3.32729   3.36985
 Alpha virt. eigenvalues --    3.37551   3.42026   3.44368   3.47348   3.47676
 Alpha virt. eigenvalues --    3.48131   3.48556   3.49848   3.50855   3.52594
 Alpha virt. eigenvalues --    3.53060   3.54151   3.56049   3.58538   3.58923
 Alpha virt. eigenvalues --    3.61079   3.61186   3.63497   3.67008   3.67621
 Alpha virt. eigenvalues --    3.68034   3.69559   3.70547   3.71307   3.74284
 Alpha virt. eigenvalues --    3.75584   3.77642   3.83130   3.84001   3.85912
 Alpha virt. eigenvalues --    3.87143   3.88218   3.90401   3.94993   3.96403
 Alpha virt. eigenvalues --    3.99256   4.01689   4.03323   4.04497   4.07240
 Alpha virt. eigenvalues --    4.08448   4.09887   4.11013   4.11619   4.12965
 Alpha virt. eigenvalues --    4.15567   4.15905   4.18626   4.19175   4.21147
 Alpha virt. eigenvalues --    4.21855   4.23414   4.23768   4.25668   4.26802
 Alpha virt. eigenvalues --    4.29102   4.30200   4.31347   4.32161   4.34729
 Alpha virt. eigenvalues --    4.36102   4.37502   4.38444   4.39946   4.41002
 Alpha virt. eigenvalues --    4.41501   4.43393   4.44837   4.47394   4.47611
 Alpha virt. eigenvalues --    4.50831   4.53098   4.54095   4.54687   4.55814
 Alpha virt. eigenvalues --    4.56770   4.57780   4.59031   4.60475   4.60967
 Alpha virt. eigenvalues --    4.62189   4.63415   4.65002   4.66025   4.67059
 Alpha virt. eigenvalues --    4.67832   4.71753   4.72505   4.74992   4.76303
 Alpha virt. eigenvalues --    4.77605   4.78459   4.81928   4.82959   4.91217
 Alpha virt. eigenvalues --    4.92466   4.93441   4.93892   4.97940   5.02087
 Alpha virt. eigenvalues --    5.02346   5.02526   5.03054   5.03597   5.04082
 Alpha virt. eigenvalues --    5.07119   5.07272   5.08676   5.10943   5.11205
 Alpha virt. eigenvalues --    5.13395   5.14803   5.17208   5.18210   5.19595
 Alpha virt. eigenvalues --    5.21547   5.24029   5.26208   5.29664   5.31730
 Alpha virt. eigenvalues --    5.35853   5.39260   5.43595   5.44694   5.49697
 Alpha virt. eigenvalues --    5.52334   5.55174   5.61051   5.64458   5.64961
 Alpha virt. eigenvalues --    5.70560   5.74069   5.77739   5.79042   5.80769
 Alpha virt. eigenvalues --    5.89000   5.89806   5.93601   5.94500   5.97634
 Alpha virt. eigenvalues --    6.06791   6.08623   6.15197   6.17933   6.23542
 Alpha virt. eigenvalues --    6.25521   6.26582   6.28496   6.31075   6.32326
 Alpha virt. eigenvalues --    6.33353   6.67637   6.74635   6.86216   6.87516
 Alpha virt. eigenvalues --    6.92414   7.03287   7.10946   8.79821   9.90591
 Alpha virt. eigenvalues --   10.59906  10.68837  11.22686  11.30354  11.31127
 Alpha virt. eigenvalues --   11.65383  11.78424  12.06865  12.56813  12.91276
 Alpha virt. eigenvalues --   12.94953  13.16371  13.17528  14.65890  16.65988
 Alpha virt. eigenvalues --   17.58282
          Condensed to atoms (all electrons):
               1          2          3          4          5          6
     1  O    7.987377   0.529560  -0.125480   0.002185  -0.000103   0.000000
     2  N    0.529560   5.347184   0.339132  -0.031237   0.000327  -0.000016
     3  C   -0.125480   0.339132   4.890924   0.466069   0.033079   0.000567
     4  C    0.002185  -0.031237   0.466069   4.771073   0.489713  -0.032314
     5  C   -0.000103   0.000327   0.033079   0.489713   4.825840   0.330904
     6  N    0.000000  -0.000016   0.000567  -0.032314   0.330904   5.393551
     7  O   -0.000000   0.000000  -0.000076   0.002077  -0.121259   0.518192
     8  C    0.006528  -0.030822   0.419696  -0.013098  -0.078201   0.000196
     9  C    0.000947   0.001815   0.006836  -0.043231   0.006161   0.001234
    10  N   -0.000008  -0.000034   0.000382   0.001302   0.000208  -0.000033
    11  H   -0.000000   0.000001   0.000032  -0.000088   0.000271  -0.000001
    12  H   -0.000006  -0.000001   0.000269  -0.000073   0.000027   0.000001
    13  C    0.000026   0.000206  -0.081298  -0.006951   0.437849  -0.033675
    14  H    0.000000   0.000011   0.002153   0.005366  -0.018284  -0.010654
    15  O   -0.081325   0.495415  -0.090830  -0.015734  -0.000379   0.000001
    16  H    0.027085  -0.013490  -0.019262   0.005508   0.002120   0.000011
    17  C    0.000525  -0.014519  -0.052752   0.407714  -0.052426  -0.015411
    18  H    0.000006   0.000103   0.002457  -0.017803  -0.008433   0.005414
    19  H    0.000007   0.001131  -0.001364  -0.003471  -0.001446   0.001288
    20  O    0.000000   0.000001  -0.000470  -0.009523  -0.089050   0.483845
    21  H   -0.000341   0.004071  -0.009517  -0.009201   0.002231   0.000054
               7          8          9         10         11         12
     1  O   -0.000000   0.006528   0.000947  -0.000008  -0.000000  -0.000006
     2  N    0.000000  -0.030822   0.001815  -0.000034   0.000001  -0.000001
     3  C   -0.000076   0.419696   0.006836   0.000382   0.000032   0.000269
     4  C    0.002077  -0.013098  -0.043231   0.001302  -0.000088  -0.000073
     5  C   -0.121259  -0.078201   0.006161   0.000208   0.000271   0.000027
     6  N    0.518192   0.000196   0.001234  -0.000033  -0.000001   0.000001
     7  O    7.991493   0.000022   0.000682  -0.000005  -0.000004  -0.000000
     8  C    0.000022   5.046333   0.498288  -0.035237   0.006433  -0.009648
     9  C    0.000682   0.498288   4.445658   0.452957  -0.022679  -0.024656
    10  N   -0.000005  -0.035237   0.452957   6.348066   0.385568   0.384586
    11  H   -0.000004   0.006433  -0.022679   0.385568   0.448903  -0.035506
    12  H   -0.000000  -0.009648  -0.024656   0.384586  -0.035506   0.437277
    13  C    0.010882  -0.008573   0.508249  -0.034838  -0.011994   0.005877
    14  H    0.016692   0.004149  -0.023639  -0.009109   0.003057  -0.000361
    15  O    0.000000   0.005593  -0.000038  -0.000000  -0.000000  -0.000000
    16  H   -0.000000   0.316320  -0.024907  -0.008424  -0.000357   0.002699
    17  C    0.000649   0.007414   0.000241   0.000003  -0.000000  -0.000000
    18  H   -0.000364  -0.000066  -0.000040  -0.000000  -0.000000   0.000000
    19  H    0.000015  -0.000324   0.000058   0.000000   0.000000   0.000000
    20  O   -0.078162  -0.000010  -0.000040   0.000000   0.000000  -0.000000
    21  H   -0.000004   0.000276  -0.000023  -0.000000   0.000000  -0.000000
              13         14         15         16         17         18
     1  O    0.000026   0.000000  -0.081325   0.027085   0.000525   0.000006
     2  N    0.000206   0.000011   0.495415  -0.013490  -0.014519   0.000103
     3  C   -0.081298   0.002153  -0.090830  -0.019262  -0.052752   0.002457
     4  C   -0.006951   0.005366  -0.015734   0.005508   0.407714  -0.017803
     5  C    0.437849  -0.018284  -0.000379   0.002120  -0.052426  -0.008433
     6  N   -0.033675  -0.010654   0.000001   0.000011  -0.015411   0.005414
     7  O    0.010882   0.016692   0.000000  -0.000000   0.000649  -0.000364
     8  C   -0.008573   0.004149   0.005593   0.316320   0.007414  -0.000066
     9  C    0.508249  -0.023639  -0.000038  -0.024907   0.000241  -0.000040
    10  N   -0.034838  -0.009109  -0.000000  -0.008424   0.000003  -0.000000
    11  H   -0.011994   0.003057  -0.000000  -0.000357  -0.000000  -0.000000
    12  H    0.005877  -0.000361  -0.000000   0.002699  -0.000000   0.000000
    13  C    5.015969   0.316324   0.000000   0.004077   0.008200   0.000497
    14  H    0.316324   0.610694   0.000000  -0.000423  -0.000148   0.000000
    15  O    0.000000   0.000000   8.025796   0.000695   0.002154   0.001185
    16  H    0.004077  -0.000423   0.000695   0.603512  -0.000144   0.000004
    17  C    0.008200  -0.000148   0.002154  -0.000144   4.947302   0.374275
    18  H    0.000497   0.000000   0.001185   0.000004   0.374275   0.596025
    19  H   -0.000325  -0.000001   0.002218  -0.000001   0.381337  -0.039175
    20  O    0.002249   0.000649  -0.000000  -0.000000   0.004365   0.000450
    21  H   -0.000110   0.000005   0.006892   0.000001   0.369967  -0.037552
              19         20         21
     1  O    0.000007   0.000000  -0.000341
     2  N    0.001131   0.000001   0.004071
     3  C   -0.001364  -0.000470  -0.009517
     4  C   -0.003471  -0.009523  -0.009201
     5  C   -0.001446  -0.089050   0.002231
     6  N    0.001288   0.483845   0.000054
     7  O    0.000015  -0.078162  -0.000004
     8  C   -0.000324  -0.000010   0.000276
     9  C    0.000058  -0.000040  -0.000023
    10  N    0.000000   0.000000  -0.000000
    11  H    0.000000   0.000000   0.000000
    12  H    0.000000  -0.000000  -0.000000
    13  C   -0.000325   0.002249  -0.000110
    14  H   -0.000001   0.000649   0.000005
    15  O    0.002218  -0.000000   0.006892
    16  H   -0.000001  -0.000000   0.000001
    17  C    0.381337   0.004365   0.369967
    18  H   -0.039175   0.000450  -0.037552
    19  H    0.547107   0.002368  -0.037579
    20  O    0.002368   8.031446   0.000848
    21  H   -0.037579   0.000848   0.581224
 Mulliken charges:
               1
     1  O   -0.346981
     2  N    0.371163
     3  C    0.219451
     4  C    0.031717
     5  C    0.240850
     6  N    0.356848
     7  O   -0.340829
     8  C   -0.135270
     9  C    0.216127
    10  N   -0.485383
    11  H    0.226365
    12  H    0.239517
    13  C   -0.132641
    14  H    0.103518
    15  O   -0.351645
    16  H    0.104976
    17  C   -0.368747
    18  H    0.123016
    19  H    0.148157
    20  O   -0.348965
    21  H    0.128757
 Sum of Mulliken charges =  -0.00000
 Mulliken charges with hydrogens summed into heavy atoms:
               1
     1  O   -0.346981
     2  N    0.371163
     3  C    0.219451
     4  C    0.031717
     5  C    0.240850
     6  N    0.356848
     7  O   -0.340829
     8  C   -0.030294
     9  C    0.216127
    10  N   -0.019501
    13  C   -0.029124
    15  O   -0.351645
    17  C    0.031182
    20  O   -0.348965
 APT charges:
               1
     1  O    0.677654
     2  N   -1.265668
     3  C   -0.302920
     4  C   -0.360540
     5  C   -0.255490
     6  N   -1.231949
     7  O    0.659671
     8  C   -0.116526
     9  C   -0.432400
    10  N   -0.787352
    11  H    0.648312
    12  H    0.744846
    13  C   -0.111658
    14  H    0.449388
    15  O    0.457462
    16  H    0.442967
    17  C   -0.757686
    18  H    0.361391
    19  H    0.384740
    20  O    0.434193
    21  H    0.361567
 Sum of APT charges =  -0.00000
 APT charges with hydrogens summed into heavy atoms:
               1
     1  O    0.677654
     2  N   -1.265668
     3  C   -0.302920
     4  C   -0.360540
     5  C   -0.255490
     6  N   -1.231949
     7  O    0.659671
     8  C    0.326441
     9  C   -0.432400
    10  N    0.605805
    13  C    0.337730
    15  O    0.457462
    17  C    0.350012
    20  O    0.434193
 Electronic spatial extent (au):  <R**2>=           2727.1007
 Charge=             -0.0000 electrons
 Dipole moment (field-independent basis, Debye):
    X=             -0.0251    Y=              4.9769    Z=              0.2139  Tot=              4.9816
 Quadrupole moment (field-independent basis, Debye-Ang):
   XX=            -98.6935   YY=            -63.2837   ZZ=            -79.0822
   XY=              0.4658   XZ=             -0.2260   YZ=             -2.9829
 Traceless Quadrupole moment (field-independent basis, Debye-Ang):
   XX=            -18.3403   YY=             17.0694   ZZ=              1.2710
   XY=              0.4658   XZ=             -0.2260   YZ=             -2.9829
 Octapole moment (field-independent basis, Debye-Ang**2):
  XXX=             -2.4191  YYY=             59.8790  ZZZ=              0.7137  XYY=             -0.7975
  XXY=             30.2507  XXZ=             -9.9921  XZZ=              3.0362  YZZ=             -7.3091
  YYZ=              8.0319  XYZ=              0.6047
 Hexadecapole moment (field-independent basis, Debye-Ang**3):
 XXXX=          -2146.5017 YYYY=          -1003.4808 ZZZZ=           -122.4039 XXXY=             -3.0105
 XXXZ=              1.8958 YYYX=             15.4539 YYYZ=              3.7727 ZZZX=              0.3479
 ZZZY=              6.2094 XXYY=           -518.5983 XXZZ=           -330.7792 YYZZ=           -244.9304
 XXYZ=            -22.3097 YYXZ=             -4.5262 ZZXY=             -2.5956
 N-N= 9.037718126655D+02 E-N=-3.529117375966D+03  KE= 7.330631250545D+02
  Exact polarizability:   0.000   0.000   0.000   0.000   0.000   0.000
 Approx polarizability: 212.667   3.612 246.478  -1.881  25.246 105.885
 No NMR shielding tensors so no spin-rotation constants.
 Leave Link  601 at Thu Aug 26 12:39:23 2021, MaxMem= 24159191040 cpu:        19.2
 (Enter /public/home/users/caep010/software/Gaussian09/g09/l701.exe)
 Compute integral second derivatives.
 ... and contract with generalized density number  0.
 Leave Link  701 at Thu Aug 26 12:39:24 2021, MaxMem= 24159191040 cpu:        19.0
 (Enter /public/home/users/caep010/software/Gaussian09/g09/l702.exe)
 L702 exits ... SP integral derivatives will be done elsewhere.
 Leave Link  702 at Thu Aug 26 12:39:24 2021, MaxMem= 24159191040 cpu:         0.8
 (Enter /public/home/users/caep010/software/Gaussian09/g09/l703.exe)
 Compute integral second derivatives, UseDBF=F ICtDFT=           0.
 Integral derivatives from FoFJK, PRISM(SPDF).
 Calling FoFJK, ICntrl=    100147 FMM=F ISym2X=0 I1Cent= 0 IOpClX= 0 NMat=1 NMatS=1 NMatT=0.
 FoFJK:  IHMeth= 1 ICntrl=  100147 DoSepK=F KAlg= 0 I1Cent=   0 FoldK=F
 IRaf=         0 NMat=   1 IRICut=       1 DoRegI=T DoRafI=F ISym2E= 0.
 FoFCou: FMM=F IPFlag=           0 FMFlag=      100000 FMFlg1=         800
         NFxFlg=           0 DoJE=F BraDBF=F KetDBF=F FulRan=T
         wScrn=  0.000000 ICntrl=  100147 IOpCl=  0 I1Cent=           0 NGrid=           0
         NMat0=    1 NMatS0=      1 NMatT0=    0 NMatD0=    1 NMtDS0=    0 NMtDT0=    0
 Symmetry not used in FoFCou.
 Leave Link  703 at Thu Aug 26 12:40:30 2021, MaxMem= 24159191040 cpu:      2072.5
 (Enter /public/home/users/caep010/software/Gaussian09/g09/l716.exe)
 Dipole        =-9.87676383D-03 1.95807734D+00 8.41501987D-02
 Polarizability= 0.00000000D+00 0.00000000D+00 0.00000000D+00
                 0.00000000D+00 0.00000000D+00 0.00000000D+00
 ***** Axes restored to original set *****
 -------------------------------------------------------------------
 Center     Atomic                   Forces (Hartrees/Bohr)
 Number     Number              X              Y              Z
 -------------------------------------------------------------------
      1        8          -0.011094217    0.007829183   -0.005401872
      2        7           0.003903472   -0.001412995   -0.001072672
      3        6           0.008081552    0.001065015   -0.004402139
      4        6          -0.004146290    0.002236776   -0.000678450
      5        6           0.004511454   -0.003321469    0.006503380
      6        7           0.008911350   -0.005227029   -0.003998060
      7        8          -0.013491892    0.008603014    0.010779807
      8        6           0.052664681   -0.038202551    0.143051622
      9        6           0.003921356   -0.001712229   -0.010017468
     10        7           0.188301401   -0.034449207   -0.039003576
     11        1          -0.130782911   -0.014527867    0.180973107
     12        1          -0.064200738    0.049288499   -0.137192889
     13        6           0.087382303    0.039241832   -0.119444755
     14        1          -0.095021396   -0.040802666    0.132154905
     15        8           0.007815903   -0.006362940    0.004383708
     16        1          -0.058694507    0.041718020   -0.151166807
     17        6          -0.120861043   -0.004535351   -0.019424340
     18        1           0.020292042    0.026106260    0.120595545
     19        1           0.057845178   -0.111019265   -0.027297602
     20        8           0.004710015   -0.002684398   -0.005852976
     21        1           0.049952286    0.088169367   -0.073488467
 -------------------------------------------------------------------
 Cartesian Forces:  Max     0.188301401 RMS     0.066890120
 FormGI is forming the generalized inverse of G from B-inverse, IUseBI=4.
 Leave Link  716 at Thu Aug 26 12:40:30 2021, MaxMem= 24159191040 cpu:         1.2
 (Enter /public/home/users/caep010/software/Gaussian09/g09/l103.exe)

 GradGradGradGradGradGradGradGradGradGradGradGradGradGradGradGradGradGrad
 Berny optimization.
 Red2BG is reusing G-inverse.
 Internal  Forces:  Max     0.223685287 RMS     0.043410036
 Search for a local minimum.
 Step number   1 out of a maximum of  106
 All quantities printed in internal units (Hartrees-Bohrs-Radians)
 RMS Force = .43410D-01 SwitMx=.10000D-02 MixMth= 1
 Mixed Optimization -- RFO/linear search
 Second derivative matrix not updated -- analytic derivatives used.
 ITU=  0
     Eigenvalues ---    0.00110   0.00324   0.00464   0.00592   0.00658
     Eigenvalues ---    0.01523   0.01667   0.01897   0.02075   0.02146
     Eigenvalues ---    0.02267   0.02367   0.02545   0.02839   0.06162
     Eigenvalues ---    0.06216   0.11307   0.11463   0.11550   0.11776
     Eigenvalues ---    0.12125   0.13013   0.13347   0.15848   0.16137
     Eigenvalues ---    0.17316   0.17482   0.19424   0.20074   0.20344
     Eigenvalues ---    0.22523   0.23400   0.24065   0.24631   0.28287
     Eigenvalues ---    0.31769   0.32472   0.37800   0.39798   0.42145
     Eigenvalues ---    0.43990   0.46721   0.50553   0.50893   0.53755
     Eigenvalues ---    0.56259   0.63315   0.63936   0.71781   0.72211
     Eigenvalues ---    0.72414   0.82978   0.83694   0.85637   0.85883
     Eigenvalues ---    1.01635   1.22033
 RFO step:  Lambda=-1.68693982D-01 EMin= 1.10302581D-03
 Linear search not attempted -- first point.
 Maximum step size (   0.300) exceeded in Quadratic search.
    -- Step size scaled by   0.743
 Iteration  1 RMS(Cart)=  0.03285543 RMS(Int)=  0.00021021
 Iteration  2 RMS(Cart)=  0.00027618 RMS(Int)=  0.00000471
 Iteration  3 RMS(Cart)=  0.00000014 RMS(Int)=  0.00000470
 ITry= 1 IFail=0 DXMaxC= 1.20D-01 DCOld= 1.00D+10 DXMaxT= 3.00D-01 DXLimC= 3.00D+00 Rises=F
 Variable       Old X    -DE/DX   Delta X   Delta X   Delta X     New X
                                 (Linear)    (Quad)   (Total)
    R1        2.29856   0.01302   0.00000   0.00940   0.00940   2.30797
    R2        2.79173   0.00203   0.00000   0.00324   0.00324   2.79498
    R3        2.30352   0.00920   0.00000   0.00558   0.00558   2.30910
    R4        2.64067   0.00630   0.00000   0.00730   0.00730   2.64797
    R5        2.60453   0.00851   0.00000   0.01018   0.01018   2.61471
    R6        2.63011   0.00795   0.00000   0.01010   0.01010   2.64022
    R7        2.84734   0.00709   0.00000   0.00828   0.00828   2.85562
    R8        2.79356   0.00069   0.00000   0.00068   0.00068   2.79425
    R9        2.60338   0.00788   0.00000   0.00855   0.00855   2.61194
   R10        2.28886   0.01814   0.00000   0.01388   0.01388   2.30274
   R11        2.30882   0.00507   0.00000   0.00178   0.00178   2.31060
   R12        2.63443   0.00796   0.00000   0.00701   0.00700   2.64144
   R13        1.75563   0.16741   0.00000   0.12111   0.12111   1.87674
   R14        2.58935   0.00596   0.00000   0.00415   0.00415   2.59350
   R15        2.62387   0.01180   0.00000   0.01282   0.01282   2.63669
   R16        1.61709   0.22369   0.00000   0.11994   0.11994   1.73703
   R17        1.67377   0.15928   0.00000   0.10057   0.10057   1.77434
   R18        1.75600   0.16777   0.00000   0.12152   0.12152   1.87752
   R19        1.81558   0.12503   0.00000   0.10515   0.10515   1.92074
   R20        1.81335   0.12811   0.00000   0.10722   0.10722   1.92057
   R21        1.81413   0.12515   0.00000   0.10488   0.10488   1.91901
    A1        2.05880  -0.00552   0.00000  -0.00654  -0.00654   2.05226
    A2        2.15336   0.00968   0.00000   0.01168   0.01168   2.16503
    A3        2.07078  -0.00417   0.00000  -0.00517  -0.00517   2.06562
    A4        2.09700   0.00223   0.00000   0.00496   0.00496   2.10196
    A5        1.99848  -0.00084   0.00000  -0.00028  -0.00028   1.99820
    A6        2.18769  -0.00139   0.00000  -0.00468  -0.00468   2.18301
    A7        1.94920   0.00341   0.00000   0.00622   0.00622   1.95543
    A8        2.18331  -0.00171   0.00000  -0.00317  -0.00317   2.18014
    A9        2.14649  -0.00164   0.00000  -0.00287  -0.00287   2.14361
   A10        2.08760   0.00097   0.00000   0.00289   0.00288   2.09048
   A11        2.19501  -0.00061   0.00000  -0.00290  -0.00290   2.19211
   A12        2.00041  -0.00035   0.00000   0.00003   0.00003   2.00044
   A13        2.05993  -0.00500   0.00000  -0.00734  -0.00735   2.05258
   A14        2.05877  -0.00453   0.00000  -0.00437  -0.00437   2.05440
   A15        2.16431   0.00952   0.00000   0.01166   0.01166   2.17597
   A16        2.09514  -0.00126   0.00000   0.00093   0.00093   2.09606
   A17        2.09495  -0.00232   0.00000  -0.00817  -0.00817   2.08678
   A18        2.09310   0.00358   0.00000   0.00724   0.00724   2.10034
   A19        2.11770  -0.00033   0.00000   0.00009   0.00009   2.11779
   A20        2.04564   0.00293   0.00000   0.00262   0.00262   2.04826
   A21        2.11891  -0.00256   0.00000  -0.00259  -0.00259   2.11632
   A22        2.03737   0.00698   0.00000   0.01875   0.01875   2.05612
   A23        2.11444  -0.00483   0.00000  -0.00878  -0.00878   2.10566
   A24        2.08331  -0.00176   0.00000  -0.01034  -0.01034   2.07297
   A25        2.09363  -0.00307   0.00000  -0.00217  -0.00217   2.09146
   A26        2.09581  -0.00137   0.00000  -0.00592  -0.00593   2.08988
   A27        2.09375   0.00445   0.00000   0.00810   0.00810   2.10185
   A28        1.91061   0.00000   0.00000   0.00402   0.00400   1.91461
   A29        1.91099   0.00229   0.00000   0.00788   0.00787   1.91886
   A30        1.91119   0.00090   0.00000   0.00558   0.00556   1.91675
   A31        1.91063  -0.00167   0.00000  -0.00753  -0.00754   1.90308
   A32        1.90947   0.00068   0.00000  -0.00136  -0.00138   1.90809
   A33        1.91091  -0.00221   0.00000  -0.00860  -0.00862   1.90229
    D1       -2.66932  -0.00052   0.00000  -0.00087  -0.00088  -2.67020
    D2        0.47761  -0.00040   0.00000  -0.00033  -0.00033   0.47728
    D3        0.49539  -0.00007   0.00000   0.00027   0.00026   0.49565
    D4       -2.64087   0.00005   0.00000   0.00081   0.00081  -2.64005
    D5       -3.13652   0.00023   0.00000   0.00144   0.00145  -3.13508
    D6        0.10110  -0.00032   0.00000  -0.00054  -0.00054   0.10056
    D7       -0.00088   0.00010   0.00000   0.00085   0.00085  -0.00003
    D8       -3.04644  -0.00045   0.00000  -0.00113  -0.00113  -3.04758
    D9       -3.13880  -0.00060   0.00000  -0.00262  -0.00262  -3.14142
   D10        0.00358  -0.00061   0.00000  -0.00252  -0.00252   0.00106
   D11        0.00845  -0.00048   0.00000  -0.00208  -0.00208   0.00637
   D12       -3.13235  -0.00049   0.00000  -0.00198  -0.00198  -3.13433
   D13        3.11341   0.00045   0.00000   0.00106   0.00105   3.11446
   D14       -0.00746   0.00016   0.00000   0.00010   0.00010  -0.00736
   D15       -0.12185   0.00098   0.00000   0.00296   0.00296  -0.11889
   D16        3.04046   0.00068   0.00000   0.00200   0.00201   3.04247
   D17        2.58184   0.00129   0.00000   0.00416   0.00416   2.58600
   D18       -1.60676   0.00065   0.00000   0.00223   0.00223  -1.60453
   D19        0.48854  -0.00010   0.00000  -0.00005  -0.00005   0.48848
   D20       -0.45333   0.00042   0.00000   0.00150   0.00150  -0.45183
   D21        1.64126  -0.00022   0.00000  -0.00043  -0.00043   1.64083
   D22       -2.54664  -0.00097   0.00000  -0.00271  -0.00271  -2.54935
   D23        2.39909   0.00169   0.00000   0.00577   0.00577   2.40486
   D24       -0.76169   0.00076   0.00000   0.00309   0.00309  -0.75860
   D25       -0.76100   0.00195   0.00000   0.00658   0.00658  -0.75442
   D26        2.36140   0.00102   0.00000   0.00390   0.00390   2.36531
   D27        0.00807  -0.00005   0.00000   0.00018   0.00018   0.00824
   D28       -3.13474   0.00019   0.00000   0.00091   0.00090  -3.13383
   D29       -3.11371  -0.00035   0.00000  -0.00076  -0.00076  -3.11447
   D30        0.02667  -0.00011   0.00000  -0.00004  -0.00004   0.02663
   D31       -3.10354  -0.00032   0.00000  -0.00077  -0.00077  -3.10430
   D32       -0.00774   0.00056   0.00000   0.00220   0.00221  -0.00554
   D33        0.03727  -0.00031   0.00000  -0.00087  -0.00087   0.03639
   D34        3.13306   0.00058   0.00000   0.00210   0.00210   3.13516
   D35       -2.93591  -0.00050   0.00000   0.00109   0.00109  -2.93482
   D36       -0.12458   0.00055   0.00000  -0.00190  -0.00190  -0.12648
   D37        0.25340  -0.00157   0.00000  -0.00214  -0.00214   0.25127
   D38        3.06474  -0.00052   0.00000  -0.00513  -0.00513   3.05961
   D39        0.00013  -0.00032   0.00000  -0.00135  -0.00135  -0.00122
   D40       -3.14025  -0.00056   0.00000  -0.00207  -0.00207   3.14086
   D41        3.09589   0.00063   0.00000   0.00169   0.00169   3.09759
   D42       -0.04449   0.00039   0.00000   0.00098   0.00097  -0.04352
         Item               Value     Threshold  Converged?
 Maximum Force            0.223685     0.000450     NO 
 RMS     Force            0.043410     0.000300     NO 
 Maximum Displacement     0.119944     0.001800     NO 
 RMS     Displacement     0.032883     0.001200     NO 
 Predicted change in Energy=-8.638657D-02
 Lowest energy point so far.  Saving SCF results.
 GradGradGradGradGradGradGradGradGradGradGradGradGradGradGradGradGradGrad

 Leave Link  103 at Thu Aug 26 12:40:30 2021, MaxMem= 24159191040 cpu:         7.2
 (Enter /public/home/users/caep010/software/Gaussian09/g09/l202.exe)
                          Input orientation:                          
 ---------------------------------------------------------------------
 Center     Atomic      Atomic             Coordinates (Angstroms)
 Number     Number       Type             X           Y           Z
 ---------------------------------------------------------------------
      1          8           0        8.801329    2.215309   12.423768
      2          7           0        9.320103    1.479658   13.249190
      3          6           0        8.520298    1.112264   14.437841
      4          6           0        9.152207    0.781688   15.644035
      5          6           0        8.233549    0.456304   16.645135
      6          7           0        8.717545    0.046310   17.980824
      7          8           0        8.136916    0.494549   18.953877
      8          6           0        7.151782    1.123458   14.234113
      9          6           0        6.284727    0.794775   15.280054
     10          7           0        4.925425    0.755518   15.094855
     11          1           0        4.392370    0.699241   15.841583
     12          1           0        4.543717    1.046902   14.288006
     13          6           0        6.858366    0.456943   16.506271
     14          1           0        6.284647    0.216219   17.280884
     15          8           0       10.443521    1.011917   13.138513
     16          1           0        6.791315    1.365511   13.340928
     17          6           0       10.638603    0.881420   15.897390
     18          1           0       10.805256    1.107310   16.874267
     19          1           0       11.087376   -0.004332   15.680701
     20          8           0        9.655993   -0.735945   18.030035
     21          1           0       11.039855    1.607282   15.311429
 ---------------------------------------------------------------------
                    Distance matrix (angstroms):
                    1          2          3          4          5
     1  O    0.000000
     2  N    1.221323   0.000000
     3  C    2.313476   1.479039   0.000000
     4  C    3.542386   2.500127   1.401247   0.000000
     5  C    4.608298   3.709488   2.320487   1.397143   0.000000
     6  N    5.965940   4.980554   3.705117   2.488030   1.478651
     7  O    6.785631   5.908793   4.574182   3.473949   2.311080
     8  C    2.681509   2.408022   1.383643   2.471110   2.725499
     9  C    4.063197   3.715775   2.409959   2.890518   2.403314
    10  N    4.928318   4.821209   3.671791   4.262390   3.665595
    11  H    5.780903   5.622465   4.379598   4.764648   3.931841
    12  H    4.792475   4.907167   3.979940   4.811168   4.418114
    13  C    4.851163   4.208881   2.733106   2.471966   1.382177
    14  H    5.824227   5.202387   3.726114   3.349915   2.063986
    15  O    2.157732   1.221924   2.323167   2.828098   4.181994
    16  H    2.367170   2.533025   2.063186   3.349472   3.718129
    17  C    4.149805   3.018161   2.582786   1.511128   2.554238
    18  H    5.005030   3.935163   3.340244   2.086161   2.662702
    19  H    4.556362   3.352272   3.062903   2.089031   3.047399
    20  O    6.393010   5.279981   4.196372   2.872283   2.315761
    21  H    3.703955   2.688246   2.712262   2.086971   3.313439
                    6          7          8          9         10
     6  N    0.000000
     7  O    1.218557   0.000000
     8  C    4.201155   4.862324   0.000000
     9  C    3.711194   4.125253   1.397788   0.000000
    10  N    4.817880   5.027309   2.415145   1.372422   0.000000
    11  H    4.869272   4.873387   3.221533   1.976223   0.919194
    12  H    5.662061   5.914941   2.609746   2.019615   0.938941
    13  C    2.408209   2.761681   2.386009   1.395278   2.411951
    14  H    2.537278   2.511429   3.295120   2.082797   2.630029
    15  O    5.230617   6.277464   3.471069   4.682832   5.860238
    16  H    5.194159   5.837330   0.993129   2.083886   2.632469
    17  C    2.954415   3.968655   3.870787   4.398278   5.770643
    18  H    2.590120   3.438066   4.507609   4.803579   6.153249
    19  H    3.302912   4.434837   4.342053   4.885133   6.236203
    20  O    1.222714   2.162220   4.912990   4.612042   5.763508
    21  H    3.867224   4.788806   4.063472   4.824147   6.177270
                   11         12         13         14         15
    11  H    0.000000
    12  H    1.599180   0.000000
    13  C    2.565474   3.259809   0.000000
    14  H    2.426027   3.560644   0.993542   0.000000
    15  O    6.634816   6.010844   4.950063   5.923563   0.000000
    16  H    3.528757   2.459709   3.293841   4.135316   3.674862
    17  C    6.249138   6.305961   3.852416   4.616652   2.768842
    18  H    6.508307   6.774900   4.017006   4.625504   3.754438
    19  H    6.733796   6.772309   4.333459   5.067093   2.812478
    20  O    5.878334   6.581542   3.401699   3.582432   5.253781
    21  H    6.730131   6.600094   4.498419   5.331586   2.330588
                   16         17         18         19         20
    16  H    0.000000
    17  C    4.644509   0.000000
    18  H    5.353772   1.016410   0.000000
    19  H    5.080074   1.016320   1.655276   0.000000
[...]
 00082263,0.00284385,0.00341850,0.00244176,-0.00075377,-0.00048381,-0.0
 0236056,-0.00143865,0.00350943,0.00475374,0.00079118,0.00024608,0.0012
 7364,-0.00000973,0.00010914,-0.00066480,-0.01648493,0.00549515,0.00379
 207,0.02170586,-0.04633790,0.02431720,-0.11387820,0.16982180,0.0000445
 8,-0.00034035,0.00043872,0.00164953,0.00066058,-0.00049373,-0.00472103
 ,0.00504668,-0.00802002,-0.00165398,-0.00215883,0.00628197,0.00844692,
 0.00186939,-0.00614204,-0.00122887,-0.00031124,0.00050249,-0.00011305,
 0.00020215,-0.00038703,0.03921510,0.00267990,0.00955227,-0.01928279,0.
 01840516,-0.11580795,-0.04934188,-0.20045096,0.72950137,0.00006095,0.0
 0004847,-0.00007780,-0.00057124,-0.00011813,-0.00005698,0.00020059,-0.
 00100807,0.00145736,0.00041296,0.00020202,-0.00030979,-0.00066584,-0.0
 0056067,-0.00018012,-0.00021950,0.00017758,-0.00011783,0.00021315,-0.0
 0006266,0.00009395,-0.00503504,0.00123910,-0.00315472,-0.02254729,0.00
 203780,0.03247570,-0.18082601,0.02023994,0.17393416,0.19576359,0.00008
 673,0.00002795,-0.00014469,-0.00029764,-0.00006989,0.00012657,-0.00168
 675,0.00156724,0.00053584,0.00038523,-0.00025186,0.00058238,0.00018025
 ,-0.00076751,-0.00032435,0.00002419,0.00014609,-0.00060588,-0.00012719
 ,-0.00011054,0.00029193,0.00089485,0.00251366,-0.00111674,-0.01349044,
 -0.00597384,0.00189648,0.04597984,-0.00944068,-0.02602934,-0.02074527,
 0.01476594,-0.00000989,-0.00000255,0.00005574,-0.00012110,-0.00004400,
 -0.00010007,-0.00004161,0.00035785,0.00040291,-0.00016934,0.00005296,0
 .00019837,0.00044595,0.00057361,-0.00013255,-0.00029038,0.00004033,0.0
 0033074,0.00019856,0.00000751,-0.00024927,-0.00235730,-0.00022943,0.00
 057466,-0.00494968,-0.00195600,0.00783720,0.18393329,0.00279132,-0.329
 47664,-0.19135495,0.00739476,0.33736586,0.00026074,-0.00005503,0.00002
 479,-0.00028485,0.00016721,0.00002020,-0.00055436,-0.00035752,-0.00017
 237,0.00023789,0.00000847,0.00043837,0.00071030,-0.00007399,-0.0016577
 4,-0.00055645,-0.00010869,-0.00012581,0.00003372,0.00000580,0.00007803
 ,0.00265219,0.00000927,-0.00191605,-0.01370678,0.02099648,-0.03105282,
 -0.11055001,0.07682219,-0.09566975,0.01014546,-0.01347743,0.01690022,0
 .11783258,0.00001591,-0.00001361,-0.00013397,-0.00020207,-0.00005436,0
 .00030452,0.00036694,-0.00045891,0.00021135,0.00035719,0.00015158,-0.0
 0055822,-0.00138695,0.00173342,0.00004858,-0.00024827,-0.00001261,-0.0
 0015057,0.00003976,-0.00003502,0.00009481,0.00004282,0.00024563,-0.001
 24087,-0.01076951,-0.00245853,-0.00912463,0.09624019,-0.13041631,0.202
 03130,-0.00126631,-0.00158483,-0.00782810,-0.08366428,0.13219245,-0.00
 007802,0.00014959,-0.00039372,0.00003787,-0.00027363,0.00059648,-0.000
 36344,-0.00087739,-0.00055288,0.00045559,-0.00009811,-0.00003006,-0.00
 074950,0.00048576,-0.00027290,-0.00015640,0.00006152,-0.00017206,0.000
 03157,-0.00005669,0.00014589,0.00326799,-0.00077515,0.00109705,-0.0076
 6222,0.00088994,-0.00451946,-0.09226838,0.16732711,-0.27871370,-0.0135
 9126,0.01644545,-0.01784729,0.11019566,-0.18458800,0.29780793,0.000034
 53,-0.00041944,0.00017442,-0.00057466,0.00121221,-0.00340660,-0.038948
 84,0.00845635,-0.02801706,-0.03608139,-0.01864865,0.05657608,-0.334478
 25,-0.00101256,-0.03898772,-0.01320423,0.00550431,-0.02934597,-0.00813
 668,0.00103041,0.00375529,0.05467905,0.00224951,-0.00156506,-0.1508108
 6,0.00256111,-0.03103373,-0.03021782,0.01146490,-0.05067882,0.00289277
 ,0.00149576,-0.00246305,-0.00606896,-0.00038586,0.00061069,0.71068635,
 0.00002553,0.00008894,0.00020464,0.00021711,-0.00129439,-0.00020373,0.
 00456727,-0.00476407,0.00416202,-0.00698900,0.00967306,-0.00547415,-0.
 01752313,-0.05863160,0.00940765,0.01254438,-0.00030880,0.00543947,-0.0
 0018392,0.00078343,-0.00069991,-0.00629033,0.00263321,0.01486181,0.023
 40613,-0.08213625,0.05745602,0.00184256,0.00896277,0.00075269,-0.00120
 616,-0.00046103,-0.00029752,-0.00032668,0.00139138,0.00048079,0.031231
 15,0.16899753,0.00113216,-0.00023454,-0.00015524,-0.00164776,0.0000499
 1,-0.00163123,-0.02230234,0.00578021,-0.02105738,0.01727421,-0.0074302
 5,0.03760512,0.01319991,0.01117754,-0.10984753,-0.03857656,-0.00108461
 ,-0.01271952,-0.00496503,0.00283356,-0.00409202,0.02755008,0.01563869,
 -0.04342042,-0.09419913,0.05669616,-0.27497518,-0.01746308,-0.00045124
 ,-0.00902785,0.00190872,0.00052472,0.00156304,0.00152791,0.00131542,0.
 00273064,-0.01250850,-0.15625732,0.67534809,0.00013865,-0.00009195,0.0
 0011071,-0.00012550,0.00019213,-0.00011778,-0.00050655,0.00017921,-0.0
 0088625,-0.00497141,0.00038591,-0.00255810,-0.01402222,-0.00806911,0.0
 2484764,-0.00197824,0.00094296,0.00552372,0.00245992,0.00003494,-0.002
 44515,-0.00069528,0.00068260,-0.00290563,0.01017052,0.00321085,-0.0112
 7677,0.00171176,-0.00006933,-0.00026508,-0.00007802,0.00023913,0.00036
 951,0.00006458,0.00001737,0.00016472,-0.15030577,-0.03939560,0.1271088
 2,0.15707315,-0.00018567,0.00005905,-0.00000552,-0.00008979,-0.0005411
 9,0.00009770,0.00046252,-0.00012379,-0.00005423,0.00010608,0.00468624,
 0.00074834,0.00011137,0.00333753,0.00214736,-0.00020322,-0.00379843,-0
 .00202624,0.00018722,0.00009811,-0.00031197,0.00046219,0.00488258,0.00
 261313,-0.00526763,0.00388164,0.00499716,-0.00051142,-0.00266695,-0.00
 060869,0.00086958,0.00024122,-0.00029665,0.00017375,-0.00061899,-0.000
 11459,-0.04078978,-0.05436018,0.06130845,0.04301713,0.04515399,0.00016
 931,-0.00006228,0.00018244,0.00006445,0.00014039,-0.00049159,-0.001609
 31,-0.00006207,-0.00014906,-0.00187380,0.00106481,0.00136153,-0.001048
 79,-0.00067828,0.00579800,-0.00028402,-0.00079925,-0.00064005,-0.00299
 717,0.00074652,-0.00343451,-0.00254866,0.00217949,-0.00326558,0.016939
 12,0.00617829,-0.01439006,0.00128637,-0.00132684,0.00174192,-0.0013026
 1,0.00050965,-0.00055557,-0.00006155,-0.00015723,0.00025759,0.12957544
 ,0.06202418,-0.22990555,-0.13776202,-0.06886114,0.24363476,-0.04388274
 ,0.06056201,-0.02853425,-0.46248984,0.17441209,0.06761570,-0.04475476,
 0.01814730,0.02836726,-0.00670973,0.00141114,-0.00270042,0.00029786,-0
 .00147785,0.00017315,-0.00282446,0.00145246,-0.00128010,0.00083094,-0.
 00047028,0.00054361,0.00351129,-0.00142257,0.00404017,-0.00039260,-0.0
 0260192,0.00186020,-0.00054433,-0.00032084,0.00021586,-0.00003767,0.00
 006808,-0.00002625,0.00021802,0.00016418,-0.00002050,-0.00109923,0.000
 24520,-0.00014846,0.00009050,0.00016469,-0.00001137,0.55166996,0.07498
 942,-0.02701901,0.01703572,0.16934688,-0.16548561,-0.00834941,0.010734
 81,0.01538224,-0.00113368,-0.00044603,-0.00033420,0.00257728,0.0013406
 9,-0.00018240,-0.00118029,0.00051254,-0.00037790,-0.00007797,-0.000196
 35,0.00013031,0.00007613,0.00023660,0.00255469,-0.00052964,0.00025105,
 -0.00073953,0.00050320,-0.00023242,-0.00015548,-0.00040402,0.00007991,
 -0.00002974,0.00000879,-0.00009917,-0.00000886,0.00011553,-0.00096063,
 0.00022223,-0.00021308,-0.00006867,-0.00005164,-0.00011061,-0.25231042
 ,0.17562695,-0.05323069,0.02720091,0.02823542,0.08017734,-0.00951401,-
 0.13006006,0.03972785,-0.00914397,0.00581048,-0.00132151,-0.00069310,0
 .00003730,-0.00060382,-0.00095093,0.00056904,-0.00012218,-0.00018122,0
 .00107946,0.00006597,0.00005935,-0.00062352,-0.00047832,0.00169350,-0.
 00691582,0.00073580,0.00017127,0.00021463,0.00136359,0.00058927,-0.000
 30564,0.00009222,-0.00005284,0.00008407,-0.00011535,-0.00012545,-0.000
 20042,0.00112080,-0.00006941,0.00043983,0.00003275,0.00008859,0.000079
 06,-0.06716021,-0.00770427,0.11475377,0.00085409,-0.00164222,0.0030603
 9,-0.00071974,0.00384191,-0.00426144,-0.00687940,0.00765415,-0.0281686
 8,-0.00564860,-0.00056915,0.00070761,-0.00109686,-0.00027400,0.0005982
 7,-0.00017086,0.00009599,0.00030643,0.00022456,-0.00002292,-0.00013591
 ,-0.09218336,0.02600129,-0.08947916,0.01002256,-0.00526440,0.01754547,
 0.00199695,-0.00019693,0.00020844,0.00008705,0.00013959,-0.00016411,-0
 .00039491,0.00044585,-0.00012554,-0.00221422,-0.00123222,0.00319221,0.
 00051989,-0.00019759,0.00078178,0.00091936,-0.00128832,0.00020613,0.09
 479493,-0.00206613,-0.00052225,0.00144367,-0.00049441,-0.00439467,-0.0
 0005408,0.00103613,0.00419924,-0.00084010,-0.00050277,0.00463555,0.001
 02757,-0.00043115,-0.00012976,-0.00013283,-0.00004454,-0.00042119,-0.0
 0007792,-0.00005392,0.00007020,-0.00007486,0.02602882,-0.05472276,0.07
 111434,0.00274564,0.00359486,0.00656654,0.00044782,-0.00225182,-0.0019
 0940,0.00015478,-0.00050057,-0.00032463,-0.00013200,0.00007577,0.00072
 019,-0.00111656,0.00480637,0.00206482,0.00016694,-0.00065162,0.0000425
 3,0.00176523,-0.00032448,-0.00023154,-0.02770052,0.04607942,0.00353295
 ,0.00042082,-0.00121070,-0.00008065,-0.00056659,-0.00130402,-0.0018096
 8,0.00178160,-0.00220655,-0.00003993,0.00073866,0.00208855,0.00135888,
 -0.00014150,0.00044676,-0.00000128,-0.00006557,-0.00056594,-0.00023140
 ,-0.00000181,0.00008532,-0.09235195,0.07057722,-0.28766064,-0.01080836
 ,0.00544623,-0.01395536,-0.00128321,-0.00121768,0.00104162,0.00011310,
 -0.00030437,0.00011673,0.00156249,-0.00009295,-0.00007307,0.00280385,0
 .00251213,-0.00166974,-0.00049247,-0.00006230,-0.00060917,0.00030081,0
 .00025245,0.00035412,0.09721185,-0.07952222,0.30498544,-0.00062019,0.0
 0097049,-0.00040914,-0.00064942,-0.00041262,0.00216295,-0.01310515,0.0
 0024225,-0.01357414,-0.19255953,-0.00702705,-0.01596614,-0.02235829,-0
 .00556077,0.00581794,0.00023269,0.00059730,-0.00198344,-0.00080872,0.0
 0060144,0.00058391,0.00219594,-0.00115500,0.00094965,-0.00078539,0.000
 08745,-0.00009785,-0.00019915,-0.00000412,-0.00004775,-0.00004039,0.00
 003146,0.00002678,-0.00005731,0.00004395,-0.00001614,0.00217768,-0.000
 89064,0.00038087,0.00004467,0.00007651,-0.00005305,-0.00102575,-0.0005
 7469,-0.00078534,0.00038490,0.00001145,0.00009669,0.47042602,-0.000168
 88,0.00175923,0.00087231,0.00257144,-0.00592557,-0.00227567,0.00642167
 ,0.00336086,0.00225290,-0.01804491,-0.06871989,0.00279122,-0.00813308,
 0.00497533,-0.00354749,0.00310562,-0.00698124,-0.00041019,-0.00018064,
 0.00187228,-0.00007960,-0.00000642,0.00439122,0.00198303,-0.00025387,-
 0.00105671,-0.00039387,0.00077943,0.00018328,0.00010889,0.00005602,-0.
 00013323,-0.00012621,-0.00001692,-0.00018301,0.00003971,-0.00043005,0.
 00412886,0.00360200,-0.00050483,0.00069916,0.00003856,-0.00210751,-0.0
 0057786,-0.00168891,0.00028936,0.00059555,0.00023014,0.00119931,0.5506
 5079,-0.00042211,0.00024800,0.00049416,0.00222687,-0.00251907,-0.00115
 575,-0.02864021,0.00006728,0.00145750,-0.01923915,0.00422625,-0.087299
 12,0.02195512,-0.00183168,0.00909323,-0.00041686,-0.00088186,-0.000982
 45,0.00002723,0.00079534,0.00056958,0.00056542,0.00309687,-0.00447096,
 -0.00019879,-0.00035002,0.00003118,0.00018492,0.00000693,0.00018454,-0
 .00008215,-0.00003197,-0.00004930,0.00008201,-0.00004985,0.00001741,0.
 00124217,0.00227871,-0.00418929,0.00134135,0.00003994,0.00030824,-0.00
 390712,0.00043567,-0.00810293,-0.00138776,0.00026831,0.00007199,-0.016
 47965,-0.01437069,0.59319642,0.00045298,-0.00035961,-0.00008737,-0.001
 47750,0.00007173,0.00096631,-0.00454104,-0.00147642,0.00139706,-0.0096
 3532,-0.00728616,-0.03312617,0.00185875,0.00059998,-0.00043972,-0.0038
 3876,-0.00031428,0.00017842,0.00046404,-0.00021473,0.00007937,-0.00034
 373,0.00109350,-0.00101315,0.00053356,-0.00014521,0.00014820,-0.000540
 86,-0.00020616,-0.00007608,0.00000142,0.00005777,-0.00005942,0.0000362
 7,0.00003031,0.00008222,-0.00058192,0.00062796,-0.00039292,0.00002915,
 0.00002255,-0.00002390,0.00156644,-0.00006611,0.00071712,-0.00047403,0
 .00015469,0.00002989,-0.05597458,-0.01275917,-0.04636061,0.06594887,0.
 00003395,-0.00031341,-0.00011794,-0.00080704,0.00048633,0.00027742,-0.
 00030396,0.00058776,-0.00016853,0.00266227,-0.00194471,-0.00054626,0.0
 0014585,-0.00013126,0.00075874,-0.00502446,0.00229595,-0.00068662,0.00
 109428,-0.00087790,-0.00045197,0.00026528,0.00020236,0.00028956,0.0001
 9916,-0.00002478,0.00050092,-0.00042723,-0.00018212,-0.00013792,0.0000
 0869,0.00006703,-0.00003537,0.00000459,0.00003330,0.00006223,-0.000523
 86,0.00028799,-0.00034072,-0.00003235,-0.00005279,-0.00005210,0.000888
 82,0.00069533,0.00055074,0.00000518,-0.00005165,0.00000069,-0.01465724
 ,-0.05964925,-0.06077184,0.01390692,0.06059862,-0.00045878,0.00070085,
 -0.00014266,0.00186869,-0.00105156,-0.00018107,0.00025588,-0.00116855,
 0.00080725,-0.00260022,0.00032634,-0.00267017,0.00078472,0.00182575,-0
 .00094336,0.00190665,0.00128656,0.00114218,0.00016327,-0.00085523,-0.0
 0064466,0.00008036,-0.00012742,-0.00022721,0.00011063,-0.00006847,0.00
 006526,0.00000308,0.00001993,0.00003447,-0.00000163,-0.00000573,-0.000
 00092,0.00001517,0.00000059,-0.00001090,-0.00025369,-0.00013289,0.0001
 6479,-0.00005763,-0.00000162,-0.00002997,-0.00163622,0.00015354,-0.001
 16050,-0.00001819,0.00005731,0.00002518,-0.04957789,-0.06327561,-0.297
 18885,0.05137934,0.06543128,0.32383339,0.00042692,-0.00022782,-0.00023
 788,-0.00169895,0.00155591,0.00085321,-0.00008243,-0.00053689,0.000913
 73,-0.01953027,0.02600341,0.00530140,-0.00011995,-0.00015734,-0.000921
 19,-0.00208853,0.00221373,-0.00042446,0.00053785,-0.00046625,0.0001283
 9,-0.00106838,-0.00110808,-0.00014907,0.00085103,0.00037743,0.00015632
 ,-0.00088860,-0.00032083,-0.00020125,0.00003228,0.00012693,-0.00000778
 ,0.00002313,0.00010167,0.00008326,-0.00090671,-0.00102390,-0.00066329,
 -0.00013066,-0.00013177,-0.00004707,0.00078752,-0.00093741,-0.00017153
 ,-0.00011853,-0.00013122,-0.00006081,-0.09755694,0.10759237,0.02445600
 ,0.00297575,-0.00536874,-0.00093062,0.11138319,-0.00043299,0.00028434,
 -0.00020734,0.00089347,-0.00022111,-0.00029061,-0.00018169,0.00043807,
 -0.00098361,0.00082200,0.00612323,0.00221506,-0.00110539,-0.00060894,0
 .00127745,-0.00040406,0.00034321,-0.00005655,-0.00011399,-0.00010825,0
 .00012135,0.00007042,-0.00033389,0.00013507,-0.00002348,0.00002467,-0.
 00014718,-0.00014055,-0.00002775,-0.00000441,-0.00001178,0.00001763,0.
 00000687,-0.00000519,0.00002258,0.00000384,0.00032020,-0.00041151,-0.0
 0012866,0.00000969,0.00000227,0.00003420,-0.00099699,0.00047442,-0.000
 71279,0.00004005,0.00000985,-0.00001812,0.10508369,-0.24742917,-0.0478
 4040,0.00254149,-0.00665359,-0.00058765,-0.11560306,0.26727123,0.00059
 454,-0.00050784,-0.00004810,-0.00241837,0.00108190,0.00081744,-0.00108
 018,-0.00028633,-0.00136221,-0.00217315,0.00549677,0.00037077,0.000896
 84,0.00065756,-0.00027795,0.00187324,-0.00100219,0.00064223,-0.0006605
 0,0.00040307,0.00023383,0.00032526,-0.00043626,-0.00030745,0.00003748,
 -0.00009483,0.00048671,-0.00014784,-0.00002794,-0.00010211,0.00001200,
 0.00002881,0.00000274,-0.00000938,0.00001391,0.00000695,-0.00038918,0.
 00011383,-0.00039155,0.00003080,-0.00002862,-0.00000492,0.00111701,-0.
 00016848,0.00016485,-0.00004585,0.00000394,-0.00002465,0.02371080,-0.0
 4751328,-0.05115416,0.01411241,-0.02684815,-0.00651139,-0.02528835,0.0
 5177638,0.05417753,0.00092913,-0.00023625,-0.00034852,-0.00304524,0.00
 083865,0.00088048,0.00025660,-0.00117927,-0.00118259,-0.00731890,0.000
 00980,0.00131806,-0.02786513,0.03005804,-0.02392364,-0.43169927,0.1999
 3752,-0.03691005,-0.06836527,0.04864209,0.03973518,-0.00073127,0.00021
 098,-0.00004250,0.00038119,-0.00105078,-0.00283003,-0.00013345,-0.0000
 3337,-0.00026524,0.00015830,0.00005564,0.00017584,-0.00002507,0.000044
 87,0.00003010,0.00380188,0.00004422,-0.00172990,0.00096416,0.00153164,
 0.00085477,0.00203554,-0.00037821,0.00006620,0.00008784,0.00015598,0.0
 0011017,-0.00228820,-0.00501520,0.00307999,0.00143279,0.00233001,0.001
 99992,0.00111315,-0.00042806,-0.00135881,0.52917826,-0.00026718,-0.000
 00623,0.00029960,0.00072456,-0.00014943,-0.00063390,0.00063229,-0.0009
 0096,0.00044920,0.00001712,0.00068714,-0.00247303,0.03204472,0.0034146
 9,0.01137669,0.20285600,-0.19066000,0.03342444,0.04466583,0.00388609,-
 0.02329266,-0.00011795,0.00015632,-0.00001378,0.00073515,-0.00011676,-
 0.00036766,0.00042045,-0.00014376,0.00066788,-0.00015179,-0.00006625,-
 0.00007689,0.00013259,-0.00002802,-0.00004711,-0.00156345,0.00028806,0
 .00522277,-0.00087839,-0.00016101,-0.00083306,-0.00050128,0.00017212,0
 .00030874,-0.00005626,-0.00002962,0.00002533,-0.00159542,-0.00298233,0
 .00214120,-0.00101250,-0.00171512,0.00261933,-0.00094343,0.00006690,-0
 .00006819,-0.27520741,0.18782015,0.00020107,0.00028467,-0.00058496,-0.
 00059007,-0.00039311,0.00107144,0.00096934,-0.00038382,0.00132943,-0.0
 0060949,0.00103948,-0.00037534,-0.03689267,0.02009887,0.00088757,-0.05
 010625,0.03486904,-0.13567452,0.06752912,-0.03482535,0.02181847,-0.001
 76728,0.00004237,0.00013803,-0.00032957,-0.00064013,-0.00118202,-0.001
 25197,-0.00039633,-0.00072771,0.00013104,0.00022545,-0.00008340,-0.000
 05876,0.00000154,0.00006975,0.00280303,0.00299183,-0.00493911,-0.00067
 133,0.00036298,0.00014442,0.00037106,0.00006084,-0.00056025,-0.0000662
 9,-0.00011581,0.00005968,0.00142905,0.00362057,-0.00443572,0.00129419,
 0.00167430,-0.00174944,-0.00020596,0.00053553,0.00024644,0.01792050,-0
 .02952730,0.12504706,0.00041352,-0.00034521,-0.00005459,-0.00270355,0.
 00033131,-0.00117252,0.00167901,0.00034346,0.00158247,-0.01705995,-0.0
 2261418,0.02040901,-0.00369759,-0.00033072,-0.00321779,-0.00068503,0.0
 0035658,-0.00104282,0.00030359,-0.00021778,0.00007992,-0.00068332,0.00
 033862,0.00041856,0.00055320,-0.00010085,-0.00005896,-0.00047893,-0.00
 014885,-0.00016901,0.00005249,0.00005927,-0.00003529,-0.00001617,0.000
 01224,0.00007174,-0.00064271,0.00031007,0.00132209,-0.00045330,0.00019
 163,-0.00004792,0.00183368,0.00006652,-0.00031681,0.00000837,0.0000057
 2,0.00003906,-0.08743289,-0.07439374,0.06197333,0.00210773,0.00559987,
 -0.00303283,0.00605910,0.00966624,-0.00913877,0.00113294,0.00006636,-0
 .00009877,0.09970980,0.00085578,-0.00145500,0.00018780,-0.00301984,0.0
 0243838,0.00070892,0.00038144,0.00075440,0.00041173,0.00163538,-0.0006
 7500,-0.00049710,0.00024167,0.00006452,-0.00012659,0.00044318,-0.00012
 892,-0.00004073,-0.00029159,0.00004273,0.00015287,-0.00056855,0.000052
 50,0.00007966,0.00029213,0.00018626,-0.00034187,-0.00032255,-0.0001346
 5,-0.00006948,0.00001695,0.00004322,-0.00001666,-0.00000346,0.00002693
 ,0.00004903,0.00032494,0.00010397,-0.00007381,0.00003139,-0.00001519,-
 0.00001577,0.00292845,0.00002841,0.00040606,-0.00006883,-0.00006642,0.
 00000784,-0.07706775,-0.17897829,0.11504290,0.00473343,0.00634192,-0.0
 0514676,-0.01101471,-0.01928419,0.01740594,-0.00033089,0.00046802,0.00
 047437,0.08080344,0.19018638,0.00060604,0.00026389,-0.00001674,-0.0052
 9369,-0.00021340,-0.00013619,0.00023574,-0.00060127,-0.00164925,0.0000
 3500,-0.00582635,0.00348533,-0.00155915,0.00064626,0.00048676,-0.00218
 002,0.00139204,-0.00035808,0.00054593,-0.00070777,-0.00034926,-0.00033
 218,0.00014025,0.00050167,0.00019761,0.00013168,-0.00016578,-0.0003654
 9,-0.00017600,-0.00007494,0.00001160,0.00005386,-0.00003704,-0.0000052
 7,0.00002784,0.00005677,-0.00001239,0.00044917,0.00017012,-0.00009180,
 -0.00003208,-0.00003196,0.00082010,-0.00134771,-0.00389288,0.00003436,
 -0.00002583,0.00000445,0.06383190,0.11814221,-0.14639573,0.01119480,0.
 02061156,-0.01461141,-0.00258305,-0.00512844,0.00303500,0.00242007,0.0
 0079839,-0.00049981,-0.06751010,-0.12859832,0.16047897\\0.00000082,0.0
 0000139,-0.00000290,-0.00000108,0.00000055,0.00000150,0.00000047,0.000
 00007,-0.00000074,-0.00000171,-0.00000286,-0.00000179,0.00000019,-0.00
 000044,0.00000094,0.00000039,0.00000263,-0.00000208,-0.00000218,0.0000
 0104,0.00000601,0.00000995,-0.00000799,0.00003452,-0.00000745,-0.00000
 234,-0.00000668,0.00000891,-0.00000374,0.00002554,0.00000359,-0.000000
 57,-0.00000726,-0.00000517,0.00000912,-0.00001352,0.00001990,0.0000080
 6,-0.00002495,-0.00002152,-0.00000874,0.00002889,0.00000198,-0.0000009
 5,-0.00000138,-0.00001235,0.00000985,-0.00003510,0.00001926,0.00000927
 ,0.00000930,-0.00000355,-0.00000691,-0.00002237,-0.00000610,0.00001170
 ,0.00000264,0.00000305,-0.00000226,-0.00000360,-0.00000741,-0.00001686
 ,0.00001305\\\@
 Job cpu time:       1 days  6 hours 58 minutes 20.9 seconds.
 File lengths (MBytes):  RWF= 190315 Int=      0 D2E=      0 Chk=    147 Scr=      1
 Normal termination of Gaussian 09 at Thu Aug 26 23:32:16 2021.
