 Entering Gaussian System, Link 0=g09
 Input=G4.JERVUY.gjf
 Output=G4.JERVUY.log
 Initial command:
 /public/home/users/caep010/software/Gaussian09/g09/l1.exe "/public/home/users/caep010/.cache/gau_scr/Gau-156981.inp" -scrdir="/public/home/users/caep010/.cache/gau_scr/"
 Entering Link 1 = /public/home/users/caep010/software/Gaussian09/g09/l1.exe PID=    156982.
  
 Copyright (c) 1988,1990,1992,1993,1995,1998,2003,2009,2015,
            Gaussian, Inc.  All Rights Reserved.
  
 This is part of the Gaussian(R) 09 program.  It is based on
 the Gaussian(R) 03 system (copyright 2003, Gaussian, Inc.),
 the Gaussian(R) 98 system (copyright 1998, Gaussian, Inc.),
 the Gaussian(R) 94 system (copyright 1995, Gaussian, Inc.),
 the Gaussian 92(TM) system (copyright 1992, Gaussian, Inc.),
 the Gaussian 90(TM) system (copyright 1990, Gaussian, Inc.),
 the Gaussian 88(TM) system (copyright 1988, Gaussian, Inc.),
 the Gaussian 86(TM) system (copyright 1986, Carnegie Mellon
 University), and the Gaussian 82(TM) system (copyright 1983,
 Carnegie Mellon University). Gaussian is a federally registered
 trademark of Gaussian, Inc.
  
 This software contains proprietary and confidential information,
 including trade secrets, belonging to Gaussian, Inc.
  
 This software is provided under written license and may be
 used, copied, transmitted, or stored only in accord with that
 written license.
  
 The following legend is applicable only to US Government
 contracts under FAR:
  
                    RESTRICTED RIGHTS LEGEND
  
 Use, reproduction and disclosure by the US Government is
 subject to restrictions as set forth in subparagraphs (a)
 and (c) of the Commercial Computer Software - Restricted
 Rights clause in FAR 52.227-19.
  
 Gaussian, Inc.
 340 Quinnipiac St., Bldg. 40, Wallingford CT 06492
  
  
 ---------------------------------------------------------------
 Warning -- This program may not be used in any manner that
 competes with the business of Gaussian, Inc. or will provide
 assistance to any competitor of Gaussian, Inc.  The licensee
 of this program is prohibited from giving any competitor of
 Gaussian, Inc. access to this program.  By using this program,
 the user acknowledges that Gaussian, Inc. is engaged in the
 business of creating and licensing software in the field of
 computational chemistry and represents and warrants to the
 licensee that it is not a competitor of Gaussian, Inc. and that
 it will not use this program in any manner prohibited above.
 ---------------------------------------------------------------
  

 Cite this work as:
 Gaussian 09, Revision E.01,
 M. J. Frisch, G. W. Trucks, H. B. Schlegel, G. E. Scuseria, 
 M. A. Robb, J. R. Cheeseman, G. Scalmani, V. Barone, B. Mennucci, 
 G. A. Petersson, H. Nakatsuji, M. Caricato, X. Li, H. P. Hratchian, 
 A. F. Izmaylov, J. Bloino, G. Zheng, J. L. Sonnenberg, M. Hada, 
 M. Ehara, K. Toyota, R. Fukuda, J. Hasegawa, M. Ishida, T. Nakajima, 
 Y. Honda, O. Kitao, H. Nakai, T. Vreven, J. A. Montgomery, Jr., 
 J. E. Peralta, F. Ogliaro, M. Bearpark, J. J. Heyd, E. Brothers, 
 K. N. Kudin, V. N. Staroverov, T. Keith, R. Kobayashi, J. Normand, 
 K. Raghavachari, A. Rendell, J. C. Burant, S. S. Iyengar, J. Tomasi, 
 M. Cossi, N. Rega, J. M. Millam, M. Klene, J. E. Knox, J. B. Cross, 
 V. Bakken, C. Adamo, J. Jaramillo, R. Gomperts, R. E. Stratmann, 
 O. Yazyev, A. J. Austin, R. Cammi, C. Pomelli, J. W. Ochterski, 
 R. L. Martin, K. Morokuma, V. G. Zakrzewski, G. A. Voth, 
 P. Salvador, J. J. Dannenberg, S. Dapprich, A. D. Daniels, 
 O. Farkas, J. B. Foresman, J. V. Ortiz, J. Cioslowski, 
 and D. J. Fox, Gaussian, Inc., Wallingford CT, 2013.
 
 ******************************************
 Gaussian 09:  ES64L-G09RevE.01 30-Nov-2015
                26-Aug-2021 
 ******************************************
 %nproc=32
 Will use up to   32 processors via shared memory.
 %mem=180GB
 ----------------
 #P G4 OPT=calcfc
 ----------------
 1/10=4,14=-1,18=20,19=15,26=3,38=1/1,3;
 2/9=110,12=2,17=6,18=5,40=1/2;
 3/5=35,7=104,11=2,16=1,25=1,30=1,71=2,74=-5,140=1/1,2,3;
 4//1;
 5/5=2,38=5/2;
 8/6=4,10=90,11=11/1;
 11/6=1,8=1,9=11,15=111,16=1/1,2,10;
 10/6=1,13=1/2;
 6/7=2,8=2,9=2,10=2,28=1/1;
 7/10=1,18=20,25=1/1,2,3,16;
 1/10=4,14=-1,18=20,19=15,26=3/3(2);
 2/9=110/2;
 99//99;
 2/9=110/2;
 3/5=35,7=104,11=2,16=1,25=1,30=1,71=1,74=-5/1,2,3;
 4/5=5,16=3,69=1/1;
 5/5=2,38=5/2;
 7//1,2,3,16;
 1/14=-1,18=20,19=15,26=3/3(-5);
 2/9=110/2;
 6/7=2,8=2,9=2,10=2,19=2,28=1/1;
 99/9=1/99;
 Leave Link    1 at Thu Aug 26 21:25:40 2021, MaxMem= 24159191040 cpu:         3.1
 (Enter /public/home/users/caep010/software/Gaussian09/g09/l101.exe)
 ------
 JERVUY
 ------
 Symbolic Z-matrix:
 Charge =  0 Multiplicity = 1
 N                     5.6797    1.3278    4.4383 
 C                     4.7512    1.3963    5.4763 
 H                     6.2205    0.6601    4.447 
 O                     4.7778    0.5599    6.3686 
 C                     3.8457    2.5266    5.3203 
 N                     2.7919    2.7357    6.3112 
 O                     2.823     2.1199    7.3567 
 C                     3.9521    3.4189    4.2966 
 O                     1.9236    3.5557    6.0473 
 H                     3.3601    4.1329    4.2283 
 C                     4.9601    3.2464    3.3556 
 N                     5.1003    4.1473    2.2327 
 O                     4.3313    5.0868    2.1345 
 O                     5.9796    3.9007    1.4133 
 C                     5.8118    2.1903    3.4405 
 H                     6.4808    2.0727    2.8047 
 
 NAtoms=     16 NQM=       16 NQMF=       0 NMMI=      0 NMMIF=      0
                NMic=       0 NMicF=      0.
                    Isotopes and Nuclear Properties:
 (Nuclear quadrupole moments (NQMom) in fm**2, nuclear magnetic moments (NMagM)
  in nuclear magnetons)

  Atom         1           2           3           4           5           6           7           8           9          10
 IAtWgt=          14          12           1          16          12          14          16          12          16           1
 AtmWgt=  14.0030740  12.0000000   1.0078250  15.9949146  12.0000000  14.0030740  15.9949146  12.0000000  15.9949146   1.0078250
 NucSpn=           2           0           1           0           0           2           0           0           0           1
 AtZEff=   0.0000000   0.0000000   0.0000000   0.0000000   0.0000000   0.0000000   0.0000000   0.0000000   0.0000000   0.0000000
 NQMom=    2.0440000   0.0000000   0.0000000   0.0000000   0.0000000   2.0440000   0.0000000   0.0000000   0.0000000   0.0000000
 NMagM=    0.4037610   0.0000000   2.7928460   0.0000000   0.0000000   0.4037610   0.0000000   0.0000000   0.0000000   2.7928460
 AtZNuc=   7.0000000   6.0000000   1.0000000   8.0000000   6.0000000   7.0000000   8.0000000   6.0000000   8.0000000   1.0000000

  Atom        11          12          13          14          15          16
 IAtWgt=          12          14          16          16          12           1
 AtmWgt=  12.0000000  14.0030740  15.9949146  15.9949146  12.0000000   1.0078250
 NucSpn=           0           2           0           0           0           1
 AtZEff=   0.0000000   0.0000000   0.0000000   0.0000000   0.0000000   0.0000000
 NQMom=    0.0000000   2.0440000   0.0000000   0.0000000   0.0000000   0.0000000
 NMagM=    0.0000000   0.4037610   0.0000000   0.0000000   0.0000000   2.7928460
 AtZNuc=   6.0000000   7.0000000   8.0000000   8.0000000   6.0000000   1.0000000
 Leave Link  101 at Thu Aug 26 21:25:41 2021, MaxMem= 24159191040 cpu:        10.3
 (Enter /public/home/users/caep010/software/Gaussian09/g09/l103.exe)

 GradGradGradGradGradGradGradGradGradGradGradGradGradGradGradGradGradGrad
 Berny optimization.
 Initialization pass.
                           ----------------------------
                           !    Initial Parameters    !
                           ! (Angstroms and Degrees)  !
 --------------------------                            --------------------------
 ! Name  Definition              Value          Derivative Info.                !
 --------------------------------------------------------------------------------
 ! R1    R(1,2)                  1.3944         calculate D2E/DX2 analytically  !
 ! R2    R(1,3)                  0.8593         calculate D2E/DX2 analytically  !
 ! R3    R(1,15)                 1.3255         calculate D2E/DX2 analytically  !
 ! R4    R(2,4)                  1.2233         calculate D2E/DX2 analytically  !
 ! R5    R(2,5)                  1.4567         calculate D2E/DX2 analytically  !
 ! R6    R(5,6)                  1.4615         calculate D2E/DX2 analytically  !
 ! R7    R(5,8)                  1.3622         calculate D2E/DX2 analytically  !
 ! R8    R(6,7)                  1.2138         calculate D2E/DX2 analytically  !
 ! R9    R(6,9)                  1.2231         calculate D2E/DX2 analytically  !
 ! R10   R(8,10)                 0.93           calculate D2E/DX2 analytically  !
 ! R11   R(8,11)                 1.3897         calculate D2E/DX2 analytically  !
 ! R12   R(11,12)                1.4464         calculate D2E/DX2 analytically  !
 ! R13   R(11,15)                1.3594         calculate D2E/DX2 analytically  !
 ! R14   R(12,13)                1.2181         calculate D2E/DX2 analytically  !
 ! R15   R(12,14)                1.2269         calculate D2E/DX2 analytically  !
 ! R16   R(15,16)                0.9304         calculate D2E/DX2 analytically  !
 ! A1    A(2,1,3)              116.7261         calculate D2E/DX2 analytically  !
 ! A2    A(2,1,15)             126.4968         calculate D2E/DX2 analytically  !
 ! A3    A(3,1,15)             116.777          calculate D2E/DX2 analytically  !
 ! A4    A(1,2,4)              119.6651         calculate D2E/DX2 analytically  !
 ! A5    A(1,2,5)              111.8598         calculate D2E/DX2 analytically  !
 ! A6    A(4,2,5)              128.4749         calculate D2E/DX2 analytically  !
 ! A7    A(2,5,6)              119.1183         calculate D2E/DX2 analytically  !
 ! A8    A(2,5,8)              122.6991         calculate D2E/DX2 analytically  !
 ! A9    A(6,5,8)              118.1722         calculate D2E/DX2 analytically  !
 ! A10   A(5,6,7)              119.5334         calculate D2E/DX2 analytically  !
 ! A11   A(5,6,9)              117.4837         calculate D2E/DX2 analytically  !
 ! A12   A(7,6,9)              122.9683         calculate D2E/DX2 analytically  !
 ! A13   A(5,8,10)             120.5561         calculate D2E/DX2 analytically  !
 ! A14   A(5,8,11)             118.9613         calculate D2E/DX2 analytically  !
 ! A15   A(10,8,11)            120.4826         calculate D2E/DX2 analytically  !
 ! A16   A(8,11,12)            121.2421         calculate D2E/DX2 analytically  !
 ! A17   A(8,11,15)            120.5696         calculate D2E/DX2 analytically  !
 ! A18   A(12,11,15)           118.1405         calculate D2E/DX2 analytically  !
 ! A19   A(11,12,13)           118.8028         calculate D2E/DX2 analytically  !
 ! A20   A(11,12,14)           117.5639         calculate D2E/DX2 analytically  !
 ! A21   A(13,12,14)           123.6165         calculate D2E/DX2 analytically  !
 ! A22   A(1,15,11)            119.3467         calculate D2E/DX2 analytically  !
 ! A23   A(1,15,16)            120.2538         calculate D2E/DX2 analytically  !
 ! A24   A(11,15,16)           120.3994         calculate D2E/DX2 analytically  !
 ! D1    D(3,1,2,4)              3.1404         calculate D2E/DX2 analytically  !
 ! D2    D(3,1,2,5)           -177.0115         calculate D2E/DX2 analytically  !
 ! D3    D(15,1,2,4)          -176.8027         calculate D2E/DX2 analytically  !
 ! D4    D(15,1,2,5)             3.0454         calculate D2E/DX2 analytically  !
 ! D5    D(2,1,15,11)           -1.8182         calculate D2E/DX2 analytically  !
 ! D6    D(2,1,15,16)          178.2283         calculate D2E/DX2 analytically  !
 ! D7    D(3,1,15,11)          178.2388         calculate D2E/DX2 analytically  !
 ! D8    D(3,1,15,16)           -1.7147         calculate D2E/DX2 analytically  !
 ! D9    D(1,2,5,6)            178.9921         calculate D2E/DX2 analytically  !
 ! D10   D(1,2,5,8)             -2.2024         calculate D2E/DX2 analytically  !
 ! D11   D(4,2,5,6)             -1.1765         calculate D2E/DX2 analytically  !
 ! D12   D(4,2,5,8)            177.6291         calculate D2E/DX2 analytically  !
 ! D13   D(2,5,6,7)             12.6287         calculate D2E/DX2 analytically  !
 ! D14   D(2,5,6,9)           -168.7231         calculate D2E/DX2 analytically  !
 ! D15   D(8,5,6,7)           -166.2311         calculate D2E/DX2 analytically  !
 ! D16   D(8,5,6,9)             12.4171         calculate D2E/DX2 analytically  !
 ! D17   D(2,5,8,10)          -179.6696         calculate D2E/DX2 analytically  !
 ! D18   D(2,5,8,11)             0.288          calculate D2E/DX2 analytically  !
 ! D19   D(6,5,8,10)            -0.8533         calculate D2E/DX2 analytically  !
 ! D20   D(6,5,8,11)           179.1044         calculate D2E/DX2 analytically  !
 ! D21   D(5,8,11,12)          178.6381         calculate D2E/DX2 analytically  !
 ! D22   D(5,8,11,15)            1.1996         calculate D2E/DX2 analytically  !
 ! D23   D(10,8,11,12)          -1.4042         calculate D2E/DX2 analytically  !
 ! D24   D(10,8,11,15)        -178.8428         calculate D2E/DX2 analytically  !
 ! D25   D(8,11,12,13)           1.4692         calculate D2E/DX2 analytically  !
 ! D26   D(8,11,12,14)        -177.0942         calculate D2E/DX2 analytically  !
 ! D27   D(15,11,12,13)        178.9681         calculate D2E/DX2 analytically  !
 ! D28   D(15,11,12,14)          0.4047         calculate D2E/DX2 analytically  !
 ! D29   D(8,11,15,1)           -0.5285         calculate D2E/DX2 analytically  !
 ! D30   D(8,11,15,16)         179.4249         calculate D2E/DX2 analytically  !
 ! D31   D(12,11,15,1)        -178.0449         calculate D2E/DX2 analytically  !
 ! D32   D(12,11,15,16)          1.9085         calculate D2E/DX2 analytically  !
 --------------------------------------------------------------------------------
 Trust Radius=3.00D-01 FncErr=1.00D-07 GrdErr=1.00D-06
 Number of steps in this run=     82 maximum allowed number of steps=    100.
 GradGradGradGradGradGradGradGradGradGradGradGradGradGradGradGradGradGrad

 Leave Link  103 at Thu Aug 26 21:25:41 2021, MaxMem= 24159191040 cpu:         0.6
 (Enter /public/home/users/caep010/software/Gaussian09/g09/l202.exe)
                          Input orientation:                          
 ---------------------------------------------------------------------
 Center     Atomic      Atomic             Coordinates (Angstroms)
 Number     Number       Type             X           Y           Z
 ---------------------------------------------------------------------
      1          7           0        5.679700    1.327800    4.438300
      2          6           0        4.751200    1.396300    5.476300
      3          1           0        6.220500    0.660100    4.447000
      4          8           0        4.777800    0.559900    6.368600
      5          6           0        3.845700    2.526600    5.320300
      6          7           0        2.791900    2.735700    6.311200
      7          8           0        2.823000    2.119900    7.356700
      8          6           0        3.952100    3.418900    4.296600
      9          8           0        1.923600    3.555700    6.047300
     10          1           0        3.360100    4.132900    4.228300
     11          6           0        4.960100    3.246400    3.355600
     12          7           0        5.100300    4.147300    2.232700
     13          8           0        4.331300    5.086800    2.134500
     14          8           0        5.979600    3.900700    1.413300
     15          6           0        5.811800    2.190300    3.440500
     16          1           0        6.480800    2.072700    2.804700
 ---------------------------------------------------------------------
                    Distance matrix (angstroms):
                    1          2          3          4          5
     1  N    0.000000
     2  C    1.394363   0.000000
     3  H    0.859281   1.939147   0.000000
     4  O    2.264763   1.223304   2.404989   0.000000
     5  C    2.361906   1.456655   3.144225   2.415709   0.000000
     6  N    3.718780   2.515931   4.420255   2.946387   1.461540
     7  O    4.159954   2.788809   4.705356   2.689086   2.314788
     8  C    2.716133   2.474099   3.574806   3.626134   1.362161
     9  O    4.654106   3.603383   5.422989   4.150242   2.298270
    10  H    3.645988   3.313856   4.504449   4.399669   2.002117
    11  C    2.317561   2.822034   3.077127   4.040877   2.370664
    12  N    3.626287   4.267413   4.280016   5.484443   3.705936
    13  O    4.610397   4.996372   5.339701   6.214482   4.115793
    14  O    3.982509   4.928383   4.445543   6.095922   4.659005
    15  C    1.325504   2.428948   1.876590   3.507297   2.740857
    16  H    1.966033   3.253687   2.181821   4.229676   3.671242
                    6          7          8          9         10
     6  N    0.000000
     7  O    1.213774   0.000000
     8  C    2.423105   3.510909   0.000000
     9  O    1.223106   2.141254   2.682998   0.000000
    10  H    2.571671   3.758661   0.930013   2.388609   0.000000
    11  C    3.701010   4.673863   1.389713   4.069551   2.026694
    12  N    4.894434   5.962535   2.471561   4.999259   2.647815
    13  O    5.034108   6.192644   2.756875   4.842653   2.497429
    14  O    5.958866   6.961277   3.557570   6.167991   3.852262
    15  C    4.202163   4.926916   2.387645   4.876251   3.225702
    16  H    5.132552   5.839729   3.229914   5.786347   4.001228
                   11         12         13         14         15
    11  C    0.000000
    12  N    1.446437   0.000000
    13  O    2.296420   1.218058   0.000000
    14  O    2.289109   1.226946   2.154961   0.000000
    15  C    1.359393   2.407252   3.505314   2.657662   0.000000
    16  H    1.998397   2.556742   3.762222   2.351336   0.930394
                   16
    16  H    0.000000
 Stoichiometry    C5H3N3O5
 Framework group  C1[X(C5H3N3O5)]
 Deg. of freedom    42
 Full point group                 C1      NOp   1
 Largest Abelian subgroup         C1      NOp   1
 Largest concise Abelian subgroup C1      NOp   1
                         Standard orientation:                         
 ---------------------------------------------------------------------
 Center     Atomic      Atomic             Coordinates (Angstroms)
 Number     Number       Type             X           Y           Z
 ---------------------------------------------------------------------
      1          7           0        0.005272    1.974537   -0.057364
      2          6           0        1.215573    1.282715   -0.029013
      3          1           0        0.050877    2.831124   -0.107801
      4          8           0        2.268621    1.905153   -0.017459
      5          6           0        1.015365   -0.160032   -0.013442
      6          7           0        2.182323   -1.039948   -0.005802
      7          8           0        3.280811   -0.574955    0.218592
      8          6           0       -0.220899   -0.731106    0.018285
      9          8           0        1.992032   -2.231609   -0.205103
     10          1           0       -0.314099   -1.656334    0.032113
     11          6           0       -1.341603    0.090584    0.030582
     12          7           0       -2.677839   -0.463165    0.034693
     13          8           0       -2.811367   -1.673720    0.054524
     14          8           0       -3.618494    0.323355   -0.009461
     15          6           0       -1.208050    1.442691   -0.013218
     16          1           0       -1.960195    1.990332   -0.012915
 ---------------------------------------------------------------------
 Rotational constants (GHZ):      1.5308813      0.5638674      0.4131604
 Leave Link  202 at Thu Aug 26 21:25:41 2021, MaxMem= 24159191040 cpu:         0.8
 (Enter /public/home/users/caep010/software/Gaussian09/g09/l301.exe)
 Standard basis: GTBas3 (6D, 7F)
 Ernie: Thresh=  0.10000D-02 Tol=  0.10000D-05 Strict=F.
 There are   418 symmetry adapted cartesian basis functions of A   symmetry.
 There are   379 symmetry adapted basis functions of A   symmetry.
   379 basis functions,   593 primitive gaussians,   418 cartesian basis functions
    47 alpha electrons       47 beta electrons
       nuclear repulsion energy       789.7021725065 Hartrees.
 IExCor=  402 DFT=T Ex+Corr=B3LYP ExCW=0 ScaHFX=  0.200000
 ScaDFX=  0.800000  0.720000  1.000000  0.810000 ScalE2=  1.000000  1.000000
 IRadAn=      0 IRanWt=     -1 IRanGd=            0 ICorTp=0 IEmpDi=  4
 NAtoms=   16 NActive=   16 NUniq=   16 SFac= 1.00D+00 NAtFMM=   60 NAOKFM=F Big=F
 Integral buffers will be    131072 words long.
 Raffenetti 2 integral format.
 Two-electron integral symmetry is turned on.
 Leave Link  301 at Thu Aug 26 21:25:41 2021, MaxMem= 24159191040 cpu:         2.4
 (Enter /public/home/users/caep010/software/Gaussian09/g09/l302.exe)
 NPDir=0 NMtPBC=     1 NCelOv=     1 NCel=       1 NClECP=     1 NCelD=      1
         NCelK=      1 NCelE2=     1 NClLst=     1 CellRange=     0.0.
 One-electron integrals computed using PRISM.
 NBasis=   379 RedAO= T EigKep=  1.07D-04  NBF=   379
 NBsUse=   379 1.00D-06 EigRej= -1.00D+00 NBFU=   379
 Precomputing XC quadrature grid using
 IXCGrd= 4 IRadAn=           0 IRanWt=          -1 IRanGd=           0 AccXCQ= 0.00D+00.
 Generated NRdTot=       0 NPtTot=           0 NUsed=           0 NTot=          32
 NSgBfM=   417   417   417   417   417 MxSgAt=    16 MxSgA2=    16.
 Leave Link  302 at Thu Aug 26 21:25:42 2021, MaxMem= 24159191040 cpu:        18.0
 (Enter /public/home/users/caep010/software/Gaussian09/g09/l303.exe)
 DipDrv:  MaxL=1.
 Leave Link  303 at Thu Aug 26 21:25:42 2021, MaxMem= 24159191040 cpu:         3.3
 (Enter /public/home/users/caep010/software/Gaussian09/g09/l401.exe)
 ExpMin= 1.61D-01 ExpMax= 5.48D+03 ExpMxC= 8.25D+02 IAcc=1 IRadAn=         1 AccDes= 0.00D+00
 Harris functional with IExCor=  402 and IRadAn=       1 diagonalized for initial guess.
 HarFok:  IExCor=  402 AccDes= 0.00D+00 IRadAn=         1 IDoV= 1 UseB2=F ITyADJ=14
 ICtDFT=  3500011 ScaDFX=  1.000000  1.000000  1.000000  1.000000
 FoFCou: FMM=F IPFlag=           0 FMFlag=      100000 FMFlg1=           0
         NFxFlg=           0 DoJE=T BraDBF=F KetDBF=T FulRan=T
         wScrn=  0.000000 ICntrl=     500 IOpCl=  0 I1Cent=   200000004 NGrid=           0
         NMat0=    1 NMatS0=      1 NMatT0=    0 NMatD0=    1 NMtDS0=    0 NMtDT0=    0
 Petite list used in FoFCou.
 Harris En= -732.555319650200    
 JPrj=0 DoOrth=F DoCkMO=F.
 Leave Link  401 at Thu Aug 26 21:25:43 2021, MaxMem= 24159191040 cpu:        17.4
 (Enter /public/home/users/caep010/software/Gaussian09/g09/l502.exe)
 Closed shell SCF:
 Using DIIS extrapolation, IDIIS=  1040.
 Integral symmetry usage will be decided dynamically.
 Keep R1 ints in memory in canonical form, NReq=2630094979.
 IVT=      559104 IEndB=      559104 NGot= 24159191040 MDV= 21565875882
 LenX= 21565875882 LenY= 21565700717
 Requested convergence on RMS density matrix=1.00D-08 within 128 cycles.
 Requested convergence on MAX density matrix=1.00D-06.
 Requested convergence on             energy=1.00D-06.
 No special actions if energy rises.
 FoFCou: FMM=F IPFlag=           0 FMFlag=           0 FMFlg1=           0
         NFxFlg=           0 DoJE=F BraDBF=F KetDBF=F FulRan=T
         wScrn=  0.000000 ICntrl=     600 IOpCl=  0 I1Cent=           0 NGrid=           0
         NMat0=    1 NMatS0=  72010 NMatT0=    0 NMatD0=    1 NMtDS0=    0 NMtDT0=    0
 Symmetry not used in FoFCou.
 Integral accuracy reduced to 1.0D-05 until final iterations.

 Cycle   1  Pass 0  IDiag  1:
 E= -732.039251310157    
 DIIS: error= 2.77D-02 at cycle   1 NSaved=   1.
 NSaved= 1 IEnMin= 1 EnMin= -732.039251310157     IErMin= 1 ErrMin= 2.77D-02
 ErrMax= 2.77D-02  0.00D+00 EMaxC= 1.00D-01 BMatC= 6.23D-01 BMatP= 6.23D-01
 IDIUse=3 WtCom= 7.23D-01 WtEn= 2.77D-01
 Coeff-Com:  0.100D+01
 Coeff-En:   0.100D+01
 Coeff:      0.100D+01
 Gap=     0.145 Goal=   None    Shift=    0.000
 GapD=    0.145 DampG=1.000 DampE=0.500 DampFc=0.5000 IDamp=-1.
 Damping current iteration by 5.00D-01
 RMSDP=5.30D-03 MaxDP=3.47D-01              OVMax= 3.92D-01

 Cycle   2  Pass 0  IDiag  1:
 E= -732.049177924359     Delta-E=       -0.009926614202 Rises=F Damp=T
 DIIS: error= 1.72D-02 at cycle   2 NSaved=   2.
 NSaved= 2 IEnMin= 2 EnMin= -732.049177924359     IErMin= 2 ErrMin= 1.72D-02
 ErrMax= 1.72D-02  0.00D+00 EMaxC= 1.00D-01 BMatC= 1.80D-01 BMatP= 6.23D-01
 IDIUse=3 WtCom= 8.28D-01 WtEn= 1.72D-01
 Coeff-Com:  0.323D+00 0.677D+00
 Coeff-En:   0.492D+00 0.508D+00
 Coeff:      0.352D+00 0.648D+00
 Gap=     0.181 Goal=   None    Shift=    0.000
 RMSDP=1.61D-03 MaxDP=1.30D-01 DE=-9.93D-03 OVMax= 2.77D-01

 Cycle   3  Pass 0  IDiag  1:
 E= -732.446950749098     Delta-E=       -0.397772824739 Rises=F Damp=F
 DIIS: error= 1.01D-02 at cycle   3 NSaved=   3.
 NSaved= 3 IEnMin= 3 EnMin= -732.446950749098     IErMin= 3 ErrMin= 1.01D-02
 ErrMax= 1.01D-02  0.00D+00 EMaxC= 1.00D-01 BMatC= 4.27D-02 BMatP= 1.80D-01
 IDIUse=3 WtCom= 8.99D-01 WtEn= 1.01D-01
 Coeff-Com:  0.147D+00 0.332D+00 0.520D+00
 Coeff-En:   0.000D+00 0.000D+00 0.100D+01
 Coeff:      0.133D+00 0.299D+00 0.569D+00
 Gap=     0.165 Goal=   None    Shift=    0.000
 RMSDP=9.24D-04 MaxDP=6.45D-02 DE=-3.98D-01 OVMax= 1.28D-01

 Cycle   4  Pass 0  IDiag  1:
 E= -732.463234231574     Delta-E=       -0.016283482476 Rises=F Damp=F
 DIIS: error= 8.26D-03 at cycle   4 NSaved=   4.
 NSaved= 4 IEnMin= 4 EnMin= -732.463234231574     IErMin= 4 ErrMin= 8.26D-03
 ErrMax= 8.26D-03  0.00D+00 EMaxC= 1.00D-01 BMatC= 2.83D-02 BMatP= 4.27D-02
 IDIUse=3 WtCom= 9.17D-01 WtEn= 8.26D-02
 Coeff-Com:  0.478D-01 0.960D-01 0.421D+00 0.435D+00
 Coeff-En:   0.000D+00 0.000D+00 0.395D+00 0.605D+00
 Coeff:      0.438D-01 0.881D-01 0.419D+00 0.449D+00
 Gap=     0.163 Goal=   None    Shift=    0.000
 RMSDP=5.16D-04 MaxDP=3.26D-02 DE=-1.63D-02 OVMax= 6.83D-02

 Cycle   5  Pass 0  IDiag  1:
 E= -732.483083842528     Delta-E=       -0.019849610954 Rises=F Damp=F
 DIIS: error= 1.96D-03 at cycle   5 NSaved=   5.
 NSaved= 5 IEnMin= 5 EnMin= -732.483083842528     IErMin= 5 ErrMin= 1.96D-03
 ErrMax= 1.96D-03  0.00D+00 EMaxC= 1.00D-01 BMatC= 3.95D-03 BMatP= 2.83D-02
 IDIUse=3 WtCom= 9.80D-01 WtEn= 1.96D-02
 Coeff-Com:  0.173D-01 0.233D-01 0.234D+00 0.322D+00 0.403D+00
 Coeff-En:   0.000D+00 0.000D+00 0.000D+00 0.106D+00 0.894D+00
 Coeff:      0.170D-01 0.229D-01 0.230D+00 0.317D+00 0.413D+00
 Gap=     0.159 Goal=   None    Shift=    0.000
 RMSDP=1.94D-04 MaxDP=1.76D-02 DE=-1.98D-02 OVMax= 3.69D-02

 Cycle   6  Pass 0  IDiag  1:
 E= -732.485689649147     Delta-E=       -0.002605806618 Rises=F Damp=F
 DIIS: error= 8.73D-04 at cycle   6 NSaved=   6.
 NSaved= 6 IEnMin= 6 EnMin= -732.485689649147     IErMin= 6 ErrMin= 8.73D-04
 ErrMax= 8.73D-04  0.00D+00 EMaxC= 1.00D-01 BMatC= 7.73D-04 BMatP= 3.95D-03
 IDIUse=3 WtCom= 9.91D-01 WtEn= 8.73D-03
 Coeff-Com:  0.386D-02-0.281D-02 0.912D-01 0.152D+00 0.319D+00 0.437D+00
 Coeff-En:   0.000D+00 0.000D+00 0.000D+00 0.000D+00 0.194D+00 0.806D+00
 Coeff:      0.383D-02-0.279D-02 0.904D-01 0.151D+00 0.318D+00 0.440D+00
 Gap=     0.157 Goal=   None    Shift=    0.000
 RMSDP=7.77D-05 MaxDP=5.92D-03 DE=-2.61D-03 OVMax= 1.29D-02

 Cycle   7  Pass 0  IDiag  1:
 E= -732.486244623529     Delta-E=       -0.000554974382 Rises=F Damp=F
 DIIS: error= 2.76D-04 at cycle   7 NSaved=   7.
 NSaved= 7 IEnMin= 7 EnMin= -732.486244623529     IErMin= 7 ErrMin= 2.76D-04
 ErrMax= 2.76D-04  0.00D+00 EMaxC= 1.00D-01 BMatC= 4.68D-05 BMatP= 7.73D-04
 IDIUse=3 WtCom= 9.97D-01 WtEn= 2.76D-03
 Coeff-Com:  0.799D-03-0.332D-02 0.336D-01 0.597D-01 0.152D+00 0.272D+00
 Coeff-Com:  0.485D+00
 Coeff-En:   0.000D+00 0.000D+00 0.000D+00 0.000D+00 0.000D+00 0.134D-01
 Coeff-En:   0.987D+00
 Coeff:      0.797D-03-0.331D-02 0.335D-01 0.595D-01 0.152D+00 0.271D+00
 Coeff:      0.487D+00
 Gap=     0.158 Goal=   None    Shift=    0.000
 RMSDP=2.01D-05 MaxDP=1.03D-03 DE=-5.55D-04 OVMax= 1.82D-03

 Cycle   8  Pass 0  IDiag  1:
 E= -732.486280092771     Delta-E=       -0.000035469242 Rises=F Damp=F
 DIIS: error= 7.51D-05 at cycle   8 NSaved=   8.
 NSaved= 8 IEnMin= 8 EnMin= -732.486280092771     IErMin= 8 ErrMin= 7.51D-05
 ErrMax= 7.51D-05  0.00D+00 EMaxC= 1.00D-01 BMatC= 3.19D-06 BMatP= 4.68D-05
 IDIUse=1 WtCom= 1.00D+00 WtEn= 0.00D+00
 Coeff-Com:  0.274D-04-0.159D-02 0.867D-02 0.157D-01 0.495D-01 0.103D+00
 Coeff-Com:  0.260D+00 0.564D+00
 Coeff:      0.274D-04-0.159D-02 0.867D-02 0.157D-01 0.495D-01 0.103D+00
 Coeff:      0.260D+00 0.564D+00
 Gap=     0.158 Goal=   None    Shift=    0.000
 RMSDP=6.52D-06 MaxDP=4.18D-04 DE=-3.55D-05 OVMax= 9.18D-04

 Initial convergence to 1.0D-05 achieved.  Increase integral accuracy.
 Cycle   9  Pass 1  IDiag  1:
 E= -732.486374003101     Delta-E=       -0.000093910330 Rises=F Damp=F
 DIIS: error= 4.27D-05 at cycle   1 NSaved=   1.
 NSaved= 1 IEnMin= 1 EnMin= -732.486374003101     IErMin= 1 ErrMin= 4.27D-05
 ErrMax= 4.27D-05  0.00D+00 EMaxC= 1.00D-01 BMatC= 1.73D-06 BMatP= 1.73D-06
 IDIUse=1 WtCom= 1.00D+00 WtEn= 0.00D+00
 Coeff-Com:  0.100D+01
 Coeff:      0.100D+01
 Gap=     0.158 Goal=   None    Shift=    0.000
 RMSDP=6.52D-06 MaxDP=4.18D-04 DE=-9.39D-05 OVMax= 2.14D-03

 Cycle  10  Pass 1  IDiag  1:
 E= -732.486365278165     Delta-E=        0.000008724936 Rises=F Damp=F
 DIIS: error= 1.31D-04 at cycle   2 NSaved=   2.
 NSaved= 2 IEnMin= 1 EnMin= -732.486374003101     IErMin= 1 ErrMin= 4.27D-05
 ErrMax= 1.31D-04  0.00D+00 EMaxC= 1.00D-01 BMatC= 1.26D-05 BMatP= 1.73D-06
 IDIUse=3 WtCom= 4.66D-01 WtEn= 5.34D-01
 Coeff-Com:  0.739D+00 0.261D+00
 Coeff-En:   0.822D+00 0.178D+00
 Coeff:      0.783D+00 0.217D+00
 Gap=     0.158 Goal=   None    Shift=    0.000
 RMSDP=7.18D-06 MaxDP=6.89D-04 DE= 8.72D-06 OVMax= 1.44D-03

 Cycle  11  Pass 1  IDiag  1:
 E= -732.486375194638     Delta-E=       -0.000009916474 Rises=F Damp=F
 DIIS: error= 1.49D-05 at cycle   3 NSaved=   3.
 NSaved= 3 IEnMin= 3 EnMin= -732.486375194638     IErMin= 3 ErrMin= 1.49D-05
 ErrMax= 1.49D-05  0.00D+00 EMaxC= 1.00D-01 BMatC= 2.49D-07 BMatP= 1.73D-06
 IDIUse=1 WtCom= 1.00D+00 WtEn= 0.00D+00
 Coeff-Com:  0.242D+00-0.129D-01 0.771D+00
 Coeff:      0.242D+00-0.129D-01 0.771D+00
 Gap=     0.158 Goal=   None    Shift=    0.000
 RMSDP=1.60D-06 MaxDP=1.13D-04 DE=-9.92D-06 OVMax= 2.03D-04

 Cycle  12  Pass 1  IDiag  1:
 E= -732.486375358361     Delta-E=       -0.000000163722 Rises=F Damp=F
 DIIS: error= 6.73D-06 at cycle   4 NSaved=   4.
 NSaved= 4 IEnMin= 4 EnMin= -732.486375358361     IErMin= 4 ErrMin= 6.73D-06
 ErrMax= 6.73D-06  0.00D+00 EMaxC= 1.00D-01 BMatC= 5.94D-08 BMatP= 2.49D-07
 IDIUse=1 WtCom= 1.00D+00 WtEn= 0.00D+00
 Coeff-Com: -0.286D-02-0.701D-01 0.551D+00 0.522D+00
 Coeff:     -0.286D-02-0.701D-01 0.551D+00 0.522D+00
 Gap=     0.158 Goal=   None    Shift=    0.000
 RMSDP=6.59D-07 MaxDP=4.26D-05 DE=-1.64D-07 OVMax= 7.55D-05

 Cycle  13  Pass 1  IDiag  1:
 E= -732.486375405612     Delta-E=       -0.000000047251 Rises=F Damp=F
 DIIS: error= 2.86D-06 at cycle   5 NSaved=   5.
 NSaved= 5 IEnMin= 5 EnMin= -732.486375405612     IErMin= 5 ErrMin= 2.86D-06
 ErrMax= 2.86D-06  0.00D+00 EMaxC= 1.00D-01 BMatC= 4.41D-09 BMatP= 5.94D-08
 IDIUse=1 WtCom= 1.00D+00 WtEn= 0.00D+00
 Coeff-Com: -0.103D-01-0.475D-01 0.351D+00 0.355D+00 0.353D+00
 Coeff:     -0.103D-01-0.475D-01 0.351D+00 0.355D+00 0.353D+00
 Gap=     0.158 Goal=   None    Shift=    0.000
 RMSDP=1.86D-07 MaxDP=1.50D-05 DE=-4.73D-08 OVMax= 3.27D-05

 Cycle  14  Pass 1  IDiag  1:
 E= -732.486375408765     Delta-E=       -0.000000003153 Rises=F Damp=F
 DIIS: error= 7.23D-07 at cycle   6 NSaved=   6.
 NSaved= 6 IEnMin= 6 EnMin= -732.486375408765     IErMin= 6 ErrMin= 7.23D-07
 ErrMax= 7.23D-07  0.00D+00 EMaxC= 1.00D-01 BMatC= 4.97D-10 BMatP= 4.41D-09
 IDIUse=1 WtCom= 1.00D+00 WtEn= 0.00D+00
 Coeff-Com: -0.699D-02-0.266D-01 0.193D+00 0.196D+00 0.262D+00 0.383D+00
 Coeff:     -0.699D-02-0.266D-01 0.193D+00 0.196D+00 0.262D+00 0.383D+00
 Gap=     0.158 Goal=   None    Shift=    0.000
 RMSDP=6.04D-08 MaxDP=5.03D-06 DE=-3.15D-09 OVMax= 1.07D-05

 Cycle  15  Pass 1  IDiag  1:
 E= -732.486375409138     Delta-E=       -0.000000000374 Rises=F Damp=F
 DIIS: error= 1.80D-07 at cycle   7 NSaved=   7.
 NSaved= 7 IEnMin= 7 EnMin= -732.486375409138     IErMin= 7 ErrMin= 1.80D-07
 ErrMax= 1.80D-07  0.00D+00 EMaxC= 1.00D-01 BMatC= 3.41D-11 BMatP= 4.97D-10
 IDIUse=1 WtCom= 1.00D+00 WtEn= 0.00D+00
 Coeff-Com: -0.192D-02-0.560D-02 0.399D-01 0.387D-01 0.858D-01 0.232D+00
 Coeff-Com:  0.611D+00
 Coeff:     -0.192D-02-0.560D-02 0.399D-01 0.387D-01 0.858D-01 0.232D+00
 Coeff:      0.611D+00
 Gap=     0.158 Goal=   None    Shift=    0.000
 RMSDP=2.06D-08 MaxDP=1.33D-06 DE=-3.74D-10 OVMax= 2.21D-06

 Cycle  16  Pass 1  IDiag  1:
 E= -732.486375409209     Delta-E=       -0.000000000070 Rises=F Damp=F
 DIIS: error= 1.13D-07 at cycle   8 NSaved=   8.
 NSaved= 8 IEnMin= 8 EnMin= -732.486375409209     IErMin= 8 ErrMin= 1.13D-07
 ErrMax= 1.13D-07  0.00D+00 EMaxC= 1.00D-01 BMatC= 7.62D-12 BMatP= 3.41D-11
 IDIUse=1 WtCom= 1.00D+00 WtEn= 0.00D+00
 Coeff-Com: -0.150D-03 0.423D-03-0.319D-02-0.545D-02 0.173D-01 0.933D-01
 Coeff-Com:  0.393D+00 0.505D+00
 Coeff:     -0.150D-03 0.423D-03-0.319D-02-0.545D-02 0.173D-01 0.933D-01
 Coeff:      0.393D+00 0.505D+00
 Gap=     0.158 Goal=   None    Shift=    0.000
 RMSDP=1.02D-08 MaxDP=7.75D-07 DE=-7.05D-11 OVMax= 1.49D-06

 Cycle  17  Pass 1  IDiag  1:
 E= -732.486375409157     Delta-E=        0.000000000051 Rises=F Damp=F
 DIIS: error= 5.23D-08 at cycle   9 NSaved=   9.
 NSaved= 9 IEnMin= 8 EnMin= -732.486375409209     IErMin= 9 ErrMin= 5.23D-08
 ErrMax= 5.23D-08  0.00D+00 EMaxC= 1.00D-01 BMatC= 1.01D-12 BMatP= 7.62D-12
 IDIUse=1 WtCom= 1.00D+00 WtEn= 0.00D+00
 Coeff-Com:  0.221D-03 0.120D-02-0.856D-02-0.101D-01-0.291D-02 0.176D-01
 Coeff-Com:  0.131D+00 0.315D+00 0.556D+00
 Coeff:      0.221D-03 0.120D-02-0.856D-02-0.101D-01-0.291D-02 0.176D-01
 Coeff:      0.131D+00 0.315D+00 0.556D+00
 Gap=     0.158 Goal=   None    Shift=    0.000
 RMSDP=3.71D-09 MaxDP=3.02D-07 DE= 5.14D-11 OVMax= 3.48D-07

 SCF Done:  E(RB3LYP) =  -732.486375409     A.U. after   17 cycles
            NFock= 17  Conv=0.37D-08     -V/T= 2.0046
 KE= 7.291622656261D+02 PE=-3.295557689904D+03 EE= 1.044206876363D+03
 Leave Link  502 at Thu Aug 26 21:27:05 2021, MaxMem= 24159191040 cpu:       418.3
 (Enter /public/home/users/caep010/software/Gaussian09/g09/l801.exe)
 DoSCS=F DFT=T ScalE2(SS,OS)=  1.000000  1.000000
 Range of M.O.s used for correlation:     1   379
 NBasis=   379 NAE=    47 NBE=    47 NFC=     0 NFV=     0
 NROrb=    379 NOA=    47 NOB=    47 NVA=   332 NVB=   332

 **** Warning!!: The largest alpha MO coefficient is  0.59507026D+02

 Leave Link  801 at Thu Aug 26 21:27:05 2021, MaxMem= 24159191040 cpu:         0.6
 (Enter /public/home/users/caep010/software/Gaussian09/g09/l1101.exe)
 Using compressed storage, NAtomX=    16.
 Will process     17 centers per pass.
 Leave Link 1101 at Thu Aug 26 21:27:06 2021, MaxMem= 24159191040 cpu:        20.2
 (Enter /public/home/users/caep010/software/Gaussian09/g09/l1102.exe)
 Symmetrizing basis deriv contribution to polar:
 IMax=3 JMax=2 DiffMx= 0.00D+00
 Leave Link 1102 at Thu Aug 26 21:27:06 2021, MaxMem= 24159191040 cpu:         1.1
 (Enter /public/home/users/caep010/software/Gaussian09/g09/l1110.exe)
 Forming Gx(P) for the SCF density, NAtomX=    16.
 Integral derivatives from FoFJK, PRISM(SPDF).
 Do as many integral derivatives as possible in FoFJK.
 G2DrvN: MDV=   24159190808.
 G2DrvN: will do    17 centers at a time, making    1 passes.
 Calling FoFCou, ICntrl=  3107 FMM=F I1Cent=   0 AccDes= 0.00D+00.
 FoFJK:  IHMeth= 1 ICntrl=    3107 DoSepK=F KAlg= 0 I1Cent=   0 FoldK=F
 IRaf=         0 NMat=   1 IRICut=       1 DoRegI=T DoRafI=F ISym2E= 0.
 FoFCou: FMM=F IPFlag=           0 FMFlag=      100000 FMFlg1=           0
         NFxFlg=           0 DoJE=F BraDBF=F KetDBF=F FulRan=T
         wScrn=  0.000000 ICntrl=    3107 IOpCl=  0 I1Cent=           0 NGrid=           0
         NMat0=    1 NMatS0=      1 NMatT0=    0 NMatD0=    1 NMtDS0=    0 NMtDT0=    0
 Symmetry not used in FoFCou.
 End of G2Drv F.D. properties file   721 does not exist.
 End of G2Drv F.D. properties file   722 does not exist.
 End of G2Drv F.D. properties file   788 does not exist.
 Leave Link 1110 at Thu Aug 26 21:27:29 2021, MaxMem= 24159191040 cpu:       723.3
 (Enter /public/home/users/caep010/software/Gaussian09/g09/l1002.exe)
 Minotr:  Closed shell wavefunction.
          IDoAtm=1111111111111111
          Direct CPHF calculation.
          Differentiating once with respect to nuclear coordinates.
          Requested convergence is 1.0D-08 RMS, and 1.0D-07 maximum.
          Secondary convergence is 1.0D-12 RMS, and 1.0D-12 maximum.
          NewPWx=T KeepS1=F KeepF1=F KeepIn=T MapXYZ=F SortEE=F KeepMc=T.
          MDV=   24159190497 using IRadAn=       2.
 Generate precomputed XC quadrature information.
 Keep R1 ints in memory in canonical form, NReq=2629542093.
 FoFCou: FMM=F IPFlag=           0 FMFlag=           0 FMFlg1=           0
         NFxFlg=           0 DoJE=F BraDBF=F KetDBF=F FulRan=T
         wScrn=  0.000000 ICntrl=     600 IOpCl=  0 I1Cent=           0 NGrid=           0
         NMat0=    1 NMatS0=  72010 NMatT0=    0 NMatD0=    1 NMtDS0=    0 NMtDT0=    0
 Symmetry not used in FoFCou.
          Solving linear equations simultaneously, MaxMat=       0.
          There are    51 degrees of freedom in the 1st order CPHF.  IDoFFX=6 NUNeed=     0.
     45 vectors produced by pass  0 Test12= 3.06D-14 1.96D-09 XBig12= 2.85D-01 1.45D-01.
 AX will form    45 AO Fock derivatives at one time.
     45 vectors produced by pass  1 Test12= 3.06D-14 1.96D-09 XBig12= 9.60D-02 7.03D-02.
     45 vectors produced by pass  2 Test12= 3.06D-14 1.96D-09 XBig12= 1.52D-03 6.18D-03.
     45 vectors produced by pass  3 Test12= 3.06D-14 1.96D-09 XBig12= 1.84D-05 5.01D-04.
     45 vectors produced by pass  4 Test12= 3.06D-14 1.96D-09 XBig12= 8.37D-08 3.07D-05.
     45 vectors produced by pass  5 Test12= 3.06D-14 1.96D-09 XBig12= 2.03D-10 1.37D-06.
     36 vectors produced by pass  6 Test12= 3.06D-14 1.96D-09 XBig12= 3.36D-13 5.03D-08.
      2 vectors produced by pass  7 Test12= 3.06D-14 1.96D-09 XBig12= 1.00D-15 3.03D-09.
 InvSVY:  IOpt=1 It=  1 EMax= 8.88D-16
 Solved reduced A of dimension   308 with    51 vectors.
 End of Minotr F.D. properties file   721 does not exist.
 End of Minotr F.D. properties file   722 does not exist.
 End of Minotr F.D. properties file   788 does not exist.
 Leave Link 1002 at Thu Aug 26 21:28:15 2021, MaxMem= 24159191040 cpu:      1447.0
 (Enter /public/home/users/caep010/software/Gaussian09/g09/l601.exe)
 Copying SCF densities to generalized density rwf, IOpCl= 0 IROHF=0.

 **********************************************************************

            Population analysis using the SCF density.

 **********************************************************************

 Orbital symmetries:
       Occupied  (A) (A) (A) (A) (A) (A) (A) (A) (A) (A) (A) (A)
                 (A) (A) (A) (A) (A) (A) (A) (A) (A) (A) (A) (A)
                 (A) (A) (A) (A) (A) (A) (A) (A) (A) (A) (A) (A)
                 (A) (A) (A) (A) (A) (A) (A) (A) (A) (A) (A)
       Virtual   (A) (A) (A) (A) (A) (A) (A) (A) (A) (A) (A) (A)
                 (A) (A) (A) (A) (A) (A) (A) (A) (A) (A) (A) (A)
                 (A) (A) (A) (A) (A) (A) (A) (A) (A) (A) (A) (A)
                 (A) (A) (A) (A) (A) (A) (A) (A) (A) (A) (A) (A)
                 (A) (A) (A) (A) (A) (A) (A) (A) (A) (A) (A) (A)
                 (A) (A) (A) (A) (A) (A) (A) (A) (A) (A) (A) (A)
                 (A) (A) (A) (A) (A) (A) (A) (A) (A) (A) (A) (A)
                 (A) (A) (A) (A) (A) (A) (A) (A) (A) (A) (A) (A)
                 (A) (A) (A) (A) (A) (A) (A) (A) (A) (A) (A) (A)
                 (A) (A) (A) (A) (A) (A) (A) (A) (A) (A) (A) (A)
                 (A) (A) (A) (A) (A) (A) (A) (A) (A) (A) (A) (A)
                 (A) (A) (A) (A) (A) (A) (A) (A) (A) (A) (A) (A)
                 (A) (A) (A) (A) (A) (A) (A) (A) (A) (A) (A) (A)
                 (A) (A) (A) (A) (A) (A) (A) (A) (A) (A) (A) (A)
                 (A) (A) (A) (A) (A) (A) (A) (A) (A) (A) (A) (A)
                 (A) (A) (A) (A) (A) (A) (A) (A) (A) (A) (A) (A)
                 (A) (A) (A) (A) (A) (A) (A) (A) (A) (A) (A) (A)
                 (A) (A) (A) (A) (A) (A) (A) (A) (A) (A) (A) (A)
                 (A) (A) (A) (A) (A) (A) (A) (A) (A) (A) (A) (A)
                 (A) (A) (A) (A) (A) (A) (A) (A) (A) (A) (A) (A)
                 (A) (A) (A) (A) (A) (A) (A) (A) (A) (A) (A) (A)
                 (A) (A) (A) (A) (A) (A) (A) (A) (A) (A) (A) (A)
                 (A) (A) (A) (A) (A) (A) (A) (A) (A) (A) (A) (A)
                 (A) (A) (A) (A) (A) (A) (A) (A) (A) (A) (A) (A)
                 (A) (A) (A) (A) (A) (A) (A) (A) (A) (A) (A) (A)
                 (A) (A) (A) (A) (A) (A) (A) (A) (A) (A) (A) (A)
                 (A) (A) (A) (A) (A) (A) (A) (A) (A) (A) (A) (A)
                 (A) (A) (A) (A) (A) (A) (A) (A)
 The electronic state is 1-A.
 Alpha  occ. eigenvalues --  -19.19857 -19.19456 -19.18025 -19.17708 -19.14880
 Alpha  occ. eigenvalues --  -14.59493 -14.57933 -14.44350 -10.33991 -10.30236
 Alpha  occ. eigenvalues --  -10.28551 -10.28486 -10.25984  -1.25760  -1.24352
 Alpha  occ. eigenvalues --   -1.10019  -1.07940  -1.06295  -1.03349  -0.92108
 Alpha  occ. eigenvalues --   -0.86680  -0.77799  -0.75744  -0.73951  -0.63300
 Alpha  occ. eigenvalues --   -0.62535  -0.58884  -0.58505  -0.56744  -0.56363
 Alpha  occ. eigenvalues --   -0.55077  -0.54389  -0.53138  -0.50472  -0.50115
 Alpha  occ. eigenvalues --   -0.47602  -0.45073  -0.40057  -0.37527  -0.33996
 Alpha  occ. eigenvalues --   -0.33464  -0.33008  -0.31677  -0.31657  -0.30432
 Alpha  occ. eigenvalues --   -0.28471  -0.28112
 Alpha virt. eigenvalues --   -0.12349  -0.10855  -0.05483  -0.00845   0.05968
 Alpha virt. eigenvalues --    0.10475   0.10696   0.13172   0.14917   0.16579
 Alpha virt. eigenvalues --    0.18154   0.21676   0.22660   0.24256   0.24459
 Alpha virt. eigenvalues --    0.27981   0.29061   0.30193   0.33984   0.35748
 Alpha virt. eigenvalues --    0.35917   0.39024   0.41281   0.42211   0.43027
 Alpha virt. eigenvalues --    0.45211   0.45510   0.46945   0.48916   0.50861
 Alpha virt. eigenvalues --    0.53134   0.54704   0.55991   0.57246   0.57427
 Alpha virt. eigenvalues --    0.58547   0.60401   0.61502   0.61798   0.64915
 Alpha virt. eigenvalues --    0.66087   0.67731   0.68602   0.70424   0.70918
 Alpha virt. eigenvalues --    0.72806   0.73328   0.74326   0.74947   0.76302
 Alpha virt. eigenvalues --    0.76812   0.78137   0.80328   0.80777   0.82007
 Alpha virt. eigenvalues --    0.82310   0.84753   0.85288   0.86413   0.88285
 Alpha virt. eigenvalues --    0.89241   0.89926   0.90569   0.91301   0.92456
 Alpha virt. eigenvalues --    0.93702   0.94682   0.95752   0.96537   0.96863
 Alpha virt. eigenvalues --    0.98626   0.98925   1.00288   1.01431   1.02275
 Alpha virt. eigenvalues --    1.03428   1.06735   1.08626   1.10379   1.11427
 Alpha virt. eigenvalues --    1.12201   1.13018   1.13511   1.16101   1.21513
 Alpha virt. eigenvalues --    1.22980   1.24283   1.25068   1.25396   1.26173
 Alpha virt. eigenvalues --    1.28651   1.31817   1.32246   1.34101   1.35550
 Alpha virt. eigenvalues --    1.38302   1.40066   1.40599   1.41217   1.42411
 Alpha virt. eigenvalues --    1.43593   1.44961   1.45998   1.48684   1.49711
 Alpha virt. eigenvalues --    1.51151   1.53486   1.56602   1.57293   1.58223
 Alpha virt. eigenvalues --    1.60014   1.63268   1.64061   1.64855   1.65590
 Alpha virt. eigenvalues --    1.67557   1.69280   1.71859   1.75718   1.77300
 Alpha virt. eigenvalues --    1.77841   1.85322   1.86912   1.87316   1.88916
 Alpha virt. eigenvalues --    1.91203   1.94110   1.96436   1.97647   2.02869
 Alpha virt. eigenvalues --    2.04700   2.07069   2.11821   2.17498   2.20033
 Alpha virt. eigenvalues --    2.25017   2.27083   2.27556   2.30876   2.39974
 Alpha virt. eigenvalues --    2.41052   2.46125   2.51479   2.59840   2.63914
 Alpha virt. eigenvalues --    2.67473   2.75416   2.83612   2.87379   2.88362
 Alpha virt. eigenvalues --    2.92586   2.94336   2.96956   2.99056   3.00454
 Alpha virt. eigenvalues --    3.02257   3.05254   3.08685   3.11077   3.11880
 Alpha virt. eigenvalues --    3.13894   3.15160   3.16020   3.21044   3.23415
 Alpha virt. eigenvalues --    3.25335   3.27402   3.31109   3.33206   3.35533
 Alpha virt. eigenvalues --    3.36969   3.38724   3.41111   3.41791   3.46429
 Alpha virt. eigenvalues --    3.47045   3.51392   3.53505   3.54345   3.57503
 Alpha virt. eigenvalues --    3.59665   3.61310   3.61994   3.63909   3.64700
 Alpha virt. eigenvalues --    3.65123   3.68118   3.69238   3.72102   3.77006
 Alpha virt. eigenvalues --    3.78506   3.81453   3.85116   3.85957   3.91673
 Alpha virt. eigenvalues --    3.95934   3.99706   4.00367   4.02069   4.02299
 Alpha virt. eigenvalues --    4.03278   4.05600   4.06387   4.07672   4.08412
 Alpha virt. eigenvalues --    4.09912   4.10734   4.12589   4.14397   4.15184
 Alpha virt. eigenvalues --    4.19721   4.20601   4.22779   4.23002   4.25344
 Alpha virt. eigenvalues --    4.26713   4.27595   4.29722   4.31567   4.31807
 Alpha virt. eigenvalues --    4.32614   4.33490   4.36596   4.37229   4.38943
 Alpha virt. eigenvalues --    4.39894   4.42064   4.42261   4.43299   4.45648
 Alpha virt. eigenvalues --    4.46655   4.49316   4.51423   4.52901   4.55481
 Alpha virt. eigenvalues --    4.55618   4.56863   4.57473   4.57969   4.60335
 Alpha virt. eigenvalues --    4.61504   4.62757   4.64806   4.69280   4.70178
 Alpha virt. eigenvalues --    4.71561   4.72626   4.75286   4.81029   4.82892
 Alpha virt. eigenvalues --    4.87051   4.89520   4.92999   4.95640   4.95871
 Alpha virt. eigenvalues --    4.97728   4.99830   5.00573   5.02252   5.02933
 Alpha virt. eigenvalues --    5.03842   5.05300   5.05912   5.06103   5.07422
 Alpha virt. eigenvalues --    5.07682   5.10353   5.12286   5.15148   5.19370
 Alpha virt. eigenvalues --    5.21829   5.23508   5.27764   5.31929   5.35022
 Alpha virt. eigenvalues --    5.35441   5.37939   5.39807   5.44699   5.51971
 Alpha virt. eigenvalues --    5.55965   5.56870   5.58421   5.59983   5.61407
 Alpha virt. eigenvalues --    5.62325   5.68431   5.73362   5.75253   5.84261
 Alpha virt. eigenvalues --    5.87493   5.91269   5.92902   5.96524   5.98646
 Alpha virt. eigenvalues --    6.01639   6.02529   6.04889   6.10252   6.20292
 Alpha virt. eigenvalues --    6.22963   6.26120   6.28578   6.32034   6.34357
 Alpha virt. eigenvalues --    6.39847   6.51183   6.65719   6.71124   6.74683
 Alpha virt. eigenvalues --    6.85145   6.90302   6.91545   7.04838   7.09178
 Alpha virt. eigenvalues --    8.46055   9.92615  10.63397  10.97017  11.26679
 Alpha virt. eigenvalues --   11.29034  11.30768  11.78175  12.10847  12.91533
 Alpha virt. eigenvalues --   12.97914  13.06264  13.17674  13.26371  16.06136
 Alpha virt. eigenvalues --   18.56443  22.25189
          Condensed to atoms (all electrons):
               1          2          3          4          5          6
     1  N    6.280777   0.395334   0.354056  -0.062095  -0.047246   0.000716
     2  C    0.395334   4.333245  -0.016789   0.801626   0.154394  -0.016861
     3  H    0.354056  -0.016789   0.445130   0.009616   0.013790  -0.000049
     4  O   -0.062095   0.801626   0.009616   7.676997  -0.081739   0.005034
     5  C   -0.047246   0.154394   0.013790  -0.081739   5.567409   0.298985
     6  N    0.000716  -0.016861  -0.000049   0.005034   0.298985   5.267873
     7  O   -0.000011   0.003649   0.000022  -0.012809  -0.099912   0.525658
     8  C   -0.052441  -0.020284  -0.000058   0.001818   0.351682  -0.013810
     9  O   -0.000010   0.003847   0.000001  -0.000013  -0.136786   0.557304
    10  H   -0.000411   0.003829   0.000062  -0.000018  -0.022666  -0.013792
    11  C    0.014810  -0.023423   0.003677   0.000391  -0.020409   0.001975
    12  N    0.000889  -0.000161  -0.000020  -0.000001   0.002748  -0.000017
    13  O    0.000011   0.000017   0.000001   0.000000   0.001460  -0.000010
    14  O    0.000688   0.000028   0.000004   0.000000  -0.000010  -0.000000
    15  C    0.438881  -0.042766  -0.039590   0.001095  -0.056916   0.000175
    16  H   -0.008902   0.003076  -0.008034  -0.000129  -0.000621   0.000007
               7          8          9         10         11         12
     1  N   -0.000011  -0.052441  -0.000010  -0.000411   0.014810   0.000889
     2  C    0.003649  -0.020284   0.003847   0.003829  -0.023423  -0.000161
     3  H    0.000022  -0.000058   0.000001   0.000062   0.003677  -0.000020
     4  O   -0.012809   0.001818  -0.000013  -0.000018   0.000391  -0.000001
     5  C   -0.099912   0.351682  -0.136786  -0.022666  -0.020409   0.002748
     6  N    0.525658  -0.013810   0.557304  -0.013792   0.001975  -0.000017
     7  O    7.985378   0.007286  -0.093349   0.000717   0.000059  -0.000000
     8  C    0.007286   5.145080   0.006076   0.310039   0.359702  -0.019757
     9  O   -0.093349   0.006076   7.992405   0.029530   0.001658  -0.000013
    10  H    0.000717   0.310039   0.029530   0.536384  -0.014957  -0.013070
    11  C    0.000059   0.359702   0.001658  -0.014957   5.032867   0.332192
    12  N   -0.000000  -0.019757  -0.000013  -0.013070   0.332192   5.237018
    13  O    0.000000   0.008930   0.000002   0.023174  -0.132821   0.561647
    14  O    0.000000   0.008370   0.000000   0.000424  -0.132381   0.542871
    15  C   -0.000002  -0.020670  -0.000003   0.008565   0.424648  -0.013666
    16  H   -0.000000   0.006236  -0.000000  -0.000290  -0.012368  -0.015519
              13         14         15         16
     1  N    0.000011   0.000688   0.438881  -0.008902
     2  C    0.000017   0.000028  -0.042766   0.003076
     3  H    0.000001   0.000004  -0.039590  -0.008034
     4  O    0.000000   0.000000   0.001095  -0.000129
     5  C    0.001460  -0.000010  -0.056916  -0.000621
     6  N   -0.000010  -0.000000   0.000175   0.000007
     7  O    0.000000   0.000000  -0.000002  -0.000000
     8  C    0.008930   0.008370  -0.020670   0.006236
     9  O    0.000002   0.000000  -0.000003  -0.000000
    10  H    0.023174   0.000424   0.008565  -0.000290
    11  C   -0.132821  -0.132381   0.424648  -0.012368
    12  N    0.561647   0.542871  -0.013666  -0.015519
    13  O    7.975089  -0.099988   0.007543   0.000570
    14  O   -0.099988   8.016039   0.000276   0.034056
    15  C    0.007543   0.000276   4.852144   0.310051
    16  H    0.000570   0.034056   0.310051   0.519523
 Mulliken charges:
               1
     1  N   -0.315045
     2  C    0.421238
     3  H    0.238180
     4  O   -0.339774
     5  C    0.075835
     6  N    0.386812
     7  O   -0.316687
     8  C   -0.078201
     9  O   -0.360651
    10  H    0.152480
    11  C    0.164380
    12  N    0.384857
    13  O   -0.345625
    14  O   -0.370377
    15  C    0.130234
    16  H    0.172343
 Sum of Mulliken charges =  -0.00000
 Mulliken charges with hydrogens summed into heavy atoms:
               1
     1  N   -0.076865
     2  C    0.421238
     4  O   -0.339774
     5  C    0.075835
     6  N    0.386812
     7  O   -0.316687
     8  C    0.074279
     9  O   -0.360651
    11  C    0.164380
    12  N    0.384857
    13  O   -0.345625
    14  O   -0.370377
    15  C    0.302577
 APT charges:
               1
     1  N   -0.728701
     2  C   -1.086135
     3  H    0.762509
     4  O    0.924780
     5  C   -0.080889
     6  N   -1.296960
     7  O    0.772596
     8  C   -0.227224
     9  O    0.387804
    10  H    0.330268
    11  C   -0.422865
    12  N   -1.247960
    13  O    0.447892
    14  O    0.696142
    15  C    0.244423
    16  H    0.524320
 Sum of APT charges =  -0.00000
 APT charges with hydrogens summed into heavy atoms:
               1
     1  N    0.033807
     2  C   -1.086135
     4  O    0.924780
     5  C   -0.080889
     6  N   -1.296960
     7  O    0.772596
     8  C    0.103045
     9  O    0.387804
    11  C   -0.422865
    12  N   -1.247960
    13  O    0.447892
    14  O    0.696142
    15  C    0.768743
 Electronic spatial extent (au):  <R**2>=           2395.3951
 Charge=             -0.0000 electrons
 Dipole moment (field-independent basis, Debye):
    X=             -2.9400    Y=              4.0435    Z=             -0.0791  Tot=              5.0000
 Quadrupole moment (field-independent basis, Debye-Ang):
   XX=            -98.5890   YY=            -69.4451   ZZ=            -67.1627
   XY=             -5.9252   XZ=             -0.4860   YZ=             -0.9106
 Traceless Quadrupole moment (field-independent basis, Debye-Ang):
   XX=            -20.1901   YY=              8.9538   ZZ=             11.2362
   XY=             -5.9252   XZ=             -0.4860   YZ=             -0.9106
 Octapole moment (field-independent basis, Debye-Ang**2):
  XXX=              4.1528  YYY=             33.9789  ZZZ=              0.1282  XYY=            -20.2973
  XXY=              3.5980  XXZ=             -2.2655  XZZ=              0.7180  YZZ=             -2.8799
  YYZ=              0.5079  XYZ=             -1.1119
 Hexadecapole moment (field-independent basis, Debye-Ang**3):
 XXXX=          -2292.2775 YYYY=           -732.2234 ZZZZ=            -57.9027 XXXY=            -25.8389
 XXXZ=             -9.3346 YYYX=            -25.2663 YYYZ=             -6.6633 ZZZX=              0.3481
 ZZZY=              0.0648 XXYY=           -518.6997 XXZZ=           -314.1627 YYZZ=           -135.6153
 XXYZ=              0.3420 YYXZ=              4.1250 ZZXY=              1.0491
 N-N= 7.897021725065D+02 E-N=-3.295557689553D+03  KE= 7.291622656261D+02
  Exact polarizability:   0.000   0.000   0.000   0.000   0.000   0.000
 Approx polarizability: 241.452  25.695 214.837   4.483   3.382  67.551
 No NMR shielding tensors so no spin-rotation constants.
 Leave Link  601 at Thu Aug 26 21:28:16 2021, MaxMem= 24159191040 cpu:        18.9
 (Enter /public/home/users/caep010/software/Gaussian09/g09/l701.exe)
 Compute integral second derivatives.
 ... and contract with generalized density number  0.
 Leave Link  701 at Thu Aug 26 21:28:17 2021, MaxMem= 24159191040 cpu:        18.3
 (Enter /public/home/users/caep010/software/Gaussian09/g09/l702.exe)
 L702 exits ... SP integral derivatives will be done elsewhere.
 Leave Link  702 at Thu Aug 26 21:28:17 2021, MaxMem= 24159191040 cpu:         0.6
 (Enter /public/home/users/caep010/software/Gaussian09/g09/l703.exe)
 Compute integral second derivatives, UseDBF=F ICtDFT=           0.
 Integral derivatives from FoFJK, PRISM(SPDF).
 Calling FoFJK, ICntrl=    100147 FMM=F ISym2X=0 I1Cent= 0 IOpClX= 0 NMat=1 NMatS=1 NMatT=0.
 FoFJK:  IHMeth= 1 ICntrl=  100147 DoSepK=F KAlg= 0 I1Cent=   0 FoldK=F
 IRaf=         0 NMat=   1 IRICut=       1 DoRegI=T DoRafI=F ISym2E= 0.
 FoFCou: FMM=F IPFlag=           0 FMFlag=      100000 FMFlg1=         800
         NFxFlg=           0 DoJE=F BraDBF=F KetDBF=F FulRan=T
         wScrn=  0.000000 ICntrl=  100147 IOpCl=  0 I1Cent=           0 NGrid=           0
         NMat0=    1 NMatS0=      1 NMatT0=    0 NMatD0=    1 NMtDS0=    0 NMtDT0=    0
 Symmetry not used in FoFCou.
 Leave Link  703 at Thu Aug 26 21:29:04 2021, MaxMem= 24159191040 cpu:      1480.4
 (Enter /public/home/users/caep010/software/Gaussian09/g09/l716.exe)
 Dipole        =-1.15669954D+00 1.59084367D+00-3.11064088D-02
 Polarizability= 0.00000000D+00 0.00000000D+00 0.00000000D+00
                 0.00000000D+00 0.00000000D+00 0.00000000D+00
 ***** Axes restored to original set *****
 -------------------------------------------------------------------
 Center     Atomic                   Forces (Hartrees/Bohr)
 Number     Number              X              Y              Z
 -------------------------------------------------------------------
      1        7          -0.122628574    0.160202659   -0.011773363
      2        6          -0.011083908   -0.016546597    0.035003262
      3        1           0.138607272   -0.176025135    0.010243124
      4        8           0.002427934    0.011010847   -0.019214303
      5        6          -0.000222783    0.000464775    0.001016371
      6        7          -0.008756987    0.004617676    0.009103513
      7        8           0.008132041   -0.008885372    0.004035487
      8        6           0.091122652   -0.122095402    0.022637986
      9        8          -0.002354656    0.008320576   -0.012830691
     10        1          -0.107145986    0.128036922   -0.011601371
     11        6           0.004952063    0.002823549   -0.009653654
     12        7           0.003525688    0.003369236   -0.012450403
     13        8          -0.008315804    0.003680760    0.008373713
     14        8           0.005670906   -0.005265026    0.001728854
     15        6          -0.114460262    0.031901982    0.097076983
     16        1           0.120530404   -0.025611451   -0.111695507
 -------------------------------------------------------------------
 Cartesian Forces:  Max     0.176025135 RMS     0.064112203
 FormGI is forming the generalized inverse of G from B-inverse, IUseBI=4.
 Leave Link  716 at Thu Aug 26 21:29:04 2021, MaxMem= 24159191040 cpu:         0.9
 (Enter /public/home/users/caep010/software/Gaussian09/g09/l103.exe)

 GradGradGradGradGradGradGradGradGradGradGradGradGradGradGradGradGradGrad
 Berny optimization.
 Red2BG is reusing G-inverse.
 Internal  Forces:  Max     0.224117377 RMS     0.038915995
 Search for a local minimum.
 Step number   1 out of a maximum of   82
 All quantities printed in internal units (Hartrees-Bohrs-Radians)
 RMS Force = .38916D-01 SwitMx=.10000D-02 MixMth= 1
 Mixed Optimization -- RFO/linear search
 Second derivative matrix not updated -- analytic derivatives used.
 ITU=  0
     Eigenvalues ---   -0.00119   0.00643   0.00677   0.01450   0.01556
     Eigenvalues ---    0.01644   0.02034   0.02116   0.02840   0.03403
     Eigenvalues ---    0.04693   0.10885   0.11347   0.11605   0.11759
     Eigenvalues ---    0.12621   0.16643   0.18610   0.19774   0.21395
     Eigenvalues ---    0.21997   0.23295   0.24110   0.26223   0.27534
     Eigenvalues ---    0.29765   0.33440   0.40382   0.42586   0.43671
     Eigenvalues ---    0.47061   0.49020   0.52796   0.58498   0.62280
     Eigenvalues ---    0.62980   0.78993   0.80253   0.82756   0.85588
     Eigenvalues ---    0.85775   1.19310
 Eigenvalue     1 is  -1.19D-03 should be greater than     0.000000 Eigenvector:
                          D13       D15       D14       D16       D12
   1                    0.51032   0.50154   0.46678   0.45800   0.11469
                          D11       D3        D10       D9        D18
   1                    0.10549  -0.08371   0.07368   0.06448  -0.06117
 RFO step:  Lambda=-1.02584600D-01 EMin=-1.19230751D-03
 Linear search not attempted -- first point.
 Maximum step size (   0.300) exceeded in Quadratic search.
    -- Step size scaled by   0.914
 Iteration  1 RMS(Cart)=  0.08250260 RMS(Int)=  0.03272460
 Iteration  2 RMS(Cart)=  0.04612050 RMS(Int)=  0.00280423
 Iteration  3 RMS(Cart)=  0.00293540 RMS(Int)=  0.00010246
 Iteration  4 RMS(Cart)=  0.00000944 RMS(Int)=  0.00010219
 Iteration  5 RMS(Cart)=  0.00000000 RMS(Int)=  0.00010219
 ITry= 1 IFail=0 DXMaxC= 5.81D-01 DCOld= 1.00D+10 DXMaxT= 3.00D-01 DXLimC= 3.00D+00 Rises=F
 Variable       Old X    -DE/DX   Delta X   Delta X   Delta X     New X
                                 (Linear)    (Quad)   (Total)
    R1        2.63496   0.02064   0.00000   0.04134   0.04135   2.67631
    R2        1.62381   0.22412   0.00000   0.15775   0.15775   1.78155
    R3        2.50484   0.01895   0.00000   0.02523   0.02529   2.53013
    R4        2.31171  -0.02149   0.00000  -0.02629  -0.02629   2.28542
    R5        2.75268   0.00932   0.00000   0.01186   0.01179   2.76447
    R6        2.76191   0.00294   0.00000   0.00698   0.00698   2.76889
    R7        2.57411   0.00339   0.00000  -0.00102  -0.00109   2.57303
    R8        2.29370   0.00819   0.00000   0.00663   0.00663   2.30033
    R9        2.31134   0.01002   0.00000   0.00528   0.00528   2.31662
   R10        1.75747   0.16735   0.00000   0.15913   0.15913   1.91660
   R11        2.62618   0.01928   0.00000   0.03186   0.03186   2.65804
   R12        2.73337   0.00302   0.00000   0.00820   0.00820   2.74157
   R13        2.56888   0.01077   0.00000   0.01264   0.01271   2.58159
   R14        2.30180   0.00741   0.00000   0.00766   0.00766   2.30946
   R15        2.31859   0.00397   0.00000   0.00070   0.00070   2.31929
   R16        1.75819   0.16623   0.00000   0.15841   0.15841   1.91660
    A1        2.03726  -0.00589   0.00000  -0.02639  -0.02640   2.01085
    A2        2.20779  -0.00181   0.00000  -0.00126  -0.00138   2.20640
    A3        2.03814   0.00770   0.00000   0.02766   0.02764   2.06578
    A4        2.08855  -0.00652   0.00000  -0.00405  -0.00410   2.08445
    A5        1.95232   0.00042   0.00000  -0.00545  -0.00581   1.94651
    A6        2.24231   0.00610   0.00000   0.00959   0.00954   2.25185
    A7        2.07901   0.00709   0.00000  -0.00184  -0.00171   2.07730
    A8        2.14150   0.00171   0.00000   0.00806   0.00777   2.14927
    A9        2.06249  -0.00879   0.00000  -0.00608  -0.00595   2.05654
   A10        2.08625  -0.00575   0.00000  -0.02591  -0.02601   2.06024
   A11        2.05048  -0.01071   0.00000  -0.01077  -0.01087   2.03960
   A12        2.14620   0.01648   0.00000   0.03616   0.03606   2.18226
   A13        2.10410  -0.00193   0.00000  -0.00103  -0.00094   2.10316
   A14        2.07627   0.00211   0.00000   0.00443   0.00421   2.08048
   A15        2.10282  -0.00018   0.00000  -0.00340  -0.00331   2.09951
   A16        2.11607  -0.00290   0.00000  -0.00696  -0.00694   2.10913
   A17        2.10434   0.00023   0.00000  -0.00279  -0.00288   2.10146
   A18        2.06194   0.00269   0.00000   0.01011   0.01014   2.07208
   A19        2.07350  -0.00986   0.00000  -0.02095  -0.02097   2.05253
   A20        2.05188  -0.00277   0.00000  -0.00203  -0.00205   2.04983
   A21        2.15752   0.01269   0.00000   0.02325   0.02323   2.18074
   A22        2.08299  -0.00266   0.00000  -0.00146  -0.00147   2.08152
   A23        2.09883  -0.00308   0.00000  -0.01364  -0.01364   2.08519
   A24        2.10137   0.00573   0.00000   0.01510   0.01510   2.11647
    D1        0.05481  -0.00123   0.00000  -0.04444  -0.04451   0.01030
    D2       -3.08943  -0.00045   0.00000  -0.01459  -0.01480  -3.10424
    D3       -3.08579  -0.00107   0.00000  -0.06439  -0.06415   3.13325
    D4        0.05315  -0.00030   0.00000  -0.03455  -0.03444   0.01871
    D5       -0.03173   0.00030   0.00000   0.00636   0.00650  -0.02523
    D6        3.11067   0.00027   0.00000   0.00892   0.00896   3.11963
    D7        3.11085   0.00046   0.00000  -0.01358  -0.01366   3.09719
    D8       -0.02993   0.00043   0.00000  -0.01102  -0.01120  -0.04113
    D9        3.12400  -0.00005   0.00000   0.04427   0.04413  -3.11505
   D10       -0.03844   0.00019   0.00000   0.05221   0.05215   0.01371
   D11       -0.02053   0.00079   0.00000   0.07736   0.07740   0.05687
   D12        3.10021   0.00102   0.00000   0.08531   0.08542  -3.09755
   D13        0.22041  -0.00012   0.00000   0.34686   0.34686   0.56728
   D14       -2.94477   0.00085   0.00000   0.32298   0.32298  -2.62179
   D15       -2.90128  -0.00046   0.00000   0.33911   0.33911  -2.56217
   D16        0.21672   0.00051   0.00000   0.31523   0.31523   0.53195
   D17       -3.13583  -0.00003   0.00000  -0.03368  -0.03380   3.11356
   D18        0.00503  -0.00011   0.00000  -0.04249  -0.04257  -0.03755
   D19       -0.01489   0.00038   0.00000  -0.02576  -0.02583  -0.04072
   D20        3.12596   0.00030   0.00000  -0.03457  -0.03460   3.09136
   D21        3.11782   0.00079   0.00000   0.02006   0.01990   3.13772
   D22        0.02094   0.00011   0.00000   0.01024   0.01010   0.03104
   D23       -0.02451   0.00070   0.00000   0.01126   0.01115  -0.01336
   D24       -3.12139   0.00003   0.00000   0.00143   0.00135  -3.12004
   D25        0.02564   0.00091   0.00000  -0.00018  -0.00020   0.02545
   D26       -3.09088  -0.00185   0.00000  -0.01204  -0.01205  -3.10293
   D27        3.12358   0.00152   0.00000   0.00911   0.00912   3.13271
   D28        0.00706  -0.00124   0.00000  -0.00275  -0.00273   0.00433
   D29       -0.00922  -0.00006   0.00000   0.00836   0.00826  -0.00096
   D30        3.13156  -0.00003   0.00000   0.00578   0.00574   3.13730
   D31       -3.10747  -0.00058   0.00000  -0.00075  -0.00091  -3.10838
   D32        0.03331  -0.00055   0.00000  -0.00333  -0.00343   0.02988
         Item               Value     Threshold  Converged?
 Maximum Force            0.224117     0.000450     NO 
 RMS     Force            0.038916     0.000300     NO 
 Maximum Displacement     0.580861     0.001800     NO 
 RMS     Displacement     0.120548     0.001200     NO 
 Predicted change in Energy=-5.583714D-02
 Lowest energy point so far.  Saving SCF results.
 GradGradGradGradGradGradGradGradGradGradGradGradGradGradGradGradGradGrad

 Leave Link  103 at Thu Aug 26 21:29:04 2021, MaxMem= 24159191040 cpu:         4.1
 (Enter /public/home/users/caep010/software/Gaussian09/g09/l202.exe)
                          Input orientation:                          
 ---------------------------------------------------------------------
 Center     Atomic      Atomic             Coordinates (Angstroms)
 Number     Number       Type             X           Y           Z
 ---------------------------------------------------------------------
      1          7           0        5.676207    1.306214    4.432410
      2          6           0        4.712741    1.361647    5.468945
      3          1           0        6.250904    0.559307    4.457813
      4          8           0        4.687740    0.487552    6.304388
      5          6           0        3.834255    2.522351    5.323739
      6          7           0        2.795486    2.757907    6.329911
      7          8           0        3.025873    2.427278    7.478556
      8          6           0        3.941011    3.413301    4.299665
      9          8           0        1.775913    3.323658    5.951456
     10          1           0        3.294599    4.191225    4.224622
     11          6           0        4.966869    3.249244    3.351431
     12          7           0        5.110556    4.174664    2.243411
     13          8           0        4.327620    5.111076    2.182595
     14          8           0        6.001295    3.949038    1.429788
     15          6           0        5.823279    2.188254    3.435918
     16          1           0        6.565153    2.055285    2.757252
 ---------------------------------------------------------------------
                    Distance matrix (angstroms):
                    1          2          3          4          5
     1  N    0.000000
     2  C    1.416243   0.000000
     3  H    0.942757   2.008005   0.000000
     4  O    2.269709   1.209393   2.420428   0.000000
     5  C    2.380388   1.462894   3.231650   2.414646   0.000000
     6  N    3.742523   2.523226   4.503166   2.955636   1.465233
     7  O    4.190473   2.831895   4.797398   2.811229   2.303422
     8  C    2.732827   2.484365   3.675038   3.624435   1.361586
     9  O    4.646491   3.564725   5.467920   4.080048   2.296278
    10  H    3.746802   3.400879   4.688811   4.470286   2.069886
    11  C    2.333890   2.848065   3.179401   4.052754   2.387716
    12  N    3.652353   4.298301   4.390304   5.501372   3.721224
    13  O    4.621399   5.000664   5.440059   6.204502   4.100207
    14  O    4.013220   4.966866   4.552089   6.121196   4.679140
    15  C    1.338888   2.459629   1.969924   3.522777   2.762555
    16  H    2.038992   3.356464   2.286616   4.308671   3.776615
                    6          7          8          9         10
     6  N    0.000000
     7  O    1.217283   0.000000
     8  C    2.421501   3.451820   0.000000
     9  O    1.225900   2.167471   2.724720   0.000000
    10  H    2.595334   3.711038   1.014221   2.457852   0.000000
    11  C    3.718557   4.634248   1.406573   4.116779   2.108620
    12  N    4.905735   5.899661   2.485094   5.059018   2.687596
    13  O    5.008500   6.078200   2.741148   4.889826   2.466401
    14  O    5.975551   6.910606   3.573231   6.220164   3.898199
    15  C    4.226965   4.921944   2.406187   4.898801   3.320869
    16  H    5.240989   5.912326   3.333073   5.894789   4.172763
                   11         12         13         14         15
    11  C    0.000000
    12  N    1.450777   0.000000
    13  O    2.289375   1.222111   0.000000
    14  O    2.291824   1.227316   2.172151   0.000000
    15  C    1.366117   2.424019   3.514357   2.675184   0.000000
    16  H    2.081610   2.621384   3.830750   2.380420   1.014222
                   16
    16  H    0.000000
 Stoichiometry    C5H3N3O5
 Framework group  C1[X(C5H3N3O5)]
 Deg. of freedom    42
 Full point group                 C1      NOp   1
 RotChk:  IX=0 Diff= 9.46D-03
 Largest Abelian subgroup         C1      NOp   1
 Largest concise Abelian subgroup C1      NOp   1
                         Standard orientation:                         
 ---------------------------------------------------------------------
 Center     Atomic      Atomic             Coordinates (Angstroms)
 Number     Number       Type             X           Y           Z
 ---------------------------------------------------------------------
      1          7           0       -0.001899    1.993812   -0.069719
      2          6           0        1.229125    1.293584   -0.072059
      3          1           0        0.069482    2.931780   -0.132276
      4          8           0        2.265291    1.913532   -0.140291
      5          6           0        1.023397   -0.153934   -0.022830
      6          7           0        2.191939   -1.037068    0.015793
      7          8           0        3.191128   -0.639517    0.586190
      8          6           0       -0.209995   -0.730090    0.003759
      9          8           0        2.064664   -2.146562   -0.489833
     10          1           0       -0.306482   -1.739666    0.013298
     11          6           0       -1.351045    0.091973    0.029556
     12          7           0       -2.682374   -0.484001    0.053471
     13          8           0       -2.771759   -1.702595    0.077885
     14          8           0       -3.634254    0.290480    0.033239
     15          6           0       -1.224596    1.451691   -0.008591
     16          1           0       -2.038530    2.056634    0.005631
 ---------------------------------------------------------------------
 Rotational constants (GHZ):      1.4927532      0.5610977      0.4144805
 Leave Link  202 at Thu Aug 26 21:29:04 2021, MaxMem= 24159191040 cpu:         0.3
 (Enter /public/home/users/caep010/software/Gaussian09/g09/l301.exe)
 Standard basis: GTBas3 (6D, 7F)
 Ernie: Thresh=  0.10000D-02 Tol=  0.10000D-05 Strict=F.
 There are   418 symmetry adapted cartesian basis functions of A   symmetry.
 There are   379 symmetry adapted basis functions of A   symmetry.
   379 basis functions,   593 primitive gaussians,   418 cartesian basis functions
    47 alpha electrons       47 beta electrons
       nuclear repulsion energy       785.0221017492 Hartrees.
 IExCor=  402 DFT=T Ex+Corr=B3LYP ExCW=0 ScaHFX=  0.200000
 ScaDFX=  0.800000  0.720000  1.000000  0.810000 ScalE2=  1.000000  1.000000
 IRadAn=      0 IRanWt=     -1 IRanGd=            0 ICorTp=0 IEmpDi=  4
 NAtoms=   16 NActive=   16 NUniq=   16 SFac= 1.00D+00 NAtFMM=   60 NAOKFM=F Big=F
 Integral buffers will be    131072 words long.
 Raffenetti 2 integral format.
 Two-electron integral symmetry is turned on.
 Leave Link  301 at Thu Aug 26 21:29:04 2021, MaxMem= 24159191040 cpu:         1.7
 (Enter /public/home/users/caep010/software/Gaussian09/g09/l302.exe)
 NPDir=0 NMtPBC=     1 NCelOv=     1 NCel=       1 NClECP=     1 NCelD=      1
         NCelK=      1 NCelE2=     1 NClLst=     1 CellRange=     0.0.
 One-electron integrals computed using PRISM.
 NBasis=   379 RedAO= T EigKep=  1.16D-04  NBF=   379
 NBsUse=   379 1.00D-06 EigRej= -1.00D+00 NBFU=   379
 Precomputing XC quadrature grid using
 IXCGrd= 4 IRadAn=           0 IRanWt=          -1 IRanGd=           0 AccXCQ= 0.00D+00.
 Generated NRdTot=       0 NPtTot=           0 NUsed=           0 NTot=          32
 NSgBfM=   417   417   417   417   417 MxSgAt=    16 MxSgA2=    16.
 Leave Link  302 at Thu Aug 26 21:29:05 2021, MaxMem= 24159191040 cpu:        17.9
 (Enter /public/home/users/caep010/software/Gaussian09/g09/l303.exe)
 DipDrv:  MaxL=1.
 Leave Link  303 at Thu Aug 26 21:29:05 2021, MaxMem= 24159191040 cpu:         2.7
 (Enter /public/home/users/caep010/software/Gaussian09/g09/l401.exe)
 Initial guess from the checkpoint file:  "/public/home/users/caep010/.cache/gau_scr/Gau-156982.chk"
 B after Tr=     0.000000   -0.000000   -0.000000
         Rot=    0.999991   -0.002888    0.001050   -0.002955 Ang=  -0.49 deg.
 Guess basis will be translated and rotated to current coordinates.
 JPrj=2 DoOrth=T DoCkMO=T.
 Generating alternative initial guess.
 ExpMin= 1.61D-01 ExpMax= 5.48D+03 ExpMxC= 8.25D+02 IAcc=1 IRadAn=         1 AccDes= 0.00D+00
 Harris functional with IExCor=  402 and IRadAn=       1 diagonalized for initial guess.
 HarFok:  IExCor=  402 AccDes= 0.00D+00 IRadAn=         1 IDoV= 1 UseB2=F ITyADJ=14
 ICtDFT=  3500011 ScaDFX=  1.000000  1.000000  1.000000  1.000000
 FoFCou: FMM=F IPFlag=           0 FMFlag=      100000 FMFlg1=           0
         NFxFlg=           0 DoJE=T BraDBF=F KetDBF=T FulRan=T
         wScrn=  0.000000 ICntrl=     500 IOpCl=  0 I1Cent=   200000004 NGrid=           0
         NMat0=    1 NMatS0=      1 NMatT0=    0 NMatD0=    1 NMtDS0=    0 NMtDT0=    0
 Petite list used in FoFCou.
 Harris En= -732.593990091721    
 Leave Link  401 at Thu Aug 26 21:29:06 2021, MaxMem= 24159191040 cpu:        22.9
 (Enter /public/home/users/caep010/software/Gaussian09/g09/l502.exe)
 Closed shell SCF:
 Using DIIS extrapolation, IDIIS=  1040.
 Integral symmetry usage will be decided dynamically.
 Keep R1 ints in memory in canonical form, NReq=2630094979.
 IVT=      559104 IEndB=      559104 NGot= 24159191040 MDV= 21565875882
 LenX= 21565875882 LenY= 21565700717
 Requested convergence on RMS density matrix=1.00D-08 within 128 cycles.
 Requested convergence on MAX density matrix=1.00D-06.
 Requested convergence on             energy=1.00D-06.
 No special actions if energy rises.
 FoFCou: FMM=F IPFlag=           0 FMFlag=           0 FMFlg1=           0
         NFxFlg=           0 DoJE=F BraDBF=F KetDBF=F FulRan=T
         wScrn=  0.000000 ICntrl=     600 IOpCl=  0 I1Cent=           0 NGrid=           0
         NMat0=    1 NMatS0=  72010 NMatT0=    0 NMatD0=    1 NMtDS0=    0 NMtDT0=    0
 Symmetry not used in FoFCou.
 Integral accuracy reduced to 1.0D-05 until final iterations.

 Cycle   1  Pass 0  IDiag  1:
 E= -732.401922754743    
 DIIS: error= 1.15D-02 at cycle   1 NSaved=   1.
 NSaved= 1 IEnMin= 1 EnMin= -732.401922754743     IErMin= 1 ErrMin= 1.15D-02
 ErrMax= 1.15D-02  0.00D+00 EMaxC= 1.00D-01 BMatC= 9.19D-02 BMatP= 9.19D-02
 IDIUse=3 WtCom= 8.85D-01 WtEn= 1.15D-01
 Coeff-Com:  0.100D+01
 Coeff-En:   0.100D+01
 Coeff:      0.100D+01
 Recover alternate guess density for next cycle.
 RMSDP=2.33D-03 MaxDP=9.74D-02              OVMax= 0.00D+00

 Cycle   2  Pass 0  IDiag  1:
 E= -732.121522060247     Delta-E=        0.280400694496 Rises=F Damp=F
 Switch densities from cycles 1 and 2 for lowest energy.
 DIIS: error= 3.14D-02 at cycle   2 NSaved=   2.
 NSaved= 2 IEnMin= 1 EnMin= -732.401922754743     IErMin= 1 ErrMin= 1.15D-02
 ErrMax= 3.14D-02  0.00D+00 EMaxC= 1.00D+00 BMatC= 5.97D-01 BMatP= 9.19D-02
 IDIUse=1 WtCom= 1.00D+00 WtEn= 0.00D+00
 Coeff-Com:  0.883D+00 0.117D+00
 Coeff:      0.883D+00 0.117D+00
 Gap=     0.165 Goal=   None    Shift=    0.000
 RMSDP=1.45D-03 MaxDP=7.02D-02 DE= 2.80D-01 OVMax= 1.55D-01

 Cycle   3  Pass 0  IDiag  1:
 E= -732.523845184405     Delta-E=       -0.402323124158 Rises=F Damp=F
 DIIS: error= 7.83D-03 at cycle   3 NSaved=   3.
 NSaved= 3 IEnMin= 3 EnMin= -732.523845184405     IErMin= 3 ErrMin= 7.83D-03
 ErrMax= 7.83D-03  0.00D+00 EMaxC= 1.00D+00 BMatC= 3.20D-02 BMatP= 9.19D-02
 IDIUse=1 WtCom= 1.00D+00 WtEn= 0.00D+00
 Coeff-Com: -0.137D-01 0.182D+00 0.832D+00
 Coeff:     -0.137D-01 0.182D+00 0.832D+00
 Gap=     0.157 Goal=   None    Shift=    0.000
 RMSDP=4.06D-04 MaxDP=2.43D-02 DE=-4.02D-01 OVMax= 4.25D-02

 Cycle   4  Pass 0  IDiag  1:
 E= -732.543111508073     Delta-E=       -0.019266323667 Rises=F Damp=F
 DIIS: error= 2.12D-03 at cycle   4 NSaved=   4.
 NSaved= 4 IEnMin= 4 EnMin= -732.543111508073     IErMin= 4 ErrMin= 2.12D-03
 ErrMax= 2.12D-03  0.00D+00 EMaxC= 1.00D+00 BMatC= 4.31D-03 BMatP= 3.20D-02
 IDIUse=1 WtCom= 1.00D+00 WtEn= 0.00D+00
 Coeff-Com: -0.295D-01 0.839D-01 0.443D+00 0.502D+00
 Coeff:     -0.295D-01 0.839D-01 0.443D+00 0.502D+00
 Gap=     0.162 Goal=   None    Shift=    0.000
 RMSDP=2.32D-04 MaxDP=1.57D-02 DE=-1.93D-02 OVMax= 3.54D-02

 Cycle   5  Pass 0  IDiag  1:
 E= -732.546060400804     Delta-E=       -0.002948892731 Rises=F Damp=F
 DIIS: error= 9.24D-04 at cycle   5 NSaved=   5.
 NSaved= 5 IEnMin= 5 EnMin= -732.546060400804     IErMin= 5 ErrMin= 9.24D-04
 ErrMax= 9.24D-04  0.00D+00 EMaxC= 1.00D+00 BMatC= 1.01D-03 BMatP= 4.31D-03
 IDIUse=1 WtCom= 1.00D+00 WtEn= 0.00D+00
 Coeff-Com: -0.820D-02 0.163D-01 0.125D+00 0.334D+00 0.533D+00
 Coeff:     -0.820D-02 0.163D-01 0.125D+00 0.334D+00 0.533D+00
 Gap=     0.160 Goal=   None    Shift=    0.000
 RMSDP=8.89D-05 MaxDP=5.43D-03 DE=-2.95D-03 OVMax= 1.16D-02

 Cycle   6  Pass 0  IDiag  1:
 E= -732.546790522773     Delta-E=       -0.000730121969 Rises=F Damp=F
 DIIS: error= 4.46D-04 at cycle   6 NSaved=   6.
 NSaved= 6 IEnMin= 6 EnMin= -732.546790522773     IErMin= 6 ErrMin= 4.46D-04
 ErrMax= 4.46D-04  0.00D+00 EMaxC= 1.00D+00 BMatC= 1.75D-04 BMatP= 1.01D-03
 IDIUse=1 WtCom= 1.00D+00 WtEn= 0.00D+00
 Coeff-Com: -0.323D-02 0.424D-02 0.447D-01 0.187D+00 0.370D+00 0.397D+00
 Coeff:     -0.323D-02 0.424D-02 0.447D-01 0.187D+00 0.370D+00 0.397D+00
 Gap=     0.160 Goal=   None    Shift=    0.000
 RMSDP=3.90D-05 MaxDP=2.86D-03 DE=-7.30D-04 OVMax= 6.41D-03

 Cycle   7  Pass 0  IDiag  1:
 E= -732.546906926744     Delta-E=       -0.000116403971 Rises=F Damp=F
 DIIS: error= 2.25D-04 at cycle   7 NSaved=   7.
 NSaved= 7 IEnMin= 7 EnMin= -732.546906926744     IErMin= 7 ErrMin= 2.25D-04
 ErrMax= 2.25D-04  0.00D+00 EMaxC= 1.00D+00 BMatC= 3.56D-05 BMatP= 1.75D-04
 IDIUse=1 WtCom= 1.00D+00 WtEn= 0.00D+00
 Coeff-Com: -0.109D-02 0.570D-04 0.871D-02 0.801D-01 0.186D+00 0.310D+00
 Coeff-Com:  0.417D+00
 Coeff:     -0.109D-02 0.570D-04 0.871D-02 0.801D-01 0.186D+00 0.310D+00
 Coeff:      0.417D+00
 Gap=     0.160 Goal=   None    Shift=    0.000
 RMSDP=1.59D-05 MaxDP=9.82D-04 DE=-1.16D-04 OVMax= 2.31D-03

 Cycle   8  Pass 0  IDiag  1:
 E= -732.546933785366     Delta-E=       -0.000026858622 Rises=F Damp=F
 DIIS: error= 6.74D-05 at cycle   8 NSaved=   8.
 NSaved= 8 IEnMin= 8 EnMin= -732.546933785366     IErMin= 8 ErrMin= 6.74D-05
 ErrMax= 6.74D-05  0.00D+00 EMaxC= 1.00D+00 BMatC= 2.30D-06 BMatP= 3.56D-05
 IDIUse=1 WtCom= 1.00D+00 WtEn= 0.00D+00
 Coeff-Com: -0.317D-03-0.504D-03 0.404D-03 0.274D-01 0.698D-01 0.143D+00
 Coeff-Com:  0.257D+00 0.503D+00
 Coeff:     -0.317D-03-0.504D-03 0.404D-03 0.274D-01 0.698D-01 0.143D+00
[...]
 Quadrupole moment (field-independent basis, Debye-Ang):
   XX=           -105.5608   YY=            -70.4540   ZZ=            -70.8508
   XY=             -7.0957   XZ=             -0.1978   YZ=             -0.8066
 Traceless Quadrupole moment (field-independent basis, Debye-Ang):
   XX=            -23.2723   YY=             11.8345   ZZ=             11.4377
   XY=             -7.0957   XZ=             -0.1978   YZ=             -0.8066
 Octapole moment (field-independent basis, Debye-Ang**2):
  XXX=              7.2341  YYY=             42.0977  ZZZ=              0.4452  XYY=            -26.0863
  XXY=              9.7370  XXZ=             -4.7360  XZZ=             -0.4008  YZZ=             -2.8411
  YYZ=              3.3056  XYZ=             -0.6865
 Hexadecapole moment (field-independent basis, Debye-Ang**3):
 XXXX=          -2438.7570 YYYY=           -753.7447 ZZZZ=            -75.2206 XXXY=            -36.2742
 XXXZ=            -10.5837 YYYX=            -32.0125 YYYZ=             -5.7325 ZZZX=              0.2756
 ZZZY=             -0.1719 XXYY=           -550.3362 XXZZ=           -337.4180 YYZZ=           -150.8412
 XXYZ=              2.7823 YYXZ=              8.8201 ZZXY=              2.1352
 N-N= 7.825818439259D+02 E-N=-3.277909518945D+03  KE= 7.276658951975D+02
 No NMR shielding tensors so no spin-rotation constants.
 Leave Link  601 at Fri Aug 27 03:32:20 2021, MaxMem= 24159191040 cpu:        50.9
 (Enter /public/home/users/caep010/software/Gaussian09/g09/l9999.exe)
 1\1\GINC-B1366\SP\RHF\GFHFB2\C5H3N3O5\ROOT\27-Aug-2021\0\\#P Geom=AllC
 heck Guess=TCheck SCRF=Check HF/GFHFB2 SCF=Tight\\JERVUY\\0,1\N,0,5.69
 0998457,1.3189111365,4.4412078423\C,0,4.7102584824,1.3616364225,5.4857
 145985\H,0,6.3165026083,0.52626037,4.5214965825\O,0,4.6993040225,0.477
 5661862,6.3048886833\C,0,3.8328954262,2.5243147469,5.3342999999\N,0,2.
 7866786109,2.7760444454,6.3368950454\O,0,2.9378647452,2.2868990818,7.4
 42335891\C,0,3.9385986849,3.4009885233,4.2975112006\O,0,1.8480080437,3
 .4837852391,5.9888859525\H,0,3.2452751841,4.2284005665,4.2180546759\C,
 0,4.9529348364,3.2365387091,3.3308556676\N,0,5.09415117,4.174480012,2.
 2289764346\O,0,4.299918227,5.1031892401,2.180339058\O,0,5.9989755023,3
 .9680595821,1.4265795786\C,0,5.8226737077,2.1833540113,3.427349055\H,0
 ,6.6144622915,2.0275717272,2.7065097343\\Version=ES64L-G09RevE.01\Stat
 e=1-A\HF=-728.8144053\RMSD=5.861e-09\Dipole=1.791219,-0.8532308,-1.135
 6816\Quadrupole=7.100247,2.7795134,-9.8797603,-3.9417311,5.1471126,11.
 5263897\PG=C01 [X(C5H3N3O5)]\\@


 SCIENCE IS A VERY HUMAN FORM OF KNOWLEDGE.
 WE ARE ALWAYS AT THE BRINK OF THE KNOWN,
 WE ALWAYS FEEL FORWARD FOR WHAT IS HOPED.
 EVERY JUDGEMENT IN SCIENCE STANDS ON THE EDGE OF ERROR, AND IS PERSONAL.
 SCIENCE IS A TRIBUTE TO WHAT WE CAN KNOW ALTHOUGH WE ARE FALLIBLE.

                     -- J. BRONOWSKI
 Diagonal vibrational polarizability:
        0.0000000       0.0000000       0.0000000

 Temperature=              298.150000 Pressure=                      1.000000
 E(ZPE)=                     0.097116 E(Thermal)=                    0.107525
 E(CCSD(T))=              -730.620739 E(Empiric)=                   -0.236198
 DE(Plus)=                  -0.052562 DE(2DF)=                      -0.491822
 E(Delta-G3XP)=             -0.875450 DE(HF)=                       -0.072584
 G4(0 K)=                 -732.252240 G4 Energy=                  -732.241831
 G4 Enthalpy=             -732.240887 G4 Free Energy=             -732.289939
 1\1\GINC-B1366\Mixed\G4\G4\C5H3N3O5\ROOT\27-Aug-2021\0\\#P Geom=AllChe
 ck Guess=TCheck SCRF=Check HF/GFHFB2 SCF=Tight\\JERVUY\\0,1\N,0,5.6909
 98457,1.3189111365,4.4412078423\C,0,4.7102584824,1.3616364225,5.485714
 5985\H,0,6.3165026083,0.52626037,4.5214965825\O,0,4.6993040225,0.47756
 61862,6.3048886833\C,0,3.8328954262,2.5243147469,5.3342999999\N,0,2.78
 66786109,2.7760444454,6.3368950454\O,0,2.9378647452,2.2868990818,7.442
 335891\C,0,3.9385986849,3.4009885233,4.2975112006\O,0,1.8480080437,3.4
 837852391,5.9888859525\H,0,3.2452751841,4.2284005665,4.2180546759\C,0,
 4.9529348364,3.2365387091,3.3308556676\N,0,5.09415117,4.174480012,2.22
 89764346\O,0,4.299918227,5.1031892401,2.180339058\O,0,5.9989755023,3.9
 680595821,1.4265795786\C,0,5.8226737077,2.1833540113,3.427349055\H,0,6
 .6144622915,2.0275717272,2.7065097343\\Version=ES64L-G09RevE.01\State=
 1-A\MP2/GTBas1=-730.5277592\MP4/GTBas1=-730.6477741\CCSD(T)/G3Bas1=-73
 0.620739\MP2/GTBas2=-730.5764138\MP4/GTBas2=-730.7003362\MP2/GTBas3=-7
 30.9912501\MP4/GTBas3=-731.1395964\HF/GTLargeXP=-728.7446146\MP2/GTLar
 geXP=-731.9153551\HF/GFHFB1=-728.8029411\HF/GFHFB2=-728.8144053\G4=-73
 2.2522405\FreqCoord=10.7544285064,2.4923808416,8.3926665212,8.90109854
 68,2.5731199311,10.3664982343,11.9364600473,0.9944879739,8.5443902517,
 8.8803976177,0.9024693022,11.9145129098,7.2431226516,4.7702635448,10.0
 803661105,5.2660593949,5.2459637346,11.9749961686,5.5517597839,4.32161
 29581,14.063976623,7.4428728619,6.4269368901,8.1211192222,3.492229094,
 6.5834000077,11.3173542912,6.1326813238,7.9905190509,7.970968151,9.359
 6903947,6.1161717787,6.2944049999,9.6265505909,7.88862397,4.212155018,
 8.1256678428,9.6436300681,4.1202436965,11.3364207772,7.4985458891,2.69
 58447103,11.0032586686,4.1259411325,6.4767510758,12.4995222472,3.83155
 52792,5.1145621739\PG=C01 [X(C5H3N3O5)]\NImag=0\\0.44167229,-0.2679222
 4,0.64314232,-0.13946417,-0.25641073,0.48521788,-0.12859979,0.06595741
 ,0.01052126,0.35867108,0.03537642,-0.12386353,0.02299341,-0.12722517,0
 .71550369,0.04073273,-0.01053001,-0.09221712,-0.05703484,-0.34179912,0
 .57448209,-0.19611116,0.19763289,0.00195504,-0.01210440,0.02210842,-0.
 00435981,0.19981445,0.19649750,-0.27800336,0.03448103,0.00131127,0.004
 01743,-0.00225955,-0.20670411,0.28950432,0.00308572,0.03232490,-0.0551
 4469,0.01643151,-0.02528429,0.00944388,0.00104820,-0.03549814,0.053070
 00,0.00711385,-0.03709416,0.05043361,-0.08823262,0.00956994,0.00489937
 ,0.00202927,-0.00109709,-0.00594345,0.07127333,-0.02218171,0.00850328,
 0.03397306,0.01385230,-0.43696489,0.31703508,-0.00396402,-0.00284331,0
 .00287208,-0.00755253,0.47405823,0.03518899,0.05094813,-0.06567636,0.0
 0331572,0.32102399,-0.36999746,-0.00311156,-0.00008689,-0.00053766,-0.
 03715546,-0.39412145,0.43686237,-0.02480388,0.01406426,0.01662363,-0.1
 2971721,0.06229717,0.00850725,-0.00091407,0.00191666,0.00398525,0.0154
 2672,0.01583785,-0.01168796,0.36828906,0.01884674,0.01577702,-0.030656
 75,0.05113146,-0.15122591,0.01537218,0.00129142,0.00010348,0.00209859,
 0.02414770,-0.04061573,0.03198147,-0.14866875,0.50316741,0.01575605,-0
 .02925316,0.01663731,0.01571204,0.00845338,-0.10382473,0.00452873,0.00
 140615,-0.00281934,-0.01787985,0.03858736,0.00378868,-0.11687396,-0.23
 332370,0.52450144,0.00083740,0.00207846,0.00512823,-0.01741559,0.00717
 552,0.00856156,-0.00091004,-0.00009140,0.00010109,0.00195885,-0.005740
 80,0.00134037,-0.10481380,0.01310667,0.01505605,0.60131522,0.00655657,
 -0.00175822,0.00156804,0.01537248,0.00667075,-0.02684169,0.00087314,-0
 .00034664,-0.00142385,-0.00397910,-0.00155516,0.00482841,0.01425155,-0
 .10520534,0.00176909,-0.24753483,0.48486099,-0.00037199,0.00631966,-0.
 00232720,0.00243385,-0.02536616,0.02367788,-0.00087977,-0.00003388,0.0
 0086619,0.00340972,0.01010093,-0.01617880,0.01737475,0.00145840,-0.092
 00062,0.04342463,-0.23180379,0.75766327,0.00082841,0.00027038,-0.00154
 691,-0.00118377,0.00191121,-0.00001772,0.00030140,-0.00016843,-0.00001
 497,-0.00306741,0.00335109,0.00410544,0.01431514,-0.00767299,0.0265057
 1,-0.11684749,0.02973614,-0.01422847,0.10689677,-0.00001099,0.00067674
 ,-0.00253435,-0.00032626,-0.00671307,0.00655764,-0.00012977,0.00007804
 ,0.00025135,0.00645224,-0.00051367,-0.00759160,-0.00450314,0.01880301,
 0.01586354,0.03830556,-0.15911495,0.16138500,-0.07070728,0.15899227,-0
 .00107787,-0.00168037,0.00349864,-0.00149244,0.00901005,-0.00907565,-0
 .00009486,0.00006116,-0.00023910,0.00028593,-0.00623165,0.00592671,0.0
 1729500,0.02094585,-0.06259819,-0.02906251,0.17028200,-0.49692255,0.05
 194671,-0.23475857,0.58960009,-0.00721245,-0.01638917,0.02207954,0.029
 58082,-0.00366246,-0.02855094,-0.00128354,0.00032817,-0.00001230,-0.00
 717093,0.01072799,0.00172077,-0.09713730,0.02342443,0.01664739,-0.0095
 1784,-0.01824359,0.02500820,-0.00103662,0.00263293,0.00522043,0.484144
 10,-0.00117436,-0.00497707,0.00326344,0.00417396,-0.02284510,0.0204455
 2,-0.00107115,0.00066851,-0.00010131,0.00368990,0.00113633,-0.00225975
 ,0.00398736,-0.23153380,0.17631771,-0.01429026,0.01275593,0.00288736,0
 .00371770,0.00058712,-0.00513854,-0.20517005,0.56737080,0.00716042,0.0
 2039749,-0.03244981,-0.03601497,0.02872146,0.01417730,0.00200025,-0.00
 168931,-0.00065172,0.00885231,-0.00970850,0.00283346,0.03537815,0.1519
 2468,-0.25596355,0.02968413,0.00808266,-0.03556513,0.00037588,-0.00151
 160,0.00104525,-0.16645003,-0.20098912,0.54326087,-0.00313114,0.002390
 14,0.00044295,0.00007877,-0.00489836,0.00549574,-0.00039860,-0.0001256
 8,0.00057984,-0.00095542,0.00193891,0.00019396,-0.04945642,0.03983036,
 0.01096860,-0.36308353,0.20329998,-0.07067068,0.00204679,0.02934416,-0
 .04453608,-0.00007869,0.00440583,-0.00587298,0.41988129,-0.00030095,-0
 .00145518,-0.00042927,0.00180883,0.00107783,0.00105076,0.00009643,0.00
 016935,-0.00007947,0.00021716,0.00006749,-0.00138246,0.03465913,0.0020
 2030,-0.00527663,0.19919162,-0.22966453,0.07218468,0.04196208,-0.01324
 250,0.04576286,-0.00229883,-0.00419030,0.00822572,-0.27617969,0.242151
 12,-0.00003944,-0.00207850,0.00017698,0.00258793,0.00762315,-0.0063038
 2,0.00021153,0.00004701,-0.00037494,-0.00130784,-0.00259298,0.00446429
 ,0.01922353,-0.01082836,0.01495372,-0.05896939,0.06342333,-0.14600332,
 -0.07016974,0.06168883,-0.02733159,0.00572938,0.00182336,-0.00533886,0
 .09912774,-0.11514732,0.16545940,0.00042817,-0.00083481,0.00019617,0.0
 0279552,0.00280969,0.00453729,-0.00017925,-0.00002180,-0.00012102,-0.0
 0040626,-0.00127980,-0.00069479,0.01012288,-0.00073664,0.00049821,-0.0
 0291194,-0.00219814,-0.00195475,-0.00009768,0.00089995,-0.00143236,-0.
 16969058,0.14742347,-0.01194854,-0.00267408,0.00011881,0.00325879,0.17
 231051,-0.00036686,0.00035810,-0.00007289,0.00182839,0.00270735,0.0051
 0074,-0.00009734,-0.00016797,-0.00004333,-0.00024441,-0.00134359,-0.00
 071773,0.01444527,-0.00935229,0.00371771,-0.00048690,-0.00371907,-0.00
 165346,0.00017349,0.00111217,-0.00119906,0.14696875,-0.22322148,0.0185
 0022,-0.00009276,0.00157531,-0.00183684,-0.16406677,0.23005747,-0.0001
 1813,0.00047845,-0.00028894,0.00510953,0.00391172,-0.00095442,-0.00008
 098,-0.00009800,-0.00011750,-0.00166769,0.00059178,-0.00068523,-0.0124
 0243,0.01961899,0.00396037,-0.00652556,-0.00064560,-0.00164254,0.00105
 938,0.00026095,0.00085964,-0.01185112,0.01789156,-0.05301395,0.0023028
 0,-0.00170937,-0.00012568,0.00783209,-0.02442558,0.04737464,0.01846150
 ,0.02990741,-0.03889713,-0.03218435,0.01567811,0.01325165,0.00495896,-
 0.00217657,0.00385201,0.00615957,-0.00581774,-0.00039757,0.00363673,-0
 .03051332,0.03589772,0.01394342,0.00199675,-0.00516846,-0.00197142,-0.
 00258798,0.00313274,-0.19052594,0.05287241,0.08826929,-0.00266901,0.00
 149534,-0.00058587,-0.00806991,0.00246194,0.01371187,0.50452657,0.0107
 6589,-0.05180374,0.05222458,0.02374661,-0.01583431,-0.01912087,-0.0017
 8503,0.00385654,0.00401970,-0.00594016,0.00242528,0.00482492,-0.017888
 55,0.02272874,0.00301982,0.00319179,-0.00046807,0.00911739,-0.00145387
 ,0.00072625,0.00016120,0.02783650,-0.10245839,0.00939413,-0.00006521,0
 .00083349,-0.00224850,0.01590127,0.00359298,-0.01516827,-0.24063168,0.
 51117386,-0.01891367,0.03065132,0.00195249,0.00370122,-0.00886267,-0.0
 0256347,0.00307376,0.00448967,-0.00218383,-0.00029861,0.00469887,-0.00
 379055,0.02101374,0.02097309,-0.03920467,-0.00525429,0.00912290,0.0052
 5733,0.00101081,-0.00071396,-0.00165497,0.11502120,-0.02067379,-0.1697
 8328,0.00235206,-0.00361880,0.00134821,-0.00002844,0.00032598,0.006929
 27,-0.18084631,-0.12227844,0.45012539,-0.00260474,0.01068105,0.0004930
 0,-0.00252639,0.00049298,0.00101339,0.00207139,0.00149799,-0.00026585,
 0.00010342,-0.00006123,-0.00028295,-0.00350555,0.00324353,0.00484270,0
 .00297859,-0.00127928,0.00177362,-0.00100946,-0.00003515,0.00024726,0.
 00382002,-0.02097651,0.01319862,-0.00077140,0.00090141,-0.00062014,-0.
 00280642,-0.00042471,0.00005673,-0.09809558,0.00841668,0.01486643,0.68
 928624,0.00868933,0.00426768,-0.00627270,-0.00216341,-0.00361257,0.004
 39392,0.00150525,0.00028895,0.00122845,0.00045554,0.00333238,-0.003951
 14,0.00535721,0.00506660,-0.00754252,-0.00545785,0.00431479,0.00303020
 ,0.00150525,-0.00058044,-0.00151337,-0.01738625,0.00390126,0.01295629,
 0.00311501,-0.00264835,-0.00007825,0.00201625,-0.00161728,-0.00365845,
 0.00648075,-0.10877207,0.02483525,-0.27607498,0.61686898,0.00214887,-0
 .00878689,0.01390322,0.00376461,0.00208414,-0.00714734,-0.00024169,0.0
 0116662,0.00213575,-0.00098242,-0.00360064,0.00429974,0.00334990,-0.00
 455008,0.00518742,0.00490514,-0.00002928,-0.00210608,-0.00143819,-0.00
 018378,0.00102280,0.00996679,0.01615027,-0.03094698,-0.00241514,0.0009
 8645,0.00064613,-0.00214035,-0.00104393,0.00049579,0.01684586,0.022543
 18,-0.11870648,-0.22522796,-0.07309172,0.56362587,0.00051322,-0.000653
 33,-0.00129567,-0.00079029,0.00004790,0.00117879,-0.00034345,-0.000388
 92,-0.00037584,0.00050581,0.00012327,-0.00071631,0.00169245,0.00038558
 ,-0.00277735,-0.00187657,0.00112184,-0.00004675,0.00047979,-0.00020534
 ,0.00015349,-0.00477287,-0.00146923,0.00752286,0.00093579,-0.00088234,
 0.00035612,0.00182247,-0.00119584,-0.00111850,0.00602191,0.02752407,-0
 .01164275,-0.27386119,0.21503697,-0.00003016,0.32353821,-0.00016731,-0
 .00340012,0.00228696,0.00201001,0.00084892,-0.00264735,-0.00085684,-0.
 00027184,0.00023924,-0.00064240,-0.00121818,0.00188731,-0.00097913,-0.
 00178008,0.00275657,0.00294904,-0.00140584,-0.00123501,-0.00078255,0.0
 0022497,0.00048711,0.00510015,0.00010596,-0.00549469,-0.00160864,0.001
 19160,0.00010260,-0.00108866,-0.00132731,0.00228197,0.03513313,-0.0469
 3737,0.02860111,0.22230698,-0.36551798,0.03954530,-0.30607843,0.417982
 04,-0.00171816,0.00292789,-0.00226975,-0.00088859,-0.00066211,0.001709
 66,0.00010809,-0.00028891,-0.00081064,0.00012315,0.00112037,-0.0011247
 5,-0.00126943,0.00109882,0.00015480,-0.00104221,0.00007577,0.00100021,
 0.00036759,-0.00000591,-0.00050821,0.00069092,0.00200142,-0.00235689,0
 .00069517,-0.00010994,-0.00040765,-0.00127703,0.00242011,-0.00136056,-
 0.01934479,0.03711382,0.00460658,-0.00742889,0.04770214,-0.11965823,-0
 .01964914,-0.04932529,0.10139123,0.00115118,-0.00393314,0.00216827,0.0
 0025505,0.00070343,-0.00056913,-0.00057730,0.00001499,0.00025905,0.000
 15953,-0.00069577,0.00043467,-0.00020921,-0.00081513,0.00030286,0.0001
 4333,-0.00051450,-0.00109430,-0.00009293,0.00007891,0.00061524,0.00247
 497,-0.00043558,0.00206508,-0.00021099,-0.00001865,0.00035002,0.000936
 91,0.00055349,-0.00107317,-0.00447846,-0.01027730,0.03695085,-0.320192
 93,0.05787752,0.20958843,-0.05728202,0.04884042,0.04503132,0.38207475,
 -0.00245503,0.00138868,0.00082353,0.00008966,0.00119382,-0.00076336,-0
 .00010441,0.00003964,-0.00022312,-0.00007211,-0.00104806,0.00101341,-0
 .00173868,-0.00046658,0.00181908,0.00136859,-0.00134779,-0.00101488,-0
 .00041334,0.00015792,0.00056464,0.00401244,-0.00177479,0.00110544,-0.0
 0080427,0.00066452,0.00013741,-0.00034987,-0.00005189,0.00087745,-0.01
 597885,0.01614699,0.02112950,0.04915649,-0.12187646,-0.01291776,0.0672
 2394,-0.00300677,-0.04481412,-0.10025076,0.11607257,0.00073929,0.00255
 712,-0.00382825,0.00000236,-0.00172930,0.00186264,0.00040037,-0.000361
 40,-0.00036181,-0.00010533,0.00180713,-0.00161086,0.00117710,0.0006152
 9,-0.00242415,-0.00271051,0.00083826,0.00114634,0.00090590,0.00006003,
 -0.00125346,-0.00243644,0.00633193,0.00039971,0.00109288,-0.00044003,-
 0.00042271,-0.00023258,-0.00013972,0.00077056,0.04270409,0.01470223,-0
 .04306934,0.21843147,-0.02263282,-0.30129622,0.02643682,-0.02427171,0.
 02192635,-0.29141418,0.02583495,0.33000897,-0.11302889,0.00350226,0.07
 055414,0.01767538,-0.02468327,0.00174836,0.00442165,0.01099632,-0.0211
 6868,-0.00460009,0.00163272,0.00813521,-0.00392803,0.01268270,-0.00851
 528,-0.00269082,0.00090947,0.00101360,0.00031818,0.00063624,-0.0010579
 0,-0.03169227,0.01950418,0.02498859,0.00026517,-0.00068559,0.00065807,
 -0.00110799,0.00085971,0.00429689,-0.21390917,0.15833193,0.00453820,0.
 01099254,0.00086218,-0.01859305,0.00263974,-0.00406900,0.00568554,-0.0
 0573024,0.00228989,0.00494511,0.55424613,0.03694339,-0.21450369,0.1237
 8855,-0.05653050,0.02916753,0.03302709,-0.00691804,-0.01687851,0.02100
 981,0.01328019,-0.00239075,-0.00784263,0.00702714,-0.02755847,0.020884
 83,0.00663007,-0.00349989,-0.00519617,-0.00142016,-0.00138270,0.003468
 69,0.03775683,0.00716807,-0.04302925,-0.00051184,0.00117450,0.00000664
 ,0.00089956,0.00125306,0.00097120,0.13493944,-0.24054013,0.02590756,0.
 00168982,-0.03255413,0.02653602,0.00048551,0.00347150,-0.00006700,0.01
 080462,-0.00565596,-0.00562256,-0.22681579,0.56442031,0.03666024,0.163
 23824,-0.25111285,0.03382640,-0.00444991,-0.03757346,-0.00316158,0.000
 08226,-0.00151625,-0.00334646,0.00497256,0.00335738,-0.00215738,0.0134
 5482,-0.01069744,-0.00429023,0.00131994,0.00364602,0.00121322,0.001144
 38,-0.00243783,0.00624254,-0.02062222,0.02304563,0.00020769,-0.0001069
 1,-0.00098155,0.00387519,0.00125108,-0.00243755,0.02763868,0.00011518,
 -0.09710055,-0.01925013,0.02692731,-0.01081427,0.00107756,0.00508019,-
 0.00217774,-0.00369056,0.00394987,0.00089994,-0.22152510,-0.16573411,0
 .56123000,0.00448605,0.00034259,0.00060802,0.00369781,0.00229849,0.000
 60629,-0.00077533,-0.00178891,-0.00144058,-0.00029761,-0.00017054,-0.0
 0038852,0.00100248,0.00031625,-0.00066961,-0.00110917,-0.00036848,-0.0
 0002322,0.00012029,0.00015593,-0.00014278,0.00009911,0.00481236,0.0007
 9093,0.00022148,-0.00008475,0.00018931,-0.00047235,-0.00031547,0.00046
 828,-0.00580481,0.00232707,0.01445580,-0.00387853,-0.00181877,0.000499
 36,0.00077701,-0.00006677,-0.00008355,0.00157837,-0.00197370,0.0000636
 3,-0.21387130,0.04173975,0.14667993,0.21422652,-0.01909641,0.00565110,
 0.02097410,0.00496296,-0.00012793,0.00097902,-0.00187684,-0.00021462,-
 0.00139060,-0.00119070,-0.00102965,0.00144601,-0.00006534,0.00007163,0
 .00080077,-0.00039529,-0.00051693,-0.00018029,-0.00000871,0.00018884,-
 0.00022198,0.00436215,-0.00269304,0.00311434,-0.00003793,0.00027536,-0
 .00004158,0.00050749,0.00014445,-0.00117882,0.01674086,0.00532995,-0.0
 1458759,0.00046496,-0.00086135,-0.00480790,-0.00107563,0.00104049,0.00
 081294,-0.00193257,-0.00043584,0.00245058,0.04404606,-0.06169075,-0.03
 062269,-0.04540505,0.05486829,0.02023110,-0.00110355,-0.01607155,-0.00
 197559,0.00433224,0.00430402,-0.00139572,-0.00141782,-0.00075835,0.000
 68302,0.00049600,-0.00193096,0.00046285,-0.00018329,0.00034894,-0.0003
 4651,-0.00056620,-0.00051101,-0.00007464,0.00008807,0.00006841,0.00097
 366,0.00267217,0.00130793,0.00003544,0.00008972,0.00024140,-0.00036789
 ,-0.00018328,0.00023610,-0.00006376,0.00157993,0.00783788,-0.00184728,
 -0.00233260,-0.00064111,0.00092680,-0.00029433,-0.00011443,0.00007555,
 0.00247793,-0.00274770,0.14429629,-0.02810868,-0.17532949,-0.16161330,
 0.02245369,0.18375991\\0.00001757,-0.00002999,0.00000640,0.00000724,-0
 .00000154,0.00000201,-0.00002272,0.00002557,0.00000220,-0.00000467,0.0
 0000318,0.00000003,-0.00000238,0.00000441,0.00000065,-0.00000666,-0.00
 000233,-0.00000436,0.00000386,-0.00000046,-0.00000021,-0.00000096,-0.0
 0000239,-0.00000035,-0.00000134,0.00000501,-0.00000409,-0.00000183,0.0
 0000218,-0.00000109,0.00000279,0.00000012,-0.00000142,0.00000111,0.000
 00021,-0.00000289,0.00000150,-0.00000128,0.00000036,0.00000403,-0.0000
 0289,0.00000060,-0.00000407,0.00000367,0.00000424,0.00000652,-0.000003
 48,-0.00000205\\\@
 Job cpu time:       0 days 21 hours 34 minutes 17.8 seconds.
 File lengths (MBytes):  RWF= 117186 Int=      0 D2E=      0 Chk=    107 Scr=      1
 Normal termination of Gaussian 09 at Fri Aug 27 03:32:20 2021.
