 Entering Gaussian System, Link 0=g09
 Input=G4.JACYOB.gjf
 Output=G4.JACYOB.log
 Initial command:
 /public/home/users/caep010/software/Gaussian09/g09/l1.exe "/public/home/users/caep010/.cache/gau_scr/Gau-11689.inp" -scrdir="/public/home/users/caep010/.cache/gau_scr/"
 Entering Link 1 = /public/home/users/caep010/software/Gaussian09/g09/l1.exe PID=     11690.
  
 Copyright (c) 1988,1990,1992,1993,1995,1998,2003,2009,2015,
            Gaussian, Inc.  All Rights Reserved.
  
 This is part of the Gaussian(R) 09 program.  It is based on
 the Gaussian(R) 03 system (copyright 2003, Gaussian, Inc.),
 the Gaussian(R) 98 system (copyright 1998, Gaussian, Inc.),
 the Gaussian(R) 94 system (copyright 1995, Gaussian, Inc.),
 the Gaussian 92(TM) system (copyright 1992, Gaussian, Inc.),
 the Gaussian 90(TM) system (copyright 1990, Gaussian, Inc.),
 the Gaussian 88(TM) system (copyright 1988, Gaussian, Inc.),
 the Gaussian 86(TM) system (copyright 1986, Carnegie Mellon
 University), and the Gaussian 82(TM) system (copyright 1983,
 Carnegie Mellon University). Gaussian is a federally registered
 trademark of Gaussian, Inc.
  
 This software contains proprietary and confidential information,
 including trade secrets, belonging to Gaussian, Inc.
  
 This software is provided under written license and may be
 used, copied, transmitted, or stored only in accord with that
 written license.
  
 The following legend is applicable only to US Government
 contracts under FAR:
  
                    RESTRICTED RIGHTS LEGEND
  
 Use, reproduction and disclosure by the US Government is
 subject to restrictions as set forth in subparagraphs (a)
 and (c) of the Commercial Computer Software - Restricted
 Rights clause in FAR 52.227-19.
  
 Gaussian, Inc.
 340 Quinnipiac St., Bldg. 40, Wallingford CT 06492
  
  
 ---------------------------------------------------------------
 Warning -- This program may not be used in any manner that
 competes with the business of Gaussian, Inc. or will provide
 assistance to any competitor of Gaussian, Inc.  The licensee
 of this program is prohibited from giving any competitor of
 Gaussian, Inc. access to this program.  By using this program,
 the user acknowledges that Gaussian, Inc. is engaged in the
 business of creating and licensing software in the field of
 computational chemistry and represents and warrants to the
 licensee that it is not a competitor of Gaussian, Inc. and that
 it will not use this program in any manner prohibited above.
 ---------------------------------------------------------------
  

 Cite this work as:
 Gaussian 09, Revision E.01,
 M. J. Frisch, G. W. Trucks, H. B. Schlegel, G. E. Scuseria, 
 M. A. Robb, J. R. Cheeseman, G. Scalmani, V. Barone, B. Mennucci, 
 G. A. Petersson, H. Nakatsuji, M. Caricato, X. Li, H. P. Hratchian, 
 A. F. Izmaylov, J. Bloino, G. Zheng, J. L. Sonnenberg, M. Hada, 
 M. Ehara, K. Toyota, R. Fukuda, J. Hasegawa, M. Ishida, T. Nakajima, 
 Y. Honda, O. Kitao, H. Nakai, T. Vreven, J. A. Montgomery, Jr., 
 J. E. Peralta, F. Ogliaro, M. Bearpark, J. J. Heyd, E. Brothers, 
 K. N. Kudin, V. N. Staroverov, T. Keith, R. Kobayashi, J. Normand, 
 K. Raghavachari, A. Rendell, J. C. Burant, S. S. Iyengar, J. Tomasi, 
 M. Cossi, N. Rega, J. M. Millam, M. Klene, J. E. Knox, J. B. Cross, 
 V. Bakken, C. Adamo, J. Jaramillo, R. Gomperts, R. E. Stratmann, 
 O. Yazyev, A. J. Austin, R. Cammi, C. Pomelli, J. W. Ochterski, 
 R. L. Martin, K. Morokuma, V. G. Zakrzewski, G. A. Voth, 
 P. Salvador, J. J. Dannenberg, S. Dapprich, A. D. Daniels, 
 O. Farkas, J. B. Foresman, J. V. Ortiz, J. Cioslowski, 
 and D. J. Fox, Gaussian, Inc., Wallingford CT, 2013.
 
 ******************************************
 Gaussian 09:  ES64L-G09RevE.01 30-Nov-2015
                26-Aug-2021 
 ******************************************
 %nproc=32
 Will use up to   32 processors via shared memory.
 %mem=180GB
 ----------------
 #P G4 OPT=calcfc
 ----------------
 1/10=4,14=-1,18=20,19=15,26=3,38=1/1,3;
 2/9=110,12=2,17=6,18=5,40=1/2;
 3/5=35,7=104,11=2,16=1,25=1,30=1,71=2,74=-5,140=1/1,2,3;
 4//1;
 5/5=2,38=5/2;
 8/6=4,10=90,11=11/1;
 11/6=1,8=1,9=11,15=111,16=1/1,2,10;
 10/6=1,13=1/2;
 6/7=2,8=2,9=2,10=2,28=1/1;
 7/10=1,18=20,25=1/1,2,3,16;
 1/10=4,14=-1,18=20,19=15,26=3/3(2);
 2/9=110/2;
 99//99;
 2/9=110/2;
 3/5=35,7=104,11=2,16=1,25=1,30=1,71=1,74=-5/1,2,3;
 4/5=5,16=3,69=1/1;
 5/5=2,38=5/2;
 7//1,2,3,16;
 1/14=-1,18=20,19=15,26=3/3(-5);
 2/9=110/2;
 6/7=2,8=2,9=2,10=2,19=2,28=1/1;
 99/9=1/99;
 Leave Link    1 at Thu Aug 26 05:02:27 2021, MaxMem= 24159191040 cpu:         2.0
 (Enter /public/home/users/caep010/software/Gaussian09/g09/l101.exe)
 ------
 JACYOB
 ------
 Symbolic Z-matrix:
 Charge =  0 Multiplicity = 1
 C                     0.2224    1.8414    6.9187 
 N                    -0.8934    1.1409    6.7331 
 H                    -1.0511    0.328     7.1819 
 H                    -1.4666    1.3666    6.2733 
 C                     0.3324    3.1908    6.2712 
 C                     1.5851    3.7913    6.219 
 H                     2.371     3.3579    6.5866 
 C                    -0.7651    3.8584    5.7428 
 H                    -1.601     3.5219    5.7967 
 C                     1.7514    5.0337    5.6437 
 C                     0.6673    5.7053    5.1011 
 H                     2.6277    5.4116    5.6223 
 O                     1.1403    1.415     7.6178 
 C                    -0.5659    5.0954    5.1763 
 N                    -1.7294    5.7919    4.6085 
 O                    -2.8318    5.3171    4.8164 
 O                    -1.5436    6.7899    3.9363 
 H                     0.7822    6.5518    4.7179 
 
 NAtoms=     18 NQM=       18 NQMF=       0 NMMI=      0 NMMIF=      0
                NMic=       0 NMicF=      0.
                    Isotopes and Nuclear Properties:
 (Nuclear quadrupole moments (NQMom) in fm**2, nuclear magnetic moments (NMagM)
  in nuclear magnetons)

  Atom         1           2           3           4           5           6           7           8           9          10
 IAtWgt=          12          14           1           1          12          12           1          12           1          12
 AtmWgt=  12.0000000  14.0030740   1.0078250   1.0078250  12.0000000  12.0000000   1.0078250  12.0000000   1.0078250  12.0000000
 NucSpn=           0           2           1           1           0           0           1           0           1           0
 AtZEff=   0.0000000   0.0000000   0.0000000   0.0000000   0.0000000   0.0000000   0.0000000   0.0000000   0.0000000   0.0000000
 NQMom=    0.0000000   2.0440000   0.0000000   0.0000000   0.0000000   0.0000000   0.0000000   0.0000000   0.0000000   0.0000000
 NMagM=    0.0000000   0.4037610   2.7928460   2.7928460   0.0000000   0.0000000   2.7928460   0.0000000   2.7928460   0.0000000
 AtZNuc=   6.0000000   7.0000000   1.0000000   1.0000000   6.0000000   6.0000000   1.0000000   6.0000000   1.0000000   6.0000000

  Atom        11          12          13          14          15          16          17          18
 IAtWgt=          12           1          16          12          14          16          16           1
 AtmWgt=  12.0000000   1.0078250  15.9949146  12.0000000  14.0030740  15.9949146  15.9949146   1.0078250
 NucSpn=           0           1           0           0           2           0           0           1
 AtZEff=   0.0000000   0.0000000   0.0000000   0.0000000   0.0000000   0.0000000   0.0000000   0.0000000
 NQMom=    0.0000000   0.0000000   0.0000000   0.0000000   2.0440000   0.0000000   0.0000000   0.0000000
 NMagM=    0.0000000   2.7928460   0.0000000   0.0000000   0.4037610   0.0000000   0.0000000   2.7928460
 AtZNuc=   6.0000000   1.0000000   8.0000000   6.0000000   7.0000000   8.0000000   8.0000000   1.0000000
 Leave Link  101 at Thu Aug 26 05:02:27 2021, MaxMem= 24159191040 cpu:        10.3
 (Enter /public/home/users/caep010/software/Gaussian09/g09/l103.exe)

 GradGradGradGradGradGradGradGradGradGradGradGradGradGradGradGradGradGrad
 Berny optimization.
 Initialization pass.
                           ----------------------------
                           !    Initial Parameters    !
                           ! (Angstroms and Degrees)  !
 --------------------------                            --------------------------
 ! Name  Definition              Value          Derivative Info.                !
 --------------------------------------------------------------------------------
 ! R1    R(1,2)                  1.3305         calculate D2E/DX2 analytically  !
 ! R2    R(1,5)                  1.5007         calculate D2E/DX2 analytically  !
 ! R3    R(1,13)                 1.2301         calculate D2E/DX2 analytically  !
 ! R4    R(2,3)                  0.9419         calculate D2E/DX2 analytically  !
 ! R5    R(2,4)                  0.7687         calculate D2E/DX2 analytically  !
 ! R6    R(5,6)                  1.3902         calculate D2E/DX2 analytically  !
 ! R7    R(5,8)                  1.389          calculate D2E/DX2 analytically  !
 ! R8    R(6,7)                  0.9698         calculate D2E/DX2 analytically  !
 ! R9    R(6,10)                 1.3792         calculate D2E/DX2 analytically  !
 ! R10   R(8,9)                  0.9027         calculate D2E/DX2 analytically  !
 ! R11   R(8,14)                 1.3751         calculate D2E/DX2 analytically  !
 ! R12   R(10,11)                1.3859         calculate D2E/DX2 analytically  !
 ! R13   R(10,12)                0.9546         calculate D2E/DX2 analytically  !
 ! R14   R(11,14)                1.3778         calculate D2E/DX2 analytically  !
 ! R15   R(11,18)                0.9363         calculate D2E/DX2 analytically  !
 ! R16   R(14,15)                1.4701         calculate D2E/DX2 analytically  !
 ! R17   R(15,16)                1.2182         calculate D2E/DX2 analytically  !
 ! R18   R(15,17)                1.2175         calculate D2E/DX2 analytically  !
 ! A1    A(2,1,5)              118.3393         calculate D2E/DX2 analytically  !
 ! A2    A(2,1,13)             121.5056         calculate D2E/DX2 analytically  !
 ! A3    A(5,1,13)             120.1457         calculate D2E/DX2 analytically  !
 ! A4    A(1,2,3)              121.8949         calculate D2E/DX2 analytically  !
 ! A5    A(1,2,4)              123.656          calculate D2E/DX2 analytically  !
 ! A6    A(3,2,4)              114.4297         calculate D2E/DX2 analytically  !
 ! A7    A(1,5,6)              118.0764         calculate D2E/DX2 analytically  !
 ! A8    A(1,5,8)              122.5727         calculate D2E/DX2 analytically  !
 ! A9    A(6,5,8)              119.3466         calculate D2E/DX2 analytically  !
 ! A10   A(5,6,7)              121.5294         calculate D2E/DX2 analytically  !
 ! A11   A(5,6,10)             120.8927         calculate D2E/DX2 analytically  !
 ! A12   A(7,6,10)             117.5774         calculate D2E/DX2 analytically  !
 ! A13   A(5,8,9)              121.9902         calculate D2E/DX2 analytically  !
 ! A14   A(5,8,14)             118.3352         calculate D2E/DX2 analytically  !
 ! A15   A(9,8,14)             119.6099         calculate D2E/DX2 analytically  !
 ! A16   A(6,10,11)            120.3658         calculate D2E/DX2 analytically  !
 ! A17   A(6,10,12)            118.4682         calculate D2E/DX2 analytically  !
 ! A18   A(11,10,12)           121.1636         calculate D2E/DX2 analytically  !
 ! A19   A(10,11,14)           117.6615         calculate D2E/DX2 analytically  !
 ! A20   A(10,11,18)           120.1571         calculate D2E/DX2 analytically  !
 ! A21   A(14,11,18)           122.1668         calculate D2E/DX2 analytically  !
 ! A22   A(8,14,11)            123.3915         calculate D2E/DX2 analytically  !
 ! A23   A(8,14,15)            118.078          calculate D2E/DX2 analytically  !
 ! A24   A(11,14,15)           118.5263         calculate D2E/DX2 analytically  !
 ! A25   A(14,15,16)           117.7518         calculate D2E/DX2 analytically  !
 ! A26   A(14,15,17)           118.7382         calculate D2E/DX2 analytically  !
 ! A27   A(16,15,17)           123.4915         calculate D2E/DX2 analytically  !
 ! D1    D(5,1,2,3)           -173.9432         calculate D2E/DX2 analytically  !
 ! D2    D(5,1,2,4)              4.3686         calculate D2E/DX2 analytically  !
 ! D3    D(13,1,2,3)             4.9456         calculate D2E/DX2 analytically  !
 ! D4    D(13,1,2,4)          -176.7427         calculate D2E/DX2 analytically  !
 ! D5    D(2,1,5,6)           -166.3037         calculate D2E/DX2 analytically  !
 ! D6    D(2,1,5,8)             14.4622         calculate D2E/DX2 analytically  !
 ! D7    D(13,1,5,6)            14.792          calculate D2E/DX2 analytically  !
 ! D8    D(13,1,5,8)          -164.4422         calculate D2E/DX2 analytically  !
 ! D9    D(1,5,6,7)              0.0815         calculate D2E/DX2 analytically  !
 ! D10   D(1,5,6,10)          -179.6535         calculate D2E/DX2 analytically  !
 ! D11   D(8,5,6,7)            179.3411         calculate D2E/DX2 analytically  !
 ! D12   D(8,5,6,10)            -0.3939         calculate D2E/DX2 analytically  !
 ! D13   D(1,5,8,9)              2.5474         calculate D2E/DX2 analytically  !
 ! D14   D(1,5,8,14)           179.6104         calculate D2E/DX2 analytically  !
 ! D15   D(6,5,8,9)           -176.6774         calculate D2E/DX2 analytically  !
 ! D16   D(6,5,8,14)             0.3856         calculate D2E/DX2 analytically  !
 ! D17   D(5,6,10,11)           -0.2301         calculate D2E/DX2 analytically  !
 ! D18   D(5,6,10,12)         -179.6677         calculate D2E/DX2 analytically  !
 ! D19   D(7,6,10,11)         -179.9752         calculate D2E/DX2 analytically  !
 ! D20   D(7,6,10,12)            0.5872         calculate D2E/DX2 analytically  !
 ! D21   D(5,8,14,11)            0.2479         calculate D2E/DX2 analytically  !
 ! D22   D(5,8,14,15)          179.4866         calculate D2E/DX2 analytically  !
 ! D23   D(9,8,14,11)          177.3829         calculate D2E/DX2 analytically  !
 ! D24   D(9,8,14,15)           -3.3784         calculate D2E/DX2 analytically  !
 ! D25   D(6,10,11,14)           0.8292         calculate D2E/DX2 analytically  !
 ! D26   D(6,10,11,18)         179.4703         calculate D2E/DX2 analytically  !
 ! D27   D(12,10,11,14)       -179.7486         calculate D2E/DX2 analytically  !
 ! D28   D(12,10,11,18)         -1.1075         calculate D2E/DX2 analytically  !
 ! D29   D(10,11,14,8)          -0.8544         calculate D2E/DX2 analytically  !
 ! D30   D(10,11,14,15)        179.9102         calculate D2E/DX2 analytically  !
 ! D31   D(18,11,14,8)        -179.4664         calculate D2E/DX2 analytically  !
 ! D32   D(18,11,14,15)          1.2982         calculate D2E/DX2 analytically  !
 ! D33   D(8,14,15,16)           8.9982         calculate D2E/DX2 analytically  !
 ! D34   D(8,14,15,17)        -169.4926         calculate D2E/DX2 analytically  !
 ! D35   D(11,14,15,16)       -171.7253         calculate D2E/DX2 analytically  !
 ! D36   D(11,14,15,17)          9.7839         calculate D2E/DX2 analytically  !
 --------------------------------------------------------------------------------
 Trust Radius=3.00D-01 FncErr=1.00D-07 GrdErr=1.00D-06
 Number of steps in this run=     91 maximum allowed number of steps=    108.
 GradGradGradGradGradGradGradGradGradGradGradGradGradGradGradGradGradGrad

 Leave Link  103 at Thu Aug 26 05:02:28 2021, MaxMem= 24159191040 cpu:         0.5
 (Enter /public/home/users/caep010/software/Gaussian09/g09/l202.exe)
                          Input orientation:                          
 ---------------------------------------------------------------------
 Center     Atomic      Atomic             Coordinates (Angstroms)
 Number     Number       Type             X           Y           Z
 ---------------------------------------------------------------------
      1          6           0        0.222400    1.841400    6.918700
      2          7           0       -0.893400    1.140900    6.733100
      3          1           0       -1.051100    0.328000    7.181900
      4          1           0       -1.466600    1.366600    6.273300
      5          6           0        0.332400    3.190800    6.271200
      6          6           0        1.585100    3.791300    6.219000
      7          1           0        2.371000    3.357900    6.586600
      8          6           0       -0.765100    3.858400    5.742800
      9          1           0       -1.601000    3.521900    5.796700
     10          6           0        1.751400    5.033700    5.643700
     11          6           0        0.667300    5.705300    5.101100
     12          1           0        2.627700    5.411600    5.622300
     13          8           0        1.140300    1.415000    7.617800
     14          6           0       -0.565900    5.095400    5.176300
     15          7           0       -1.729400    5.791900    4.608500
     16          8           0       -2.831800    5.317100    4.816400
     17          8           0       -1.543600    6.789900    3.936300
     18          1           0        0.782200    6.551800    4.717900
 ---------------------------------------------------------------------
                    Distance matrix (angstroms):
                    1          2          3          4          5
     1  C    0.000000
     2  N    1.330473   0.000000
     3  H    1.995359   0.941858   0.000000
     4  H    1.869411   0.768710   1.441140   0.000000
     5  C    1.500745   2.432700   3.307427   2.562052   0.000000
     6  C    2.479645   3.664953   4.457709   3.898075   1.390174
     7  H    2.650763   3.948779   4.609278   4.334813   2.069611
     8  C    2.534992   2.895162   3.823157   2.642461   1.389029
     9  H    2.721719   2.654563   3.524509   2.211454   2.018121
    10  C    3.762213   4.830699   5.688908   4.919303   2.409066
    11  C    4.293172   5.092441   6.016476   4.975128   2.793564
    12  H    4.495826   5.645432   6.465981   5.792160   3.259053
    13  O    1.230081   2.234672   2.484716   2.933590   2.370548
    14  C    3.774373   4.262505   5.194801   3.989814   2.373447
    15  N    4.975238   5.181180   6.077556   4.735388   3.712319
    16  O    5.082154   4.987162   5.801517   4.426373   4.080411
    17  O    6.041616   6.336880   7.247940   5.905902   4.682377
    18  H    5.229222   6.012196   6.940315   5.861968   3.729796
                    6          7          8          9         10
     6  C    0.000000
     7  H    0.969847   0.000000
     8  C    2.398897   3.285974   0.000000
     9  H    3.225236   4.053100   0.902699   0.000000
    10  C    1.379197   2.020215   2.779195   3.680697   0.000000
    11  C    2.399053   3.258771   2.423755   3.224326   1.385906
    12  H    2.017037   2.283299   3.733369   4.635006   0.954551
    13  O    2.793079   2.520487   3.621654   3.907705   4.167194
    14  C    2.722995   3.692321   1.375053   1.982985   2.364772
    15  N    4.193092   5.162414   2.440273   2.565386   3.709781
    16  O    4.878971   5.834484   2.693932   2.387174   4.665883
    17  O    4.898070   5.841815   3.530325   3.760878   4.105664
    18  H    3.243194   4.027074   3.270927   4.002967   2.025113
                   11         12         13         14         15
    11  C    0.000000
    12  H    2.049653   0.000000
    13  O    4.996417   4.708205   0.000000
    14  C    1.377830   3.240059   4.734700   0.000000
    15  N    2.448331   4.489626   6.037244   1.470116   0.000000
    16  O    3.532061   5.519470   6.233122   2.304991   1.218172
    17  O    2.724187   4.705534   7.046014   2.316210   1.217530
    18  H    0.936273   2.350291   5.909684   2.036812   2.626319
                   16         17         18
    16  O    0.000000
    17  O    2.145501   0.000000
    18  H    3.820364   2.465144   0.000000
 Stoichiometry    C7H6N2O3
 Framework group  C1[X(C7H6N2O3)]
 Deg. of freedom    48
 Full point group                 C1      NOp   1
 Largest Abelian subgroup         C1      NOp   1
 Largest concise Abelian subgroup C1      NOp   1
                         Standard orientation:                         
 ---------------------------------------------------------------------
 Center     Atomic      Atomic             Coordinates (Angstroms)
 Number     Number       Type             X           Y           Z
 ---------------------------------------------------------------------
      1          6           0       -2.516631   -0.443517    0.002589
      2          7           0       -2.595736   -1.747163    0.256376
      3          1           0       -3.406725   -2.220309    0.182033
      4          1           0       -1.992240   -2.179915    0.454954
      5          6           0       -1.162321    0.203020    0.011144
      6          6           0       -1.100343    1.591584    0.036260
      7          1           0       -1.903574    2.134958    0.049223
      8          6           0        0.016760   -0.530574   -0.020642
      9          1           0        0.018150   -1.431188   -0.081953
     10          6           0        0.113539    2.246313    0.038137
     11          6           0        1.297772    1.526601    0.019691
     12          1           0        0.115766    3.200597    0.060605
     13          8           0       -3.517848    0.223228   -0.254533
     14          6           0        1.210400    0.152059   -0.017921
     15          7           0        2.454922   -0.630194   -0.040039
     16          8           0        2.367138   -1.830558   -0.228089
     17          8           0        3.510602   -0.056384    0.156584
     18          1           0        2.120129    1.974148    0.013538
 ---------------------------------------------------------------------
 Rotational constants (GHZ):      1.9283800      0.6047891      0.4633496
 Leave Link  202 at Thu Aug 26 05:02:28 2021, MaxMem= 24159191040 cpu:         0.5
 (Enter /public/home/users/caep010/software/Gaussian09/g09/l301.exe)
 Standard basis: GTBas3 (6D, 7F)
 Ernie: Thresh=  0.10000D-02 Tol=  0.10000D-05 Strict=F.
 There are   402 symmetry adapted cartesian basis functions of A   symmetry.
 There are   366 symmetry adapted basis functions of A   symmetry.
   366 basis functions,   570 primitive gaussians,   402 cartesian basis functions
    43 alpha electrons       43 beta electrons
       nuclear repulsion energy       666.3870314300 Hartrees.
 IExCor=  402 DFT=T Ex+Corr=B3LYP ExCW=0 ScaHFX=  0.200000
 ScaDFX=  0.800000  0.720000  1.000000  0.810000 ScalE2=  1.000000  1.000000
 IRadAn=      0 IRanWt=     -1 IRanGd=            0 ICorTp=0 IEmpDi=  4
 NAtoms=   18 NActive=   18 NUniq=   18 SFac= 1.00D+00 NAtFMM=   60 NAOKFM=F Big=F
 Integral buffers will be    131072 words long.
 Raffenetti 2 integral format.
 Two-electron integral symmetry is turned on.
 Leave Link  301 at Thu Aug 26 05:02:28 2021, MaxMem= 24159191040 cpu:         2.5
 (Enter /public/home/users/caep010/software/Gaussian09/g09/l302.exe)
 NPDir=0 NMtPBC=     1 NCelOv=     1 NCel=       1 NClECP=     1 NCelD=      1
         NCelK=      1 NCelE2=     1 NClLst=     1 CellRange=     0.0.
 One-electron integrals computed using PRISM.
 NBasis=   366 RedAO= T EigKep=  1.02D-04  NBF=   366
 NBsUse=   366 1.00D-06 EigRej= -1.00D+00 NBFU=   366
 Precomputing XC quadrature grid using
 IXCGrd= 4 IRadAn=           0 IRanWt=          -1 IRanGd=           0 AccXCQ= 0.00D+00.
 Generated NRdTot=       0 NPtTot=           0 NUsed=           0 NTot=          32
 NSgBfM=   401   401   401   401   401 MxSgAt=    18 MxSgA2=    18.
 Leave Link  302 at Thu Aug 26 05:02:28 2021, MaxMem= 24159191040 cpu:        17.7
 (Enter /public/home/users/caep010/software/Gaussian09/g09/l303.exe)
 DipDrv:  MaxL=1.
 Leave Link  303 at Thu Aug 26 05:02:28 2021, MaxMem= 24159191040 cpu:         1.5
 (Enter /public/home/users/caep010/software/Gaussian09/g09/l401.exe)
 ExpMin= 1.61D-01 ExpMax= 5.48D+03 ExpMxC= 8.25D+02 IAcc=1 IRadAn=         1 AccDes= 0.00D+00
 Harris functional with IExCor=  402 and IRadAn=       1 diagonalized for initial guess.
 HarFok:  IExCor=  402 AccDes= 0.00D+00 IRadAn=         1 IDoV= 1 UseB2=F ITyADJ=14
 ICtDFT=  3500011 ScaDFX=  1.000000  1.000000  1.000000  1.000000
 FoFCou: FMM=F IPFlag=           0 FMFlag=      100000 FMFlg1=           0
         NFxFlg=           0 DoJE=T BraDBF=F KetDBF=T FulRan=T
         wScrn=  0.000000 ICntrl=     500 IOpCl=  0 I1Cent=   200000004 NGrid=           0
         NMat0=    1 NMatS0=      1 NMatT0=    0 NMatD0=    1 NMtDS0=    0 NMtDT0=    0
 Petite list used in FoFCou.
 Harris En= -605.447549882040    
 JPrj=0 DoOrth=F DoCkMO=F.
 Leave Link  401 at Thu Aug 26 05:02:29 2021, MaxMem= 24159191040 cpu:        17.3
 (Enter /public/home/users/caep010/software/Gaussian09/g09/l502.exe)
 Closed shell SCF:
 Using DIIS extrapolation, IDIIS=  1040.
 Integral symmetry usage will be decided dynamically.
 Keep R1 ints in memory in canonical form, NReq=2288577883.
 IVT=      519130 IEndB=      519130 NGot= 24159191040 MDV= 21903338370
 LenX= 21903338370 LenY= 21903176325
 Requested convergence on RMS density matrix=1.00D-08 within 128 cycles.
 Requested convergence on MAX density matrix=1.00D-06.
 Requested convergence on             energy=1.00D-06.
 No special actions if energy rises.
 FoFCou: FMM=F IPFlag=           0 FMFlag=           0 FMFlg1=           0
         NFxFlg=           0 DoJE=F BraDBF=F KetDBF=F FulRan=T
         wScrn=  0.000000 ICntrl=     600 IOpCl=  0 I1Cent=           0 NGrid=           0
         NMat0=    1 NMatS0=  67161 NMatT0=    0 NMatD0=    1 NMtDS0=    0 NMtDT0=    0
 Symmetry not used in FoFCou.
 Integral accuracy reduced to 1.0D-05 until final iterations.

 Cycle   1  Pass 0  IDiag  1:
 E= -604.905406630575    
 DIIS: error= 2.63D-02 at cycle   1 NSaved=   1.
 NSaved= 1 IEnMin= 1 EnMin= -604.905406630575     IErMin= 1 ErrMin= 2.63D-02
 ErrMax= 2.63D-02  0.00D+00 EMaxC= 1.00D-01 BMatC= 5.43D-01 BMatP= 5.43D-01
 IDIUse=3 WtCom= 7.37D-01 WtEn= 2.63D-01
 Coeff-Com:  0.100D+01
 Coeff-En:   0.100D+01
 Coeff:      0.100D+01
 Gap=     0.230 Goal=   None    Shift=    0.000
 GapD=    0.230 DampG=1.000 DampE=0.500 DampFc=0.5000 IDamp=-1.
 Damping current iteration by 5.00D-01
 RMSDP=4.79D-03 MaxDP=2.80D-01              OVMax= 4.02D-01

 Cycle   2  Pass 0  IDiag  1:
 E= -604.964890701147     Delta-E=       -0.059484070572 Rises=F Damp=T
 DIIS: error= 1.12D-02 at cycle   2 NSaved=   2.
 NSaved= 2 IEnMin= 2 EnMin= -604.964890701147     IErMin= 2 ErrMin= 1.12D-02
 ErrMax= 1.12D-02  0.00D+00 EMaxC= 1.00D-01 BMatC= 1.15D-01 BMatP= 5.43D-01
 IDIUse=3 WtCom= 8.88D-01 WtEn= 1.12D-01
 Coeff-Com:  0.262D+00 0.738D+00
 Coeff-En:   0.434D+00 0.566D+00
 Coeff:      0.281D+00 0.719D+00
 Gap=     0.183 Goal=   None    Shift=    0.000
 RMSDP=1.75D-03 MaxDP=1.07D-01 DE=-5.95D-02 OVMax= 3.55D-01

 Cycle   3  Pass 0  IDiag  1:
 E= -605.262662033387     Delta-E=       -0.297771332240 Rises=F Damp=F
 DIIS: error= 9.28D-03 at cycle   3 NSaved=   3.
 NSaved= 3 IEnMin= 3 EnMin= -605.262662033387     IErMin= 3 ErrMin= 9.28D-03
 ErrMax= 9.28D-03  0.00D+00 EMaxC= 1.00D-01 BMatC= 7.50D-02 BMatP= 1.15D-01
 IDIUse=3 WtCom= 9.07D-01 WtEn= 9.28D-02
 Coeff-Com:  0.101D+00 0.437D+00 0.462D+00
 Coeff-En:   0.000D+00 0.000D+00 0.100D+01
 Coeff:      0.916D-01 0.397D+00 0.512D+00
 Gap=     0.211 Goal=   None    Shift=    0.000
 RMSDP=1.16D-03 MaxDP=7.18D-02 DE=-2.98D-01 OVMax= 1.43D-01

 Cycle   4  Pass 0  IDiag  1:
 E= -605.318902777102     Delta-E=       -0.056240743715 Rises=F Damp=F
 DIIS: error= 4.40D-03 at cycle   4 NSaved=   4.
 NSaved= 4 IEnMin= 4 EnMin= -605.318902777102     IErMin= 4 ErrMin= 4.40D-03
 ErrMax= 4.40D-03  0.00D+00 EMaxC= 1.00D-01 BMatC= 1.62D-02 BMatP= 7.50D-02
 IDIUse=3 WtCom= 9.56D-01 WtEn= 4.40D-02
 Coeff-Com:  0.209D-01 0.134D+00 0.319D+00 0.526D+00
 Coeff-En:   0.000D+00 0.000D+00 0.179D+00 0.821D+00
 Coeff:      0.200D-01 0.128D+00 0.313D+00 0.539D+00
 Gap=     0.169 Goal=   None    Shift=    0.000
 RMSDP=4.46D-04 MaxDP=2.94D-02 DE=-5.62D-02 OVMax= 5.06D-02

 Cycle   5  Pass 0  IDiag  1:
 E= -605.331088407445     Delta-E=       -0.012185630343 Rises=F Damp=F
 DIIS: error= 1.44D-03 at cycle   5 NSaved=   5.
 NSaved= 5 IEnMin= 5 EnMin= -605.331088407445     IErMin= 5 ErrMin= 1.44D-03
 ErrMax= 1.44D-03  0.00D+00 EMaxC= 1.00D-01 BMatC= 1.68D-03 BMatP= 1.62D-02
 IDIUse=3 WtCom= 9.86D-01 WtEn= 1.44D-02
 Coeff-Com:  0.106D-02 0.204D-01 0.110D+00 0.311D+00 0.558D+00
 Coeff-En:   0.000D+00 0.000D+00 0.000D+00 0.669D-01 0.933D+00
 Coeff:      0.105D-02 0.201D-01 0.108D+00 0.308D+00 0.563D+00
 Gap=     0.168 Goal=   None    Shift=    0.000
 RMSDP=1.42D-04 MaxDP=8.14D-03 DE=-1.22D-02 OVMax= 1.44D-02

 Cycle   6  Pass 0  IDiag  1:
 E= -605.332104704941     Delta-E=       -0.001016297497 Rises=F Damp=F
 DIIS: error= 9.11D-04 at cycle   6 NSaved=   6.
 NSaved= 6 IEnMin= 6 EnMin= -605.332104704941     IErMin= 6 ErrMin= 9.11D-04
 ErrMax= 9.11D-04  0.00D+00 EMaxC= 1.00D-01 BMatC= 4.24D-04 BMatP= 1.68D-03
 IDIUse=3 WtCom= 9.91D-01 WtEn= 9.11D-03
 Coeff-Com: -0.754D-03 0.353D-02 0.481D-01 0.163D+00 0.392D+00 0.395D+00
 Coeff-En:   0.000D+00 0.000D+00 0.000D+00 0.000D+00 0.191D+00 0.809D+00
 Coeff:     -0.747D-03 0.350D-02 0.476D-01 0.161D+00 0.390D+00 0.398D+00
 Gap=     0.169 Goal=   None    Shift=    0.000
 RMSDP=6.33D-05 MaxDP=5.72D-03 DE=-1.02D-03 OVMax= 1.06D-02

 Cycle   7  Pass 0  IDiag  1:
 E= -605.332388614960     Delta-E=       -0.000283910018 Rises=F Damp=F
 DIIS: error= 3.91D-04 at cycle   7 NSaved=   7.
 NSaved= 7 IEnMin= 7 EnMin= -605.332388614960     IErMin= 7 ErrMin= 3.91D-04
 ErrMax= 3.91D-04  0.00D+00 EMaxC= 1.00D-01 BMatC= 5.93D-05 BMatP= 4.24D-04
 IDIUse=3 WtCom= 9.96D-01 WtEn= 3.91D-03
 Coeff-Com: -0.495D-03-0.386D-03 0.183D-01 0.656D-01 0.193D+00 0.285D+00
 Coeff-Com:  0.439D+00
 Coeff-En:   0.000D+00 0.000D+00 0.000D+00 0.000D+00 0.000D+00 0.136D+00
 Coeff-En:   0.864D+00
 Coeff:     -0.493D-03-0.384D-03 0.182D-01 0.653D-01 0.192D+00 0.285D+00
 Coeff:      0.441D+00
 Gap=     0.170 Goal=   None    Shift=    0.000
 RMSDP=2.43D-05 MaxDP=2.12D-03 DE=-2.84D-04 OVMax= 4.30D-03

 Cycle   8  Pass 0  IDiag  1:
 E= -605.332429761889     Delta-E=       -0.000041146929 Rises=F Damp=F
 DIIS: error= 1.29D-04 at cycle   8 NSaved=   8.
 NSaved= 8 IEnMin= 8 EnMin= -605.332429761889     IErMin= 8 ErrMin= 1.29D-04
 ErrMax= 1.29D-04  0.00D+00 EMaxC= 1.00D-01 BMatC= 9.25D-06 BMatP= 5.93D-05
 IDIUse=3 WtCom= 9.99D-01 WtEn= 1.29D-03
 Coeff-Com: -0.162D-03-0.146D-02 0.389D-02 0.146D-01 0.626D-01 0.121D+00
 Coeff-Com:  0.310D+00 0.489D+00
 Coeff-En:   0.000D+00 0.000D+00 0.000D+00 0.000D+00 0.000D+00 0.000D+00
 Coeff-En:   0.141D+00 0.859D+00
 Coeff:     -0.162D-03-0.146D-02 0.388D-02 0.146D-01 0.625D-01 0.121D+00
 Coeff:      0.310D+00 0.490D+00
 Gap=     0.170 Goal=   None    Shift=    0.000
 RMSDP=8.35D-06 MaxDP=7.10D-04 DE=-4.11D-05 OVMax= 1.13D-03

 Initial convergence to 1.0D-05 achieved.  Increase integral accuracy.
 Cycle   9  Pass 1  IDiag  1:
 E= -605.332441401193     Delta-E=       -0.000011639304 Rises=F Damp=F
 DIIS: error= 2.70D-05 at cycle   1 NSaved=   1.
 NSaved= 1 IEnMin= 1 EnMin= -605.332441401193     IErMin= 1 ErrMin= 2.70D-05
 ErrMax= 2.70D-05  0.00D+00 EMaxC= 1.00D-01 BMatC= 7.25D-07 BMatP= 7.25D-07
 IDIUse=1 WtCom= 1.00D+00 WtEn= 0.00D+00
 Coeff-Com:  0.100D+01
 Coeff:      0.100D+01
 Gap=     0.170 Goal=   None    Shift=    0.000
 RMSDP=8.35D-06 MaxDP=7.10D-04 DE=-1.16D-05 OVMax= 6.92D-04

 Cycle  10  Pass 1  IDiag  1:
 E= -605.332440090909     Delta-E=        0.000001310284 Rises=F Damp=F
 DIIS: error= 5.26D-05 at cycle   2 NSaved=   2.
 NSaved= 2 IEnMin= 1 EnMin= -605.332441401193     IErMin= 1 ErrMin= 2.70D-05
 ErrMax= 5.26D-05  0.00D+00 EMaxC= 1.00D-01 BMatC= 2.17D-06 BMatP= 7.25D-07
 IDIUse=1 WtCom= 1.00D+00 WtEn= 0.00D+00
 Coeff-Com:  0.647D+00 0.353D+00
 Coeff:      0.647D+00 0.353D+00
 Gap=     0.170 Goal=   None    Shift=    0.000
 RMSDP=4.45D-06 MaxDP=3.10D-04 DE= 1.31D-06 OVMax= 5.00D-04

 Cycle  11  Pass 1  IDiag  1:
 E= -605.332442013329     Delta-E=       -0.000001922419 Rises=F Damp=F
 DIIS: error= 9.92D-06 at cycle   3 NSaved=   3.
 NSaved= 3 IEnMin= 3 EnMin= -605.332442013329     IErMin= 3 ErrMin= 9.92D-06
 ErrMax= 9.92D-06  0.00D+00 EMaxC= 1.00D-01 BMatC= 7.27D-08 BMatP= 7.25D-07
 IDIUse=1 WtCom= 1.00D+00 WtEn= 0.00D+00
 Coeff-Com:  0.170D+00 0.172D+00 0.658D+00
 Coeff:      0.170D+00 0.172D+00 0.658D+00
 Gap=     0.170 Goal=   None    Shift=    0.000
 RMSDP=1.18D-06 MaxDP=8.24D-05 DE=-1.92D-06 OVMax= 1.81D-04

 Cycle  12  Pass 1  IDiag  1:
 E= -605.332442026331     Delta-E=       -0.000000013002 Rises=F Damp=F
 DIIS: error= 1.17D-05 at cycle   4 NSaved=   4.
 NSaved= 4 IEnMin= 4 EnMin= -605.332442026331     IErMin= 3 ErrMin= 9.92D-06
 ErrMax= 1.17D-05  0.00D+00 EMaxC= 1.00D-01 BMatC= 5.39D-08 BMatP= 7.27D-08
 IDIUse=1 WtCom= 1.00D+00 WtEn= 0.00D+00
 Coeff-Com:  0.246D-01 0.742D-01 0.506D+00 0.395D+00
 Coeff:      0.246D-01 0.742D-01 0.506D+00 0.395D+00
 Gap=     0.170 Goal=   None    Shift=    0.000
 RMSDP=7.05D-07 MaxDP=5.59D-05 DE=-1.30D-08 OVMax= 1.25D-04

 Cycle  13  Pass 1  IDiag  1:
 E= -605.332442066189     Delta-E=       -0.000000039858 Rises=F Damp=F
 DIIS: error= 3.59D-06 at cycle   5 NSaved=   5.
 NSaved= 5 IEnMin= 5 EnMin= -605.332442066189     IErMin= 5 ErrMin= 3.59D-06
 ErrMax= 3.59D-06  0.00D+00 EMaxC= 1.00D-01 BMatC= 6.05D-09 BMatP= 5.39D-08
 IDIUse=1 WtCom= 1.00D+00 WtEn= 0.00D+00
 Coeff-Com: -0.671D-02 0.287D-01 0.269D+00 0.285D+00 0.423D+00
 Coeff:     -0.671D-02 0.287D-01 0.269D+00 0.285D+00 0.423D+00
 Gap=     0.170 Goal=   None    Shift=    0.000
 RMSDP=2.10D-07 MaxDP=1.42D-05 DE=-3.99D-08 OVMax= 3.22D-05

 Cycle  14  Pass 1  IDiag  1:
 E= -605.332442070858     Delta-E=       -0.000000004669 Rises=F Damp=F
 DIIS: error= 5.60D-07 at cycle   6 NSaved=   6.
 NSaved= 6 IEnMin= 6 EnMin= -605.332442070858     IErMin= 6 ErrMin= 5.60D-07
 ErrMax= 5.60D-07  0.00D+00 EMaxC= 1.00D-01 BMatC= 3.16D-10 BMatP= 6.05D-09
 IDIUse=1 WtCom= 1.00D+00 WtEn= 0.00D+00
 Coeff-Com: -0.557D-02 0.133D-01 0.136D+00 0.153D+00 0.267D+00 0.437D+00
 Coeff:     -0.557D-02 0.133D-01 0.136D+00 0.153D+00 0.267D+00 0.437D+00
 Gap=     0.170 Goal=   None    Shift=    0.000
 RMSDP=5.73D-08 MaxDP=2.96D-06 DE=-4.67D-09 OVMax= 5.86D-06

 Cycle  15  Pass 1  IDiag  1:
 E= -605.332442071121     Delta-E=       -0.000000000263 Rises=F Damp=F
 DIIS: error= 1.82D-07 at cycle   7 NSaved=   7.
 NSaved= 7 IEnMin= 7 EnMin= -605.332442071121     IErMin= 7 ErrMin= 1.82D-07
 ErrMax= 1.82D-07  0.00D+00 EMaxC= 1.00D-01 BMatC= 1.82D-11 BMatP= 3.16D-10
 IDIUse=1 WtCom= 1.00D+00 WtEn= 0.00D+00
 Coeff-Com: -0.241D-02 0.452D-02 0.469D-01 0.548D-01 0.101D+00 0.234D+00
 Coeff-Com:  0.561D+00
 Coeff:     -0.241D-02 0.452D-02 0.469D-01 0.548D-01 0.101D+00 0.234D+00
 Coeff:      0.561D+00
 Gap=     0.170 Goal=   None    Shift=    0.000
 RMSDP=1.67D-08 MaxDP=9.36D-07 DE=-2.63D-10 OVMax= 1.99D-06

 Cycle  16  Pass 1  IDiag  1:
 E= -605.332442071097     Delta-E=        0.000000000024 Rises=F Damp=F
 DIIS: error= 5.13D-08 at cycle   8 NSaved=   8.
 NSaved= 8 IEnMin= 7 EnMin= -605.332442071121     IErMin= 8 ErrMin= 5.13D-08
 ErrMax= 5.13D-08  0.00D+00 EMaxC= 1.00D-01 BMatC= 3.16D-12 BMatP= 1.82D-11
 IDIUse=1 WtCom= 1.00D+00 WtEn= 0.00D+00
 Coeff-Com: -0.749D-03 0.102D-02 0.105D-01 0.129D-01 0.257D-01 0.785D-01
 Coeff-Com:  0.332D+00 0.540D+00
 Coeff:     -0.749D-03 0.102D-02 0.105D-01 0.129D-01 0.257D-01 0.785D-01
 Coeff:      0.332D+00 0.540D+00
 Gap=     0.170 Goal=   None    Shift=    0.000
 RMSDP=5.92D-09 MaxDP=3.10D-07 DE= 2.43D-11 OVMax= 4.76D-07

 SCF Done:  E(RB3LYP) =  -605.332442071     A.U. after   16 cycles
            NFock= 16  Conv=0.59D-08     -V/T= 2.0033
 KE= 6.033141082241D+02 PE=-2.748358911743D+03 EE= 8.733253300178D+02
 Leave Link  502 at Thu Aug 26 05:03:37 2021, MaxMem= 24159191040 cpu:       380.2
 (Enter /public/home/users/caep010/software/Gaussian09/g09/l801.exe)
 DoSCS=F DFT=T ScalE2(SS,OS)=  1.000000  1.000000
 Range of M.O.s used for correlation:     1   366
 NBasis=   366 NAE=    43 NBE=    43 NFC=     0 NFV=     0
 NROrb=    366 NOA=    43 NOB=    43 NVA=   323 NVB=   323

 **** Warning!!: The largest alpha MO coefficient is  0.40368408D+02

 Leave Link  801 at Thu Aug 26 05:03:38 2021, MaxMem= 24159191040 cpu:         0.7
 (Enter /public/home/users/caep010/software/Gaussian09/g09/l1101.exe)
 Using compressed storage, NAtomX=    18.
 Will process     19 centers per pass.
 Leave Link 1101 at Thu Aug 26 05:03:39 2021, MaxMem= 24159191040 cpu:        20.6
 (Enter /public/home/users/caep010/software/Gaussian09/g09/l1102.exe)
 Symmetrizing basis deriv contribution to polar:
 IMax=3 JMax=2 DiffMx= 0.00D+00
 Leave Link 1102 at Thu Aug 26 05:03:39 2021, MaxMem= 24159191040 cpu:         1.1
 (Enter /public/home/users/caep010/software/Gaussian09/g09/l1110.exe)
 Forming Gx(P) for the SCF density, NAtomX=    18.
 Integral derivatives from FoFJK, PRISM(SPDF).
 Do as many integral derivatives as possible in FoFJK.
 G2DrvN: MDV=   24159190792.
 G2DrvN: will do    19 centers at a time, making    1 passes.
 Calling FoFCou, ICntrl=  3107 FMM=F I1Cent=   0 AccDes= 0.00D+00.
 FoFJK:  IHMeth= 1 ICntrl=    3107 DoSepK=F KAlg= 0 I1Cent=   0 FoldK=F
 IRaf=         0 NMat=   1 IRICut=       1 DoRegI=T DoRafI=F ISym2E= 0.
 FoFCou: FMM=F IPFlag=           0 FMFlag=      100000 FMFlg1=           0
         NFxFlg=           0 DoJE=F BraDBF=F KetDBF=F FulRan=T
         wScrn=  0.000000 ICntrl=    3107 IOpCl=  0 I1Cent=           0 NGrid=           0
         NMat0=    1 NMatS0=      1 NMatT0=    0 NMatD0=    1 NMtDS0=    0 NMtDT0=    0
 Symmetry not used in FoFCou.
 End of G2Drv F.D. properties file   721 does not exist.
 End of G2Drv F.D. properties file   722 does not exist.
 End of G2Drv F.D. properties file   788 does not exist.
 Leave Link 1110 at Thu Aug 26 05:04:02 2021, MaxMem= 24159191040 cpu:       718.1
 (Enter /public/home/users/caep010/software/Gaussian09/g09/l1002.exe)
 Minotr:  Closed shell wavefunction.
          IDoAtm=111111111111111111
          Direct CPHF calculation.
          Differentiating once with respect to nuclear coordinates.
          Requested convergence is 1.0D-08 RMS, and 1.0D-07 maximum.
          Secondary convergence is 1.0D-12 RMS, and 1.0D-12 maximum.
          NewPWx=T KeepS1=F KeepF1=F KeepIn=T MapXYZ=F SortEE=F KeepMc=T.
          MDV=   24159190490 using IRadAn=       2.
 Generate precomputed XC quadrature information.
 Keep R1 ints in memory in canonical form, NReq=2288065433.
 FoFCou: FMM=F IPFlag=           0 FMFlag=           0 FMFlg1=           0
         NFxFlg=           0 DoJE=F BraDBF=F KetDBF=F FulRan=T
         wScrn=  0.000000 ICntrl=     600 IOpCl=  0 I1Cent=           0 NGrid=           0
         NMat0=    1 NMatS0=  67161 NMatT0=    0 NMatD0=    1 NMtDS0=    0 NMtDT0=    0
 Symmetry not used in FoFCou.
          Solving linear equations simultaneously, MaxMat=       0.
          There are    57 degrees of freedom in the 1st order CPHF.  IDoFFX=6 NUNeed=     0.
     51 vectors produced by pass  0 Test12= 2.44D-14 1.75D-09 XBig12= 2.13D-01 1.77D-01.
 AX will form    51 AO Fock derivatives at one time.
     51 vectors produced by pass  1 Test12= 2.44D-14 1.75D-09 XBig12= 1.70D-01 1.59D-01.
     51 vectors produced by pass  2 Test12= 2.44D-14 1.75D-09 XBig12= 9.39D-04 5.55D-03.
     51 vectors produced by pass  3 Test12= 2.44D-14 1.75D-09 XBig12= 3.18D-06 2.02D-04.
     51 vectors produced by pass  4 Test12= 2.44D-14 1.75D-09 XBig12= 1.14D-08 1.29D-05.
     51 vectors produced by pass  5 Test12= 2.44D-14 1.75D-09 XBig12= 2.21D-11 4.68D-07.
     25 vectors produced by pass  6 Test12= 2.44D-14 1.75D-09 XBig12= 2.94D-14 1.53D-08.
 InvSVY:  IOpt=1 It=  1 EMax= 7.77D-16
 Solved reduced A of dimension   331 with    57 vectors.
 End of Minotr F.D. properties file   721 does not exist.
 End of Minotr F.D. properties file   722 does not exist.
 End of Minotr F.D. properties file   788 does not exist.
 Leave Link 1002 at Thu Aug 26 05:04:41 2021, MaxMem= 24159191040 cpu:      1241.8
 (Enter /public/home/users/caep010/software/Gaussian09/g09/l601.exe)
 Copying SCF densities to generalized density rwf, IOpCl= 0 IROHF=0.

 **********************************************************************

            Population analysis using the SCF density.

 **********************************************************************

 Orbital symmetries:
       Occupied  (A) (A) (A) (A) (A) (A) (A) (A) (A) (A) (A) (A)
                 (A) (A) (A) (A) (A) (A) (A) (A) (A) (A) (A) (A)
                 (A) (A) (A) (A) (A) (A) (A) (A) (A) (A) (A) (A)
                 (A) (A) (A) (A) (A) (A) (A)
       Virtual   (A) (A) (A) (A) (A) (A) (A) (A) (A) (A) (A) (A)
                 (A) (A) (A) (A) (A) (A) (A) (A) (A) (A) (A) (A)
                 (A) (A) (A) (A) (A) (A) (A) (A) (A) (A) (A) (A)
                 (A) (A) (A) (A) (A) (A) (A) (A) (A) (A) (A) (A)
                 (A) (A) (A) (A) (A) (A) (A) (A) (A) (A) (A) (A)
                 (A) (A) (A) (A) (A) (A) (A) (A) (A) (A) (A) (A)
                 (A) (A) (A) (A) (A) (A) (A) (A) (A) (A) (A) (A)
                 (A) (A) (A) (A) (A) (A) (A) (A) (A) (A) (A) (A)
                 (A) (A) (A) (A) (A) (A) (A) (A) (A) (A) (A) (A)
                 (A) (A) (A) (A) (A) (A) (A) (A) (A) (A) (A) (A)
                 (A) (A) (A) (A) (A) (A) (A) (A) (A) (A) (A) (A)
                 (A) (A) (A) (A) (A) (A) (A) (A) (A) (A) (A) (A)
                 (A) (A) (A) (A) (A) (A) (A) (A) (A) (A) (A) (A)
                 (A) (A) (A) (A) (A) (A) (A) (A) (A) (A) (A) (A)
                 (A) (A) (A) (A) (A) (A) (A) (A) (A) (A) (A) (A)
                 (A) (A) (A) (A) (A) (A) (A) (A) (A) (A) (A) (A)
                 (A) (A) (A) (A) (A) (A) (A) (A) (A) (A) (A) (A)
                 (A) (A) (A) (A) (A) (A) (A) (A) (A) (A) (A) (A)
                 (A) (A) (A) (A) (A) (A) (A) (A) (A) (A) (A) (A)
                 (A) (A) (A) (A) (A) (A) (A) (A) (A) (A) (A) (A)
                 (A) (A) (A) (A) (A) (A) (A) (A) (A) (A) (A) (A)
                 (A) (A) (A) (A) (A) (A) (A) (A) (A) (A) (A) (A)
                 (A) (A) (A) (A) (A) (A) (A) (A) (A) (A) (A) (A)
                 (A) (A) (A) (A) (A) (A) (A) (A) (A) (A) (A) (A)
                 (A) (A) (A) (A) (A) (A) (A) (A) (A) (A) (A) (A)
                 (A) (A) (A) (A) (A) (A) (A) (A) (A) (A) (A) (A)
                 (A) (A) (A) (A) (A) (A) (A) (A) (A) (A) (A)
 The electronic state is 1-A.
 Alpha  occ. eigenvalues --  -19.17594 -19.17528 -19.10989 -14.56970 -14.34385
 Alpha  occ. eigenvalues --  -10.29708 -10.25626 -10.22494 -10.21119 -10.21095
 Alpha  occ. eigenvalues --  -10.20581 -10.20407  -1.23777  -1.05969  -1.04721
 Alpha  occ. eigenvalues --   -0.96442  -0.90922  -0.82314  -0.80448  -0.71932
 Alpha  occ. eigenvalues --   -0.68909  -0.65372  -0.62688  -0.58649  -0.57525
 Alpha  occ. eigenvalues --   -0.54310  -0.53996  -0.52277  -0.50586  -0.48817
 Alpha  occ. eigenvalues --   -0.47866  -0.43738  -0.42776  -0.40322  -0.39628
 Alpha  occ. eigenvalues --   -0.39345  -0.31587  -0.31473  -0.29903  -0.29251
 Alpha  occ. eigenvalues --   -0.29000  -0.28147  -0.26138
 Alpha virt. eigenvalues --   -0.09141  -0.05841  -0.00932   0.05360   0.08906
 Alpha virt. eigenvalues --    0.11921   0.13857   0.15192   0.16380   0.17829
 Alpha virt. eigenvalues --    0.19462   0.22322   0.23391   0.25109   0.27544
 Alpha virt. eigenvalues --    0.27727   0.28485   0.29264   0.33057   0.36707
 Alpha virt. eigenvalues --    0.37078   0.39636   0.40506   0.43381   0.46098
 Alpha virt. eigenvalues --    0.46463   0.47611   0.48399   0.49076   0.50191
 Alpha virt. eigenvalues --    0.51019   0.51528   0.53268   0.54229   0.55197
 Alpha virt. eigenvalues --    0.57319   0.58632   0.60102   0.61640   0.63167
 Alpha virt. eigenvalues --    0.65306   0.66095   0.67512   0.68387   0.69510
 Alpha virt. eigenvalues --    0.70130   0.71543   0.73289   0.73988   0.74806
 Alpha virt. eigenvalues --    0.75858   0.77344   0.78763   0.80310   0.81346
 Alpha virt. eigenvalues --    0.81821   0.83381   0.84261   0.84419   0.86373
 Alpha virt. eigenvalues --    0.87688   0.88675   0.89658   0.91793   0.92904
 Alpha virt. eigenvalues --    0.94154   0.94596   0.95853   0.96619   0.97405
 Alpha virt. eigenvalues --    0.98234   0.98565   0.99944   1.02557   1.03011
 Alpha virt. eigenvalues --    1.03697   1.05924   1.07586   1.10593   1.11824
 Alpha virt. eigenvalues --    1.13879   1.15369   1.20320   1.23247   1.23758
 Alpha virt. eigenvalues --    1.25036   1.25647   1.25981   1.28457   1.29686
 Alpha virt. eigenvalues --    1.33702   1.33983   1.35062   1.37723   1.38672
 Alpha virt. eigenvalues --    1.40474   1.41229   1.41744   1.43953   1.45883
 Alpha virt. eigenvalues --    1.47529   1.48078   1.51103   1.52368   1.54076
 Alpha virt. eigenvalues --    1.56799   1.59732   1.60461   1.61317   1.64196
 Alpha virt. eigenvalues --    1.65377   1.67198   1.68730   1.69850   1.73352
 Alpha virt. eigenvalues --    1.73679   1.77988   1.81341   1.84150   1.85977
 Alpha virt. eigenvalues --    1.87388   1.90014   1.92258   1.92350   1.95677
 Alpha virt. eigenvalues --    1.96573   1.99847   2.07897   2.09793   2.14490
 Alpha virt. eigenvalues --    2.17857   2.18523   2.20797   2.23524   2.27889
 Alpha virt. eigenvalues --    2.29542   2.31872   2.36256   2.38565   2.41150
 Alpha virt. eigenvalues --    2.44237   2.49049   2.56197   2.59617   2.60746
 Alpha virt. eigenvalues --    2.72145   2.73742   2.80217   2.81139   2.86262
 Alpha virt. eigenvalues --    2.89372   2.91621   2.94478   2.95493   2.96885
 Alpha virt. eigenvalues --    2.99577   3.01801   3.04192   3.06162   3.06950
 Alpha virt. eigenvalues --    3.07945   3.09280   3.10428   3.13838   3.14441
 Alpha virt. eigenvalues --    3.16108   3.16595   3.17441   3.20536   3.22874
 Alpha virt. eigenvalues --    3.25735   3.27349   3.28564   3.31787   3.32579
 Alpha virt. eigenvalues --    3.34272   3.35778   3.39003   3.40956   3.42143
 Alpha virt. eigenvalues --    3.45113   3.46284   3.48171   3.50457   3.51332
 Alpha virt. eigenvalues --    3.52761   3.55922   3.57487   3.61518   3.63292
 Alpha virt. eigenvalues --    3.63353   3.65452   3.67533   3.68462   3.70137
 Alpha virt. eigenvalues --    3.70938   3.71223   3.73645   3.76999   3.78540
 Alpha virt. eigenvalues --    3.83348   3.85695   3.89335   3.91230   3.96950
 Alpha virt. eigenvalues --    3.97876   4.01639   4.02561   4.03249   4.04223
 Alpha virt. eigenvalues --    4.06355   4.09233   4.10553   4.12169   4.14611
 Alpha virt. eigenvalues --    4.17226   4.20242   4.21871   4.24581   4.25591
 Alpha virt. eigenvalues --    4.26710   4.30413   4.31839   4.34305   4.35744
 Alpha virt. eigenvalues --    4.36654   4.38412   4.40042   4.43916   4.45052
 Alpha virt. eigenvalues --    4.45319   4.46961   4.47268   4.48178   4.49422
 Alpha virt. eigenvalues --    4.49939   4.52583   4.52932   4.54181   4.54759
 Alpha virt. eigenvalues --    4.56433   4.58314   4.59922   4.60707   4.62160
 Alpha virt. eigenvalues --    4.63502   4.65440   4.68353   4.69893   4.71254
 Alpha virt. eigenvalues --    4.74208   4.75152   4.77227   4.81673   4.84501
 Alpha virt. eigenvalues --    4.86980   4.89340   4.91111   4.93746   4.97200
 Alpha virt. eigenvalues --    5.01574   5.02586   5.03919   5.04278   5.05565
 Alpha virt. eigenvalues --    5.07258   5.08382   5.08667   5.11052   5.12416
 Alpha virt. eigenvalues --    5.16910   5.21100   5.22749   5.25615   5.31602
 Alpha virt. eigenvalues --    5.34815   5.36859   5.40835   5.45354   5.48684
 Alpha virt. eigenvalues --    5.54317   5.56172   5.58158   5.59386   5.60958
 Alpha virt. eigenvalues --    5.63862   5.69992   5.74279   5.80215   5.85384
 Alpha virt. eigenvalues --    5.89878   5.95660   5.97480   5.99494   6.02520
 Alpha virt. eigenvalues --    6.04122   6.12333   6.22751   6.25754   6.26412
 Alpha virt. eigenvalues --    6.35278   6.37657   6.57375   6.68803   6.73704
 Alpha virt. eigenvalues --    6.85243   6.91113   7.05658   9.09806   9.67850
 Alpha virt. eigenvalues --   10.32649  10.56594  10.92897  11.28494  11.30925
 Alpha virt. eigenvalues --   11.65006  11.79789  12.69245  12.93441  12.96451
 Alpha virt. eigenvalues --   13.18423  15.44993  16.61268
          Condensed to atoms (all electrons):
               1          2          3          4          5          6
     1  C    4.327004   0.430982  -0.010138  -0.012317   0.213559  -0.027564
     2  N    0.430982   6.379026   0.347293   0.374659  -0.078689   0.006551
     3  H   -0.010138   0.347293   0.431450  -0.034977   0.008251  -0.000226
     4  H   -0.012317   0.374659  -0.034977   0.484994  -0.010880  -0.001127
     5  C    0.213559  -0.078689   0.008251  -0.010880   5.124464   0.391721
     6  C   -0.027564   0.006551  -0.000226  -0.001127   0.391721   4.904354
     7  H   -0.004257   0.000540  -0.000024  -0.000078  -0.048968   0.350702
     8  C   -0.022981  -0.012490  -0.000321   0.006975   0.441092   0.009080
     9  H   -0.013339   0.006648  -0.000137  -0.001232  -0.018835   0.009271
    10  C    0.006242   0.000039  -0.000002   0.000011   0.036954   0.513046
    11  C    0.000476  -0.000033   0.000002  -0.000018  -0.067929   0.029001
    12  H   -0.000286   0.000001  -0.000000   0.000000   0.000223  -0.021901
    13  O    0.802234  -0.064024   0.003807   0.005499  -0.119144   0.005832
    14  C    0.000025   0.000266   0.000004   0.000481   0.010296  -0.059653
    15  N   -0.000045  -0.000004  -0.000000  -0.000006   0.000792   0.000388
    16  O   -0.000026   0.000005   0.000000  -0.000040   0.000829   0.000038
    17  O   -0.000000   0.000000   0.000000  -0.000000  -0.000018   0.000000
    18  H    0.000026  -0.000000   0.000000  -0.000000   0.002306   0.001357
               7          8          9         10         11         12
     1  C   -0.004257  -0.022981  -0.013339   0.006242   0.000476  -0.000286
     2  N    0.000540  -0.012490   0.006648   0.000039  -0.000033   0.000001
     3  H   -0.000024  -0.000321  -0.000137  -0.000002   0.000002  -0.000000
     4  H   -0.000078   0.006975  -0.001232   0.000011  -0.000018   0.000000
     5  C   -0.048968   0.441092  -0.018835   0.036954  -0.067929   0.000223
     6  C    0.350702   0.009080   0.009271   0.513046   0.029001  -0.021901
     7  H    0.586018   0.005725  -0.000255  -0.035214   0.003495  -0.003998
     8  C    0.005725   5.187675   0.276059  -0.081718  -0.021024   0.003583
     9  H   -0.000255   0.276059   0.625892   0.000465   0.008215   0.000084
    10  C   -0.035214  -0.081718   0.000465   4.778900   0.508537   0.347541
    11  C    0.003495  -0.021024   0.008215   0.508537   4.934562  -0.027528
    12  H   -0.003998   0.003583   0.000084   0.347541  -0.027528   0.593658
    13  O    0.019529   0.001182  -0.000121   0.001246  -0.000025  -0.000003
    14  C    0.001938   0.390390  -0.017749   0.025293   0.432435  -0.000327
    15  N    0.000008  -0.012948  -0.018728   0.001241  -0.031794  -0.000085
    16  O    0.000000  -0.004663   0.036569  -0.000053   0.009132   0.000001
    17  O    0.000000   0.008042   0.000734   0.000971   0.006935  -0.000003
    18  H   -0.000397   0.005604  -0.000366  -0.029776   0.336400  -0.002322
              13         14         15         16         17         18
     1  C    0.802234   0.000025  -0.000045  -0.000026  -0.000000   0.000026
     2  N   -0.064024   0.000266  -0.000004   0.000005   0.000000  -0.000000
     3  H    0.003807   0.000004  -0.000000   0.000000   0.000000   0.000000
     4  H    0.005499   0.000481  -0.000006  -0.000040  -0.000000  -0.000000
     5  C   -0.119144   0.010296   0.000792   0.000829  -0.000018   0.002306
     6  C    0.005832  -0.059653   0.000388   0.000038   0.000000   0.001357
     7  H    0.019529   0.001938   0.000008   0.000000   0.000000  -0.000397
     8  C    0.001182   0.390390  -0.012948  -0.004663   0.008042   0.005604
     9  H   -0.000121  -0.017749  -0.018728   0.036569   0.000734  -0.000366
    10  C    0.001246   0.025293   0.001241  -0.000053   0.000971  -0.029776
    11  C   -0.000025   0.432435  -0.031794   0.009132   0.006935   0.336400
    12  H   -0.000003  -0.000327  -0.000085   0.000001  -0.000003  -0.002322
    13  O    7.717766  -0.000097   0.000000   0.000000   0.000000  -0.000000
    14  C   -0.000097   4.928789   0.332524  -0.126299  -0.132578  -0.026612
    15  N    0.000000   0.332524   5.270403   0.531732   0.553189  -0.013638
    16  O    0.000000  -0.126299   0.531732   8.011896  -0.101457   0.000529
    17  O    0.000000  -0.132578   0.553189  -0.101457   7.995264   0.023459
    18  H   -0.000000  -0.026612  -0.013638   0.000529   0.023459   0.580278
 Mulliken charges:
               1
     1  C    0.310405
     2  N   -0.390770
     3  H    0.255017
     4  H    0.188058
     5  C    0.113975
     6  C   -0.110871
     7  H    0.125235
     8  C   -0.179260
     9  H    0.106825
    10  C   -0.073724
    11  C   -0.120839
    12  H    0.111363
    13  O   -0.373681
    14  C    0.240874
    15  N    0.386971
    16  O   -0.358194
    17  O   -0.354538
    18  H    0.123153
 Sum of Mulliken charges =  -0.00000
 Mulliken charges with hydrogens summed into heavy atoms:
               1
     1  C    0.310405
     2  N    0.052305
     5  C    0.113975
     6  C    0.014364
     8  C   -0.072435
    10  C    0.037639
    11  C    0.002314
    13  O   -0.373681
    14  C    0.240874
    15  N    0.386971
    16  O   -0.358194
    17  O   -0.354538
 APT charges:
               1
     1  C   -1.327448
     2  N   -0.663305
     3  H    1.007352
     4  H    0.192087
     5  C   -0.324856
     6  C   -0.340173
     7  H    0.515412
     8  C   -0.305387
     9  H    0.254879
    10  C   -0.243805
    11  C   -0.234206
    12  H    0.571659
    13  O    0.868738
    14  C   -0.337728
    15  N   -1.242685
    16  O    0.331029
    17  O    0.772967
    18  H    0.505468
 Sum of APT charges =   0.00000
 APT charges with hydrogens summed into heavy atoms:
               1
     1  C   -1.327448
     2  N    0.536135
     5  C   -0.324856
     6  C    0.175239
     8  C   -0.050508
    10  C    0.327855
    11  C    0.271262
    13  O    0.868738
    14  C   -0.337728
    15  N   -1.242685
    16  O    0.331029
    17  O    0.772967
 Electronic spatial extent (au):  <R**2>=           2205.7749
 Charge=             -0.0000 electrons
 Dipole moment (field-independent basis, Debye):
    X=             -1.3343    Y=              0.0554    Z=              0.7855  Tot=              1.5493
 Quadrupole moment (field-independent basis, Debye-Ang):
   XX=            -86.2073   YY=            -56.2148   ZZ=            -66.2833
   XY=             12.9875   XZ=             -2.7092   YZ=             -1.2164
 Traceless Quadrupole moment (field-independent basis, Debye-Ang):
   XX=            -16.6389   YY=             13.3537   ZZ=              3.2852
   XY=             12.9875   XZ=             -2.7092   YZ=             -1.2164
 Octapole moment (field-independent basis, Debye-Ang**2):
  XXX=              0.4216  YYY=             -3.8227  ZZZ=             -0.8983  XYY=            -24.8958
  XXY=            -20.1546  XXZ=              5.9573  XZZ=              5.3321  YZZ=             -6.3041
  YYZ=              4.1872  XYZ=             -0.6735
 Hexadecapole moment (field-independent basis, Debye-Ang**3):
 XXXX=          -2212.2750 YYYY=           -612.3404 ZZZZ=            -66.6474 XXXY=            129.4805
 XXXZ=            -35.4482 YYYX=             62.7062 YYYZ=             -8.5610 ZZZX=              1.5896
 ZZZY=              0.0621 XXYY=           -377.2966 XXZZ=           -320.6951 YYZZ=           -131.6074
 XXYZ=             -5.1831 YYXZ=             -2.8614 ZZXY=             -5.0053
 N-N= 6.663870314300D+02 E-N=-2.748358911662D+03  KE= 6.033141082241D+02
  Exact polarizability:   0.000   0.000   0.000   0.000   0.000   0.000
 Approx polarizability: 207.106   2.523 196.989   6.502   3.145  70.338
 No NMR shielding tensors so no spin-rotation constants.
 Leave Link  601 at Thu Aug 26 05:04:42 2021, MaxMem= 24159191040 cpu:        18.8
 (Enter /public/home/users/caep010/software/Gaussian09/g09/l701.exe)
 Compute integral second derivatives.
 ... and contract with generalized density number  0.
 Leave Link  701 at Thu Aug 26 05:04:43 2021, MaxMem= 24159191040 cpu:        18.6
 (Enter /public/home/users/caep010/software/Gaussian09/g09/l702.exe)
 L702 exits ... SP integral derivatives will be done elsewhere.
 Leave Link  702 at Thu Aug 26 05:04:43 2021, MaxMem= 24159191040 cpu:         0.7
 (Enter /public/home/users/caep010/software/Gaussian09/g09/l703.exe)
 Compute integral second derivatives, UseDBF=F ICtDFT=           0.
 Integral derivatives from FoFJK, PRISM(SPDF).
 Calling FoFJK, ICntrl=    100147 FMM=F ISym2X=0 I1Cent= 0 IOpClX= 0 NMat=1 NMatS=1 NMatT=0.
 FoFJK:  IHMeth= 1 ICntrl=  100147 DoSepK=F KAlg= 0 I1Cent=   0 FoldK=F
 IRaf=         0 NMat=   1 IRICut=       1 DoRegI=T DoRafI=F ISym2E= 0.
 FoFCou: FMM=F IPFlag=           0 FMFlag=      100000 FMFlg1=         800
         NFxFlg=           0 DoJE=F BraDBF=F KetDBF=F FulRan=T
         wScrn=  0.000000 ICntrl=  100147 IOpCl=  0 I1Cent=           0 NGrid=           0
         NMat0=    1 NMatS0=      1 NMatT0=    0 NMatD0=    1 NMtDS0=    0 NMtDT0=    0
 Symmetry not used in FoFCou.
 Leave Link  703 at Thu Aug 26 05:05:25 2021, MaxMem= 24159191040 cpu:      1341.0
 (Enter /public/home/users/caep010/software/Gaussian09/g09/l716.exe)
 Dipole        =-5.24943069D-01 2.17910530D-02 3.09051876D-01
 Polarizability= 0.00000000D+00 0.00000000D+00 0.00000000D+00
                 0.00000000D+00 0.00000000D+00 0.00000000D+00
 ***** Axes restored to original set *****
 -------------------------------------------------------------------
 Center     Atomic                   Forces (Hartrees/Bohr)
 Number     Number              X              Y              Z
 -------------------------------------------------------------------
      1        6           0.038785427    0.000310755    0.023305922
      2        7           0.332987433   -0.094557862    0.244786497
      3        1           0.000638467   -0.061590023    0.038960942
      4        1          -0.361627231    0.150621377   -0.295421897
      5        6          -0.002903727   -0.006687521   -0.001593072
      6        6          -0.077383129    0.043998686   -0.036432041
      7        1           0.083984560   -0.055244113    0.043718092
      8        6           0.188999513    0.070992644   -0.006042952
      9        1          -0.197529285   -0.079635625    0.010617811
     10        6          -0.113522466   -0.047874399    0.001045781
     11        6          -0.010920193   -0.130872584    0.061994525
     12        1           0.118239825    0.054698879   -0.004172300
     13        8          -0.006711062    0.006265881   -0.008016358
     14        6          -0.005218480    0.009566441   -0.006808045
     15        7          -0.002899790   -0.000472314   -0.003350729
     16        8          -0.008849718   -0.009040133    0.005953845
     17        8           0.009449700    0.008811218   -0.002661480
     18        1           0.014480157    0.140708694   -0.065884542
 -------------------------------------------------------------------
 Cartesian Forces:  Max     0.361627231 RMS     0.106609620
 FormGI is forming the generalized inverse of G from B-inverse, IUseBI=4.
 Leave Link  716 at Thu Aug 26 05:05:25 2021, MaxMem= 24159191040 cpu:         1.6
 (Enter /public/home/users/caep010/software/Gaussian09/g09/l103.exe)

 GradGradGradGradGradGradGradGradGradGradGradGradGradGradGradGradGradGrad
 Berny optimization.
 Red2BG is reusing G-inverse.
 Internal  Forces:  Max     0.490577235 RMS     0.065478648
 Search for a local minimum.
 Step number   1 out of a maximum of   91
 All quantities printed in internal units (Hartrees-Bohrs-Radians)
 RMS Force = .65479D-01 SwitMx=.10000D-02 MixMth= 1
 Mixed Optimization -- RFO/linear search
 Second derivative matrix not updated -- analytic derivatives used.
 ITU=  0
     Eigenvalues ---    0.00302   0.00477   0.00965   0.01581   0.01703
     Eigenvalues ---    0.01903   0.01963   0.02101   0.02279   0.02610
     Eigenvalues ---    0.02847   0.02902   0.03030   0.05239   0.10552
     Eigenvalues ---    0.10834   0.11542   0.11572   0.11629   0.12311
     Eigenvalues ---    0.12749   0.17526   0.18887   0.19499   0.19975
     Eigenvalues ---    0.22996   0.23174   0.24847   0.25379   0.29805
     Eigenvalues ---    0.32925   0.35393   0.40356   0.43686   0.45971
     Eigenvalues ---    0.49134   0.50349   0.53295   0.54305   0.63766
     Eigenvalues ---    0.68809   0.71960   0.74600   0.79727   0.82719
     Eigenvalues ---    0.82940   0.99377   2.08282
 RFO step:  Lambda=-2.07521526D-01 EMin= 3.02251987D-03
 Linear search not attempted -- first point.
 Maximum step size (   0.300) exceeded in Quadratic search.
    -- Step size scaled by   0.780
 Iteration  1 RMS(Cart)=  0.03567310 RMS(Int)=  0.00029155
 Iteration  2 RMS(Cart)=  0.00036062 RMS(Int)=  0.00000291
 Iteration  3 RMS(Cart)=  0.00000014 RMS(Int)=  0.00000291
 ITry= 1 IFail=0 DXMaxC= 1.26D-01 DCOld= 1.00D+10 DXMaxT= 3.00D-01 DXLimC= 3.00D+00 Rises=F
 Variable       Old X    -DE/DX   Delta X   Delta X   Delta X     New X
                                 (Linear)    (Quad)   (Total)
    R1        2.51423   0.02801   0.00000   0.03084   0.03084   2.54507
    R2        2.83600   0.00032   0.00000   0.00400   0.00400   2.84000
    R3        2.32452  -0.01173   0.00000  -0.01312  -0.01312   2.31139
    R4        1.77985   0.07162   0.00000   0.06055   0.06055   1.84040
    R5        1.45265   0.49058   0.00000   0.16690   0.16690   1.61955
    R6        2.62705   0.00635   0.00000   0.00747   0.00746   2.63451
    R7        2.62489   0.00753   0.00000   0.00757   0.00757   2.63246
    R8        1.83275   0.10931   0.00000   0.09526   0.09526   1.92801
    R9        2.60630   0.01564   0.00000   0.01487   0.01486   2.62117
   R10        1.70585   0.21323   0.00000   0.13845   0.13845   1.84431
   R11        2.59847   0.01323   0.00000   0.01429   0.01429   2.61276
   R12        2.61898   0.00957   0.00000   0.00832   0.00832   2.62730
   R13        1.80384   0.13029   0.00000   0.10654   0.10654   1.91038
   R14        2.60372   0.00935   0.00000   0.01102   0.01102   2.61474
   R15        1.76930   0.15596   0.00000   0.11763   0.11763   1.88693
   R16        2.77812   0.00151   0.00000   0.00301   0.00301   2.78113
   R17        2.30201   0.01255   0.00000   0.00852   0.00852   2.31054
   R18        2.30080   0.01013   0.00000   0.00691   0.00691   2.30771
    A1        2.06541  -0.01092   0.00000  -0.01704  -0.01704   2.04837
    A2        2.12067   0.00911   0.00000   0.01087   0.01086   2.13154
    A3        2.09694   0.00182   0.00000   0.00624   0.00624   2.10318
    A4        2.12747  -0.01201   0.00000  -0.02460  -0.02460   2.10287
    A5        2.15820   0.00017   0.00000   0.00079   0.00079   2.15899
    A6        1.99718   0.01186   0.00000   0.02391   0.02390   2.02108
    A7        2.06082  -0.00221   0.00000  -0.00537  -0.00537   2.05545
    A8        2.13930  -0.00024   0.00000   0.00395   0.00395   2.14325
    A9        2.08299   0.00246   0.00000   0.00142   0.00141   2.08440
   A10        2.12109  -0.00657   0.00000  -0.01720  -0.01720   2.10389
   A11        2.10998  -0.00188   0.00000  -0.00161  -0.00161   2.10837
   A12        2.05211   0.00845   0.00000   0.01881   0.01881   2.07092
   A13        2.12913   0.00087   0.00000   0.00344   0.00344   2.13257
   A14        2.06534  -0.00019   0.00000   0.00210   0.00210   2.06744
   A15        2.08759  -0.00064   0.00000  -0.00545  -0.00545   2.08214
   A16        2.10078   0.00034   0.00000   0.00008   0.00008   2.10086
   A17        2.06766   0.00308   0.00000   0.00746   0.00746   2.07512
   A18        2.11470  -0.00341   0.00000  -0.00754  -0.00754   2.10717
   A19        2.05358  -0.00018   0.00000   0.00217   0.00217   2.05575
   A20        2.09714   0.00449   0.00000   0.01016   0.01016   2.10730
   A21        2.13221  -0.00430   0.00000  -0.01230  -0.01230   2.11991
   A22        2.15359  -0.00055   0.00000  -0.00416  -0.00416   2.14943
   A23        2.06085   0.00018   0.00000   0.00204   0.00204   2.06289
   A24        2.06867   0.00037   0.00000   0.00213   0.00213   2.07080
   A25        2.05516  -0.00314   0.00000  -0.00262  -0.00262   2.05253
   A26        2.07237  -0.00778   0.00000  -0.01023  -0.01023   2.06214
   A27        2.15533   0.01098   0.00000   0.01300   0.01299   2.16832
    D1       -3.03588  -0.00178   0.00000  -0.00611  -0.00611  -3.04199
    D2        0.07625  -0.00059   0.00000  -0.00158  -0.00158   0.07466
    D3        0.08632  -0.00067   0.00000  -0.00208  -0.00208   0.08424
    D4       -3.08474   0.00052   0.00000   0.00245   0.00245  -3.08229
    D5       -2.90255   0.00007   0.00000   0.00091   0.00091  -2.90164
    D6        0.25241   0.00026   0.00000   0.00169   0.00169   0.25410
    D7        0.25817  -0.00111   0.00000  -0.00312  -0.00311   0.25506
    D8       -2.87006  -0.00092   0.00000  -0.00234  -0.00233  -2.87239
    D9        0.00142   0.00010   0.00000   0.00016   0.00016   0.00158
   D10       -3.13554   0.00008   0.00000   0.00009   0.00009  -3.13545
   D11        3.13009  -0.00011   0.00000  -0.00057  -0.00057   3.12952
   D12       -0.00687  -0.00013   0.00000  -0.00064  -0.00064  -0.00751
   D13        0.04446  -0.00083   0.00000  -0.00208  -0.00208   0.04238
   D14        3.13479  -0.00003   0.00000  -0.00003  -0.00003   3.13476
   D15       -3.08360  -0.00060   0.00000  -0.00124  -0.00124  -3.08484
   D16        0.00673   0.00020   0.00000   0.00081   0.00081   0.00754
   D17       -0.00402   0.00012   0.00000   0.00050   0.00050  -0.00352
   D18       -3.13579  -0.00009   0.00000  -0.00021  -0.00021  -3.13600
   D19       -3.14116   0.00014   0.00000   0.00052   0.00052  -3.14064
   D20        0.01025  -0.00007   0.00000  -0.00019  -0.00019   0.01006
   D21        0.00433  -0.00028   0.00000  -0.00089  -0.00088   0.00344
   D22        3.13263   0.00002   0.00000   0.00017   0.00017   3.13280
   D23        3.09592   0.00055   0.00000   0.00137   0.00136   3.09728
   D24       -0.05896   0.00085   0.00000   0.00242   0.00242  -0.05655
   D25        0.01447  -0.00019   0.00000  -0.00049  -0.00049   0.01398
   D26        3.13235   0.00028   0.00000   0.00089   0.00090   3.13325
   D27       -3.13720   0.00006   0.00000   0.00032   0.00031  -3.13689
   D28       -0.01933   0.00053   0.00000   0.00170   0.00171  -0.01762
   D29       -0.01491   0.00028   0.00000   0.00073   0.00073  -0.01418
   D30        3.14003  -0.00002   0.00000  -0.00033  -0.00033   3.13969
   D31       -3.13228  -0.00033   0.00000  -0.00102  -0.00101  -3.13329
   D32        0.02266  -0.00063   0.00000  -0.00207  -0.00207   0.02059
   D33        0.15705   0.00044   0.00000   0.00016   0.00016   0.15721
   D34       -2.95820  -0.00222   0.00000  -0.00632  -0.00632  -2.96452
   D35       -2.99717   0.00072   0.00000   0.00112   0.00112  -2.99605
   D36        0.17076  -0.00194   0.00000  -0.00537  -0.00536   0.16540
         Item               Value     Threshold  Converged?
 Maximum Force            0.490577     0.000450     NO 
 RMS     Force            0.065479     0.000300     NO 
 Maximum Displacement     0.126302     0.001800     NO 
 RMS     Displacement     0.035687     0.001200     NO 
 Predicted change in Energy=-1.081000D-01
 Lowest energy point so far.  Saving SCF results.
 GradGradGradGradGradGradGradGradGradGradGradGradGradGradGradGradGradGrad

 Leave Link  103 at Thu Aug 26 05:05:26 2021, MaxMem= 24159191040 cpu:         3.6
 (Enter /public/home/users/caep010/software/Gaussian09/g09/l202.exe)
                          Input orientation:                          
 ---------------------------------------------------------------------
 Center     Atomic      Atomic             Coordinates (Angstroms)
 Number     Number       Type             X           Y           Z
 ---------------------------------------------------------------------
      1          6           0        0.238196    1.837150    6.931810
      2          7           0       -0.895694    1.137420    6.735531
      3          1           0       -1.044313    0.296132    7.203102
      4          1           0       -1.530856    1.395640    6.221339
      5          6           0        0.338876    3.186794    6.278422
      6          6           0        1.594516    3.790122    6.224165
      7          1           0        2.411925    3.322314    6.616495
      8          6           0       -0.763925    3.852737    5.748418
      9          1           0       -1.667836    3.489237    5.806039
     10          6           0        1.758140    5.038418    5.641990
     11          6           0        0.668371    5.708368    5.097448
     12          1           0        2.682406    5.446982    5.613931
     13          8           0        1.152604    1.413033    7.624663
     14          6           0       -0.569772    5.095507    5.174442
     15          7           0       -1.736873    5.788983    4.606206
     16          8           0       -2.840730    5.308619    4.819987
     17          8           0       -1.541748    6.791178    3.936256
     18          1           0        0.778612    6.610264    4.683356
 ---------------------------------------------------------------------
                    Distance matrix (angstroms):
                    1          2          3          4          5
     1  C    0.000000
     2  N    1.346794   0.000000
     3  H    2.023158   0.973898   0.000000
     4  H    1.956846   0.857030   1.552256   0.000000
     5  C    1.502861   2.435784   3.335292   2.589862   0.000000
     6  C    2.480819   3.674162   4.486614   3.937194   1.394123
     7  H    2.651459   3.965890   4.631142   4.406103   2.104803
     8  C    2.543079   2.892179   3.852812   2.617091   1.393037
     9  H    2.762193   2.644088   3.540690   2.138782   2.083629
    10  C    3.771204   4.843186   5.725390   4.941960   2.418236
    11  C    4.305375   5.101292   6.054698   4.969844   2.803854
    12  H    4.554322   5.712540   6.553256   5.876554   3.322970
    13  O    1.223136   2.249899   2.500326   3.028296   2.370812
    14  C    3.789201   4.267280   5.232080   3.963420   2.384869
    15  N    4.992626   5.184462   6.115139   4.685356   3.725107
    16  O    5.098106   4.985116   5.833642   4.357863   4.091341
    17  O    6.056727   6.341790   7.287342   5.859484   4.691915
    18  H    5.303792   6.080028   7.038497   5.906889   3.802334
                    6          7          8          9         10
     6  C    0.000000
     7  H    1.020257   0.000000
     8  C    2.406761   3.334806   0.000000
     9  H    3.302772   4.162830   0.975965   0.000000
    10  C    1.387063   2.078968   2.788902   3.763534   0.000000
    11  C    2.409751   3.322760   2.432817   3.299167   1.390307
    12  H    2.073904   2.364848   3.799592   4.774335   1.010930
    13  O    2.794142   2.499530   3.625677   3.946251   4.176252
    14  C    2.736803   3.756893   1.382614   2.045670   2.375086
    15  N    4.208490   5.228598   2.449556   2.594841   3.721735
    16  O    4.893767   5.896036   2.700870   2.378683   4.679563
    17  O    4.906833   5.903238   3.538838   3.796683   4.107427
    18  H    3.315568   4.149138   3.334326   4.121448   2.085462
                   11         12         13         14         15
    11  C    0.000000
    12  H    2.095570   0.000000
    13  O    5.007114   4.759840   0.000000
    14  C    1.383663   3.300507   4.746660   0.000000
    15  N    2.456220   4.545602   6.050545   1.471708   0.000000
    16  O    3.542679   5.581624   6.244079   2.308313   1.222683
    17  O    2.721300   4.739718   7.056084   2.313685   1.221188
    18  H    0.998520   2.417359   5.983507   2.086574   2.647285
                   16         17         18
    16  O    0.000000
    17  O    2.160166   0.000000
    18  H    3.848712   2.444373   0.000000
 Stoichiometry    C7H6N2O3
 Framework group  C1[X(C7H6N2O3)]
 Deg. of freedom    48
 Full point group                 C1      NOp   1
 RotChk:  IX=0 Diff= 2.93D-03
 Largest Abelian subgroup         C1      NOp   1
 Largest concise Abelian subgroup C1      NOp   1
                         Standard orientation:                         
 ---------------------------------------------------------------------
 Center     Atomic      Atomic             Coordinates (Angstroms)
 Number     Number       Type             X           Y           Z
 ---------------------------------------------------------------------
      1          6           0       -2.528010   -0.436765   -0.001336
      2          7           0       -2.592258   -1.756729    0.258323
      3          1           0       -3.437363   -2.234707    0.182101
      4          1           0       -1.913686   -2.231628    0.478576
      5          6           0       -1.168630    0.203986    0.009468
      6          6           0       -1.107129    1.596509    0.035487
      7          1           0       -1.962083    2.153124    0.048051
      8          6           0        0.013171   -0.532840   -0.021930
      9          1           0        0.017133   -1.506581   -0.087668
     10          6           0        0.114439    2.253548    0.039403
     11          6           0        1.301672    1.530281    0.021565
     12          1           0        0.125483    3.264131    0.063470
     13          8           0       -3.524657    0.225747   -0.253992
     14          6           0        1.215477    0.149845   -0.017028
     15          7           0        2.460557   -0.634515   -0.038911
     16          8           0        2.368228   -1.838674   -0.229778
     17          8           0        3.514235   -0.048411    0.154857
     18          1           0        2.184027    1.997691    0.017119
 ---------------------------------------------------------------------
 Rotational constants (GHZ):      1.9077573      0.6025088      0.4608472
 Leave Link  202 at Thu Aug 26 05:05:26 2021, MaxMem= 24159191040 cpu:         0.3
 (Enter /public/home/users/caep010/software/Gaussian09/g09/l301.exe)
 Standard basis: GTBas3 (6D, 7F)
 Ernie: Thresh=  0.10000D-02 Tol=  0.10000D-05 Strict=F.
 There are   402 symmetry adapted cartesian basis functions of A   symmetry.
 There are   366 symmetry adapted basis functions of A   symmetry.
   366 basis functions,   570 primitive gaussians,   402 cartesian basis functions
    43 alpha electrons       43 beta electrons
       nuclear repulsion energy       662.4440999494 Hartrees.
 IExCor=  402 DFT=T Ex+Corr=B3LYP ExCW=0 ScaHFX=  0.200000
 ScaDFX=  0.800000  0.720000  1.000000  0.810000 ScalE2=  1.000000  1.000000
 IRadAn=      0 IRanWt=     -1 IRanGd=            0 ICorTp=0 IEmpDi=  4
 NAtoms=   18 NActive=   18 NUniq=   18 SFac= 1.00D+00 NAtFMM=   60 NAOKFM=F Big=F
 Integral buffers will be    131072 words long.
 Raffenetti 2 integral format.
 Two-electron integral symmetry is turned on.
 Leave Link  301 at Thu Aug 26 05:05:26 2021, MaxMem= 24159191040 cpu:         1.8
 (Enter /public/home/users/caep010/software/Gaussian09/g09/l302.exe)
 NPDir=0 NMtPBC=     1 NCelOv=     1 NCel=       1 NClECP=     1 NCelD=      1
         NCelK=      1 NCelE2=     1 NClLst=     1 CellRange=     0.0.
 One-electron integrals computed using PRISM.
 NBasis=   366 RedAO= T EigKep=  1.09D-04  NBF=   366
 NBsUse=   366 1.00D-06 EigRej= -1.00D+00 NBFU=   366
 Precomputing XC quadrature grid using
 IXCGrd= 4 IRadAn=           0 IRanWt=          -1 IRanGd=           0 AccXCQ= 0.00D+00.
 Generated NRdTot=       0 NPtTot=           0 NUsed=           0 NTot=          32
 NSgBfM=   402   402   402   402   402 MxSgAt=    18 MxSgA2=    18.
 Leave Link  302 at Thu Aug 26 05:05:27 2021, MaxMem= 24159191040 cpu:        21.7
 (Enter /public/home/users/caep010/software/Gaussian09/g09/l303.exe)
 DipDrv:  MaxL=1.
 Leave Link  303 at Thu Aug 26 05:05:27 2021, MaxMem= 24159191040 cpu:         1.0
 (Enter /public/home/users/caep010/software/Gaussian09/g09/l401.exe)
 Initial guess from the checkpoint file:  "/public/home/users/caep010/.cache/gau_scr/Gau-11690.chk"
 B after Tr=     0.000000    0.000000   -0.000000
         Rot=    1.000000   -0.000052   -0.000115   -0.000255 Ang=  -0.03 deg.
 Guess basis will be translated and rotated to current coordinates.
 JPrj=2 DoOrth=T DoCkMO=T.
 Generating alternative initial guess.
 ExpMin= 1.61D-01 ExpMax= 5.48D+03 ExpMxC= 8.25D+02 IAcc=1 IRadAn=         1 AccDes= 0.00D+00
 Harris functional with IExCor=  402 and IRadAn=       1 diagonalized for initial guess.
 HarFok:  IExCor=  402 AccDes= 0.00D+00 IRadAn=         1 IDoV= 1 UseB2=F ITyADJ=14
 ICtDFT=  3500011 ScaDFX=  1.000000  1.000000  1.000000  1.000000
 FoFCou: FMM=F IPFlag=           0 FMFlag=      100000 FMFlg1=           0
         NFxFlg=           0 DoJE=T BraDBF=F KetDBF=T FulRan=T
         wScrn=  0.000000 ICntrl=     500 IOpCl=  0 I1Cent=   200000004 NGrid=           0
         NMat0=    1 NMatS0=      1 NMatT0=    0 NMatD0=    1 NMtDS0=    0 NMtDT0=    0
 Petite list used in FoFCou.
 Harris En= -605.519818290175    
 Leave Link  401 at Thu Aug 26 05:05:27 2021, MaxMem= 24159191040 cpu:        22.0
 (Enter /public/home/users/caep010/software/Gaussian09/g09/l502.exe)
 Closed shell SCF:
 Using DIIS extrapolation, IDIIS=  1040.
 Integral symmetry usage will be decided dynamically.
 Keep R1 ints in memory in canonical form, NReq=2288577883.
 IVT=      519130 IEndB=      519130 NGot= 24159191040 MDV= 21903338370
 LenX= 21903338370 LenY= 21903176325
 Requested convergence on RMS density matrix=1.00D-08 within 128 cycles.
 Requested convergence on MAX density matrix=1.00D-06.
 Requested convergence on             energy=1.00D-06.
 No special actions if energy rises.
 FoFCou: FMM=F IPFlag=           0 FMFlag=           0 FMFlg1=           0
         NFxFlg=           0 DoJE=F BraDBF=F KetDBF=F FulRan=T
         wScrn=  0.000000 ICntrl=     600 IOpCl=  0 I1Cent=           0 NGrid=           0
         NMat0=    1 NMatS0=  67161 NMatT0=    0 NMatD0=    1 NMtDS0=    0 NMtDT0=    0
 Symmetry not used in FoFCou.
 Integral accuracy reduced to 1.0D-05 until final iterations.

 Cycle   1  Pass 0  IDiag  1:
 E= -605.441255506895    
 DIIS: error= 4.75D-03 at cycle   1 NSaved=   1.
 NSaved= 1 IEnMin= 1 EnMin= -605.441255506895     IErMin= 1 ErrMin= 4.75D-03
 ErrMax= 4.75D-03  0.00D+00 EMaxC= 1.00D-01 BMatC= 8.27D-03 BMatP= 8.27D-03
 IDIUse=3 WtCom= 9.52D-01 WtEn= 4.75D-02
 Coeff-Com:  0.100D+01
 Coeff-En:   0.100D+01
 Coeff:      0.100D+01
 Gap=     1.051 Goal=   None    Shift=    0.000
 GapD=    1.051 DampG=2.000 DampE=1.000 DampFc=2.0000 IDamp=-1.
 RMSDP=6.02D-04 MaxDP=3.31D-02              OVMax= 2.07D-02

 Cycle   2  Pass 0  IDiag  1:
 E= -605.445687160305     Delta-E=       -0.004431653410 Rises=F Damp=F
 DIIS: error= 2.19D-03 at cycle   2 NSaved=   2.
 NSaved= 2 IEnMin= 2 EnMin= -605.445687160305     IErMin= 2 ErrMin= 2.19D-03
 ErrMax= 2.19D-03  0.00D+00 EMaxC= 1.00D-01 BMatC= 2.33D-03 BMatP= 8.27D-03
 IDIUse=3 WtCom= 9.78D-01 WtEn= 2.19D-02
 Coeff-Com:  0.290D+00 0.710D+00
 Coeff-En:   0.000D+00 0.100D+01
 Coeff:      0.284D+00 0.716D+00
 Gap=     0.164 Goal=   None    Shift=    0.000
 RMSDP=2.40D-04 MaxDP=2.14D-02 DE=-4.43D-03 OVMax= 3.05D-02

 Cycle   3  Pass 0  IDiag  1:
 E= -605.445699369657     Delta-E=       -0.000012209352 Rises=F Damp=F
 DIIS: error= 2.01D-03 at cycle   3 NSaved=   3.
 NSaved= 3 IEnMin= 3 EnMin= -605.445699369657     IErMin= 3 ErrMin= 2.01D-03
 ErrMax= 2.01D-03  0.00D+00 EMaxC= 1.00D-01 BMatC= 2.40D-03 BMatP= 2.33D-03
 IDIUse=3 WtCom= 9.80D-01 WtEn= 2.01D-02
 Coeff-Com:  0.501D-01 0.495D+00 0.455D+00
 Coeff-En:   0.000D+00 0.499D+00 0.501D+00
 Coeff:      0.491D-01 0.495D+00 0.456D+00
 Gap=     0.174 Goal=   None    Shift=    0.000
[...]
 .6652533732\C,0,-0.7718270062,3.8680714695,5.7800767994\H,0,-1.7811552
 502,3.4857719637,5.8496872037\C,0,1.7696519068,5.0164949581,5.60830450
 02\C,0,0.6775677313,5.6900254195,5.0695456521\H,0,2.7574646068,5.45881
 0423,5.5467902116\O,0,1.1383536624,1.4446389502,7.7002284221\C,0,-0.57
 68108741,5.1009226195,5.1703430549\N,0,-1.7459240458,5.8081659996,4.61
 53412936\O,0,-2.8378143484,5.2624360352,4.7148840606\O,0,-1.5519751584
 ,6.89447644,4.0871726632\H,0,0.7747911704,6.6512698126,4.5836504532\\V
 ersion=ES64L-G09RevE.01\State=1-A\MP2/GTBas1=-603.7130313\MP4/GTBas1=-
 603.8339883\CCSD(T)/G3Bas1=-603.817202\MP2/GTBas2=-603.7543654\MP4/GTB
 as2=-603.8775958\MP2/GTBas3=-604.1167065\MP4/GTBas3=-604.2604084\HF/GT
 LargeXP=-602.165646\MP2/GTLargeXP=-604.9235168\HF/GFHFB1=-602.2135055\
 HF/GFHFB2=-602.2227506\G4=-605.1992834\FreqCoord=0.4422250884,3.513840
 4905,13.2269972101,-1.7519286768,2.1941782021,12.8735537904,-1.7866253
 969,0.427839395,13.5858190732,-2.9016663456,2.5599148075,11.4057536101
 ,0.6209758803,6.0363699143,11.921157949,3.0148104078,7.1495811242,11.7
 675699793,4.5912876695,6.1387872834,12.5955034817,-1.4585416637,7.3095
 957398,10.922762178,-3.365895623,6.5871543731,11.054306778,3.344157454
 4,9.4798016177,10.5981595752,1.2804174487,10.7525897321,9.5800529006,5
 .210852928,10.3156567108,10.4819144165,2.1511766643,2.7299719768,14.55
 13228784,-1.0900145826,9.6393467759,9.7705323869,-3.2993182954,10.9758
 430735,8.7217310547,-5.3626919345,9.9445628983,8.9098396229,-2.9328080
 144,13.0286723012,7.7236369913,1.4641431222,12.5690783818,8.6618440454
 \PG=C01 [X(C7H6N2O3)]\NImag=0\\0.76655249,-0.00072237,0.54291488,0.286
 95017,-0.19162970,0.46666671,-0.23230671,-0.09932342,-0.03166013,0.536
 47760,-0.11745352,-0.18393218,0.02469760,0.12705713,0.65793764,-0.0522
 0908,0.01634794,-0.08910656,0.32086239,-0.25097699,0.44413631,0.003225
 35,-0.03579288,0.01598073,-0.04905211,-0.00862286,-0.02807551,0.045900
 14,0.00222057,-0.01860285,0.00751249,-0.02054419,-0.39554193,0.1569848
 7,0.01989773,0.41023621,0.00769397,-0.00258907,0.00583179,-0.02678078,
 0.13831777,-0.08782936,0.01605278,-0.15803342,0.09121386,-0.01668875,0
 .01301793,-0.02035005,-0.17924981,0.02914828,-0.20215759,0.00196146,-0
 .00115124,0.00605783,0.19652207,0.00279547,0.01128125,-0.01810577,0.02
 037604,-0.07529301,0.07572034,0.02134409,0.00007575,0.02183884,-0.0370
 1700,0.06830772,0.00605817,-0.00086659,-0.00556325,-0.22131853,0.08543
 499,-0.27909114,-0.00266350,-0.00566078,-0.00709959,0.21764960,-0.0813
 0443,0.28616635,-0.10303524,-0.01415990,0.00492851,0.00063200,-0.03382
 865,0.01198775,-0.00434950,-0.00361340,-0.00226507,-0.00022540,0.00003
 114,0.00024705,0.66836733,-0.02329812,-0.15622165,0.03076955,-0.013354
 51,-0.02329125,0.01239573,-0.00254621,0.00129054,0.00143274,0.00072735
 ,-0.00097119,-0.00039815,0.02599793,0.51955361,0.00496667,0.03287810,-
 0.09534277,0.00347430,0.00213331,0.00989298,-0.00349024,0.00054456,0.0
 0309010,0.00114416,0.00064436,0.00017679,0.08804488,-0.18584835,0.2652
 6774,0.00634496,-0.01607054,0.01088934,0.00150162,0.00355126,-0.001424
 47,0.00047772,0.00033317,-0.00004045,-0.00067287,0.00024982,-0.0001324
 8,-0.27802460,-0.09795571,0.01305404,0.67712071,-0.02755016,-0.0189999
 9,0.00840709,0.00139856,-0.00370750,0.00293238,-0.00114616,-0.00088707
 ,-0.00042309,-0.00026354,-0.00007303,-0.00000538,-0.04940808,-0.139311
 33,0.02987660,0.00419883,0.58692192,0.01519498,0.00830054,0.00206868,-
 0.00093148,0.00311706,-0.00085155,0.00054166,0.00053183,0.00066170,0.0
 0027818,-0.00015458,0.00004362,-0.01266688,0.02087962,-0.08377043,0.09
 372835,-0.23294676,0.28459470,-0.00303601,0.00263950,-0.00231219,0.001
 07911,0.00002230,0.00027553,-0.00004070,-0.00011616,0.00002083,0.00000
 736,0.00024665,0.00011556,-0.01883125,0.01450850,-0.01201077,-0.228741
 94,0.10619956,-0.09096014,0.24143307,-0.00210025,-0.00036003,-0.002906
 92,0.00118558,0.00024144,0.00049135,-0.00013194,0.00004244,0.00012576,
 0.00010884,0.00022500,0.00009839,-0.00955912,0.01069552,-0.00436016,0.
 10795279,-0.12246354,0.06132748,-0.11414177,0.12394287,0.00097203,-0.0
 0094143,-0.00293860,-0.00102223,-0.00037394,-0.00010019,-0.00007932,0.
 00007207,0.00012165,-0.00002546,-0.00015321,-0.00002275,0.00050454,-0.
 00112994,0.00604273,-0.09181373,0.06187842,-0.09094849,0.10037867,-0.0
 7065704,0.08360304,0.01012624,0.00986003,-0.00397770,-0.00391968,-0.00
 153626,0.00106159,-0.00058284,-0.00022829,-0.00010802,0.00095920,-0.00
 249382,-0.00060384,-0.25069749,0.09650670,-0.08077900,-0.05457836,-0.0
 0869118,-0.00627095,-0.00394662,-0.00323578,0.00013956,0.72846866,0.02
 111472,-0.01246230,0.00949476,0.00000404,-0.00179921,0.00051058,0.0006
 8976,0.00071914,0.00009780,0.00040551,-0.00122245,0.00107086,0.0472510
 7,-0.15650967,0.05325133,0.02693488,0.05023214,-0.01730762,-0.00355963
 ,-0.00002982,0.00252176,0.05661591,0.56217967,-0.01010747,0.00985096,-
 0.00558444,-0.00133092,0.00032621,0.00026624,-0.00007042,-0.00025805,-
 0.00026505,-0.00003671,0.00002452,-0.00053150,-0.05241796,0.06218506,-
 0.10371133,-0.02492187,-0.02400293,0.01757737,0.00009145,0.00242488,0.
 00421329,0.05662870,-0.21254305,0.25805716,-0.00170739,-0.00169871,0.0
 0079321,0.00084960,-0.00092053,0.00000862,0.00061705,0.00013151,0.0000
 3081,0.00071421,0.00128002,0.00054108,-0.01526447,-0.00946344,0.002230
 97,-0.00143303,0.00267437,-0.00246678,-0.00070637,-0.00065221,0.000202
 64,-0.30479387,-0.10006422,0.01735182,0.32430193,0.00067451,-0.0002755
 4,-0.00185963,-0.00037937,-0.00153905,0.00048478,-0.00013796,0.0000378
 4,-0.00000437,0.00099871,-0.00288417,0.00025827,0.01346468,0.01042324,
 -0.00147067,0.00239246,-0.00007081,0.00408600,0.00074567,0.00051040,-0
 .00008493,-0.09657644,-0.09039234,0.01398083,0.10766298,0.09329901,-0.
 00035492,-0.00323583,-0.00292856,0.00097327,0.00015799,0.00028534,0.00
 007483,0.00001286,-0.00023592,-0.00038870,0.00040500,0.00093057,-0.010
 41164,-0.00425613,0.00374947,-0.00271462,0.00386346,0.00414046,-0.0005
 3265,-0.00017525,0.00024919,0.01790839,0.01410988,-0.04303334,-0.01724
 123,-0.01887853,0.03293449,-0.00688846,-0.00183922,-0.00208203,0.00106
 161,-0.00128326,0.00085922,-0.00044375,-0.00047270,-0.00011358,-0.0002
 0345,0.00019016,0.00011237,0.01915309,-0.02945644,0.01824797,-0.130045
 89,-0.05823589,0.01847741,0.00790847,0.02127765,-0.01024658,-0.0088432
 0,0.02129111,-0.01169010,0.00023933,0.00058009,-0.00018166,0.71551196,
 -0.00473984,0.00379893,-0.00015467,-0.00016652,-0.00119415,0.00033323,
 0.00001225,0.00007210,-0.00006228,0.00045832,0.00016735,0.00011872,-0.
 06612569,-0.01713362,0.00155651,-0.00102318,-0.27935265,0.11500933,-0.
 00474723,-0.00768093,0.00524124,0.01794791,-0.04293395,0.02183145,0.00
 066425,-0.00045975,0.00039540,0.06765834,0.56089830,0.00040657,0.00138
 215,0.00630322,0.00038109,0.00066036,-0.00058572,0.00025097,-0.0002985
 2,-0.00035416,-0.00046291,0.00005554,0.00002533,0.03542801,0.00784434,
 0.01091731,-0.01067849,0.10470934,-0.11907185,0.00318360,0.01008299,-0
 .00065446,-0.00976215,0.02236364,-0.02061537,-0.00027195,0.00025932,-0
 .00026949,0.06477173,-0.21406976,0.25461216,-0.00377670,-0.00035607,-0
 .00102963,0.00022796,-0.00093589,0.00040139,-0.00008293,0.00012316,0.0
 0012707,0.00060324,0.00022062,-0.00000291,-0.06103886,0.00417318,-0.01
 196377,0.04443061,0.06103398,-0.02495983,0.00103526,-0.00177597,-0.000
 20559,0.01557012,-0.06722556,0.03558664,0.00154805,0.00064904,-0.00056
 016,-0.25607274,0.04563226,-0.05760013,0.65020695,0.00083029,0.0004617
 7,-0.00009469,-0.00012275,-0.00035566,0.00017501,0.00008442,0.00008872
 ,0.00000970,0.00008715,0.00013971,0.00011138,0.00048250,-0.00070969,-0
 .00332180,0.02282171,-0.02428118,0.01971987,-0.00209106,-0.00230014,0.
 00484972,-0.02849767,-0.01548703,0.00967046,-0.00011803,-0.00395612,0.
 00418821,0.10461010,-0.16070759,0.07028198,0.03622348,0.62570490,-0.00
 087190,-0.00074712,-0.00081937,0.00012354,0.00009432,0.00005764,-0.000
 10950,-0.00002027,0.00005449,0.00004823,-0.00010341,-0.00004625,-0.009
 09451,-0.00272385,-0.00711647,-0.00557501,0.02616425,-0.00893080,-0.00
 020847,0.00506432,0.00504542,0.01546039,0.00328852,0.01232799,-0.00025
 186,0.00460912,0.00232627,-0.08801849,0.06039600,-0.10683221,0.0667706
 1,-0.24905900,0.28011685,-0.00006991,0.00036461,-0.00027232,-0.0000498
 0,-0.00012119,0.00007899,-0.00001223,0.00000955,-0.00000239,0.00000977
 ,0.00001186,0.00000263,0.00169245,-0.00071800,-0.00057783,0.00043959,0
 .00077099,-0.00075358,0.00049877,0.00018498,0.00065585,0.00036823,0.00
 057624,-0.00020723,-0.00006346,0.00003462,0.00015442,-0.29177909,-0.10
 646906,0.01182430,-0.01857724,-0.01135709,0.00242362,0.30876891,-0.001
 64835,0.00055336,-0.00057925,0.00000885,-0.00059237,0.00024749,-0.0001
 0518,-0.00007874,-0.00008332,0.00002368,0.00000848,0.00002748,0.000184
 40,-0.00278409,0.00540659,-0.02684973,-0.00785745,0.00068609,0.0006545
 9,0.00010802,-0.00194944,0.00070828,-0.00075893,0.00046372,0.00000374,
 -0.00018896,-0.00049639,-0.10668187,-0.10020744,0.01480523,0.01615609,
 0.00910829,-0.00090971,0.11451035,0.10190304,0.00076897,-0.00018350,0.
 00053081,0.00005349,0.00025868,-0.00023797,0.00007021,0.00004913,-0.00
 003136,-0.00004383,-0.00000114,-0.00000240,-0.00073568,0.00524075,0.00
 429263,0.01363248,0.00512020,0.00201286,0.00048831,-0.00209117,-0.0026
 3255,-0.00033392,0.00047683,-0.00042837,0.00012214,-0.00048814,-0.0008
 6156,0.01177132,0.01496949,-0.04269646,-0.01194193,-0.00568025,0.00296
 805,-0.01128904,-0.01993374,0.03467483,-0.41500534,0.14325084,-0.25597
 447,-0.07772721,0.00524493,-0.05161015,0.00204468,0.00331238,-0.000622
 24,-0.00329847,-0.00788856,-0.00046626,0.00287157,0.01917000,-0.019036
 06,-0.00764954,-0.00389898,0.00135683,0.00315620,0.00075723,0.00031381
 ,0.00139636,0.00061232,-0.00021965,0.00095491,-0.00082777,-0.00007271,
 0.00213801,0.00140993,-0.00020489,0.00054716,-0.00057363,0.00028150,0.
 00005873,0.00034836,-0.00020101,0.48984793,0.14413137,-0.17526507,0.13
 225342,-0.01436026,0.02891522,-0.01499095,0.00639670,0.00262318,-0.000
 42893,-0.00615766,0.00064308,0.00101717,0.03133362,-0.01706083,0.03657
 744,0.00170802,-0.00098297,0.00160582,0.00056487,-0.00172149,0.0010528
 0,-0.00565075,-0.00315596,0.00230430,0.00015068,0.00055215,0.00071674,
 0.00119544,0.00047143,-0.00059566,0.00102326,-0.00072858,0.00044119,-0
 .00015604,-0.00005434,0.00018534,-0.16127010,0.16947419,-0.25508983,0.
 13032650,-0.28539101,-0.04365976,-0.00383664,0.00366545,0.00145301,-0.
 00145124,-0.00538558,-0.00209570,0.00077928,0.00516524,-0.02617978,0.0
 2969842,-0.01000376,-0.00394624,-0.00131911,-0.00042207,0.00070764,0.0
 0061616,-0.00096656,0.00384997,0.00416036,0.00024171,0.00020221,-0.000
 34064,0.00043654,-0.00010736,0.00026899,-0.00027092,-0.00004732,0.0000
 8448,-0.00002812,0.00010559,0.00021881,-0.00008784,0.32562657,-0.16025
 234,0.29481200,-0.00438474,0.00030884,-0.00176079,0.00071102,-0.000185
 76,-0.00008530,0.00031855,0.00007248,-0.00000913,-0.00048856,0.0006492
 2,0.00040642,0.03430416,0.01842412,-0.00475349,-0.02332426,-0.02734749
 ,0.01186116,0.00005594,-0.00118657,0.00067852,-0.12152225,-0.01860882,
 0.00152059,-0.00151185,-0.02748992,0.01242321,-0.05616135,0.03311793,-
 0.02790263,-0.27167411,-0.11972725,0.02857934,-0.00118702,0.00175170,-
 0.00241375,0.00054884,0.00150485,-0.00110205,0.60966423,0.00456662,0.0
 0680317,0.00242963,-0.00188984,0.00014948,-0.00068403,0.00004304,-0.00
 005918,-0.00019877,-0.00020034,-0.00057829,0.00006686,0.06133096,-0.02
 521069,0.02861771,-0.02873007,-0.03868712,0.01113479,-0.00102907,-0.00
 055856,0.00004232,-0.07071408,-0.26847060,0.09315342,-0.00258631,-0.00
 575519,0.00512022,-0.01019105,0.04788100,-0.02318032,-0.06723920,-0.15
 596877,0.03489347,0.00294083,0.00043599,0.00421661,-0.00014505,-0.0029
 2772,0.00035819,0.12269431,0.57819697,-0.00378169,0.00133443,0.0064394
 5,0.00091239,0.00008154,-0.00066034,0.00005317,0.00000875,0.00025232,0
 .00036423,0.00041570,-0.00004522,-0.02863174,0.01969147,-0.00777579,0.
 01232678,0.01155604,-0.01138272,0.00051503,0.00022058,0.00033238,0.027
 91568,0.10190874,-0.11481822,0.00040137,0.00209047,0.00464510,-0.00538
 702,-0.01570451,0.01382890,0.00231327,0.02668168,-0.08007089,-0.003025
 29,0.00396209,0.00479929,0.00099502,-0.00003480,-0.00128126,0.01096210
 ,-0.20438008,0.25533761,0.00414393,0.00518414,-0.00150411,-0.00274098,
 -0.00200090,0.00081825,0.00005780,0.00001706,-0.00026705,0.00094992,-0
 .00023919,-0.00002794,0.00751619,-0.00673832,0.00386620,-0.00220027,-0
 .00199581,0.00081165,-0.00037446,0.00014750,-0.00011551,0.00409039,0.0
 2296967,-0.01223573,-0.00188420,-0.00424960,0.00298137,-0.00245181,-0.
 00757793,0.00223329,-0.03741927,0.01544137,-0.01409294,-0.00023581,0.0
 0071576,-0.00055909,-0.00081503,-0.00267701,0.00120306,-0.11310798,0.0
 0187361,-0.00525799,0.75362963,0.00143051,-0.00075618,0.00134816,-0.00
 005365,0.00075411,-0.00012655,-0.00012420,-0.00013935,0.00005139,0.000
 01782,-0.00061626,-0.00004977,-0.00497624,-0.00369190,0.00520934,-0.00
 182554,-0.00283035,0.00065872,-0.00001889,-0.00070944,-0.00021361,0.02
 914822,-0.01723920,0.01365189,-0.00037670,-0.00179402,-0.00171151,-0.0
 0814012,0.00313195,0.00130074,0.00854684,0.01608374,-0.00685209,-0.001
 35191,0.00085990,-0.00028298,-0.00022485,0.00024057,-0.00051526,0.0024
 5392,-0.10402739,0.00976697,0.17413754,0.75333244,-0.00024790,0.002051
 84,0.00035439,-0.00040059,-0.00083908,0.00012981,0.00007312,0.00006420
 ,-0.00004286,0.00010648,0.00032329,0.00006071,0.00198054,0.00527213,0.
 00621554,0.00091968,0.00088085,-0.00160111,0.00019217,-0.00026761,-0.0
 0113683,-0.01415797,0.01231763,-0.00856075,0.00050504,-0.00249655,-0.0
 0357368,0.00253694,0.00127424,0.00816975,-0.01094346,-0.00603718,0.001
 12007,0.00052969,0.00008196,0.00090063,0.00010046,-0.00114116,0.000056
 37,-0.00515206,0.01037634,-0.09253190,-0.00410858,-0.23733557,0.358462
 27,-0.00184558,-0.00290450,0.00078785,0.00153848,0.00120252,-0.0004972
 2,-0.00005068,0.00001116,0.00013460,-0.00061154,0.00009247,0.00003046,
 -0.00154581,0.00123334,-0.00095858,-0.00024194,-0.00081195,0.00037243,
 0.00011954,0.00002452,0.00007478,-0.00169493,-0.00564748,0.00285820,-0
 .00201937,0.00299741,-0.00199691,-0.00275781,0.00097459,-0.00073857,0.
 00085072,0.00744617,-0.00415796,-0.00071569,0.00045552,-0.00031443,0.0
 0052186,0.00127641,-0.00047365,-0.06648244,-0.01294325,-0.00765315,-0.
 47436288,-0.15703924,0.01509667,0.55882360,-0.00082836,0.00016468,-0.0
 0041689,0.00028989,-0.00013711,0.00000875,0.00007208,0.00005028,0.0000
 0762,-0.00010378,0.00037799,-0.00000052,-0.00057835,0.00208857,-0.0016
 8379,0.00143241,0.00046641,0.00007199,0.00023694,0.00020675,0.00000784
 ,0.00374404,-0.00730207,0.00511516,0.00390378,0.00103553,-0.00002287,0
 .00130566,0.00036166,-0.00065654,0.00028363,-0.00131350,0.00228172,0.0
 0022746,-0.00021880,-0.00007409,0.00044465,-0.00013150,0.00033866,0.00
 149440,0.01860149,0.00121118,-0.15059033,-0.18752906,0.03104063,0.2228
 8814,0.22329592,0.00008556,-0.00066801,0.00028380,0.00007178,0.0003944
 8,-0.00001065,-0.00002273,-0.00003163,0.00000202,-0.00005538,-0.000191
 44,-0.00014992,0.00015296,-0.00124397,0.00008956,-0.00081047,-0.000315
 10,0.00020200,-0.00012598,-0.00005880,0.00010142,-0.00240115,0.0034227
 0,-0.00133605,-0.00228911,-0.00012070,-0.00034800,-0.00092697,-0.00070
 916,-0.00112144,-0.00043817,0.00344389,0.00106365,-0.00016425,-0.00002
 646,-0.00043707,-0.00010405,0.00034131,-0.00017691,-0.01516804,-0.0012
 6934,0.01863309,0.01192076,0.03020266,-0.09198758,-0.02695356,-0.06323
 137,0.05705485,-0.00140985,-0.00193007,0.00064692,0.00087729,0.0007139
 6,-0.00029229,-0.00002314,-0.00001146,0.00008216,-0.00030669,0.0000419
 2,0.00000352,-0.00026714,0.00265687,-0.00121737,0.00022429,0.00144733,
 -0.00075749,0.00010079,0.00016917,-0.00004893,-0.00494317,-0.00158486,
 -0.00017452,0.00003441,0.00102450,-0.00069120,0.00233236,0.00069840,0.
 00014415,-0.00770503,0.00148135,-0.00216030,-0.00004260,-0.00008296,0.
 00003916,0.00014731,0.00098455,-0.00052309,0.01191154,0.02770319,-0.01
 574214,-0.13580460,-0.03842169,0.01040283,-0.01096178,-0.08568505,0.03
 783345,0.14729780,0.00054358,0.00138821,-0.00094107,-0.00019376,-0.000
 60738,0.00012202,0.00005799,0.00007493,-0.00004964,-0.00005150,0.00036
 912,0.00006597,0.00172877,-0.00168241,0.00041598,-0.00060175,0.0000365
 5,-0.00011423,0.00011285,0.00023023,-0.00010677,0.00542107,0.00309860,
 0.00062318,-0.00066453,0.00159278,-0.00070419,0.00156751,-0.00083525,0
 .00040442,-0.00751403,-0.00254415,0.00047941,0.00027914,-0.00005531,0.
 00008981,0.00036373,-0.00097454,0.00088525,0.01306741,-0.04180210,0.03
 435785,-0.04487655,-0.45125395,0.18487612,-0.05911990,-0.05047044,0.03
 004051,0.08696406,0.54265822,-0.00046632,-0.00139030,-0.00000706,0.000
 24001,0.00045352,-0.00006794,-0.00003457,-0.00003853,0.00002993,-0.000
 00583,-0.00019153,-0.00002503,-0.00061073,0.00062108,-0.00172555,0.000
 32479,0.00021087,0.00009569,-0.00005219,-0.00006767,0.00009392,-0.0040
 8692,-0.00037868,0.00240175,0.00023098,-0.00029220,0.00083124,-0.00034
 220,0.00025122,-0.00081361,0.00255786,0.00202074,0.00019801,-0.0001550
 3,0.00002260,-0.00003179,-0.00021996,0.00089856,-0.00038611,-0.0080857
 8,0.03648494,0.00035380,0.01358075,0.18595856,-0.17195739,0.02419593,0
 .02573718,0.01771570,-0.02532703,-0.25049699,0.15371627,-0.00023830,0.
 00017181,-0.00005331,0.00009002,-0.00005157,-0.00000211,0.00003511,0.0
 0000866,0.00000865,0.00001831,0.00010910,0.00004862,-0.00125706,0.0001
 3276,-0.00024209,-0.00362680,0.00162562,-0.00285553,0.00028284,0.00097
 534,-0.00036306,-0.00545679,-0.00177466,-0.00062479,0.00012453,-0.0015
 6360,0.00063091,0.00730273,0.02227527,-0.01100199,-0.05867320,-0.02702
 106,0.01085371,0.00089641,-0.00015325,0.00088660,0.00026203,0.00000206
 ,0.00007672,0.00233029,-0.02548429,0.01271998,0.00100944,-0.00318181,0
 .00256694,0.00143625,0.00146279,-0.00060465,-0.00146178,0.00291592,-0.
 00174377,0.05692599,0.00003331,-0.00049045,-0.00022413,0.00006819,-0.0
 0000710,0.00002404,0.00000935,-0.00000200,-0.00000875,-0.00004853,0.00
 004293,0.00001553,0.00044436,0.00052683,-0.00042709,0.00148117,0.00184
 798,0.00339405,-0.00022760,-0.00037871,-0.00005586,-0.00232789,0.00153
 399,0.00119798,0.00007334,-0.00013500,0.00051094,-0.00337552,-0.006277
 39,0.00465077,-0.02901882,-0.28323473,0.12270315,0.00026268,-0.0001806
 5,-0.00187183,-0.00008542,0.00008319,-0.00001985,-0.00099338,-0.008022
 48,0.00683192,0.00045900,-0.00381563,-0.00044210,-0.00013593,0.0004532
 1,0.00002043,0.00383078,0.00077689,0.00019664,0.02955091,0.29727912,0.
 00003203,-0.00022092,-0.00079725,0.00001217,-0.00010116,0.00010767,-0.
 00000470,0.00001167,-0.00001398,-0.00002655,-0.00000136,0.00000845,-0.
 00026023,-0.00043051,-0.00028878,-0.00281762,0.00341286,0.00558194,0.0
 0023357,0.00013271,-0.00040261,-0.00048265,0.00123396,0.00379890,-0.00
 009996,0.00026757,0.00072187,0.00231904,0.00905456,-0.00057099,0.01193
 604,0.12295580,-0.10143433,0.00067188,-0.00194375,-0.00273173,0.000057
 26,0.00004975,0.00002283,0.00000166,0.00281802,0.00394438,0.00075361,-
 0.00106109,-0.00407746,0.00019311,0.00026534,0.00042152,-0.00221783,0.
 00005236,-0.00042184,-0.01030083,-0.13649582,0.09613141\\-0.00000323,-
 0.00000287,-0.00000145,0.00000372,0.00001884,-0.00000834,0.00000205,-0
 .00001807,0.00000714,0.00000581,-0.00000069,0.00000175,-0.00000116,-0.
 00000046,-0.00000090,0.00000850,-0.00000418,0.00000344,-0.00000726,0.0
 0000569,-0.00000474,0.00000721,-0.00000100,0.00000198,-0.00000470,-0.0
 0000163,0.00000044,0.00002250,0.00001103,-0.00000179,0.00000444,0.0000
 3449,-0.00001534,-0.00002361,-0.00000818,0.00000084,0.00000159,-0.0000
 0047,-0.00000151,-0.00000239,0.00000010,-0.00000024,0.00000059,-0.0000
 0147,0.00000088,-0.00000325,0.00000182,0.00000106,-0.00000492,-0.00000
 079,-0.00000001,-0.00000588,-0.00003218,0.00001678\\\@
 Job cpu time:       0 days 19 hours 26 minutes  8.1 seconds.
 File lengths (MBytes):  RWF=  83545 Int=      0 D2E=      0 Chk=    108 Scr=      1
 Normal termination of Gaussian 09 at Thu Aug 26 10:25:53 2021.
