 Entering Gaussian System, Link 0=g09
 Input=G4.JIZJIL.gjf
 Output=G4.JIZJIL.log
 Initial command:
 /public/home/users/caep010/software/Gaussian09/g09/l1.exe "/public/home/users/caep010/.cache/gau_scr/Gau-203941.inp" -scrdir="/public/home/users/caep010/.cache/gau_scr/"
 Entering Link 1 = /public/home/users/caep010/software/Gaussian09/g09/l1.exe PID=    203942.
  
 Copyright (c) 1988,1990,1992,1993,1995,1998,2003,2009,2015,
            Gaussian, Inc.  All Rights Reserved.
  
 This is part of the Gaussian(R) 09 program.  It is based on
 the Gaussian(R) 03 system (copyright 2003, Gaussian, Inc.),
 the Gaussian(R) 98 system (copyright 1998, Gaussian, Inc.),
 the Gaussian(R) 94 system (copyright 1995, Gaussian, Inc.),
 the Gaussian 92(TM) system (copyright 1992, Gaussian, Inc.),
 the Gaussian 90(TM) system (copyright 1990, Gaussian, Inc.),
 the Gaussian 88(TM) system (copyright 1988, Gaussian, Inc.),
 the Gaussian 86(TM) system (copyright 1986, Carnegie Mellon
 University), and the Gaussian 82(TM) system (copyright 1983,
 Carnegie Mellon University). Gaussian is a federally registered
 trademark of Gaussian, Inc.
  
 This software contains proprietary and confidential information,
 including trade secrets, belonging to Gaussian, Inc.
  
 This software is provided under written license and may be
 used, copied, transmitted, or stored only in accord with that
 written license.
  
 The following legend is applicable only to US Government
 contracts under FAR:
  
                    RESTRICTED RIGHTS LEGEND
  
 Use, reproduction and disclosure by the US Government is
 subject to restrictions as set forth in subparagraphs (a)
 and (c) of the Commercial Computer Software - Restricted
 Rights clause in FAR 52.227-19.
  
 Gaussian, Inc.
 340 Quinnipiac St., Bldg. 40, Wallingford CT 06492
  
  
 ---------------------------------------------------------------
 Warning -- This program may not be used in any manner that
 competes with the business of Gaussian, Inc. or will provide
 assistance to any competitor of Gaussian, Inc.  The licensee
 of this program is prohibited from giving any competitor of
 Gaussian, Inc. access to this program.  By using this program,
 the user acknowledges that Gaussian, Inc. is engaged in the
 business of creating and licensing software in the field of
 computational chemistry and represents and warrants to the
 licensee that it is not a competitor of Gaussian, Inc. and that
 it will not use this program in any manner prohibited above.
 ---------------------------------------------------------------
  

 Cite this work as:
 Gaussian 09, Revision E.01,
 M. J. Frisch, G. W. Trucks, H. B. Schlegel, G. E. Scuseria, 
 M. A. Robb, J. R. Cheeseman, G. Scalmani, V. Barone, B. Mennucci, 
 G. A. Petersson, H. Nakatsuji, M. Caricato, X. Li, H. P. Hratchian, 
 A. F. Izmaylov, J. Bloino, G. Zheng, J. L. Sonnenberg, M. Hada, 
 M. Ehara, K. Toyota, R. Fukuda, J. Hasegawa, M. Ishida, T. Nakajima, 
 Y. Honda, O. Kitao, H. Nakai, T. Vreven, J. A. Montgomery, Jr., 
 J. E. Peralta, F. Ogliaro, M. Bearpark, J. J. Heyd, E. Brothers, 
 K. N. Kudin, V. N. Staroverov, T. Keith, R. Kobayashi, J. Normand, 
 K. Raghavachari, A. Rendell, J. C. Burant, S. S. Iyengar, J. Tomasi, 
 M. Cossi, N. Rega, J. M. Millam, M. Klene, J. E. Knox, J. B. Cross, 
 V. Bakken, C. Adamo, J. Jaramillo, R. Gomperts, R. E. Stratmann, 
 O. Yazyev, A. J. Austin, R. Cammi, C. Pomelli, J. W. Ochterski, 
 R. L. Martin, K. Morokuma, V. G. Zakrzewski, G. A. Voth, 
 P. Salvador, J. J. Dannenberg, S. Dapprich, A. D. Daniels, 
 O. Farkas, J. B. Foresman, J. V. Ortiz, J. Cioslowski, 
 and D. J. Fox, Gaussian, Inc., Wallingford CT, 2013.
 
 ******************************************
 Gaussian 09:  ES64L-G09RevE.01 30-Nov-2015
                26-Aug-2021 
 ******************************************
 %nproc=32
 Will use up to   32 processors via shared memory.
 %mem=180GB
 ----------------
 #P G4 OPT=calcfc
 ----------------
 1/10=4,14=-1,18=20,19=15,26=3,38=1/1,3;
 2/9=110,12=2,17=6,18=5,40=1/2;
 3/5=35,7=104,11=2,16=1,25=1,30=1,71=2,74=-5,140=1/1,2,3;
 4//1;
 5/5=2,38=5/2;
 8/6=4,10=90,11=11/1;
 11/6=1,8=1,9=11,15=111,16=1/1,2,10;
 10/6=1,13=1/2;
 6/7=2,8=2,9=2,10=2,28=1/1;
 7/10=1,18=20,25=1/1,2,3,16;
 1/10=4,14=-1,18=20,19=15,26=3/3(2);
 2/9=110/2;
 99//99;
 2/9=110/2;
 3/5=35,7=104,11=2,16=1,25=1,30=1,71=1,74=-5/1,2,3;
 4/5=5,16=3,69=1/1;
 5/5=2,38=5/2;
 7//1,2,3,16;
 1/14=-1,18=20,19=15,26=3/3(-5);
 2/9=110/2;
 6/7=2,8=2,9=2,10=2,19=2,28=1/1;
 99/9=1/99;
 Leave Link    1 at Thu Aug 26 12:40:45 2021, MaxMem= 24159191040 cpu:         3.5
 (Enter /public/home/users/caep010/software/Gaussian09/g09/l101.exe)
 ------
 JIZJIL
 ------
 Symbolic Z-matrix:
 Charge =  0 Multiplicity = 1
 C                     1.6462   -0.4731    8.0715 
 N                     1.6462   -0.4383    9.534 
 C                     1.6462   -1.5282    10.3369 
 N                     1.6462   -1.1997    11.6263 
 C                     1.6462    0.1528    11.6636 
 C                     1.6462    0.6397    10.3972 
 H                     1.6462    0.6131    12.5213 
 C                     1.6462   -2.9247    9.8352 
 N                     1.6462    1.9922    9.9984 
 O                     1.6462    2.8359    10.8869 
 H                     1.6462   -3.5323    10.5276 
 O                     1.6462    2.2768    8.8131 
 H                     1.6462   -1.3086    7.756 
 H                     0.9877    0.0366    7.7231 
 H                     2.3046    0.0366    7.7231 
 H                     2.219    -3.029     9.213 
 H                     1.0733   -3.029     9.213 
 
 NAtoms=     17 NQM=       17 NQMF=       0 NMMI=      0 NMMIF=      0
                NMic=       0 NMicF=      0.
                    Isotopes and Nuclear Properties:
 (Nuclear quadrupole moments (NQMom) in fm**2, nuclear magnetic moments (NMagM)
  in nuclear magnetons)

  Atom         1           2           3           4           5           6           7           8           9          10
 IAtWgt=          12          14          12          14          12          12           1          12          14          16
 AtmWgt=  12.0000000  14.0030740  12.0000000  14.0030740  12.0000000  12.0000000   1.0078250  12.0000000  14.0030740  15.9949146
 NucSpn=           0           2           0           2           0           0           1           0           2           0
 AtZEff=   0.0000000   0.0000000   0.0000000   0.0000000   0.0000000   0.0000000   0.0000000   0.0000000   0.0000000   0.0000000
 NQMom=    0.0000000   2.0440000   0.0000000   2.0440000   0.0000000   0.0000000   0.0000000   0.0000000   2.0440000   0.0000000
 NMagM=    0.0000000   0.4037610   0.0000000   0.4037610   0.0000000   0.0000000   2.7928460   0.0000000   0.4037610   0.0000000
 AtZNuc=   6.0000000   7.0000000   6.0000000   7.0000000   6.0000000   6.0000000   1.0000000   6.0000000   7.0000000   8.0000000

  Atom        11          12          13          14          15          16          17
 IAtWgt=           1          16           1           1           1           1           1
 AtmWgt=   1.0078250  15.9949146   1.0078250   1.0078250   1.0078250   1.0078250   1.0078250
 NucSpn=           1           0           1           1           1           1           1
 AtZEff=   0.0000000   0.0000000   0.0000000   0.0000000   0.0000000   0.0000000   0.0000000
 NQMom=    0.0000000   0.0000000   0.0000000   0.0000000   0.0000000   0.0000000   0.0000000
 NMagM=    2.7928460   0.0000000   2.7928460   2.7928460   2.7928460   2.7928460   2.7928460
 AtZNuc=   1.0000000   8.0000000   1.0000000   1.0000000   1.0000000   1.0000000   1.0000000
 Leave Link  101 at Thu Aug 26 12:40:45 2021, MaxMem= 24159191040 cpu:        10.1
 (Enter /public/home/users/caep010/software/Gaussian09/g09/l103.exe)

 GradGradGradGradGradGradGradGradGradGradGradGradGradGradGradGradGradGrad
 Berny optimization.
 Initialization pass.
                           ----------------------------
                           !    Initial Parameters    !
                           ! (Angstroms and Degrees)  !
 --------------------------                            --------------------------
 ! Name  Definition              Value          Derivative Info.                !
 --------------------------------------------------------------------------------
 ! R1    R(1,2)                  1.4629         calculate D2E/DX2 analytically  !
 ! R2    R(1,13)                 0.8931         calculate D2E/DX2 analytically  !
 ! R3    R(1,14)                 0.9027         calculate D2E/DX2 analytically  !
 ! R4    R(1,15)                 0.9026         calculate D2E/DX2 analytically  !
 ! R5    R(2,3)                  1.3537         calculate D2E/DX2 analytically  !
 ! R6    R(2,6)                  1.381          calculate D2E/DX2 analytically  !
 ! R7    R(3,4)                  1.3306         calculate D2E/DX2 analytically  !
 ! R8    R(3,8)                  1.4839         calculate D2E/DX2 analytically  !
 ! R9    R(4,5)                  1.353          calculate D2E/DX2 analytically  !
 ! R10   R(5,6)                  1.3568         calculate D2E/DX2 analytically  !
 ! R11   R(5,7)                  0.9734         calculate D2E/DX2 analytically  !
 ! R12   R(6,9)                  1.4101         calculate D2E/DX2 analytically  !
 ! R13   R(8,11)                 0.9212         calculate D2E/DX2 analytically  !
 ! R14   R(8,16)                 0.8521         calculate D2E/DX2 analytically  !
 ! R15   R(8,17)                 0.8522         calculate D2E/DX2 analytically  !
 ! R16   R(9,10)                 1.2253         calculate D2E/DX2 analytically  !
 ! R17   R(9,12)                 1.219          calculate D2E/DX2 analytically  !
 ! A1    A(2,1,13)             112.0505         calculate D2E/DX2 analytically  !
 ! A2    A(2,1,14)             111.8654         calculate D2E/DX2 analytically  !
 ! A3    A(2,1,15)             111.8673         calculate D2E/DX2 analytically  !
 ! A4    A(13,1,14)            113.073          calculate D2E/DX2 analytically  !
 ! A5    A(13,1,15)            113.0749         calculate D2E/DX2 analytically  !
 ! A6    A(14,1,15)             93.6861         calculate D2E/DX2 analytically  !
 ! A7    A(1,2,3)              125.015          calculate D2E/DX2 analytically  !
 ! A8    A(1,2,6)              130.0488         calculate D2E/DX2 analytically  !
 ! A9    A(3,2,6)              104.9362         calculate D2E/DX2 analytically  !
 ! A10   A(2,3,4)              112.0849         calculate D2E/DX2 analytically  !
 ! A11   A(2,3,8)              123.8608         calculate D2E/DX2 analytically  !
 ! A12   A(4,3,8)              124.0543         calculate D2E/DX2 analytically  !
 ! A13   A(3,4,5)              105.8729         calculate D2E/DX2 analytically  !
 ! A14   A(4,5,6)              109.4508         calculate D2E/DX2 analytically  !
 ! A15   A(4,5,7)              119.8008         calculate D2E/DX2 analytically  !
 ! A16   A(6,5,7)              130.7484         calculate D2E/DX2 analytically  !
 ! A17   A(2,6,5)              107.6552         calculate D2E/DX2 analytically  !
 ! A18   A(2,6,9)              124.8855         calculate D2E/DX2 analytically  !
 ! A19   A(5,6,9)              127.4593         calculate D2E/DX2 analytically  !
 ! A20   A(3,8,11)             111.5067         calculate D2E/DX2 analytically  !
 ! A21   A(3,8,16)             111.227          calculate D2E/DX2 analytically  !
 ! A22   A(3,8,17)             111.2253         calculate D2E/DX2 analytically  !
 ! A23   A(11,8,16)            117.9106         calculate D2E/DX2 analytically  !
 ! A24   A(11,8,17)            117.9082         calculate D2E/DX2 analytically  !
 ! A25   A(16,8,17)             84.4799         calculate D2E/DX2 analytically  !
 ! A26   A(6,9,10)             117.0897         calculate D2E/DX2 analytically  !
 ! A27   A(6,9,12)             119.9303         calculate D2E/DX2 analytically  !
 ! A28   A(10,9,12)            122.9799         calculate D2E/DX2 analytically  !
 ! D1    D(13,1,2,3)             0.0            calculate D2E/DX2 analytically  !
 ! D2    D(13,1,2,6)           180.0            calculate D2E/DX2 analytically  !
 ! D3    D(14,1,2,3)           128.1815         calculate D2E/DX2 analytically  !
 ! D4    D(14,1,2,6)           -51.8185         calculate D2E/DX2 analytically  !
 ! D5    D(15,1,2,3)          -128.1857         calculate D2E/DX2 analytically  !
 ! D6    D(15,1,2,6)            51.8143         calculate D2E/DX2 analytically  !
 ! D7    D(1,2,3,4)            180.0            calculate D2E/DX2 analytically  !
 ! D8    D(1,2,3,8)              0.0            calculate D2E/DX2 analytically  !
 ! D9    D(6,2,3,4)              0.0            calculate D2E/DX2 analytically  !
 ! D10   D(6,2,3,8)            180.0            calculate D2E/DX2 analytically  !
 ! D11   D(1,2,6,5)            180.0            calculate D2E/DX2 analytically  !
 ! D12   D(1,2,6,9)              0.0            calculate D2E/DX2 analytically  !
 ! D13   D(3,2,6,5)              0.0            calculate D2E/DX2 analytically  !
 ! D14   D(3,2,6,9)            180.0            calculate D2E/DX2 analytically  !
 ! D15   D(2,3,4,5)              0.0            calculate D2E/DX2 analytically  !
 ! D16   D(8,3,4,5)            180.0            calculate D2E/DX2 analytically  !
 ! D17   D(2,3,8,11)           180.0            calculate D2E/DX2 analytically  !
 ! D18   D(2,3,8,16)            46.1479         calculate D2E/DX2 analytically  !
 ! D19   D(2,3,8,17)           -46.1529         calculate D2E/DX2 analytically  !
 ! D20   D(4,3,8,11)             0.0            calculate D2E/DX2 analytically  !
 ! D21   D(4,3,8,16)          -133.8521         calculate D2E/DX2 analytically  !
 ! D22   D(4,3,8,17)           133.8471         calculate D2E/DX2 analytically  !
 ! D23   D(3,4,5,6)              0.0            calculate D2E/DX2 analytically  !
 ! D24   D(3,4,5,7)            180.0            calculate D2E/DX2 analytically  !
 ! D25   D(4,5,6,2)              0.0            calculate D2E/DX2 analytically  !
 ! D26   D(4,5,6,9)            180.0            calculate D2E/DX2 analytically  !
 ! D27   D(7,5,6,2)            180.0            calculate D2E/DX2 analytically  !
 ! D28   D(7,5,6,9)              0.0            calculate D2E/DX2 analytically  !
 ! D29   D(2,6,9,10)           180.0            calculate D2E/DX2 analytically  !
 ! D30   D(2,6,9,12)             0.0            calculate D2E/DX2 analytically  !
 ! D31   D(5,6,9,10)             0.0            calculate D2E/DX2 analytically  !
 ! D32   D(5,6,9,12)           180.0            calculate D2E/DX2 analytically  !
 --------------------------------------------------------------------------------
 Trust Radius=3.00D-01 FncErr=1.00D-07 GrdErr=1.00D-06
 Number of steps in this run=     87 maximum allowed number of steps=    102.
 GradGradGradGradGradGradGradGradGradGradGradGradGradGradGradGradGradGrad

 Leave Link  103 at Thu Aug 26 12:40:46 2021, MaxMem= 24159191040 cpu:         0.4
 (Enter /public/home/users/caep010/software/Gaussian09/g09/l202.exe)
                          Input orientation:                          
 ---------------------------------------------------------------------
 Center     Atomic      Atomic             Coordinates (Angstroms)
 Number     Number       Type             X           Y           Z
 ---------------------------------------------------------------------
      1          6           0        1.646200   -0.473100    8.071500
      2          7           0        1.646200   -0.438300    9.534000
      3          6           0        1.646200   -1.528200   10.336900
      4          7           0        1.646200   -1.199700   11.626300
      5          6           0        1.646200    0.152800   11.663600
      6          6           0        1.646200    0.639700   10.397200
      7          1           0        1.646200    0.613100   12.521300
      8          6           0        1.646200   -2.924700    9.835200
      9          7           0        1.646200    1.992200    9.998400
     10          8           0        1.646200    2.835900   10.886900
     11          1           0        1.646200   -3.532300   10.527600
     12          8           0        1.646200    2.276800    8.813100
     13          1           0        1.646200   -1.308600    7.756000
     14          1           0        0.987700    0.036600    7.723100
     15          1           0        2.304600    0.036600    7.723100
     16          1           0        2.219000   -3.029000    9.213000
     17          1           0        1.073300   -3.029000    9.213000
 ---------------------------------------------------------------------
                    Distance matrix (angstroms):
                    1          2          3          4          5
     1  C    0.000000
     2  N    1.462914   0.000000
     3  C    2.499054   1.353710   0.000000
     4  N    3.628299   2.226533   1.330588   0.000000
     5  C    3.646222   2.210112   2.141470   1.353014   0.000000
     6  C    2.578217   1.381013   2.168738   2.212257   1.356776
     7  H    4.580453   3.166923   3.058884   2.021699   0.973409
     8  C    3.020096   2.504577   1.483885   2.486697   3.579672
     9  N    3.129001   2.474469   3.536637   3.583055   2.481186
    10  O    4.344647   3.542700   4.398621   4.102777   2.793258
    11  H    3.923153   3.249627   2.013153   2.578403   3.856223
    12  O    2.848143   2.809175   4.098779   4.472152   3.554817
    13  H    0.893085   1.979572   2.590226   3.871832   4.171933
    14  H    0.902662   1.984568   3.116757   4.146930   3.996832
    15  H    0.902589   1.984535   3.116735   4.146914   3.996815
    16  H    2.857227   2.672614   1.960523   3.081956   4.056771
    17  H    2.857247   2.672636   1.960553   3.081975   4.056785
                    6          7          8          9         10
     6  C    0.000000
     7  H    2.124267   0.000000
     8  C    3.608433   4.441977   0.000000
     9  N    1.410070   2.875229   4.919608   0.000000
    10  O    2.250133   2.759004   5.855816   1.225260   0.000000
    11  H    4.174037   4.599911   0.921192   5.549789   6.378328
    12  O    2.278041   4.064314   5.300971   1.218989   2.147845
    13  H    3.282044   5.138192   2.633411   3.990443   5.194171
    14  H    2.819249   4.877366   3.696469   3.071642   4.275434
    15  H    2.819225   4.877352   3.696452   3.071620   4.275418
    16  H    3.897408   4.953569   0.852122   5.114431   6.125936
    17  H    3.897423   4.953580   0.852189   5.114442   6.125945
                   11         12         13         14         15
    11  H    0.000000
    12  O    6.056827   0.000000
    13  H    3.553394   3.737988   0.000000
    14  H    4.586490   2.576862   1.498088   0.000000
    15  H    4.586476   2.576837   1.498044   1.316900   0.000000
    16  H    1.519732   5.351592   2.326097   3.624059   3.409550
    17  H    1.519769   5.351602   2.326121   3.409550   3.624059
                   16         17
    16  H    0.000000
    17  H    1.145700   0.000000
 Stoichiometry    C5H7N3O2
 Framework group  C1[X(C5H7N3O2)]
 Deg. of freedom    45
 Full point group                 C1      NOp   1
 Largest Abelian subgroup         C1      NOp   1
 Largest concise Abelian subgroup C1      NOp   1
                         Standard orientation:                         
 ---------------------------------------------------------------------
 Center     Atomic      Atomic             Coordinates (Angstroms)
 Number     Number       Type             X           Y           Z
 ---------------------------------------------------------------------
      1          6           0       -0.607089    1.952042   -0.000010
      2          7           0       -0.556647    0.489998   -0.000005
      3          6           0       -1.637895   -0.324515   -0.000004
      4          7           0       -1.295621   -1.610328    0.000001
      5          6           0        0.057201   -1.633157    0.000002
      6          6           0        0.530526   -0.361621   -0.000001
      7          1           0        0.526650   -2.485884    0.000006
      8          6           0       -3.039682    0.162217   -0.000007
      9          7           0        1.878682    0.051624   -0.000000
     10          8           0        2.731839   -0.827799    0.000003
     11          1           0       -3.639841   -0.536643   -0.000006
     12          8           0        2.150586    1.239901   -0.000004
     13          1           0       -1.445917    2.258586   -0.000012
     14          1           0       -0.101146    2.305876    0.658490
     15          1           0       -0.101145    2.305872   -0.658410
     16          1           0       -3.150631    0.783264   -0.572809
     17          1           0       -3.150633    0.783267    0.572891
 ---------------------------------------------------------------------
 Rotational constants (GHZ):      2.7947302      1.1028983      0.7946333
 Leave Link  202 at Thu Aug 26 12:40:46 2021, MaxMem= 24159191040 cpu:         0.5
 (Enter /public/home/users/caep010/software/Gaussian09/g09/l301.exe)
 Standard basis: GTBas3 (6D, 7F)
 Ernie: Thresh=  0.10000D-02 Tol=  0.10000D-05 Strict=F.
 There are   345 symmetry adapted cartesian basis functions of A   symmetry.
 There are   315 symmetry adapted basis functions of A   symmetry.
   315 basis functions,   489 primitive gaussians,   345 cartesian basis functions
    37 alpha electrons       37 beta electrons
       nuclear repulsion energy       547.5252615417 Hartrees.
 IExCor=  402 DFT=T Ex+Corr=B3LYP ExCW=0 ScaHFX=  0.200000
 ScaDFX=  0.800000  0.720000  1.000000  0.810000 ScalE2=  1.000000  1.000000
 IRadAn=      0 IRanWt=     -1 IRanGd=            0 ICorTp=0 IEmpDi=  4
 NAtoms=   17 NActive=   17 NUniq=   17 SFac= 1.00D+00 NAtFMM=   60 NAOKFM=F Big=F
 Integral buffers will be    131072 words long.
 Raffenetti 2 integral format.
 Two-electron integral symmetry is turned on.
 Leave Link  301 at Thu Aug 26 12:40:46 2021, MaxMem= 24159191040 cpu:         2.2
 (Enter /public/home/users/caep010/software/Gaussian09/g09/l302.exe)
 NPDir=0 NMtPBC=     1 NCelOv=     1 NCel=       1 NClECP=     1 NCelD=      1
         NCelK=      1 NCelE2=     1 NClLst=     1 CellRange=     0.0.
 One-electron integrals computed using PRISM.
 NBasis=   315 RedAO= T EigKep=  1.47D-04  NBF=   315
 NBsUse=   315 1.00D-06 EigRej= -1.00D+00 NBFU=   315
 Precomputing XC quadrature grid using
 IXCGrd= 4 IRadAn=           0 IRanWt=          -1 IRanGd=           0 AccXCQ= 0.00D+00.
 Generated NRdTot=       0 NPtTot=           0 NUsed=           0 NTot=          32
 NSgBfM=   345   345   345   345   345 MxSgAt=    17 MxSgA2=    17.
 Leave Link  302 at Thu Aug 26 12:40:46 2021, MaxMem= 24159191040 cpu:        16.2
 (Enter /public/home/users/caep010/software/Gaussian09/g09/l303.exe)
 DipDrv:  MaxL=1.
 Leave Link  303 at Thu Aug 26 12:40:47 2021, MaxMem= 24159191040 cpu:         1.5
 (Enter /public/home/users/caep010/software/Gaussian09/g09/l401.exe)
 ExpMin= 1.61D-01 ExpMax= 5.48D+03 ExpMxC= 8.25D+02 IAcc=1 IRadAn=         1 AccDes= 0.00D+00
 Harris functional with IExCor=  402 and IRadAn=       1 diagonalized for initial guess.
 HarFok:  IExCor=  402 AccDes= 0.00D+00 IRadAn=         1 IDoV= 1 UseB2=F ITyADJ=14
 ICtDFT=  3500011 ScaDFX=  1.000000  1.000000  1.000000  1.000000
 FoFCou: FMM=F IPFlag=           0 FMFlag=      100000 FMFlg1=           0
         NFxFlg=           0 DoJE=T BraDBF=F KetDBF=T FulRan=T
         wScrn=  0.000000 ICntrl=     500 IOpCl=  0 I1Cent=   200000004 NGrid=           0
         NMat0=    1 NMatS0=      1 NMatT0=    0 NMatD0=    1 NMtDS0=    0 NMtDT0=    0
 Petite list used in FoFCou.
 Harris En= -509.270832647797    
 JPrj=0 DoOrth=F DoCkMO=F.
 Leave Link  401 at Thu Aug 26 12:40:47 2021, MaxMem= 24159191040 cpu:        20.8
 (Enter /public/home/users/caep010/software/Gaussian09/g09/l502.exe)
 Closed shell SCF:
 Using DIIS extrapolation, IDIIS=  1040.
 Integral symmetry usage will be decided dynamically.
 Keep R1 ints in memory in canonical form, NReq=1259651195.
 IVT=      389165 IEndB=      389165 NGot= 24159191040 MDV= 22920250541
 LenX= 22920250541 LenY= 22920131075
 Requested convergence on RMS density matrix=1.00D-08 within 128 cycles.
 Requested convergence on MAX density matrix=1.00D-06.
 Requested convergence on             energy=1.00D-06.
 No special actions if energy rises.
 FoFCou: FMM=F IPFlag=           0 FMFlag=           0 FMFlg1=           0
         NFxFlg=           0 DoJE=F BraDBF=F KetDBF=F FulRan=T
         wScrn=  0.000000 ICntrl=     600 IOpCl=  0 I1Cent=           0 NGrid=           0
         NMat0=    1 NMatS0=  49770 NMatT0=    0 NMatD0=    1 NMtDS0=    0 NMtDT0=    0
 Symmetry not used in FoFCou.
 Integral accuracy reduced to 1.0D-05 until final iterations.

 Cycle   1  Pass 0  IDiag  1:
 E= -508.661252290232    
 DIIS: error= 3.83D-02 at cycle   1 NSaved=   1.
 NSaved= 1 IEnMin= 1 EnMin= -508.661252290232     IErMin= 1 ErrMin= 3.83D-02
 ErrMax= 3.83D-02  0.00D+00 EMaxC= 1.00D-01 BMatC= 5.36D-01 BMatP= 5.36D-01
 IDIUse=3 WtCom= 6.17D-01 WtEn= 3.83D-01
 Coeff-Com:  0.100D+01
 Coeff-En:   0.100D+01
 Coeff:      0.100D+01
 Gap=     0.118 Goal=   None    Shift=    0.000
 GapD=    0.118 DampG=1.000 DampE=0.500 DampFc=0.5000 IDamp=-1.
 Damping current iteration by 5.00D-01
 RMSDP=4.65D-03 MaxDP=2.41D-01              OVMax= 3.26D-01

 Cycle   2  Pass 0  IDiag  1:
 E= -508.783877269959     Delta-E=       -0.122624979727 Rises=F Damp=T
 DIIS: error= 2.03D-02 at cycle   2 NSaved=   2.
 NSaved= 2 IEnMin= 2 EnMin= -508.783877269959     IErMin= 2 ErrMin= 2.03D-02
 ErrMax= 2.03D-02  0.00D+00 EMaxC= 1.00D-01 BMatC= 9.01D-02 BMatP= 5.36D-01
 IDIUse=3 WtCom= 7.97D-01 WtEn= 2.03D-01
 Coeff-Com:  0.222D+00 0.778D+00
 Coeff-En:   0.342D+00 0.658D+00
 Coeff:      0.247D+00 0.753D+00
 Gap=     0.208 Goal=   None    Shift=    0.000
 RMSDP=1.46D-03 MaxDP=7.57D-02 DE=-1.23D-01 OVMax= 2.42D-01

 Cycle   3  Pass 0  IDiag  1:
 E= -509.048567418659     Delta-E=       -0.264690148701 Rises=F Damp=F
 DIIS: error= 1.03D-02 at cycle   3 NSaved=   3.
 NSaved= 3 IEnMin= 3 EnMin= -509.048567418659     IErMin= 3 ErrMin= 1.03D-02
 ErrMax= 1.03D-02  0.00D+00 EMaxC= 1.00D-01 BMatC= 6.38D-02 BMatP= 9.01D-02
 IDIUse=3 WtCom= 8.97D-01 WtEn= 1.03D-01
 Coeff-Com:  0.736D-01 0.446D+00 0.481D+00
 Coeff-En:   0.000D+00 0.000D+00 0.100D+01
 Coeff:      0.660D-01 0.400D+00 0.534D+00
 Gap=     0.175 Goal=   None    Shift=    0.000
 RMSDP=1.02D-03 MaxDP=6.69D-02 DE=-2.65D-01 OVMax= 1.28D-01

 Cycle   4  Pass 0  IDiag  1:
 E= -509.084721232310     Delta-E=       -0.036153813650 Rises=F Damp=F
 DIIS: error= 1.11D-02 at cycle   4 NSaved=   4.
 NSaved= 4 IEnMin= 4 EnMin= -509.084721232310     IErMin= 3 ErrMin= 1.03D-02
 ErrMax= 1.11D-02  0.00D+00 EMaxC= 1.00D-01 BMatC= 2.37D-02 BMatP= 6.38D-02
 IDIUse=3 WtCom= 8.89D-01 WtEn= 1.11D-01
 Coeff-Com:  0.332D-01 0.191D+00 0.376D+00 0.400D+00
 Coeff-En:   0.000D+00 0.000D+00 0.289D+00 0.711D+00
 Coeff:      0.295D-01 0.170D+00 0.366D+00 0.434D+00
 Gap=     0.178 Goal=   None    Shift=    0.000
 RMSDP=5.53D-04 MaxDP=4.25D-02 DE=-3.62D-02 OVMax= 8.92D-02

 Cycle   5  Pass 0  IDiag  1:
 E= -509.099816722009     Delta-E=       -0.015095489699 Rises=F Damp=F
 DIIS: error= 5.43D-03 at cycle   5 NSaved=   5.
 NSaved= 5 IEnMin= 5 EnMin= -509.099816722009     IErMin= 5 ErrMin= 5.43D-03
 ErrMax= 5.43D-03  0.00D+00 EMaxC= 1.00D-01 BMatC= 5.11D-03 BMatP= 2.37D-02
 IDIUse=3 WtCom= 9.46D-01 WtEn= 5.43D-02
 Coeff-Com:  0.900D-02 0.206D-01 0.161D+00 0.352D+00 0.458D+00
 Coeff-En:   0.000D+00 0.000D+00 0.000D+00 0.213D+00 0.787D+00
 Coeff:      0.851D-02 0.195D-01 0.152D+00 0.344D+00 0.476D+00
 Gap=     0.176 Goal=   None    Shift=    0.000
 RMSDP=2.17D-04 MaxDP=1.86D-02 DE=-1.51D-02 OVMax= 3.59D-02

 Cycle   6  Pass 0  IDiag  1:
 E= -509.103597030755     Delta-E=       -0.003780308746 Rises=F Damp=F
 DIIS: error= 7.65D-04 at cycle   6 NSaved=   6.
 NSaved= 6 IEnMin= 6 EnMin= -509.103597030755     IErMin= 6 ErrMin= 7.65D-04
 ErrMax= 7.65D-04  0.00D+00 EMaxC= 1.00D-01 BMatC= 2.70D-04 BMatP= 5.11D-03
 IDIUse=3 WtCom= 9.92D-01 WtEn= 7.65D-03
 Coeff-Com:  0.219D-02-0.183D-02 0.594D-01 0.166D+00 0.291D+00 0.483D+00
 Coeff-En:   0.000D+00 0.000D+00 0.000D+00 0.000D+00 0.206D-01 0.979D+00
 Coeff:      0.218D-02-0.182D-02 0.589D-01 0.165D+00 0.289D+00 0.487D+00
 Gap=     0.177 Goal=   None    Shift=    0.000
 RMSDP=5.49D-05 MaxDP=3.00D-03 DE=-3.78D-03 OVMax= 5.32D-03

 Cycle   7  Pass 0  IDiag  1:
 E= -509.103809272045     Delta-E=       -0.000212241291 Rises=F Damp=F
 DIIS: error= 1.81D-04 at cycle   7 NSaved=   7.
 NSaved= 7 IEnMin= 7 EnMin= -509.103809272045     IErMin= 7 ErrMin= 1.81D-04
 ErrMax= 1.81D-04  0.00D+00 EMaxC= 1.00D-01 BMatC= 2.13D-05 BMatP= 2.70D-04
 IDIUse=3 WtCom= 9.98D-01 WtEn= 1.81D-03
 Coeff-Com:  0.255D-03-0.283D-02 0.166D-01 0.553D-01 0.119D+00 0.289D+00
 Coeff-Com:  0.523D+00
 Coeff-En:   0.000D+00 0.000D+00 0.000D+00 0.000D+00 0.000D+00 0.166D-01
 Coeff-En:   0.983D+00
 Coeff:      0.254D-03-0.283D-02 0.165D-01 0.552D-01 0.119D+00 0.288D+00
 Coeff:      0.524D+00
 Gap=     0.177 Goal=   None    Shift=    0.000
 RMSDP=1.63D-05 MaxDP=7.93D-04 DE=-2.12D-04 OVMax= 2.00D-03

 Cycle   8  Pass 0  IDiag  1:
 E= -509.103826458933     Delta-E=       -0.000017186887 Rises=F Damp=F
 DIIS: error= 7.94D-05 at cycle   8 NSaved=   8.
 NSaved= 8 IEnMin= 8 EnMin= -509.103826458933     IErMin= 8 ErrMin= 7.94D-05
 ErrMax= 7.94D-05  0.00D+00 EMaxC= 1.00D-01 BMatC= 1.39D-06 BMatP= 2.13D-05
 IDIUse=1 WtCom= 1.00D+00 WtEn= 0.00D+00
 Coeff-Com: -0.966D-04-0.119D-02 0.306D-02 0.130D-01 0.358D-01 0.104D+00
 Coeff-Com:  0.269D+00 0.576D+00
 Coeff:     -0.966D-04-0.119D-02 0.306D-02 0.130D-01 0.358D-01 0.104D+00
 Coeff:      0.269D+00 0.576D+00
 Gap=     0.177 Goal=   None    Shift=    0.000
 RMSDP=4.92D-06 MaxDP=2.51D-04 DE=-1.72D-05 OVMax= 6.47D-04

 Initial convergence to 1.0D-05 achieved.  Increase integral accuracy.
 Cycle   9  Pass 1  IDiag  1:
 E= -509.103761832059     Delta-E=        0.000064626874 Rises=F Damp=F
 DIIS: error= 2.48D-05 at cycle   1 NSaved=   1.
 NSaved= 1 IEnMin= 1 EnMin= -509.103761832059     IErMin= 1 ErrMin= 2.48D-05
 ErrMax= 2.48D-05  0.00D+00 EMaxC= 1.00D-01 BMatC= 2.63D-07 BMatP= 2.63D-07
 IDIUse=1 WtCom= 1.00D+00 WtEn= 0.00D+00
 Coeff-Com:  0.100D+01
 Coeff:      0.100D+01
 Gap=     0.177 Goal=   None    Shift=    0.000
 RMSDP=4.92D-06 MaxDP=2.51D-04 DE= 6.46D-05 OVMax= 4.03D-04

 Cycle  10  Pass 1  IDiag  1:
 E= -509.103761622373     Delta-E=        0.000000209686 Rises=F Damp=F
 DIIS: error= 4.64D-05 at cycle   2 NSaved=   2.
 NSaved= 2 IEnMin= 1 EnMin= -509.103761832059     IErMin= 1 ErrMin= 2.48D-05
 ErrMax= 4.64D-05  0.00D+00 EMaxC= 1.00D-01 BMatC= 4.58D-07 BMatP= 2.63D-07
 IDIUse=1 WtCom= 1.00D+00 WtEn= 0.00D+00
 Coeff-Com:  0.581D+00 0.419D+00
 Coeff:      0.581D+00 0.419D+00
 Gap=     0.177 Goal=   None    Shift=    0.000
 RMSDP=2.42D-06 MaxDP=1.51D-04 DE= 2.10D-07 OVMax= 3.17D-04

 Cycle  11  Pass 1  IDiag  1:
 E= -509.103762037519     Delta-E=       -0.000000415147 Rises=F Damp=F
 DIIS: error= 1.06D-05 at cycle   3 NSaved=   3.
 NSaved= 3 IEnMin= 3 EnMin= -509.103762037519     IErMin= 3 ErrMin= 1.06D-05
 ErrMax= 1.06D-05  0.00D+00 EMaxC= 1.00D-01 BMatC= 3.54D-08 BMatP= 2.63D-07
 IDIUse=1 WtCom= 1.00D+00 WtEn= 0.00D+00
 Coeff-Com:  0.888D-01 0.218D+00 0.693D+00
 Coeff:      0.888D-01 0.218D+00 0.693D+00
 Gap=     0.177 Goal=   None    Shift=    0.000
 RMSDP=7.86D-07 MaxDP=5.81D-05 DE=-4.15D-07 OVMax= 1.13D-04

 Cycle  12  Pass 1  IDiag  1:
 E= -509.103762047790     Delta-E=       -0.000000010271 Rises=F Damp=F
 DIIS: error= 1.13D-05 at cycle   4 NSaved=   4.
 NSaved= 4 IEnMin= 4 EnMin= -509.103762047790     IErMin= 3 ErrMin= 1.06D-05
 ErrMax= 1.13D-05  0.00D+00 EMaxC= 1.00D-01 BMatC= 2.58D-08 BMatP= 3.54D-08
 IDIUse=1 WtCom= 1.00D+00 WtEn= 0.00D+00
 Coeff-Com: -0.559D-02 0.118D+00 0.535D+00 0.352D+00
 Coeff:     -0.559D-02 0.118D+00 0.535D+00 0.352D+00
 Gap=     0.177 Goal=   None    Shift=    0.000
 RMSDP=4.74D-07 MaxDP=3.81D-05 DE=-1.03D-08 OVMax= 7.76D-05

 Cycle  13  Pass 1  IDiag  1:
 E= -509.103762067372     Delta-E=       -0.000000019582 Rises=F Damp=F
 DIIS: error= 2.27D-06 at cycle   5 NSaved=   5.
 NSaved= 5 IEnMin= 5 EnMin= -509.103762067372     IErMin= 5 ErrMin= 2.27D-06
 ErrMax= 2.27D-06  0.00D+00 EMaxC= 1.00D-01 BMatC= 1.24D-09 BMatP= 2.58D-08
 IDIUse=1 WtCom= 1.00D+00 WtEn= 0.00D+00
 Coeff-Com: -0.917D-02 0.655D-01 0.311D+00 0.239D+00 0.393D+00
 Coeff:     -0.917D-02 0.655D-01 0.311D+00 0.239D+00 0.393D+00
 Gap=     0.177 Goal=   None    Shift=    0.000
 RMSDP=9.93D-08 MaxDP=7.53D-06 DE=-1.96D-08 OVMax= 1.45D-05

 Cycle  14  Pass 1  IDiag  1:
 E= -509.103762068307     Delta-E=       -0.000000000935 Rises=F Damp=F
 DIIS: error= 3.11D-07 at cycle   6 NSaved=   6.
 NSaved= 6 IEnMin= 6 EnMin= -509.103762068307     IErMin= 6 ErrMin= 3.11D-07
 ErrMax= 3.11D-07  0.00D+00 EMaxC= 1.00D-01 BMatC= 4.88D-11 BMatP= 1.24D-09
 IDIUse=1 WtCom= 1.00D+00 WtEn= 0.00D+00
 Coeff-Com: -0.432D-02 0.225D-01 0.108D+00 0.917D-01 0.212D+00 0.570D+00
 Coeff:     -0.432D-02 0.225D-01 0.108D+00 0.917D-01 0.212D+00 0.570D+00
 Gap=     0.177 Goal=   None    Shift=    0.000
 RMSDP=2.22D-08 MaxDP=1.19D-06 DE=-9.35D-10 OVMax= 2.15D-06

 Cycle  15  Pass 1  IDiag  1:
 E= -509.103762068335     Delta-E=       -0.000000000028 Rises=F Damp=F
 DIIS: error= 9.51D-08 at cycle   7 NSaved=   7.
 NSaved= 7 IEnMin= 7 EnMin= -509.103762068335     IErMin= 7 ErrMin= 9.51D-08
 ErrMax= 9.51D-08  0.00D+00 EMaxC= 1.00D-01 BMatC= 4.68D-12 BMatP= 4.88D-11
 IDIUse=1 WtCom= 1.00D+00 WtEn= 0.00D+00
 Coeff-Com: -0.177D-02 0.811D-02 0.383D-01 0.345D-01 0.896D-01 0.314D+00
 Coeff-Com:  0.517D+00
 Coeff:     -0.177D-02 0.811D-02 0.383D-01 0.345D-01 0.896D-01 0.314D+00
 Coeff:      0.517D+00
 Gap=     0.177 Goal=   None    Shift=    0.000
 RMSDP=7.91D-09 MaxDP=3.72D-07 DE=-2.75D-11 OVMax= 1.02D-06

 SCF Done:  E(RB3LYP) =  -509.103762068     A.U. after   15 cycles
            NFock= 15  Conv=0.79D-08     -V/T= 2.0013
 KE= 5.084407677318D+02 PE=-2.285137328263D+03 EE= 7.200675369214D+02
 Leave Link  502 at Thu Aug 26 12:41:24 2021, MaxMem= 24159191040 cpu:       248.4
 (Enter /public/home/users/caep010/software/Gaussian09/g09/l801.exe)
 DoSCS=F DFT=T ScalE2(SS,OS)=  1.000000  1.000000
 Range of M.O.s used for correlation:     1   315
 NBasis=   315 NAE=    37 NBE=    37 NFC=     0 NFV=     0
 NROrb=    315 NOA=    37 NOB=    37 NVA=   278 NVB=   278

 **** Warning!!: The largest alpha MO coefficient is  0.62182747D+02

 Leave Link  801 at Thu Aug 26 12:41:24 2021, MaxMem= 24159191040 cpu:         0.6
 (Enter /public/home/users/caep010/software/Gaussian09/g09/l1101.exe)
 Using compressed storage, NAtomX=    17.
 Will process     18 centers per pass.
 Leave Link 1101 at Thu Aug 26 12:41:25 2021, MaxMem= 24159191040 cpu:        19.0
 (Enter /public/home/users/caep010/software/Gaussian09/g09/l1102.exe)
 Symmetrizing basis deriv contribution to polar:
 IMax=3 JMax=2 DiffMx= 0.00D+00
 Leave Link 1102 at Thu Aug 26 12:41:26 2021, MaxMem= 24159191040 cpu:         1.0
 (Enter /public/home/users/caep010/software/Gaussian09/g09/l1110.exe)
 Forming Gx(P) for the SCF density, NAtomX=    17.
 Integral derivatives from FoFJK, PRISM(SPDF).
 Do as many integral derivatives as possible in FoFJK.
 G2DrvN: MDV=   24159190800.
 G2DrvN: will do    18 centers at a time, making    1 passes.
 Calling FoFCou, ICntrl=  3107 FMM=F I1Cent=   0 AccDes= 0.00D+00.
 FoFJK:  IHMeth= 1 ICntrl=    3107 DoSepK=F KAlg= 0 I1Cent=   0 FoldK=F
 IRaf=         0 NMat=   1 IRICut=       1 DoRegI=T DoRafI=F ISym2E= 0.
 FoFCou: FMM=F IPFlag=           0 FMFlag=      100000 FMFlg1=           0
         NFxFlg=           0 DoJE=F BraDBF=F KetDBF=F FulRan=T
         wScrn=  0.000000 ICntrl=    3107 IOpCl=  0 I1Cent=           0 NGrid=           0
         NMat0=    1 NMatS0=      1 NMatT0=    0 NMatD0=    1 NMtDS0=    0 NMtDT0=    0
 Symmetry not used in FoFCou.
 End of G2Drv F.D. properties file   721 does not exist.
 End of G2Drv F.D. properties file   722 does not exist.
 End of G2Drv F.D. properties file   788 does not exist.
 Leave Link 1110 at Thu Aug 26 12:41:42 2021, MaxMem= 24159191040 cpu:       527.2
 (Enter /public/home/users/caep010/software/Gaussian09/g09/l1002.exe)
 Minotr:  Closed shell wavefunction.
          IDoAtm=11111111111111111
          Direct CPHF calculation.
          Differentiating once with respect to nuclear coordinates.
          Requested convergence is 1.0D-08 RMS, and 1.0D-07 maximum.
          Secondary convergence is 1.0D-12 RMS, and 1.0D-12 maximum.
          NewPWx=T KeepS1=F KeepF1=F KeepIn=T MapXYZ=F SortEE=F KeepMc=T.
          MDV=   24159190551 using IRadAn=       2.
 Generate precomputed XC quadrature information.
 Keep R1 ints in memory in canonical form, NReq=1259268177.
 FoFCou: FMM=F IPFlag=           0 FMFlag=           0 FMFlg1=           0
         NFxFlg=           0 DoJE=F BraDBF=F KetDBF=F FulRan=T
         wScrn=  0.000000 ICntrl=     600 IOpCl=  0 I1Cent=           0 NGrid=           0
         NMat0=    1 NMatS0=  49770 NMatT0=    0 NMatD0=    1 NMtDS0=    0 NMtDT0=    0
 Symmetry not used in FoFCou.
          Solving linear equations simultaneously, MaxMat=       0.
          There are    54 degrees of freedom in the 1st order CPHF.  IDoFFX=6 NUNeed=     0.
     48 vectors produced by pass  0 Test12= 1.90D-14 1.85D-09 XBig12= 2.49D-01 1.38D-01.
 AX will form    48 AO Fock derivatives at one time.
     48 vectors produced by pass  1 Test12= 1.90D-14 1.85D-09 XBig12= 5.73D-02 1.13D-01.
     48 vectors produced by pass  2 Test12= 1.90D-14 1.85D-09 XBig12= 7.41D-04 4.10D-03.
     48 vectors produced by pass  3 Test12= 1.90D-14 1.85D-09 XBig12= 4.09D-06 2.58D-04.
     48 vectors produced by pass  4 Test12= 1.90D-14 1.85D-09 XBig12= 1.50D-08 1.72D-05.
     44 vectors produced by pass  5 Test12= 1.90D-14 1.85D-09 XBig12= 1.90D-11 5.13D-07.
     20 vectors produced by pass  6 Test12= 1.90D-14 1.85D-09 XBig12= 1.66D-14 1.42D-08.
 InvSVY:  IOpt=1 It=  1 EMax= 3.89D-16
 Solved reduced A of dimension   304 with    54 vectors.
 End of Minotr F.D. properties file   721 does not exist.
 End of Minotr F.D. properties file   722 does not exist.
 End of Minotr F.D. properties file   788 does not exist.
 Leave Link 1002 at Thu Aug 26 12:42:06 2021, MaxMem= 24159191040 cpu:       730.1
 (Enter /public/home/users/caep010/software/Gaussian09/g09/l601.exe)
 Copying SCF densities to generalized density rwf, IOpCl= 0 IROHF=0.

 **********************************************************************

            Population analysis using the SCF density.

 **********************************************************************

 Orbital symmetries:
       Occupied  (A) (A) (A) (A) (A) (A) (A) (A) (A) (A) (A) (A)
                 (A) (A) (A) (A) (A) (A) (A) (A) (A) (A) (A) (A)
                 (A) (A) (A) (A) (A) (A) (A) (A) (A) (A) (A) (A)
                 (A)
       Virtual   (A) (A) (A) (A) (A) (A) (A) (A) (A) (A) (A) (A)
                 (A) (A) (A) (A) (A) (A) (A) (A) (A) (A) (A) (A)
                 (A) (A) (A) (A) (A) (A) (A) (A) (A) (A) (A) (A)
                 (A) (A) (A) (A) (A) (A) (A) (A) (A) (A) (A) (A)
                 (A) (A) (A) (A) (A) (A) (A) (A) (A) (A) (A) (A)
                 (A) (A) (A) (A) (A) (A) (A) (A) (A) (A) (A) (A)
                 (A) (A) (A) (A) (A) (A) (A) (A) (A) (A) (A) (A)
                 (A) (A) (A) (A) (A) (A) (A) (A) (A) (A) (A) (A)
                 (A) (A) (A) (A) (A) (A) (A) (A) (A) (A) (A) (A)
                 (A) (A) (A) (A) (A) (A) (A) (A) (A) (A) (A) (A)
                 (A) (A) (A) (A) (A) (A) (A) (A) (A) (A) (A) (A)
                 (A) (A) (A) (A) (A) (A) (A) (A) (A) (A) (A) (A)
                 (A) (A) (A) (A) (A) (A) (A) (A) (A) (A) (A) (A)
                 (A) (A) (A) (A) (A) (A) (A) (A) (A) (A) (A) (A)
                 (A) (A) (A) (A) (A) (A) (A) (A) (A) (A) (A) (A)
                 (A) (A) (A) (A) (A) (A) (A) (A) (A) (A) (A) (A)
                 (A) (A) (A) (A) (A) (A) (A) (A) (A) (A) (A) (A)
                 (A) (A) (A) (A) (A) (A) (A) (A) (A) (A) (A) (A)
                 (A) (A) (A) (A) (A) (A) (A) (A) (A) (A) (A) (A)
                 (A) (A) (A) (A) (A) (A) (A) (A) (A) (A) (A) (A)
                 (A) (A) (A) (A) (A) (A) (A) (A) (A) (A) (A) (A)
                 (A) (A) (A) (A) (A) (A) (A) (A) (A) (A) (A) (A)
                 (A) (A) (A) (A) (A) (A) (A) (A) (A) (A) (A) (A)
                 (A) (A)
 The electronic state is 1-A.
 Alpha  occ. eigenvalues --  -19.16472 -19.15845 -14.56436 -14.41693 -14.32357
 Alpha  occ. eigenvalues --  -10.26732 -10.26125 -10.21307 -10.20003 -10.15548
 Alpha  occ. eigenvalues --   -1.22827  -1.05167  -1.04527  -0.91496  -0.85397
 Alpha  occ. eigenvalues --   -0.81479  -0.78502  -0.69765  -0.62616  -0.59883
 Alpha  occ. eigenvalues --   -0.56596  -0.54180  -0.53857  -0.50927  -0.50562
 Alpha  occ. eigenvalues --   -0.49837  -0.47586  -0.45721  -0.44940  -0.42741
 Alpha  occ. eigenvalues --   -0.40709  -0.31307  -0.30358  -0.29543  -0.28963
 Alpha  occ. eigenvalues --   -0.27853  -0.25139
 Alpha virt. eigenvalues --   -0.07447   0.03032   0.06857   0.09157   0.11591
 Alpha virt. eigenvalues --    0.14586   0.15997   0.17740   0.18415   0.18578
 Alpha virt. eigenvalues --    0.19010   0.22260   0.23163   0.24121   0.25059
 Alpha virt. eigenvalues --    0.25986   0.29480   0.33673   0.36148   0.39331
 Alpha virt. eigenvalues --    0.41237   0.41530   0.42692   0.45166   0.46655
 Alpha virt. eigenvalues --    0.46928   0.49223   0.51897   0.54677   0.56000
 Alpha virt. eigenvalues --    0.57040   0.57536   0.57833   0.59229   0.62218
 Alpha virt. eigenvalues --    0.63096   0.65898   0.69368   0.70155   0.70633
 Alpha virt. eigenvalues --    0.72064   0.74770   0.75133   0.77106   0.77723
 Alpha virt. eigenvalues --    0.78737   0.80083   0.80811   0.80909   0.82689
 Alpha virt. eigenvalues --    0.83663   0.85290   0.86600   0.87152   0.88636
 Alpha virt. eigenvalues --    0.90561   0.93641   0.93916   0.97252   0.97264
 Alpha virt. eigenvalues --    0.99606   0.99714   1.01283   1.03410   1.05900
 Alpha virt. eigenvalues --    1.06643   1.09396   1.11420   1.14852   1.15547
 Alpha virt. eigenvalues --    1.18153   1.20916   1.24862   1.25021   1.25634
 Alpha virt. eigenvalues --    1.26132   1.29908   1.30547   1.32037   1.34995
 Alpha virt. eigenvalues --    1.35601   1.40609   1.40811   1.42094   1.43985
 Alpha virt. eigenvalues --    1.46457   1.49662   1.52694   1.52828   1.57118
 Alpha virt. eigenvalues --    1.60894   1.61016   1.62002   1.64706   1.66372
 Alpha virt. eigenvalues --    1.69789   1.70005   1.71832   1.76372   1.79908
 Alpha virt. eigenvalues --    1.81915   1.85312   1.86653   1.89017   1.91074
 Alpha virt. eigenvalues --    1.96906   1.99921   2.00144   2.06702   2.11536
 Alpha virt. eigenvalues --    2.14288   2.17645   2.19829   2.21467   2.23416
 Alpha virt. eigenvalues --    2.26268   2.31524   2.41279   2.43810   2.44155
 Alpha virt. eigenvalues --    2.48723   2.51534   2.54516   2.55735   2.66633
 Alpha virt. eigenvalues --    2.68497   2.71137   2.76862   2.80113   2.84395
 Alpha virt. eigenvalues --    2.88693   2.91337   2.91417   3.00362   3.01509
 Alpha virt. eigenvalues --    3.03005   3.03008   3.07327   3.09438   3.11225
 Alpha virt. eigenvalues --    3.12536   3.12736   3.17650   3.19687   3.20700
 Alpha virt. eigenvalues --    3.27382   3.27492   3.29797   3.31009   3.35770
 Alpha virt. eigenvalues --    3.39923   3.41115   3.43643   3.44229   3.44992
 Alpha virt. eigenvalues --    3.48431   3.52910   3.54027   3.55163   3.59012
 Alpha virt. eigenvalues --    3.62959   3.64218   3.64483   3.65639   3.70317
 Alpha virt. eigenvalues --    3.72225   3.73072   3.76823   3.79302   3.80503
 Alpha virt. eigenvalues --    3.82947   3.86305   3.87461   3.93099   3.94717
 Alpha virt. eigenvalues --    3.96225   3.97312   3.98693   4.00159   4.01427
 Alpha virt. eigenvalues --    4.05381   4.07098   4.08644   4.10675   4.11937
 Alpha virt. eigenvalues --    4.12774   4.13530   4.16615   4.22653   4.22774
 Alpha virt. eigenvalues --    4.25897   4.27125   4.29497   4.30952   4.34087
 Alpha virt. eigenvalues --    4.34704   4.36647   4.37749   4.42233   4.42270
 Alpha virt. eigenvalues --    4.45508   4.48979   4.49897   4.50529   4.53053
 Alpha virt. eigenvalues --    4.53172   4.54029   4.54805   4.57244   4.59646
 Alpha virt. eigenvalues --    4.60996   4.62401   4.64568   4.66253   4.66828
 Alpha virt. eigenvalues --    4.72973   4.73230   4.77101   4.77960   4.84992
 Alpha virt. eigenvalues --    4.86455   4.89326   4.91863   4.98031   4.98366
 Alpha virt. eigenvalues --    5.04109   5.04182   5.04186   5.06157   5.10027
 Alpha virt. eigenvalues --    5.12043   5.13754   5.17819   5.20009   5.24876
 Alpha virt. eigenvalues --    5.25722   5.27606   5.31430   5.35426   5.38182
 Alpha virt. eigenvalues --    5.43550   5.47864   5.49263   5.50964   5.52985
 Alpha virt. eigenvalues --    5.63402   5.65920   5.73372   5.78619   5.80186
 Alpha virt. eigenvalues --    5.86212   5.90854   5.95636   6.02165   6.06884
 Alpha virt. eigenvalues --    6.17681   6.27120   6.37829   6.41128   6.59906
 Alpha virt. eigenvalues --    6.74640   6.86485   7.01729   7.12942   7.45566
 Alpha virt. eigenvalues --   10.50854  10.69827  11.09456  11.25236  11.36144
 Alpha virt. eigenvalues --   11.43747  11.50291  11.85392  13.00554  13.26285
 Alpha virt. eigenvalues --   17.85679  20.67982  25.02806
          Condensed to atoms (all electrons):
               1          2          3          4          5          6
     1  C    4.702778   0.394755  -0.054869   0.005364   0.005937  -0.036115
     2  N    0.394755   6.084525   0.527342  -0.072538  -0.026361   0.382132
     3  C   -0.054869   0.527342   4.545113   0.548486  -0.111407  -0.103800
     4  N    0.005364  -0.072538   0.548486   6.403626   0.478342   0.002320
     5  C    0.005937  -0.026361  -0.111407   0.478342   4.876465   0.474114
     6  C   -0.036115   0.382132  -0.103800   0.002320   0.474114   4.811460
     7  H   -0.000115   0.002533   0.007009  -0.016860   0.363951  -0.021179
     8  C   -0.002428  -0.035514   0.404373  -0.032197   0.006184   0.003391
     9  N   -0.002299  -0.009590  -0.002925   0.004318  -0.024384   0.357625
    10  O    0.000220   0.000399  -0.000069   0.000458   0.010854  -0.125344
    11  H    0.000094   0.002831  -0.000407  -0.001841   0.000700  -0.000384
    12  O    0.000201  -0.015199  -0.000415  -0.000098   0.005545  -0.094219
    13  H    0.381550  -0.019961  -0.009320   0.000729  -0.000547   0.006070
    14  H    0.390146  -0.012888   0.002189  -0.000286   0.000248  -0.001935
    15  H    0.390144  -0.012880   0.002189  -0.000286   0.000248  -0.001935
    16  H   -0.000236  -0.004161  -0.004350   0.001077  -0.000289   0.000458
    17  H   -0.000236  -0.004159  -0.004361   0.001076  -0.000289   0.000458
               7          8          9         10         11         12
     1  C   -0.000115  -0.002428  -0.002299   0.000220   0.000094   0.000201
     2  N    0.002533  -0.035514  -0.009590   0.000399   0.002831  -0.015199
     3  C    0.007009   0.404373  -0.002925  -0.000069  -0.000407  -0.000415
     4  N   -0.016860  -0.032197   0.004318   0.000458  -0.001841  -0.000098
     5  C    0.363951   0.006184  -0.024384   0.010854   0.000700   0.005545
     6  C   -0.021179   0.003391   0.357625  -0.125344  -0.000384  -0.094219
     7  H    0.525128  -0.000284  -0.007070   0.007259   0.000005   0.000154
     8  C   -0.000284   4.784146  -0.000097   0.000001   0.399645   0.000003
     9  N   -0.007070  -0.000097   5.290088   0.557653   0.000000   0.516069
    10  O    0.007259   0.000001   0.557653   8.007680  -0.000000  -0.088741
    11  H    0.000005   0.399645   0.000000  -0.000000   0.552812   0.000000
    12  O    0.000154   0.000003   0.516069  -0.088741   0.000000   8.050065
    13  H    0.000003   0.004362   0.000230   0.000007  -0.000233   0.001298
    14  H   -0.000002  -0.000003   0.000163   0.000046   0.000000   0.010478
    15  H   -0.000002  -0.000003   0.000163   0.000047   0.000000   0.010480
    16  H    0.000005   0.366353   0.000002  -0.000000  -0.036690  -0.000001
    17  H    0.000005   0.366363   0.000002  -0.000000  -0.036682  -0.000001
              13         14         15         16         17
     1  C    0.381550   0.390146   0.390144  -0.000236  -0.000236
     2  N   -0.019961  -0.012888  -0.012880  -0.004161  -0.004159
     3  C   -0.009320   0.002189   0.002189  -0.004350  -0.004361
     4  N    0.000729  -0.000286  -0.000286   0.001077   0.001076
     5  C   -0.000547   0.000248   0.000248  -0.000289  -0.000289
     6  C    0.006070  -0.001935  -0.001935   0.000458   0.000458
     7  H    0.000003  -0.000002  -0.000002   0.000005   0.000005
     8  C    0.004362  -0.000003  -0.000003   0.366353   0.366363
     9  N    0.000230   0.000163   0.000163   0.000002   0.000002
    10  O    0.000007   0.000046   0.000047  -0.000000  -0.000000
    11  H   -0.000233   0.000000   0.000000  -0.036690  -0.036682
    12  O    0.001298   0.010478   0.010480  -0.000001  -0.000001
    13  H    0.615091  -0.040271  -0.040276   0.002336   0.002335
    14  H   -0.040271   0.571437  -0.057087  -0.000124   0.000322
    15  H   -0.040276  -0.057087   0.571447   0.000322  -0.000124
    16  H    0.002336  -0.000124   0.000322   0.648283  -0.080006
    17  H    0.002335   0.000322  -0.000124  -0.080006   0.648257
 Mulliken charges:
               1
     1  C   -0.174890
     2  N   -0.181269
     3  C    0.255223
     4  N   -0.321689
     5  C   -0.059313
     6  C    0.346885
     7  H    0.139460
     8  C   -0.264295
     9  N    0.320054
    10  O   -0.370471
    11  H    0.120150
    12  O   -0.395621
    13  H    0.096596
    14  H    0.137566
    15  H    0.137552
    16  H    0.107021
    17  H    0.107041
 Sum of Mulliken charges =  -0.00000
 Mulliken charges with hydrogens summed into heavy atoms:
               1
     1  C    0.196824
     2  N   -0.181269
     3  C    0.255223
     4  N   -0.321689
     5  C    0.080147
     6  C    0.346885
     8  C    0.069917
     9  N    0.320054
    10  O   -0.370471
    12  O   -0.395621
 APT charges:
               1
     1  C   -0.618915
     2  N   -0.669742
     3  C   -0.393644
     4  N    0.256661
     5  C   -0.454691
     6  C   -0.006092
     7  H    0.535970
     8  C   -0.471801
     9  N   -1.175730
    10  O    0.552811
    11  H    0.485024
    12  O    0.302932
    13  H    0.397614
    14  H    0.338861
    15  H    0.338843
    16  H    0.290935
    17  H    0.290963
 Sum of APT charges =  -0.00000
 APT charges with hydrogens summed into heavy atoms:
               1
     1  C    0.456404
     2  N   -0.669742
     3  C   -0.393644
     4  N    0.256661
     5  C    0.081279
     6  C   -0.006092
     8  C    0.595122
     9  N   -1.175730
    10  O    0.552811
    12  O    0.302932
 Electronic spatial extent (au):  <R**2>=           1376.2323
 Charge=             -0.0000 electrons
 Dipole moment (field-independent basis, Debye):
    X=             -4.3176    Y=              2.9362    Z=              0.0000  Tot=              5.2214
 Quadrupole moment (field-independent basis, Debye-Ang):
   XX=            -62.2411   YY=            -55.2917   ZZ=            -55.7917
   XY=             -7.0618   XZ=             -0.0001   YZ=              0.0001
 Traceless Quadrupole moment (field-independent basis, Debye-Ang):
   XX=             -4.4663   YY=              2.4832   ZZ=              1.9832
   XY=             -7.0618   XZ=             -0.0001   YZ=              0.0001
 Octapole moment (field-independent basis, Debye-Ang**2):
  XXX=            -39.3979  YYY=             17.8845  ZZZ=             -0.0001  XYY=              3.2158
  XXY=             12.8276  XXZ=              0.0002  XZZ=              7.6978  YZZ=              3.1113
  YYZ=              0.0001  XYZ=             -0.0001
 Hexadecapole moment (field-independent basis, Debye-Ang**3):
 XXXX=          -1137.1596 YYYY=           -473.7286 ZZZZ=            -54.5046 XXXY=            -14.8582
 XXXZ=             -0.0007 YYYX=            -38.3215 YYYZ=             -0.0000 ZZZX=              0.0002
 ZZZY=             -0.0001 XXYY=           -291.0023 XXZZ=           -194.7326 YYZZ=            -93.6364
 XXYZ=              0.0004 YYXZ=              0.0001 ZZXY=             -0.6728
 N-N= 5.475252615417D+02 E-N=-2.285137336384D+03  KE= 5.084407677318D+02
  Exact polarizability:   0.000   0.000   0.000   0.000   0.000   0.000
 Approx polarizability: 164.910   6.850 153.721   0.000   0.001  61.147
 No NMR shielding tensors so no spin-rotation constants.
 Leave Link  601 at Thu Aug 26 12:42:06 2021, MaxMem= 24159191040 cpu:        16.8
 (Enter /public/home/users/caep010/software/Gaussian09/g09/l701.exe)
 Compute integral second derivatives.
 ... and contract with generalized density number  0.
 Leave Link  701 at Thu Aug 26 12:42:07 2021, MaxMem= 24159191040 cpu:        18.5
 (Enter /public/home/users/caep010/software/Gaussian09/g09/l702.exe)
 L702 exits ... SP integral derivatives will be done elsewhere.
 Leave Link  702 at Thu Aug 26 12:42:07 2021, MaxMem= 24159191040 cpu:         0.8
 (Enter /public/home/users/caep010/software/Gaussian09/g09/l703.exe)
 Compute integral second derivatives, UseDBF=F ICtDFT=           0.
 Integral derivatives from FoFJK, PRISM(SPDF).
 Calling FoFJK, ICntrl=    100147 FMM=F ISym2X=0 I1Cent= 0 IOpClX= 0 NMat=1 NMatS=1 NMatT=0.
 FoFJK:  IHMeth= 1 ICntrl=  100147 DoSepK=F KAlg= 0 I1Cent=   0 FoldK=F
 IRaf=         0 NMat=   1 IRICut=       1 DoRegI=T DoRafI=F ISym2E= 0.
 FoFCou: FMM=F IPFlag=           0 FMFlag=      100000 FMFlg1=         800
         NFxFlg=           0 DoJE=F BraDBF=F KetDBF=F FulRan=T
         wScrn=  0.000000 ICntrl=  100147 IOpCl=  0 I1Cent=           0 NGrid=           0
         NMat0=    1 NMatS0=      1 NMatT0=    0 NMatD0=    1 NMtDS0=    0 NMtDT0=    0
 Symmetry not used in FoFCou.
 Leave Link  703 at Thu Aug 26 12:42:39 2021, MaxMem= 24159191040 cpu:      1003.1
 (Enter /public/home/users/caep010/software/Gaussian09/g09/l716.exe)
 Dipole        =-1.69866132D+00 1.15518679D+00 1.35649461D-05
 Polarizability= 0.00000000D+00 0.00000000D+00 0.00000000D+00
                 0.00000000D+00 0.00000000D+00 0.00000000D+00
 ***** Axes restored to original set *****
 -------------------------------------------------------------------
 Center     Atomic                   Forces (Hartrees/Bohr)
 Number     Number              X              Y              Z
 -------------------------------------------------------------------
      1        6          -0.000093930    0.009411784    0.224985905
      2        7           0.000001774   -0.005752036   -0.005593758
      3        6           0.000001275   -0.002305938    0.008830901
      4        7          -0.000000109   -0.009086356   -0.003617063
      5        6          -0.000000102   -0.056074185   -0.067686177
      6        6           0.000000063    0.011272501   -0.011843759
      7        1          -0.000000004    0.053939573    0.085392154
      8        6          -0.000097268    0.203113716    0.279945189
      9        7           0.000000030    0.007640325    0.011982027
     10        8          -0.000000015    0.000855183    0.009978463
     11        1           0.000001366   -0.120878941    0.130699637
     12        8           0.000000010   -0.004468081   -0.025525873
     13        1           0.000001378   -0.219684251   -0.076952774
     14        1          -0.183084522    0.108940869   -0.072432216
     15        1           0.183175350    0.109026269   -0.072488230
     16        1           0.266405121   -0.042986914   -0.207905702
     17        1          -0.266310417   -0.042963518   -0.207768726
 -------------------------------------------------------------------
 Cartesian Forces:  Max     0.279945189 RMS     0.109269274
 FormGI is forming the generalized inverse of G from B-inverse, IUseBI=4.
 Leave Link  716 at Thu Aug 26 12:42:39 2021, MaxMem= 24159191040 cpu:         1.2
 (Enter /public/home/users/caep010/software/Gaussian09/g09/l103.exe)

 GradGradGradGradGradGradGradGradGradGradGradGradGradGradGradGradGradGrad
 Berny optimization.
 Red2BG is reusing G-inverse.
 Internal  Forces:  Max     0.336146559 RMS     0.074571994
 Search for a local minimum.
 Step number   1 out of a maximum of   87
 All quantities printed in internal units (Hartrees-Bohrs-Radians)
 RMS Force = .74572D-01 SwitMx=.10000D-02 MixMth= 1
 Mixed Optimization -- RFO/linear search
 Second derivative matrix not updated -- analytic derivatives used.
 ITU=  0
     Eigenvalues ---    0.00061   0.00096   0.00573   0.00776   0.01129
     Eigenvalues ---    0.01685   0.02396   0.04187   0.05054   0.05653
     Eigenvalues ---    0.06011   0.07553   0.08354   0.10833   0.10968
     Eigenvalues ---    0.12252   0.12370   0.13690   0.15323   0.16274
     Eigenvalues ---    0.17877   0.18582   0.19494   0.20877   0.23272
     Eigenvalues ---    0.25538   0.29298   0.30961   0.33925   0.34906
     Eigenvalues ---    0.38971   0.41621   0.45724   0.46524   0.49240
     Eigenvalues ---    0.57494   0.63427   0.67603   0.81310   0.89368
     Eigenvalues ---    0.98022   0.98788   1.04478   1.28519   1.29349
 RFO step:  Lambda=-3.07872363D-01 EMin= 6.05707136D-04
 Linear search not attempted -- first point.
 Maximum step size (   0.300) exceeded in Quadratic search.
    -- Step size scaled by   0.631
 Iteration  1 RMS(Cart)=  0.03574517 RMS(Int)=  0.00082814
 Iteration  2 RMS(Cart)=  0.00061893 RMS(Int)=  0.00004646
 Iteration  3 RMS(Cart)=  0.00000068 RMS(Int)=  0.00004646
 ITry= 1 IFail=0 DXMaxC= 1.24D-01 DCOld= 1.00D+10 DXMaxT= 3.00D-01 DXLimC= 3.00D+00 Rises=F
 Variable       Old X    -DE/DX   Delta X   Delta X   Delta X     New X
                                 (Linear)    (Quad)   (Total)
    R1        2.76451  -0.00329   0.00000  -0.00133  -0.00133   2.76318
    R2        1.68769   0.23271   0.00000   0.10937   0.10937   1.79705
    R3        1.70578   0.22303   0.00000   0.10827   0.10827   1.81405
    R4        1.70565   0.22317   0.00000   0.10830   0.10830   1.81394
    R5        2.55814   0.00734   0.00000   0.00599   0.00599   2.56413
    R6        2.60974   0.00144   0.00000   0.00290   0.00290   2.61264
    R7        2.51445   0.00102   0.00000   0.00023   0.00023   2.51468
    R8        2.80414   0.00519   0.00000   0.00700   0.00700   2.81114
    R9        2.55683   0.00962   0.00000   0.00514   0.00514   2.56197
   R10        2.56393   0.01644   0.00000   0.01299   0.01299   2.57692
   R11        1.83948   0.10075   0.00000   0.06472   0.06472   1.90420
   R12        2.66465   0.00487   0.00000   0.00449   0.00449   2.66914
   R13        1.74080   0.17797   0.00000   0.09531   0.09531   1.83611
   R14        1.61028   0.33615   0.00000   0.13203   0.13203   1.74231
   R15        1.61040   0.33598   0.00000   0.13201   0.13201   1.74241
   R16        2.31541   0.00782   0.00000   0.00268   0.00268   2.31809
   R17        2.30355   0.02378   0.00000   0.01357   0.01357   2.31713
    A1        1.95565  -0.00608   0.00000  -0.00867  -0.00881   1.94684
    A2        1.95242  -0.01108   0.00000  -0.01083  -0.01089   1.94153
    A3        1.95245  -0.01108   0.00000  -0.01083  -0.01089   1.94156
    A4        1.97350   0.00279   0.00000   0.00030   0.00018   1.97367
    A5        1.97353   0.00279   0.00000   0.00030   0.00018   1.97371
    A6        1.63513   0.02701   0.00000   0.03573   0.03576   1.67089
    A7        2.18192   0.00576   0.00000   0.00730   0.00730   2.18922
    A8        2.26978  -0.00971   0.00000  -0.01002  -0.01003   2.25975
    A9        1.83148   0.00394   0.00000   0.00273   0.00273   1.83421
   A10        1.95625   0.00009   0.00000   0.00010   0.00010   1.95635
   A11        2.16178   0.00062   0.00000   0.00120   0.00120   2.16298
   A12        2.16516  -0.00070   0.00000  -0.00130  -0.00130   2.16385
   A13        1.84783   0.00121   0.00000   0.00131   0.00130   1.84913
   A14        1.91028  -0.00213   0.00000  -0.00056  -0.00056   1.90972
   A15        2.09092   0.00764   0.00000   0.01025   0.01025   2.10117
   A16        2.28199  -0.00551   0.00000  -0.00969  -0.00970   2.27230
   A17        1.87894  -0.00311   0.00000  -0.00358  -0.00357   1.87536
   A18        2.17966  -0.00613   0.00000  -0.00384  -0.00384   2.17582
   A19        2.22458   0.00924   0.00000   0.00742   0.00742   2.23200
   A20        1.94616  -0.00136   0.00000  -0.00284  -0.00302   1.94314
   A21        1.94128  -0.00913   0.00000  -0.00682  -0.00691   1.93437
   A22        1.94125  -0.00913   0.00000  -0.00682  -0.00691   1.93434
   A23        2.05793  -0.00728   0.00000  -0.01454  -0.01468   2.04325
   A24        2.05789  -0.00728   0.00000  -0.01454  -0.01468   2.04321
   A25        1.47445   0.04122   0.00000   0.05614   0.05613   1.53059
   A26        2.04360  -0.00173   0.00000  -0.00097  -0.00097   2.04263
   A27        2.09318  -0.01100   0.00000  -0.00955  -0.00955   2.08363
   A28        2.14640   0.01274   0.00000   0.01052   0.01052   2.15693
    D1        0.00000  -0.00000   0.00000  -0.00000  -0.00000  -0.00000
    D2        3.14159  -0.00000   0.00000  -0.00000  -0.00000   3.14159
    D3        2.23719  -0.01045   0.00000  -0.01577  -0.01572   2.22147
    D4       -0.90440  -0.01045   0.00000  -0.01577  -0.01572  -0.92012
    D5       -2.23726   0.01045   0.00000   0.01578   0.01572  -2.22154
    D6        0.90433   0.01045   0.00000   0.01578   0.01572   0.92005
    D7        3.14159   0.00000   0.00000   0.00000   0.00000  -3.14159
    D8        0.00000  -0.00000   0.00000  -0.00000  -0.00000  -0.00000
    D9        0.00000   0.00000   0.00000   0.00000   0.00000   0.00000
   D10        3.14159  -0.00000   0.00000  -0.00000  -0.00000   3.14159
   D11        3.14159  -0.00000   0.00000  -0.00000  -0.00000   3.14159
   D12        0.00000  -0.00000   0.00000  -0.00000  -0.00000  -0.00000
   D13        0.00000  -0.00000   0.00000  -0.00000  -0.00000  -0.00000
   D14        3.14159  -0.00000   0.00000  -0.00000  -0.00000   3.14159
   D15        0.00000   0.00000   0.00000   0.00000   0.00000   0.00000
   D16        3.14159   0.00000   0.00000   0.00000   0.00000  -3.14159
   D17        3.14159  -0.00000   0.00000  -0.00000  -0.00000   3.14159
   D18        0.80543   0.01994   0.00000   0.02942   0.02937   0.83481
   D19       -0.80552  -0.01993   0.00000  -0.02942  -0.02937  -0.83489
   D20        0.00000  -0.00000   0.00000  -0.00000  -0.00000  -0.00000
   D21       -2.33616   0.01994   0.00000   0.02942   0.02937  -2.30679
   D22        2.33607  -0.01993   0.00000  -0.02942  -0.02937   2.30670
   D23        0.00000  -0.00000   0.00000  -0.00000  -0.00000  -0.00000
   D24        3.14159  -0.00000   0.00000   0.00000   0.00000  -3.14159
   D25        0.00000   0.00000   0.00000   0.00000   0.00000   0.00000
   D26        3.14159   0.00000   0.00000   0.00000   0.00000  -3.14159
   D27        3.14159   0.00000   0.00000   0.00000   0.00000   3.14159
   D28        0.00000  -0.00000   0.00000   0.00000  -0.00000   0.00000
   D29        3.14159  -0.00000   0.00000  -0.00000  -0.00000   3.14159
   D30        0.00000  -0.00000   0.00000  -0.00000  -0.00000  -0.00000
   D31        0.00000  -0.00000   0.00000  -0.00000  -0.00000  -0.00000
   D32        3.14159  -0.00000   0.00000  -0.00000  -0.00000   3.14159
         Item               Value     Threshold  Converged?
 Maximum Force            0.336147     0.000450     NO 
 RMS     Force            0.074572     0.000300     NO 
 Maximum Displacement     0.124487     0.001800     NO 
 RMS     Displacement     0.035844     0.001200     NO 
 Predicted change in Energy=-1.475023D-01
 Lowest energy point so far.  Saving SCF results.
 GradGradGradGradGradGradGradGradGradGradGradGradGradGradGradGradGradGrad

 Leave Link  103 at Thu Aug 26 12:42:40 2021, MaxMem= 24159191040 cpu:         3.6
 (Enter /public/home/users/caep010/software/Gaussian09/g09/l202.exe)
                          Input orientation:                          
 ---------------------------------------------------------------------
 Center     Atomic      Atomic             Coordinates (Angstroms)
 Number     Number       Type             X           Y           Z
 ---------------------------------------------------------------------
      1          6           0        1.646198   -0.460073    8.075790
      2          7           0        1.646199   -0.437261    9.537821
      3          6           0        1.646199   -1.530431   10.341628
      4          7           0        1.646200   -1.203183   11.631473
      5          6           0        1.646200    0.151948   11.671960
      6          6           0        1.646199    0.643525   10.399998
      7          1           0        1.646201    0.635494   12.556019
      8          6           0        1.646198   -2.930574    9.839106
      9          7           0        1.646200    1.996015    9.992840
     10          8           0        1.646200    2.844868   10.878385
     11          1           0        1.646200   -3.569007   10.571542
     12          8           0        1.646199    2.264104    8.796337
     13          1           0        1.646199   -1.349924    7.740397
     14          1           0        0.934277    0.076396    7.719584
     15          1           0        2.358030    0.076409    7.719579
     16          1           0        2.284876   -3.043753    9.183862
     17          1           0        1.007425   -3.043752    9.183878
 ---------------------------------------------------------------------
                    Distance matrix (angstroms):
                    1          2          3          4          5
     1  C    0.000000
     2  N    1.462210   0.000000
     3  C    2.505931   1.356882   0.000000
     4  N    3.632506   2.229353   1.330711   0.000000
     5  C    3.647878   2.213982   2.144804   1.355735   0.000000
     6  C    2.572912   1.382551   2.174740   2.219653   1.363648
     7  H    4.612236   3.203173   3.097540   2.058037   1.007659
     8  C    3.035237   2.511451   1.487591   2.489269   3.586265
     9  N    3.115679   2.475454   3.543653   3.594438   2.493999
    10  O    4.333264   3.545346   4.408100   4.117506   2.807415
    11  H    3.986759   3.297941   2.051500   2.592408   3.880261
    12  O    2.817859   2.801280   4.097124   4.478848   3.567971
    13  H    0.950959   2.015860   2.607487   3.893843   4.208659
    14  H    0.959954   2.019074   3.156555   4.176964   4.016693
    15  H    0.959898   2.019051   3.156546   4.176958   4.016681
    16  H    2.882904   2.706843   2.009595   3.128323   4.100127
    17  H    2.882930   2.706862   2.009616   3.128330   4.100132
                    6          7          8          9         10
     6  C    0.000000
     7  H    2.156036   0.000000
     8  C    3.617842   4.483130   0.000000
     9  N    1.412447   2.901879   4.928987   0.000000
    10  O    2.252724   2.774129   5.868205   1.226678   0.000000
    11  H    4.216024   4.649299   0.971627   5.595031   6.421211
    12  O    2.279914   4.097265   5.298306   1.226170   2.161530
    13  H    3.323751   5.208848   2.627363   4.033462   5.238630
    14  H    2.830740   4.920419   3.747142   3.059324   4.260198
    15  H    2.830719   4.920409   3.747139   3.059299   4.260178
    16  H    3.934833   5.031521   0.921989   5.144086   6.160776
    17  H    3.934843   5.031522   0.922043   5.144094   6.160781
                   11         12         13         14         15
    11  H    0.000000
    12  O    6.097256   0.000000
    13  H    3.597181   3.765130   0.000000
    14  H    4.682890   2.540136   1.594257   0.000000
    15  H    4.682890   2.540102   1.594228   1.423753   0.000000
    16  H    1.615380   5.360170   2.315288   3.701831   3.447447
    17  H    1.615406   5.360182   2.315324   3.447438   3.701852
                   16         17
    16  H    0.000000
    17  H    1.277450   0.000000
 Stoichiometry    C5H7N3O2
 Framework group  C1[X(C5H7N3O2)]
 Deg. of freedom    45
 Full point group                 C1      NOp   1
 RotChk:  IX=0 Diff= 6.89D-03
 Largest Abelian subgroup         C1      NOp   1
 Largest concise Abelian subgroup C1      NOp   1
                         Standard orientation:                         
 ---------------------------------------------------------------------
 Center     Atomic      Atomic             Coordinates (Angstroms)
 Number     Number       Type             X           Y           Z
 ---------------------------------------------------------------------
      1          6           0       -0.584804    1.950277   -0.000008
      2          7           0       -0.553479    0.488403   -0.000004
      3          6           0       -1.641951   -0.321755   -0.000004
      4          7           0       -1.307197   -1.609673    0.000000
      5          6           0        0.048146   -1.642269    0.000002
      6          6           0        0.532309   -0.367466   -0.000001
      7          1           0        0.536831   -2.523497    0.000005
      8          6           0       -3.044996    0.172606   -0.000007
      9          7           0        1.882405    0.047560   -0.000000
     10          8           0        2.736400   -0.833027    0.000003
     11          1           0       -3.679153   -0.563535   -0.000007
     12          8           0        2.143522    1.245604   -0.000003
     13          1           0       -1.476592    2.280483   -0.000012
     14          1           0       -0.050419    2.309602    0.711912
     15          1           0       -0.050403    2.309603   -0.711841
     16          1           0       -3.161987    0.827177   -0.638687
     17          1           0       -3.161987    0.827166    0.638764
 ---------------------------------------------------------------------
 Rotational constants (GHZ):      2.7724740      1.0991570      0.7916527
 Leave Link  202 at Thu Aug 26 12:42:40 2021, MaxMem= 24159191040 cpu:         0.4
 (Enter /public/home/users/caep010/software/Gaussian09/g09/l301.exe)
 Standard basis: GTBas3 (6D, 7F)
 Ernie: Thresh=  0.10000D-02 Tol=  0.10000D-05 Strict=F.
 There are   345 symmetry adapted cartesian basis functions of A   symmetry.
 There are   315 symmetry adapted basis functions of A   symmetry.
   315 basis functions,   489 primitive gaussians,   345 cartesian basis functions
    37 alpha electrons       37 beta electrons
       nuclear repulsion energy       544.4836145009 Hartrees.
 IExCor=  402 DFT=T Ex+Corr=B3LYP ExCW=0 ScaHFX=  0.200000
 ScaDFX=  0.800000  0.720000  1.000000  0.810000 ScalE2=  1.000000  1.000000
 IRadAn=      0 IRanWt=     -1 IRanGd=            0 ICorTp=0 IEmpDi=  4
 NAtoms=   17 NActive=   17 NUniq=   17 SFac= 1.00D+00 NAtFMM=   60 NAOKFM=F Big=F
 Integral buffers will be    131072 words long.
 Raffenetti 2 integral format.
 Two-electron integral symmetry is turned on.
 Leave Link  301 at Thu Aug 26 12:42:40 2021, MaxMem= 24159191040 cpu:         1.6
 (Enter /public/home/users/caep010/software/Gaussian09/g09/l302.exe)
 NPDir=0 NMtPBC=     1 NCelOv=     1 NCel=       1 NClECP=     1 NCelD=      1
         NCelK=      1 NCelE2=     1 NClLst=     1 CellRange=     0.0.
 One-electron integrals computed using PRISM.
 NBasis=   315 RedAO= T EigKep=  1.50D-04  NBF=   315
 NBsUse=   315 1.00D-06 EigRej= -1.00D+00 NBFU=   315
 Precomputing XC quadrature grid using
 IXCGrd= 4 IRadAn=           0 IRanWt=          -1 IRanGd=           0 AccXCQ= 0.00D+00.
 Generated NRdTot=       0 NPtTot=           0 NUsed=           0 NTot=          32
 NSgBfM=   344   344   345   345   345 MxSgAt=    17 MxSgA2=    17.
 Leave Link  302 at Thu Aug 26 12:42:40 2021, MaxMem= 24159191040 cpu:        16.7
 (Enter /public/home/users/caep010/software/Gaussian09/g09/l303.exe)
 DipDrv:  MaxL=1.
 Leave Link  303 at Thu Aug 26 12:42:40 2021, MaxMem= 24159191040 cpu:         0.9
 (Enter /public/home/users/caep010/software/Gaussian09/g09/l401.exe)
 Initial guess from the checkpoint file:  "/public/home/users/caep010/.cache/gau_scr/Gau-203942.chk"
 B after Tr=     0.000000   -0.000000   -0.000000
         Rot=    0.999999   -0.000000    0.000000    0.001529 Ang=  -0.18 deg.
 Guess basis will be translated and rotated to current coordinates.
 JPrj=2 DoOrth=T DoCkMO=T.
 Generating alternative initial guess.
 ExpMin= 1.61D-01 ExpMax= 5.48D+03 ExpMxC= 8.25D+02 IAcc=1 IRadAn=         1 AccDes= 0.00D+00
 Harris functional with IExCor=  402 and IRadAn=       1 diagonalized for initial guess.
 HarFok:  IExCor=  402 AccDes= 0.00D+00 IRadAn=         1 IDoV= 1 UseB2=F ITyADJ=14
 ICtDFT=  3500011 ScaDFX=  1.000000  1.000000  1.000000  1.000000
 FoFCou: FMM=F IPFlag=           0 FMFlag=      100000 FMFlg1=           0
         NFxFlg=           0 DoJE=T BraDBF=F KetDBF=T FulRan=T
         wScrn=  0.000000 ICntrl=     500 IOpCl=  0 I1Cent=   200000004 NGrid=           0
         NMat0=    1 NMatS0=      1 NMatT0=    0 NMatD0=    1 NMtDS0=    0 NMtDT0=    0
 Petite list used in FoFCou.
 Harris En= -509.357416679968    
 Leave Link  401 at Thu Aug 26 12:42:41 2021, MaxMem= 24159191040 cpu:        20.4
 (Enter /public/home/users/caep010/software/Gaussian09/g09/l502.exe)
 Closed shell SCF:
 Using DIIS extrapolation, IDIIS=  1040.
 Integral symmetry usage will be decided dynamically.
 Keep R1 ints in memory in canonical form, NReq=1259651195.
 IVT=      389165 IEndB=      389165 NGot= 24159191040 MDV= 22920250541
 LenX= 22920250541 LenY= 22920131075
 Requested convergence on RMS density matrix=1.00D-08 within 128 cycles.
 Requested convergence on MAX density matrix=1.00D-06.
 Requested convergence on             energy=1.00D-06.
 No special actions if energy rises.
 FoFCou: FMM=F IPFlag=           0 FMFlag=           0 FMFlg1=           0
         NFxFlg=           0 DoJE=F BraDBF=F KetDBF=F FulRan=T
         wScrn=  0.000000 ICntrl=     600 IOpCl=  0 I1Cent=           0 NGrid=           0
         NMat0=    1 NMatS0=  49770 NMatT0=    0 NMatD0=    1 NMtDS0=    0 NMtDT0=    0
 Symmetry not used in FoFCou.
 Integral accuracy reduced to 1.0D-05 until final iterations.

 Cycle   1  Pass 0  IDiag  1:
 E= -509.250409545937    
 DIIS: error= 4.88D-03 at cycle   1 NSaved=   1.
 NSaved= 1 IEnMin= 1 EnMin= -509.250409545937     IErMin= 1 ErrMin= 4.88D-03
 ErrMax= 4.88D-03  0.00D+00 EMaxC= 1.00D-01 BMatC= 6.68D-03 BMatP= 6.68D-03
 IDIUse=3 WtCom= 9.51D-01 WtEn= 4.88D-02
 Coeff-Com:  0.100D+01
 Coeff-En:   0.100D+01
 Coeff:      0.100D+01
 Gap=     0.999 Goal=   None    Shift=    0.000
 GapD=    0.999 DampG=2.000 DampE=1.000 DampFc=2.0000 IDamp=-1.
 RMSDP=4.15D-04 MaxDP=1.98D-02              OVMax= 1.76D-02

 Cycle   2  Pass 0  IDiag  1:
 E= -509.254625246688     Delta-E=       -0.004215700751 Rises=F Damp=F
 DIIS: error= 2.47D-03 at cycle   2 NSaved=   2.
 NSaved= 2 IEnMin= 2 EnMin= -509.254625246688     IErMin= 2 ErrMin= 2.47D-03
 ErrMax= 2.47D-03  0.00D+00 EMaxC= 1.00D-01 BMatC= 1.46D-03 BMatP= 6.68D-03
 IDIUse=3 WtCom= 9.75D-01 WtEn= 2.47D-02
 Coeff-Com:  0.259D+00 0.741D+00
 Coeff-En:   0.000D+00 0.100D+01
 Coeff:      0.252D+00 0.748D+00
 Gap=     0.175 Goal=   None    Shift=    0.000
 RMSDP=1.68D-04 MaxDP=1.07D-02 DE=-4.22D-03 OVMax= 1.15D-02

 Cycle   3  Pass 0  IDiag  1:
 E= -509.255600269865     Delta-E=       -0.000975023177 Rises=F Damp=F
 DIIS: error= 1.12D-03 at cycle   3 NSaved=   3.
 NSaved= 3 IEnMin= 3 EnMin= -509.255600269865     IErMin= 3 ErrMin= 1.12D-03
 ErrMax= 1.12D-03  0.00D+00 EMaxC= 1.00D-01 BMatC= 4.91D-04 BMatP= 1.46D-03
 IDIUse=3 WtCom= 9.89D-01 WtEn= 1.12D-02
 Coeff-Com:  0.206D-01 0.366D+00 0.613D+00
 Coeff-En:   0.000D+00 0.216D+00 0.784D+00
 Coeff:      0.203D-01 0.365D+00 0.615D+00
 Gap=     0.175 Goal=   None    Shift=    0.000
 RMSDP=7.11D-05 MaxDP=3.56D-03 DE=-9.75D-04 OVMax= 4.22D-03

 Cycle   4  Pass 0  IDiag  1:
 E= -509.256017821643     Delta-E=       -0.000417551777 Rises=F Damp=F
 DIIS: error= 2.14D-04 at cycle   4 NSaved=   4.
 NSaved= 4 IEnMin= 4 EnMin= -509.256017821643     IErMin= 4 ErrMin= 2.14D-04
 ErrMax= 2.14D-04  0.00D+00 EMaxC= 1.00D-01 BMatC= 2.67D-05 BMatP= 4.91D-04
 IDIUse=3 WtCom= 9.98D-01 WtEn= 2.14D-03
 Coeff-Com:  0.239D-02 0.167D+00 0.316D+00 0.515D+00
 Coeff-En:   0.000D+00 0.000D+00 0.000D+00 0.100D+01
 Coeff:      0.239D-02 0.166D+00 0.315D+00 0.516D+00
 Gap=     0.175 Goal=   None    Shift=    0.000
 RMSDP=1.95D-05 MaxDP=1.39D-03 DE=-4.18D-04 OVMax= 2.03D-03

 Cycle   5  Pass 0  IDiag  1:
 E= -509.256037799872     Delta-E=       -0.000019978229 Rises=F Damp=F
 DIIS: error= 6.65D-05 at cycle   5 NSaved=   5.
 NSaved= 5 IEnMin= 5 EnMin= -509.256037799872     IErMin= 5 ErrMin= 6.65D-05
 ErrMax= 6.65D-05  0.00D+00 EMaxC= 1.00D-01 BMatC= 2.60D-06 BMatP= 2.67D-05
 IDIUse=1 WtCom= 1.00D+00 WtEn= 0.00D+00
 Coeff-Com: -0.136D-02 0.492D-01 0.993D-01 0.276D+00 0.577D+00
 Coeff:     -0.136D-02 0.492D-01 0.993D-01 0.276D+00 0.577D+00
 Gap=     0.175 Goal=   None    Shift=    0.000
 RMSDP=5.35D-06 MaxDP=3.19D-04 DE=-2.00D-05 OVMax= 5.40D-04

 Initial convergence to 1.0D-05 achieved.  Increase integral accuracy.
 Cycle   6  Pass 1  IDiag  1:
 E= -509.255982263259     Delta-E=        0.000055536613 Rises=F Damp=F
 DIIS: error= 3.60D-05 at cycle   1 NSaved=   1.
 NSaved= 1 IEnMin= 1 EnMin= -509.255982263259     IErMin= 1 ErrMin= 3.60D-05
 ErrMax= 3.60D-05  0.00D+00 EMaxC= 1.00D-01 BMatC= 4.79D-07 BMatP= 4.79D-07
 IDIUse=1 WtCom= 1.00D+00 WtEn= 0.00D+00
 Coeff-Com:  0.100D+01
 Coeff:      0.100D+01
 Gap=     0.175 Goal=   None    Shift=    0.000
 RMSDP=5.35D-06 MaxDP=3.19D-04 DE= 5.55D-05 OVMax= 8.63D-04

 Cycle   7  Pass 1  IDiag  1:
 E= -509.255980827984     Delta-E=        0.000001435275 Rises=F Damp=F
 DIIS: error= 1.05D-04 at cycle   2 NSaved=   2.
 NSaved= 2 IEnMin= 1 EnMin= -509.255982263259     IErMin= 1 ErrMin= 3.60D-05
 ErrMax= 1.05D-04  0.00D+00 EMaxC= 1.00D-01 BMatC= 2.28D-06 BMatP= 4.79D-07
 IDIUse=3 WtCom= 4.94D-01 WtEn= 5.06D-01
 Coeff-Com:  0.702D+00 0.298D+00
 Coeff-En:   0.785D+00 0.215D+00
 Coeff:      0.744D+00 0.256D+00
 Gap=     0.175 Goal=   None    Shift=    0.000
 RMSDP=3.79D-06 MaxDP=3.18D-04 DE= 1.44D-06 OVMax= 6.56D-04

 Cycle   8  Pass 1  IDiag  1:
 E= -509.255982626614     Delta-E=       -0.000001798630 Rises=F Damp=F
 DIIS: error= 8.30D-06 at cycle   3 NSaved=   3.
 NSaved= 3 IEnMin= 3 EnMin= -509.255982626614     IErMin= 3 ErrMin= 8.30D-06
 ErrMax= 8.30D-06  0.00D+00 EMaxC= 1.00D-01 BMatC= 3.23D-08 BMatP= 4.79D-07
 IDIUse=1 WtCom= 1.00D+00 WtEn= 0.00D+00
 Coeff-Com:  0.234D+00 0.738D-01 0.692D+00
 Coeff:      0.234D+00 0.738D-01 0.692D+00
 Gap=     0.175 Goal=   None    Shift=    0.000
 RMSDP=9.15D-07 MaxDP=7.26D-05 DE=-1.80D-06 OVMax= 1.07D-04

 Cycle   9  Pass 1  IDiag  1:
 E= -509.255982627921     Delta-E=       -0.000000001307 Rises=F Damp=F
 DIIS: error= 7.88D-06 at cycle   4 NSaved=   4.
 NSaved= 4 IEnMin= 4 EnMin= -509.255982627921     IErMin= 4 ErrMin= 7.88D-06
 ErrMax= 7.88D-06  0.00D+00 EMaxC= 1.00D-01 BMatC= 3.34D-08 BMatP= 3.23D-08
 IDIUse=1 WtCom= 1.00D+00 WtEn= 0.00D+00
 Coeff-Com:  0.228D-01-0.890D-02 0.513D+00 0.473D+00
 Coeff:      0.228D-01-0.890D-02 0.513D+00 0.473D+00
 Gap=     0.175 Goal=   None    Shift=    0.000
 RMSDP=5.03D-07 MaxDP=3.25D-05 DE=-1.31D-09 OVMax= 5.52D-05

 Cycle  10  Pass 1  IDiag  1:
 E= -509.255982654732     Delta-E=       -0.000000026811 Rises=F Damp=F
 DIIS: error= 2.16D-06 at cycle   5 NSaved=   5.
 NSaved= 5 IEnMin= 5 EnMin= -509.255982654732     IErMin= 5 ErrMin= 2.16D-06
 ErrMax= 2.16D-06  0.00D+00 EMaxC= 1.00D-01 BMatC= 2.05D-09 BMatP= 3.23D-08
 IDIUse=1 WtCom= 1.00D+00 WtEn= 0.00D+00
 Coeff-Com: -0.877D-02-0.121D-01 0.249D+00 0.282D+00 0.489D+00
 Coeff:     -0.877D-02-0.121D-01 0.249D+00 0.282D+00 0.489D+00
 Gap=     0.175 Goal=   None    Shift=    0.000
 RMSDP=1.39D-07 MaxDP=6.27D-06 DE=-2.68D-08 OVMax= 1.18D-05

 Cycle  11  Pass 1  IDiag  1:
[...]
 -1.2175955687,11.6110987057\C,0,1.6462002055,0.1365867954,11.673351059
 3\C,0,1.6462050705,0.6593908773,10.4005731386\H,0,1.6462055454,0.68559
 17543,12.6005403983\C,0,1.6461494174,-2.9241135612,9.7983571678\N,0,1.
 6462068839,2.0235266044,10.0082603921\O,0,1.6462308852,2.8577956582,10
 .9083802673\H,0,1.6462669758,-3.59653391,10.6564266579\O,0,1.646182272
 2,2.2874971675,8.8027323211\H,0,1.6463824235,-1.4253976921,7.711438317
 4\H,0,0.7631946555,0.1234710691,7.691178286\H,0,2.5290735673,0.1237477
 464,7.6912155542\H,0,2.5307308095,-3.1380292301,9.1897507573\H,0,0.761
 4131853,-3.138061539,9.189981095\\Version=ES64L-G09RevE.01\State=1-A\H
 F=-506.575383\RMSD=7.855e-09\Dipole=-0.0000019,-1.8813135,-0.9907822\Q
 uadrupole=2.2632693,-4.077103,1.8138336,0.0000123,-0.000095,5.3522144\
 PG=C01 [X(C5H7N3O2)]\\@


  ON THE CHOICE OF THE CORRECT LANGUAGE -
 I SPEAK SPANISH TO GOD, ITALIAN TO WOMEN,
 FRENCH TO MEN, AND GERMAN TO MY HORSE.
          -- CHARLES V
 Diagonal vibrational polarizability:
        0.0000000       0.0000000       0.0000000

 Temperature=              298.150000 Pressure=                      1.000000
 E(ZPE)=                     0.127840 E(Thermal)=                    0.137177
 E(CCSD(T))=              -507.954716 E(Empiric)=                   -0.187569
 DE(Plus)=                  -0.034951 DE(2DF)=                      -0.372293
 E(Delta-G3XP)=             -0.643077 DE(HF)=                       -0.049122
 G4(0 K)=                 -509.113887 G4 Energy=                  -509.104550
 G4 Enthalpy=             -509.103606 G4 Free Energy=             -509.148661
 1\1\GINC-B1276\Mixed\G4\G4\C5H7N3O2\ROOT\26-Aug-2021\0\\#P Geom=AllChe
 ck Guess=TCheck SCRF=Check HF/GFHFB2 SCF=Tight\\JIZJIL\\0,1\C,0,1.6462
 074118,-0.3951531903,8.0654793087\N,0,1.6461915969,-0.4162974131,9.524
 4877154\C,0,1.646176295,-1.525625568,10.3169488577\N,0,1.6461827994,-1
 .2175955687,11.6110987057\C,0,1.6462002055,0.1365867954,11.6733510593\
 C,0,1.6462050705,0.6593908773,10.4005731386\H,0,1.6462055454,0.6855917
 543,12.6005403983\C,0,1.6461494174,-2.9241135612,9.7983571678\N,0,1.64
 62068839,2.0235266044,10.0082603921\O,0,1.6462308852,2.8577956582,10.9
 083802673\H,0,1.6462669758,-3.59653391,10.6564266579\O,0,1.6461822722,
 2.2874971675,8.8027323211\H,0,1.6463824235,-1.4253976921,7.7114383174\
 H,0,0.7631946555,0.1234710691,7.691178286\H,0,2.5290735673,0.123747746
 4,7.6912155542\H,0,2.5307308095,-3.1380292301,9.1897507573\H,0,0.76141
 31853,-3.138061539,9.189981095\\Version=ES64L-G09RevE.01\State=1-A\MP2
 /GTBas1=-507.8624175\MP4/GTBas1=-507.9688347\CCSD(T)/G3Bas1=-507.95471
 58\MP2/GTBas2=-507.8948202\MP4/GTBas2=-508.0037857\MP2/GTBas3=-508.213
 7053\MP4/GTBas3=-508.3411274\HF/GTLargeXP=-506.5281709\MP2/GTLargeXP=-
 508.8891849\HF/GFHFB1=-506.5675467\HF/GFHFB2=-506.575383\G4=-509.11388
 67\FreqCoord=3.1108811662,-0.7467313101,15.2415470239,3.1108512804,-0.
 7866881006,17.9986733381,3.110822364,-2.8830145049,19.496207868,3.1108
 346555,-2.3009221654,21.9417966558,3.1108675482,0.2581116366,22.059436
 5552,3.1108767419,1.2460681726,19.6542348571,3.1108776392,1.2955806545
 ,23.8115704792,3.1107715727,-5.5257738121,18.5162115993,3.1108801686,3
 .823911105,18.9128712076,3.1109255246,5.4004511377,20.6138512586,3.110
 9937258,-6.7964641176,20.1377279386,3.1108336592,4.3227431762,16.63475
 3308,3.1112118904,-2.6936112685,14.5725065105,1.4422288851,0.233326505
 9,14.5342205998,4.7792564121,0.2338493503,14.5342910265,4.782388146,-5
 .9300158419,17.3661121609,1.4388623942,-5.9300768968,17.366547436\PG=C
 01 [X(C5H7N3O2)]\NImag=0\\0.57907745,-0.00000325,0.61968906,0.00000336
 ,-0.00326468,0.46614431,-0.05827791,-0.00000055,-0.00000020,0.13395179
 ,-0.00000047,-0.10866312,0.00275014,0.00000585,0.60873221,0.00000107,0
 .00159947,-0.21309934,-0.00000086,-0.01165434,0.78158729,-0.00729906,-
 0.00000062,0.00000062,-0.06900813,-0.00000199,0.00000060,0.18839796,-0
 .00000003,0.01326259,0.01130278,-0.00000218,-0.24718809,0.08007126,0.0
 0000968,0.74950640,0.00000152,0.01997812,-0.02322860,0.00000084,0.0661
 6475,-0.16125973,0.00000190,0.08973624,0.65624655,0.00834128,0.0000008
 1,0.00000014,0.02036596,-0.00000108,-0.00000010,-0.07993852,0.00000017
 ,-0.00000159,0.10227485,-0.00000108,-0.00177780,0.00202626,0.00000040,
 0.00126665,-0.00630591,-0.00000109,-0.11712350,-0.05609473,0.00000579,
 0.51809478,-0.00000083,0.00829408,0.00543687,0.00000122,0.05378756,-0.
 09361165,-0.00000114,-0.04759925,-0.33635370,0.00000098,0.02387256,0.5
 4384508,0.00124620,-0.00000038,0.00000007,0.01279270,-0.00000022,0.,0.
 00855739,-0.00000097,-0.00000131,-0.07113547,-0.00000312,0.00000004,0.
 14365607,0.00000092,-0.00896268,-0.00165280,-0.00000105,-0.01240432,0.
 01158825,-0.00000020,-0.04962852,-0.09544819,-0.00000354,-0.31146020,-
 0.00341029,0.00000550,0.62989495,-0.00000083,-0.00182843,0.00301130,-0
 .00000002,-0.03719628,-0.07738749,-0.00000092,-0.04129846,-0.02595222,
 0.00000010,0.00021217,-0.10715957,0.00000160,0.11786136,0.84641732,-0.
 00503714,0.00000075,0.00000019,-0.05244902,-0.00000236,-0.00000161,0.0
 1364273,-0.00000154,0.00000061,0.01852785,-0.00000126,-0.00000025,-0.0
 6673640,0.00000006,0.00000044,0.11552704,0.00000041,0.01028946,-0.0059
 3734,-0.00000185,-0.18197034,-0.08248302,-0.00000096,-0.09939264,0.045
 96477,-0.00000083,-0.07933841,-0.00986353,-0.00000049,-0.08948969,0.07
 731312,0.00000488,0.69327882,0.00000096,-0.02531252,-0.01803523,-0.000
 00151,-0.08040538,-0.18595208,0.00000026,-0.01832201,0.00160922,0.0000
 0062,0.07104739,0.00720786,0.00000078,0.06288992,-0.34576813,0.0000015
 1,-0.05548225,0.69811097,0.00143996,-0.00000027,0.00000003,0.00341425,
 0.00000026,0.00000004,0.00624874,-0.00000022,0.00000022,-0.00383532,-0
 .00000027,-0.00000044,-0.03395168,-0.00000072,-0.00000127,0.00380767,0
 .00000009,0.00000009,0.02445412,-0.00000001,0.00096978,-0.00017707,-0.
 00000005,-0.00131566,0.00370292,-0.00000019,-0.00617123,0.00012398,-0.
 00000011,-0.01255156,-0.02741877,-0.00000087,-0.12551920,-0.12705002,0
 .00000005,0.00970114,0.01099462,0.00000115,0.13493703,0.00000004,-0.00
 101130,0.00036461,0.00000001,0.00258001,-0.00307733,0.00000003,0.00139
 775,0.00114889,0.,-0.00028008,0.00744626,-0.00000126,-0.12801955,-0.29
 016587,-0.00000017,-0.01490922,-0.01121200,0.00000139,0.14152598,0.294
 98456,-0.00174037,0.00000047,-0.00000084,0.00100342,0.00000063,0.00000
 012,-0.06888735,-0.00000291,0.00000038,0.00051784,0.00000072,-0.000000
 18,0.00798252,0.00000005,0.00000026,0.00250863,-0.00000128,-0.00000041
 ,0.00096453,0.00000003,0.,0.53652409,-0.00000038,-0.00019445,-0.000466
 16,-0.00000038,-0.02752908,-0.00648328,-0.00000345,-0.20980858,-0.0452
 0520,-0.00000053,-0.00857310,-0.01066279,0.00000035,0.00216507,-0.0004
 6285,-0.00000008,0.00166432,0.00442063,-0.00000002,0.00033109,0.000044
 04,-0.00000491,0.50376132,0.00000009,0.00118281,0.00062955,0.00000061,
 0.02495294,0.01212344,-0.00000010,-0.04482210,-0.10075861,-0.00000079,
 -0.03302317,-0.01258805,-0.00000054,-0.00119525,-0.00386955,-0.0000000
 5,-0.00181142,-0.00667828,-0.00000002,-0.00115471,0.00036738,-0.000005
 09,-0.02755781,0.57798577,-0.00074255,0.00000011,0.00000009,-0.0119419
 0,-0.00000032,-0.00000002,0.00218025,0.00000007,-0.00000019,0.00963687
 ,-0.00000006,0.00000015,-0.00624448,-0.00000033,0.00000018,-0.07011839
 ,0.00000065,0.00000006,-0.00220161,0.00000005,-0.00000005,0.00244601,-
 0.00000030,0.00000023,0.23791691,0.00000051,-0.00013645,-0.00525039,-0
 .00000030,-0.03528660,0.00562230,-0.00000033,0.00586492,-0.02404730,0.
 00000007,0.02315740,0.01580784,0.00000009,-0.03711850,0.02741533,-0.00
 000058,-0.17533599,0.00927248,-0.00000007,0.00190810,-0.00271357,0.000
 00097,-0.00077246,0.00276858,0.00000428,0.70636737,-0.00000093,-0.0011
 4363,0.00570504,-0.00000021,-0.02121977,0.01079242,-0.00000004,-0.0086
 4335,-0.00003829,-0.00000004,0.00086571,-0.01287063,0.00000012,0.03251
 870,0.00121873,0.00000047,0.03382805,-0.09737940,0.00000009,0.00003275
 ,-0.00236422,-0.00000060,0.00019229,-0.00026862,0.00001373,0.06707280,
 0.90534497,0.00080724,0.00000004,-0.00000023,0.00590881,-0.00000009,0.
 00000022,-0.00026878,0.,0.,0.00012824,-0.00000006,-0.00000003,0.000060
 37,0.00000019,-0.00000014,0.01822145,-0.00000139,-0.00000045,-0.000152
 64,-0.00000003,0.00000003,-0.00101153,0.00000007,-0.00000002,-0.081739
 48,-0.00000540,-0.00000624,0.03155934,0.00000005,-0.00045021,0.0019689
 5,-0.00000013,-0.00456038,0.00600808,0.00000015,-0.00210939,0.00164883
 ,0.,-0.00472000,-0.00405556,-0.00000005,0.00549776,-0.00688421,-0.0000
 0121,-0.07026511,-0.03380086,-0.00000002,-0.00169883,0.00056184,-0.000
 00029,-0.00027384,-0.00002897,-0.00000584,-0.33387121,-0.21156112,0.00
 000774,0.37703759,0.00000039,-0.00004329,-0.00157248,0.,0.00205027,0.0
 0298532,0.00000007,0.00120517,0.00295822,0.00000002,-0.00402667,-0.001
 67103,0.00000001,0.00888053,-0.00740167,-0.00000043,-0.03305208,0.0096
 0919,0.00000002,-0.00011880,0.00216304,-0.00000011,-0.00039080,-0.0001
 6416,-0.00000610,-0.18698425,-0.32355742,0.00000950,0.26796015,0.41034
 031,0.00026631,-0.00000010,0.00000019,0.00107508,-0.00000043,0.0000000
 8,-0.00173645,-0.00000106,0.00000070,-0.00038658,-0.00000014,0.0000000
 2,-0.00030671,0.00000008,0.00000006,0.00034573,0.00000010,0.00000012,-
 0.00004870,0.,0.,-0.04566712,0.00001942,-0.00002341,0.00024502,-0.0000
 0015,0.00000013,-0.00007129,0.00000003,0.,0.04558587,0.00000012,0.0000
 2738,-0.00129062,0.00000030,-0.00532016,-0.00343226,0.00000326,-0.0225
 0823,0.02830193,-0.00000031,0.00375083,0.00142359,-0.00000006,-0.00029
 409,-0.00029176,-0.00000007,0.00011633,0.00152292,0.,0.00010178,-0.000
 02019,0.00001853,-0.14992302,0.13126783,-0.00000014,-0.00022043,-0.000
 34922,0.00000004,-0.00028922,-0.00009149,-0.00001987,0.16563800,0.0000
 0018,-0.00043702,-0.00077732,-0.00000015,-0.00295965,-0.00140510,0.000
 00158,-0.00750182,0.01032758,-0.00000015,-0.00051981,0.00011245,0.0000
 0019,-0.00027239,0.00017363,-0.00000004,-0.00044265,0.00043077,-0.0000
 0002,0.00004880,-0.00000735,-0.00002361,0.13790859,-0.21976764,-0.0000
 0018,-0.00026381,-0.00028597,0.00000004,-0.00006679,0.00003221,0.00002
 624,-0.14534213,0.23535615,-0.00246446,0.00000042,0.00000064,0.0000835
 9,-0.00000009,0.00000026,0.00025475,-0.00000003,-0.00000006,-0.0026886
 7,0.00000007,-0.00000005,0.00470350,0.,0.00000009,0.02071605,0.0000002
 4,-0.00000105,-0.00025897,0.00000001,0.,-0.00008857,0.00000004,0.,-0.0
 7974136,0.00000185,-0.00000831,0.02736097,-0.00000043,-0.00000281,-0.0
 0004386,0.,0.00000002,0.02940788,0.00000165,-0.00571987,-0.00097311,0.
 00000018,0.00364605,-0.00084569,0.00000024,-0.00007023,0.00393143,-0.0
 0000014,-0.00601899,0.00049937,0.00000014,-0.00109096,-0.00681992,0.00
 000071,-0.01442625,0.05484962,-0.00000002,-0.00028880,0.00064150,-0.00
 000002,0.00012918,-0.00005685,0.00000178,-0.15865842,0.11284401,-0.000
 00086,0.03636014,-0.05604685,-0.00000003,0.00002602,0.00009346,-0.0000
 0308,0.15149446,0.00000153,-0.00289465,-0.00565245,-0.00000002,-0.0049
 6190,0.00181153,-0.00000006,0.00377359,-0.01070562,0.00000019,0.009343
 99,0.00691318,-0.00000008,-0.00659803,0.01174633,-0.00000126,0.0419583
 1,-0.05420439,-0.00000007,-0.00056207,0.00067531,0.00000050,-0.0003110
 3,0.00144174,-0.00000788,0.08731399,-0.47865223,-0.00000275,-0.0208072
 3,-0.09569215,-0.00000010,-0.00015440,0.00007730,0.00001160,-0.1070606
 1,0.61718030,-0.05053936,0.00004183,0.00001345,-0.00131763,-0.00000026
 ,0.00000062,0.00090514,0.00000059,-0.00000003,-0.00033316,0.00000011,0
 .00000018,0.00027607,-0.00000024,0.00000019,0.00033728,-0.00000024,-0.
 00000059,0.00007283,0.,-0.00000002,0.00077218,0.00000004,-0.00000052,0
 .00000059,-0.00000015,0.00000045,-0.00032143,-0.00000003,-0.00000015,-
 0.00040452,-0.00000005,-0.00000008,0.00126273,-0.00000047,-0.00000049,
 0.04563785,0.00004218,-0.29782210,-0.08420220,-0.00000098,0.00268802,-
 0.00042575,-0.00000014,-0.00050753,0.00069520,-0.00000007,0.00037096,-
 0.00005870,0.00000010,-0.00006354,0.00017679,0.00000039,0.00118751,0.0
 0162559,0.00000002,0.00000254,0.00007394,-0.00000037,-0.00087063,0.001
 44788,0.00000005,-0.00093832,0.00200301,-0.00000011,-0.00004493,-0.000
 67791,0.00000007,0.00011820,0.00042605,0.00000017,-0.00110226,-0.00196
 007,-0.00004627,0.32126096,0.00001207,-0.07071296,-0.07415638,0.000004
 53,-0.03960841,-0.02185154,-0.00000014,-0.00236352,0.00131422,0.000000
 03,-0.00003437,0.00013973,-0.00000009,-0.00152268,-0.00136840,0.000001
 08,0.00455883,-0.00277763,-0.00000017,0.00037268,-0.00035389,0.0000007
 7,0.00001160,-0.00011682,-0.00000004,0.00122221,-0.00177015,0.,-0.0003
 0318,0.00066398,-0.00000029,0.00002203,0.00020540,0.00000002,0.0004129
 1,0.00162775,-0.00001393,0.08710508,0.08997905,-0.23276725,0.10798758,
 -0.07232147,0.00642935,-0.00259392,-0.00167904,0.00011280,-0.00117599,
 0.00176544,-0.00035918,-0.00076029,-0.00042241,-0.00016265,0.00052549,
 -0.00058412,0.00063116,0.00034983,0.00051894,-0.00000290,0.00003045,-0
 .00002443,0.00000892,0.00009457,0.00004800,0.00015844,0.00122344,-0.00
 241916,-0.00026826,0.00002873,0.00098220,-0.00000548,0.00000414,0.0000
 1573,0.00074136,0.00062044,0.00225103,0.00206769,-0.00197470,0.0017843
 6,0.24469789,0.10938291,-0.10982928,0.04288957,-0.00180803,0.00147837,
 0.00108172,0.00043693,-0.00026216,0.00102487,-0.00010917,-0.00080134,-
 0.00064590,0.00021416,0.00073223,-0.00064099,-0.00068751,-0.00065124,0
 .00021277,0.00007207,0.00002242,0.00000318,-0.00001074,-0.00016891,0.0
 0030044,-0.00005611,0.00112320,-0.00237175,0.00006791,0.00013699,0.000
 68629,-0.00007416,0.00002862,0.00008923,-0.00037195,-0.00194547,0.0007
 7765,0.02434006,-0.01178435,0.00952771,-0.11785716,0.11479290,-0.06606
 122,0.03779080,-0.07265603,-0.02706554,0.02161135,-0.02556162,-0.00317
 802,-0.00534337,0.00082975,0.00173897,-0.00132052,-0.00346272,0.000211
 05,0.00259229,-0.00166655,-0.00056935,0.00073216,0.00279121,0.00018540
 ,-0.00002374,-0.00000098,-0.00007222,-0.00019617,0.00009699,-0.0004091
 1,0.00114355,-0.00290438,-0.00008671,-0.00023822,0.00058468,-0.0000234
 0,0.00009606,0.00010163,0.00069700,-0.00058041,0.00167172,0.00942391,-
 0.00376544,0.00444184,0.07768879,-0.04778848,0.09097224,-0.23270635,-0
 .10802677,0.07230351,0.00642615,0.00259442,0.00167870,0.00011256,0.001
 17587,-0.00176582,-0.00035897,0.00076058,0.00042260,-0.00016260,-0.000
 52570,0.00058442,0.00063132,-0.00034960,-0.00051917,-0.00000289,-0.000
 03046,0.00002443,0.00000878,-0.00009428,-0.00004795,0.00015866,-0.0012
 2389,0.00242029,-0.00026835,-0.00002880,-0.00098266,-0.00000544,-0.000
 00416,-0.00001576,0.00074120,-0.00062049,-0.00225193,0.00207578,0.0019
 7919,-0.00178773,-0.02121786,-0.01353326,0.00753717,0.24463194,-0.1094
 2342,-0.10989677,0.04290967,0.00180897,0.00147891,0.00108169,-0.000436
 91,-0.00026187,0.00102460,0.00010882,-0.00080172,-0.00064620,-0.000214
 13,0.00073254,-0.00064130,0.00068780,-0.00065135,0.00021327,-0.0000720
 0,0.00002244,0.00000320,0.00001122,-0.00016932,0.00030027,0.00005594,0
 .00112345,-0.00237256,-0.00006802,0.00013709,0.00068648,0.00007393,0.0
 0002867,0.00008923,0.00037277,-0.00194922,0.00077661,-0.02433525,-0.01
 179109,0.00952630,0.01352472,0.00702000,-0.00510522,0.11789993,0.11487
 038,0.06604267,0.03780658,-0.07265326,0.02706172,0.02162226,-0.0255589
 9,0.00317814,-0.00534375,0.00082844,-0.00173896,-0.00131992,-0.0034628
 2,-0.00021087,0.00259231,-0.00166611,0.00056861,0.00073114,0.00279167,
 -0.00018527,-0.00002379,-0.00000095,0.00007232,-0.00019629,0.00009691,
 0.00040911,0.00114371,-0.00290571,0.00008681,-0.00023813,0.00058498,0.
 00002335,0.00009610,0.00010164,-0.00069735,-0.00058081,0.00167229,-0.0
 0942311,-0.00376837,0.00444141,-0.00753659,-0.00510812,0.00472255,-0.0
 7766721,-0.04780809,0.09096826,0.00019775,0.00052370,0.00068776,0.0007
 7180,-0.00033128,0.00025279,0.00336282,0.00102368,-0.00137437,-0.00037
 843,-0.00075500,-0.00098330,-0.00028744,0.00007894,-0.00036296,-0.0002
 7795,0.00071514,0.00029238,0.00002630,-0.00001254,-0.00001557,-0.21764
 340,0.03894195,0.11912217,-0.00000646,-0.00030348,0.00034969,0.0000276
 6,0.00006025,-0.00008984,0.00058198,-0.00074764,-0.00133400,0.00000693
 ,0.00001761,-0.00024864,-0.00024573,-0.00009853,-0.00046979,-0.0000338
 2,-0.00018947,-0.00011997,-0.00003007,-0.00018381,-0.00010333,0.235529
 46,0.00009545,-0.00039319,-0.00031652,-0.00063279,0.00247402,0.0004375
 4,0.02609624,-0.00679887,-0.01890263,0.00089615,-0.00173793,0.00033771
 ,-0.00113685,-0.00149517,0.00006751,-0.00040386,-0.00235819,-0.0018630
 0,-0.00024987,-0.00022556,0.00006124,0.03977983,-0.05488341,-0.0262884
 5,-0.00056795,0.00139691,-0.00084792,0.00020793,-0.00044318,-0.0000183
 6,-0.01740232,0.00435941,0.00957737,0.00005485,-0.00019266,0.00068293,
 0.00055465,-0.00035218,0.00089327,-0.00000888,0.00025678,0.00024237,0.
 00001854,-0.00014864,0.00015290,-0.04302041,0.05983474,0.00002567,-0.0
 0000132,0.00026951,-0.00037290,0.00124299,-0.00026780,0.00694895,-0.00
 312400,-0.00848416,0.00083194,-0.00222166,0.00003950,-0.00094570,-0.00
 040216,-0.00008095,0.00015295,-0.00055232,-0.00027183,-0.00007488,-0.0
 0013640,0.00001627,0.11916628,-0.02532585,-0.12429724,0.00019339,0.000
 23820,-0.00003214,-0.00004380,-0.00008178,0.00006853,0.02060732,-0.005
 87894,-0.01233986,-0.00005789,-0.00015398,0.00004475,-0.00026401,0.000
 65291,-0.00020947,-0.00003671,-0.00011719,0.00001219,0.00003042,0.0000
 7916,0.00002755,-0.13088627,0.03191420,0.13519188,0.00019827,-0.000523
 79,-0.00068731,0.00077169,0.00033134,-0.00025286,0.00336317,-0.0010251
 2,0.00137178,-0.00037857,0.00075471,0.00098342,-0.00028739,-0.00007945
 ,0.00036291,-0.00027800,-0.00071469,-0.00029253,0.00002631,0.00001252,
 0.00001557,-0.21769859,-0.03895211,-0.11909264,-0.00000649,0.00030315,
 -0.00034944,0.00002767,-0.00006016,0.00008989,0.00057617,0.00074592,0.
 00133003,0.00000693,-0.00001764,0.00024841,-0.00024631,0.00009902,0.00
 046932,-0.00003021,0.00018351,0.00010325,-0.00003387,0.00018944,0.0001
 1997,-0.02160139,-0.00428070,-0.01527476,0.23559063,-0.00009553,-0.000
 39234,-0.00031648,0.00063259,0.00247353,0.00043701,-0.02610061,-0.0068
 0306,-0.01889669,-0.00089604,-0.00173606,0.00033828,0.00113679,-0.0014
 9567,0.00006795,0.00040384,-0.00235837,-0.00186318,0.00024988,-0.00022
 547,0.00006121,-0.03979193,-0.05488418,-0.02628202,0.00056813,0.001397
 02,-0.00084799,-0.00020797,-0.00044328,-0.00001840,0.01740464,0.004359
 91,0.00957334,-0.00005486,-0.00019271,0.00068293,-0.00055430,-0.000351
 25,0.00089249,-0.00001846,-0.00014876,0.00015298,0.00000888,0.00025651
 ,0.00024229,0.00428091,0.00070713,0.00386812,0.04303406,0.05983707,-0.
 00002573,-0.00000208,0.00026991,0.00037248,0.00124347,-0.00026733,-0.0
 0695175,-0.00312514,-0.00848194,-0.00083135,-0.00222125,0.00003924,0.0
 0094601,-0.00040202,-0.00008079,-0.00015271,-0.00055254,-0.00027191,0.
 00007485,-0.00013636,0.00001626,-0.11913758,-0.02531894,-0.12423281,-0
 .00019339,0.00023833,-0.00003200,0.00004376,-0.00008181,0.00006844,-0.
 02061101,-0.00587944,-0.01233553,0.00005790,-0.00015405,0.00004465,0.0
 0026413,0.00065197,-0.00020912,-0.00003055,0.00007898,0.00002747,0.000
 03669,-0.00011712,0.00001213,0.01528325,0.00386984,0.01031327,0.130855
 00,0.03190818,0.13512005\\-0.00000273,-0.00006328,0.00000456,-0.000000
 20,0.00000976,-0.00000088,-0.00000106,-0.00002021,0.00002961,0.0000000
 7,0.00000469,0.00000524,0.00000026,0.00016090,0.00024598,0.00000033,0.
 00000722,-0.00000026,-0.00000006,-0.00014722,-0.00024995,0.00000212,-0
 .00014827,-0.00050327,-0.00000023,-0.00001025,-0.00000436,0.,0.0000069
 1,-0.00000212,-0.00000020,0.00004171,-0.00003368,0.00000023,0.00000710
 ,-0.00000374,0.00000120,0.00002894,0.00001248,-0.00001890,0.00000161,-
 0.00001009,0.00002064,0.00000226,-0.00001074,-0.00027219,0.00005910,0.
 00026049,0.00027072,0.00005904,0.00026072\\\@
 Job cpu time:       0 days 12 hours 15 minutes 20.7 seconds.
 File lengths (MBytes):  RWF=  40277 Int=      0 D2E=      0 Chk=     82 Scr=      1
 Normal termination of Gaussian 09 at Thu Aug 26 14:43:27 2021.
