 Entering Gaussian System, Link 0=g09
 Input=G4.JOHBUD01.gjf
 Output=G4.JOHBUD01.log
 Initial command:
 /public/home/users/caep010/software/Gaussian09/g09/l1.exe "/public/home/users/caep010/.cache/gau_scr/Gau-48272.inp" -scrdir="/public/home/users/caep010/.cache/gau_scr/"
 Entering Link 1 = /public/home/users/caep010/software/Gaussian09/g09/l1.exe PID=     48273.
  
 Copyright (c) 1988,1990,1992,1993,1995,1998,2003,2009,2015,
            Gaussian, Inc.  All Rights Reserved.
  
 This is part of the Gaussian(R) 09 program.  It is based on
 the Gaussian(R) 03 system (copyright 2003, Gaussian, Inc.),
 the Gaussian(R) 98 system (copyright 1998, Gaussian, Inc.),
 the Gaussian(R) 94 system (copyright 1995, Gaussian, Inc.),
 the Gaussian 92(TM) system (copyright 1992, Gaussian, Inc.),
 the Gaussian 90(TM) system (copyright 1990, Gaussian, Inc.),
 the Gaussian 88(TM) system (copyright 1988, Gaussian, Inc.),
 the Gaussian 86(TM) system (copyright 1986, Carnegie Mellon
 University), and the Gaussian 82(TM) system (copyright 1983,
 Carnegie Mellon University). Gaussian is a federally registered
 trademark of Gaussian, Inc.
  
 This software contains proprietary and confidential information,
 including trade secrets, belonging to Gaussian, Inc.
  
 This software is provided under written license and may be
 used, copied, transmitted, or stored only in accord with that
 written license.
  
 The following legend is applicable only to US Government
 contracts under FAR:
  
                    RESTRICTED RIGHTS LEGEND
  
 Use, reproduction and disclosure by the US Government is
 subject to restrictions as set forth in subparagraphs (a)
 and (c) of the Commercial Computer Software - Restricted
 Rights clause in FAR 52.227-19.
  
 Gaussian, Inc.
 340 Quinnipiac St., Bldg. 40, Wallingford CT 06492
  
  
 ---------------------------------------------------------------
 Warning -- This program may not be used in any manner that
 competes with the business of Gaussian, Inc. or will provide
 assistance to any competitor of Gaussian, Inc.  The licensee
 of this program is prohibited from giving any competitor of
 Gaussian, Inc. access to this program.  By using this program,
 the user acknowledges that Gaussian, Inc. is engaged in the
 business of creating and licensing software in the field of
 computational chemistry and represents and warrants to the
 licensee that it is not a competitor of Gaussian, Inc. and that
 it will not use this program in any manner prohibited above.
 ---------------------------------------------------------------
  

 Cite this work as:
 Gaussian 09, Revision E.01,
 M. J. Frisch, G. W. Trucks, H. B. Schlegel, G. E. Scuseria, 
 M. A. Robb, J. R. Cheeseman, G. Scalmani, V. Barone, B. Mennucci, 
 G. A. Petersson, H. Nakatsuji, M. Caricato, X. Li, H. P. Hratchian, 
 A. F. Izmaylov, J. Bloino, G. Zheng, J. L. Sonnenberg, M. Hada, 
 M. Ehara, K. Toyota, R. Fukuda, J. Hasegawa, M. Ishida, T. Nakajima, 
 Y. Honda, O. Kitao, H. Nakai, T. Vreven, J. A. Montgomery, Jr., 
 J. E. Peralta, F. Ogliaro, M. Bearpark, J. J. Heyd, E. Brothers, 
 K. N. Kudin, V. N. Staroverov, T. Keith, R. Kobayashi, J. Normand, 
 K. Raghavachari, A. Rendell, J. C. Burant, S. S. Iyengar, J. Tomasi, 
 M. Cossi, N. Rega, J. M. Millam, M. Klene, J. E. Knox, J. B. Cross, 
 V. Bakken, C. Adamo, J. Jaramillo, R. Gomperts, R. E. Stratmann, 
 O. Yazyev, A. J. Austin, R. Cammi, C. Pomelli, J. W. Ochterski, 
 R. L. Martin, K. Morokuma, V. G. Zakrzewski, G. A. Voth, 
 P. Salvador, J. J. Dannenberg, S. Dapprich, A. D. Daniels, 
 O. Farkas, J. B. Foresman, J. V. Ortiz, J. Cioslowski, 
 and D. J. Fox, Gaussian, Inc., Wallingford CT, 2013.
 
 ******************************************
 Gaussian 09:  ES64L-G09RevE.01 30-Nov-2015
                26-Aug-2021 
 ******************************************
 %nproc=32
 Will use up to   32 processors via shared memory.
 %mem=180GB
 ----------------
 #P G4 OPT=calcfc
 ----------------
 1/10=4,14=-1,18=20,19=15,26=3,38=1/1,3;
 2/9=110,12=2,17=6,18=5,40=1/2;
 3/5=35,7=104,11=2,16=1,25=1,30=1,71=2,74=-5,140=1/1,2,3;
 4//1;
 5/5=2,38=5/2;
 8/6=4,10=90,11=11/1;
 11/6=1,8=1,9=11,15=111,16=1/1,2,10;
 10/6=1,13=1/2;
 6/7=2,8=2,9=2,10=2,28=1/1;
 7/10=1,18=20,25=1/1,2,3,16;
 1/10=4,14=-1,18=20,19=15,26=3/3(2);
 2/9=110/2;
 99//99;
 2/9=110/2;
 3/5=35,7=104,11=2,16=1,25=1,30=1,71=1,74=-5/1,2,3;
 4/5=5,16=3,69=1/1;
 5/5=2,38=5/2;
 7//1,2,3,16;
 1/14=-1,18=20,19=15,26=3/3(-5);
 2/9=110/2;
 6/7=2,8=2,9=2,10=2,19=2,28=1/1;
 99/9=1/99;
 Leave Link    1 at Thu Aug 26 21:28:16 2021, MaxMem= 24159191040 cpu:         1.9
 (Enter /public/home/users/caep010/software/Gaussian09/g09/l101.exe)
 --------
 JOHBUD01
 --------
 Symbolic Z-matrix:
 Charge =  0 Multiplicity = 1
 C                    -0.715     0.8264    2.8101 
 C                     0.715     0.8264    2.2784 
 C                     0.        2.0747    2.5442 
 C                    -0.2376    3.3442    1.8267 
 C                     0.2376    3.3442    3.2618 
 H                    -1.1073    3.615     1.5935 
 H                     1.1073    3.615     3.495 
 H                     0.3735    3.615     1.134 
 H                    -0.3735    3.615     3.9545 
 N                    -1.7284    0.3654    1.8471 
 N                     1.7284    0.3654    3.2414 
 O                    -2.7075   -0.2004    2.3122 
 O                     2.7075   -0.2004    2.7763 
 O                    -1.5527    0.5646    0.6584 
 O                     1.5527    0.5646    4.4301 
 H                    -1.1847    0.4803    3.5636 
 H                     1.1847    0.4803    1.5249 
 
 NAtoms=     17 NQM=       17 NQMF=       0 NMMI=      0 NMMIF=      0
                NMic=       0 NMicF=      0.
                    Isotopes and Nuclear Properties:
 (Nuclear quadrupole moments (NQMom) in fm**2, nuclear magnetic moments (NMagM)
  in nuclear magnetons)

  Atom         1           2           3           4           5           6           7           8           9          10
 IAtWgt=          12          12          12          12          12           1           1           1           1          14
 AtmWgt=  12.0000000  12.0000000  12.0000000  12.0000000  12.0000000   1.0078250   1.0078250   1.0078250   1.0078250  14.0030740
 NucSpn=           0           0           0           0           0           1           1           1           1           2
 AtZEff=   0.0000000   0.0000000   0.0000000   0.0000000   0.0000000   0.0000000   0.0000000   0.0000000   0.0000000   0.0000000
 NQMom=    0.0000000   0.0000000   0.0000000   0.0000000   0.0000000   0.0000000   0.0000000   0.0000000   0.0000000   2.0440000
 NMagM=    0.0000000   0.0000000   0.0000000   0.0000000   0.0000000   2.7928460   2.7928460   2.7928460   2.7928460   0.4037610
 AtZNuc=   6.0000000   6.0000000   6.0000000   6.0000000   6.0000000   1.0000000   1.0000000   1.0000000   1.0000000   7.0000000

  Atom        11          12          13          14          15          16          17
 IAtWgt=          14          16          16          16          16           1           1
 AtmWgt=  14.0030740  15.9949146  15.9949146  15.9949146  15.9949146   1.0078250   1.0078250
 NucSpn=           2           0           0           0           0           1           1
 AtZEff=   0.0000000   0.0000000   0.0000000   0.0000000   0.0000000   0.0000000   0.0000000
 NQMom=    2.0440000   0.0000000   0.0000000   0.0000000   0.0000000   0.0000000   0.0000000
 NMagM=    0.4037610   0.0000000   0.0000000   0.0000000   0.0000000   2.7928460   2.7928460
 AtZNuc=   7.0000000   8.0000000   8.0000000   8.0000000   8.0000000   1.0000000   1.0000000
 Leave Link  101 at Thu Aug 26 21:28:17 2021, MaxMem= 24159191040 cpu:        11.3
 (Enter /public/home/users/caep010/software/Gaussian09/g09/l103.exe)

 GradGradGradGradGradGradGradGradGradGradGradGradGradGradGradGradGradGrad
 Berny optimization.
 Initialization pass.
                           ----------------------------
                           !    Initial Parameters    !
                           ! (Angstroms and Degrees)  !
 --------------------------                            --------------------------
 ! Name  Definition              Value          Derivative Info.                !
 --------------------------------------------------------------------------------
 ! R1    R(1,2)                  1.5256         calculate D2E/DX2 analytically  !
 ! R2    R(1,3)                  1.4629         calculate D2E/DX2 analytically  !
 ! R3    R(1,10)                 1.472          calculate D2E/DX2 analytically  !
 ! R4    R(1,16)                 0.953          calculate D2E/DX2 analytically  !
 ! R5    R(2,3)                  1.4629         calculate D2E/DX2 analytically  !
 ! R6    R(2,11)                 1.472          calculate D2E/DX2 analytically  !
 ! R7    R(2,17)                 0.953          calculate D2E/DX2 analytically  !
 ! R8    R(3,4)                  1.4775         calculate D2E/DX2 analytically  !
 ! R9    R(3,5)                  1.4775         calculate D2E/DX2 analytically  !
 ! R10   R(4,5)                  1.5117         calculate D2E/DX2 analytically  !
 ! R11   R(4,6)                  0.9403         calculate D2E/DX2 analytically  !
 ! R12   R(4,8)                  0.9626         calculate D2E/DX2 analytically  !
 ! R13   R(5,7)                  0.9403         calculate D2E/DX2 analytically  !
 ! R14   R(5,9)                  0.9626         calculate D2E/DX2 analytically  !
 ! R15   R(10,12)                1.2227         calculate D2E/DX2 analytically  !
 ! R16   R(10,14)                1.218          calculate D2E/DX2 analytically  !
 ! R17   R(11,13)                1.2227         calculate D2E/DX2 analytically  !
 ! R18   R(11,15)                1.218          calculate D2E/DX2 analytically  !
 ! A1    A(2,1,10)             114.6632         calculate D2E/DX2 analytically  !
 ! A2    A(2,1,16)             137.5218         calculate D2E/DX2 analytically  !
 ! A3    A(3,1,10)             118.9987         calculate D2E/DX2 analytically  !
 ! A4    A(3,1,16)             133.9871         calculate D2E/DX2 analytically  !
 ! A5    A(10,1,16)             93.6815         calculate D2E/DX2 analytically  !
 ! A6    A(1,2,11)             114.6632         calculate D2E/DX2 analytically  !
 ! A7    A(1,2,17)             137.5218         calculate D2E/DX2 analytically  !
 ! A8    A(3,2,11)             119.002          calculate D2E/DX2 analytically  !
 ! A9    A(3,2,17)             133.9835         calculate D2E/DX2 analytically  !
 ! A10   A(11,2,17)             93.6815         calculate D2E/DX2 analytically  !
 ! A11   A(1,3,4)              137.9747         calculate D2E/DX2 analytically  !
 ! A12   A(1,3,5)              136.3421         calculate D2E/DX2 analytically  !
 ! A13   A(2,3,4)              136.3486         calculate D2E/DX2 analytically  !
 ! A14   A(2,3,5)              137.9716         calculate D2E/DX2 analytically  !
 ! A15   A(3,4,6)              121.1084         calculate D2E/DX2 analytically  !
 ! A16   A(3,4,8)              119.2811         calculate D2E/DX2 analytically  !
 ! A17   A(5,4,6)              121.7488         calculate D2E/DX2 analytically  !
 ! A18   A(5,4,8)              118.9192         calculate D2E/DX2 analytically  !
 ! A19   A(6,4,8)              109.1293         calculate D2E/DX2 analytically  !
 ! A20   A(3,5,7)              121.1084         calculate D2E/DX2 analytically  !
 ! A21   A(3,5,9)              119.2832         calculate D2E/DX2 analytically  !
 ! A22   A(4,5,7)              121.7488         calculate D2E/DX2 analytically  !
 ! A23   A(4,5,9)              118.9192         calculate D2E/DX2 analytically  !
 ! A24   A(7,5,9)              109.1293         calculate D2E/DX2 analytically  !
 ! A25   A(1,10,12)            116.5729         calculate D2E/DX2 analytically  !
 ! A26   A(1,10,14)            119.2045         calculate D2E/DX2 analytically  !
 ! A27   A(12,10,14)           124.2225         calculate D2E/DX2 analytically  !
 ! A28   A(2,11,13)            116.5729         calculate D2E/DX2 analytically  !
 ! A29   A(2,11,15)            119.2045         calculate D2E/DX2 analytically  !
 ! A30   A(13,11,15)           124.2225         calculate D2E/DX2 analytically  !
 ! D1    D(10,1,2,11)         -139.6841         calculate D2E/DX2 analytically  !
 ! D2    D(10,1,2,17)          -12.3756         calculate D2E/DX2 analytically  !
 ! D3    D(16,1,2,11)          -12.3756         calculate D2E/DX2 analytically  !
 ! D4    D(16,1,2,17)          114.9328         calculate D2E/DX2 analytically  !
 ! D5    D(10,1,3,4)            27.4846         calculate D2E/DX2 analytically  !
 ! D6    D(10,1,3,5)           125.0539         calculate D2E/DX2 analytically  !
 ! D7    D(16,1,3,4)          -102.0879         calculate D2E/DX2 analytically  !
 ! D8    D(16,1,3,5)            -4.5186         calculate D2E/DX2 analytically  !
 ! D9    D(2,1,10,12)          148.9663         calculate D2E/DX2 analytically  !
 ! D10   D(2,1,10,14)          -31.1429         calculate D2E/DX2 analytically  !
 ! D11   D(3,1,10,12)         -144.7074         calculate D2E/DX2 analytically  !
 ! D12   D(3,1,10,14)           35.1834         calculate D2E/DX2 analytically  !
 ! D13   D(16,1,10,12)           1.5303         calculate D2E/DX2 analytically  !
 ! D14   D(16,1,10,14)        -178.5789         calculate D2E/DX2 analytically  !
 ! D15   D(11,2,3,4)           125.0489         calculate D2E/DX2 analytically  !
 ! D16   D(11,2,3,5)            27.4751         calculate D2E/DX2 analytically  !
 ! D17   D(17,2,3,4)            -4.5238         calculate D2E/DX2 analytically  !
 ! D18   D(17,2,3,5)          -102.0976         calculate D2E/DX2 analytically  !
 ! D19   D(1,2,11,13)          148.9663         calculate D2E/DX2 analytically  !
 ! D20   D(1,2,11,15)          -31.1429         calculate D2E/DX2 analytically  !
 ! D21   D(3,2,11,13)         -144.7051         calculate D2E/DX2 analytically  !
 ! D22   D(3,2,11,15)           35.1856         calculate D2E/DX2 analytically  !
 ! D23   D(17,2,11,13)           1.5303         calculate D2E/DX2 analytically  !
 ! D24   D(17,2,11,15)        -178.5789         calculate D2E/DX2 analytically  !
 ! D25   D(1,3,4,6)             18.0309         calculate D2E/DX2 analytically  !
 ! D26   D(1,3,4,8)           -122.9724         calculate D2E/DX2 analytically  !
 ! D27   D(2,3,4,6)            118.1619         calculate D2E/DX2 analytically  !
 ! D28   D(2,3,4,8)            -22.8414         calculate D2E/DX2 analytically  !
 ! D29   D(1,3,5,7)            118.1599         calculate D2E/DX2 analytically  !
 ! D30   D(1,3,5,9)            -22.8468         calculate D2E/DX2 analytically  !
 ! D31   D(2,3,5,7)             18.0414         calculate D2E/DX2 analytically  !
 ! D32   D(2,3,5,9)           -122.9654         calculate D2E/DX2 analytically  !
 ! D33   D(6,4,5,7)           -140.4065         calculate D2E/DX2 analytically  !
 ! D34   D(6,4,5,9)              1.0493         calculate D2E/DX2 analytically  !
 ! D35   D(8,4,5,7)              1.0493         calculate D2E/DX2 analytically  !
 ! D36   D(8,4,5,9)            142.5051         calculate D2E/DX2 analytically  !
 --------------------------------------------------------------------------------
 Trust Radius=3.00D-01 FncErr=1.00D-07 GrdErr=1.00D-06
 Number of steps in this run=     94 maximum allowed number of steps=    102.
 GradGradGradGradGradGradGradGradGradGradGradGradGradGradGradGradGradGrad

 Leave Link  103 at Thu Aug 26 21:28:17 2021, MaxMem= 24159191040 cpu:         0.6
 (Enter /public/home/users/caep010/software/Gaussian09/g09/l202.exe)
                          Input orientation:                          
 ---------------------------------------------------------------------
 Center     Atomic      Atomic             Coordinates (Angstroms)
 Number     Number       Type             X           Y           Z
 ---------------------------------------------------------------------
      1          6           0       -0.715000    0.826400    2.810100
      2          6           0        0.715000    0.826400    2.278400
      3          6           0        0.000000    2.074700    2.544200
      4          6           0       -0.237600    3.344200    1.826700
      5          6           0        0.237600    3.344200    3.261800
      6          1           0       -1.107300    3.615000    1.593500
      7          1           0        1.107300    3.615000    3.495000
      8          1           0        0.373500    3.615000    1.134000
      9          1           0       -0.373500    3.615000    3.954500
     10          7           0       -1.728400    0.365400    1.847100
     11          7           0        1.728400    0.365400    3.241400
     12          8           0       -2.707500   -0.200400    2.312200
     13          8           0        2.707500   -0.200400    2.776300
     14          8           0       -1.552700    0.564600    0.658400
     15          8           0        1.552700    0.564600    4.430100
     16          1           0       -1.184700    0.480300    3.563600
     17          1           0        1.184700    0.480300    1.524900
 ---------------------------------------------------------------------
                    Distance matrix (angstroms):
                    1          2          3          4          5
     1  C    0.000000
     2  C    1.525649   0.000000
     3  C    1.462936   1.462917   0.000000
     4  C    2.744869   2.729615   1.477461   0.000000
     5  C    2.729615   2.744869   1.477509   1.511730   0.000000
     6  H    3.067622   3.400905   2.121902   0.940262   2.159934
     7  H    3.400905   3.067622   2.121947   2.159934   0.940262
     8  H    3.430807   3.033573   2.121483   0.962605   2.149264
     9  H    3.033573   3.430807   2.121550   2.149264   0.962605
    10  N    1.472029   2.523637   2.528838   3.331088   3.839242
    11  N    2.523637   1.472029   2.528866   3.839242   3.331088
    12  O    2.296144   3.573369   3.544074   4.347448   4.705268
    13  O    3.573369   2.296144   3.544081   4.705268   4.347448
    14  O    2.323810   2.799179   2.871850   3.289466   4.208211
    15  O    2.799179   2.323810   2.871915   4.208211   3.289466
    16  H    0.952977   2.319566   2.232667   3.480768   3.211844
    17  H    2.319566   0.952977   2.232621   3.211844   3.480768
                    6          7          8          9         10
     6  H    0.000000
     7  H    2.918931   0.000000
     8  H    1.550454   2.472404   0.000000
     9  H    2.472404   1.550454   2.917744   0.000000
    10  N    3.318129   4.616998   3.935276   4.103266   0.000000
    11  N    4.616998   3.318129   4.103266   3.935276   3.727404
    12  O    4.199339   5.523495   5.043609   4.764660   1.222736
    13  O    5.523495   4.199339   4.764660   5.043609   4.567357
    14  O    3.221449   4.942352   3.638871   4.643245   1.218014
    15  O    4.942352   3.221449   4.643245   3.638871   4.180573
    16  H    3.703192   3.883853   4.261137   3.261471   1.804213
    17  H    3.883853   3.703192   3.261471   4.261137   2.933115
                   11         12         13         14         15
    11  N    0.000000
    12  O    4.567357   0.000000
    13  O    1.222736   5.434852   0.000000
    14  O    4.180573   2.157277   4.818717   0.000000
    15  O    1.218014   4.818717   2.157277   4.885615   0.000000
    16  H    2.933115   2.085252   4.028947   2.929628   2.872505
    17  H    1.804213   4.028947   2.085252   2.872505   2.929628
                   16         17
    16  H    0.000000
    17  H    3.125757   0.000000
 Stoichiometry    C5H6N2O4
 Framework group  C1[X(C5H6N2O4)]
 Deg. of freedom    45
 Full point group                 C1      NOp   1
 Largest Abelian subgroup         C1      NOp   1
 Largest concise Abelian subgroup C1      NOp   1
                         Standard orientation:                         
 ---------------------------------------------------------------------
 Center     Atomic      Atomic             Coordinates (Angstroms)
 Number     Number       Type             X           Y           Z
 ---------------------------------------------------------------------
      1          6           0       -0.545669   -0.257246    0.533054
      2          6           0        0.545673   -0.257242   -0.533049
      3          6           0       -0.000020    0.991056   -0.000039
      4          6           0       -0.508266    2.260557   -0.559452
      5          6           0        0.508264    2.260555    0.559473
      6          1           0       -1.397790    2.531356   -0.419780
      7          1           0        1.397788    2.531356    0.419802
      8          1           0       -0.230726    2.531360   -1.440500
      9          1           0        0.230724    2.531352    1.440523
     10          7           0       -1.862601   -0.718246    0.063972
     11          7           0        1.862606   -0.718242   -0.063970
     12          8           0       -2.568832   -1.284050    0.886280
     13          8           0        2.568837   -1.284038   -0.886281
     14          8           0       -2.184240   -0.519043   -1.093795
     15          8           0        2.184245   -0.519045    1.093799
     16          1           0       -0.669302   -0.603349    1.412312
     17          1           0        0.669307   -0.603339   -1.412309
 ---------------------------------------------------------------------
 Rotational constants (GHZ):      1.5583550      0.8935598      0.7047801
 Leave Link  202 at Thu Aug 26 21:28:17 2021, MaxMem= 24159191040 cpu:         1.1
 (Enter /public/home/users/caep010/software/Gaussian09/g09/l301.exe)
 Standard basis: GTBas3 (6D, 7F)
 Ernie: Thresh=  0.10000D-02 Tol=  0.10000D-05 Strict=F.
 There are   371 symmetry adapted cartesian basis functions of A   symmetry.
 There are   338 symmetry adapted basis functions of A   symmetry.
   338 basis functions,   526 primitive gaussians,   371 cartesian basis functions
    41 alpha electrons       41 beta electrons
       nuclear repulsion energy       636.8862275263 Hartrees.
 IExCor=  402 DFT=T Ex+Corr=B3LYP ExCW=0 ScaHFX=  0.200000
 ScaDFX=  0.800000  0.720000  1.000000  0.810000 ScalE2=  1.000000  1.000000
 IRadAn=      0 IRanWt=     -1 IRanGd=            0 ICorTp=0 IEmpDi=  4
 NAtoms=   17 NActive=   17 NUniq=   17 SFac= 1.00D+00 NAtFMM=   60 NAOKFM=F Big=F
 Integral buffers will be    131072 words long.
 Raffenetti 2 integral format.
 Two-electron integral symmetry is turned on.
 Leave Link  301 at Thu Aug 26 21:28:17 2021, MaxMem= 24159191040 cpu:         2.0
 (Enter /public/home/users/caep010/software/Gaussian09/g09/l302.exe)
 NPDir=0 NMtPBC=     1 NCelOv=     1 NCel=       1 NClECP=     1 NCelD=      1
         NCelK=      1 NCelE2=     1 NClLst=     1 CellRange=     0.0.
 One-electron integrals computed using PRISM.
 NBasis=   338 RedAO= T EigKep=  2.20D-04  NBF=   338
 NBsUse=   338 1.00D-06 EigRej= -1.00D+00 NBFU=   338
 Precomputing XC quadrature grid using
 IXCGrd= 4 IRadAn=           0 IRanWt=          -1 IRanGd=           0 AccXCQ= 0.00D+00.
 Generated NRdTot=       0 NPtTot=           0 NUsed=           0 NTot=          32
 NSgBfM=   370   370   371   371   371 MxSgAt=    17 MxSgA2=    17.
 Leave Link  302 at Thu Aug 26 21:28:18 2021, MaxMem= 24159191040 cpu:        17.9
 (Enter /public/home/users/caep010/software/Gaussian09/g09/l303.exe)
 DipDrv:  MaxL=1.
 Leave Link  303 at Thu Aug 26 21:28:18 2021, MaxMem= 24159191040 cpu:         1.2
 (Enter /public/home/users/caep010/software/Gaussian09/g09/l401.exe)
 ExpMin= 1.61D-01 ExpMax= 5.48D+03 ExpMxC= 8.25D+02 IAcc=1 IRadAn=         1 AccDes= 0.00D+00
 Harris functional with IExCor=  402 and IRadAn=       1 diagonalized for initial guess.
 HarFok:  IExCor=  402 AccDes= 0.00D+00 IRadAn=         1 IDoV= 1 UseB2=F ITyADJ=14
 ICtDFT=  3500011 ScaDFX=  1.000000  1.000000  1.000000  1.000000
 FoFCou: FMM=F IPFlag=           0 FMFlag=      100000 FMFlg1=           0
         NFxFlg=           0 DoJE=T BraDBF=F KetDBF=T FulRan=T
         wScrn=  0.000000 ICntrl=     500 IOpCl=  0 I1Cent=   200000004 NGrid=           0
         NMat0=    1 NMatS0=      1 NMatT0=    0 NMatD0=    1 NMtDS0=    0 NMtDT0=    0
 Petite list used in FoFCou.
 Harris En= -604.290948704277    
 JPrj=0 DoOrth=F DoCkMO=F.
 Leave Link  401 at Thu Aug 26 21:28:18 2021, MaxMem= 24159191040 cpu:        16.8
 (Enter /public/home/users/caep010/software/Gaussian09/g09/l502.exe)
 Closed shell SCF:
 Using DIIS extrapolation, IDIIS=  1040.
 Integral symmetry usage will be decided dynamically.
 Keep R1 ints in memory in canonical form, NReq=1667343251.
 IVT=      446027 IEndB=      446027 NGot= 24159191040 MDV= 22517587028
 LenX= 22517587028 LenY= 22517448946
 Requested convergence on RMS density matrix=1.00D-08 within 128 cycles.
 Requested convergence on MAX density matrix=1.00D-06.
 Requested convergence on             energy=1.00D-06.
 No special actions if energy rises.
 FoFCou: FMM=F IPFlag=           0 FMFlag=           0 FMFlg1=           0
         NFxFlg=           0 DoJE=F BraDBF=F KetDBF=F FulRan=T
         wScrn=  0.000000 ICntrl=     600 IOpCl=  0 I1Cent=           0 NGrid=           0
         NMat0=    1 NMatS0=  57291 NMatT0=    0 NMatD0=    1 NMtDS0=    0 NMtDT0=    0
 Symmetry not used in FoFCou.
 Integral accuracy reduced to 1.0D-05 until final iterations.

 Cycle   1  Pass 0  IDiag  1:
 E= -603.777922133900    
 DIIS: error= 2.83D-02 at cycle   1 NSaved=   1.
 NSaved= 1 IEnMin= 1 EnMin= -603.777922133900     IErMin= 1 ErrMin= 2.83D-02
 ErrMax= 2.83D-02  0.00D+00 EMaxC= 1.00D-01 BMatC= 5.50D-01 BMatP= 5.50D-01
 IDIUse=3 WtCom= 7.17D-01 WtEn= 2.83D-01
 Coeff-Com:  0.100D+01
 Coeff-En:   0.100D+01
 Coeff:      0.100D+01
 Gap=     0.093 Goal=   None    Shift=    0.000
 GapD=    0.093 DampG=0.500 DampE=0.500 DampFc=0.2500 IDamp=-1.
 Damping current iteration by 2.50D-01
 RMSDP=4.08D-03 MaxDP=2.28D-01              OVMax= 3.35D-01

 Cycle   2  Pass 0  IDiag  1:
 E= -603.930639220608     Delta-E=       -0.152717086708 Rises=F Damp=T
 DIIS: error= 1.15D-02 at cycle   2 NSaved=   2.
 NSaved= 2 IEnMin= 2 EnMin= -603.930639220608     IErMin= 2 ErrMin= 1.15D-02
 ErrMax= 1.15D-02  0.00D+00 EMaxC= 1.00D-01 BMatC= 8.34D-02 BMatP= 5.50D-01
 IDIUse=3 WtCom= 8.85D-01 WtEn= 1.15D-01
 Coeff-Com: -0.448D+00 0.145D+01
 Coeff-En:   0.000D+00 0.100D+01
 Coeff:     -0.397D+00 0.140D+01
 Gap=     0.220 Goal=   None    Shift=    0.000
 RMSDP=1.30D-03 MaxDP=5.74D-02 DE=-1.53D-01 OVMax= 2.06D-01

 Cycle   3  Pass 0  IDiag  1:
 E= -604.179762614263     Delta-E=       -0.249123393655 Rises=F Damp=F
 DIIS: error= 6.31D-03 at cycle   3 NSaved=   3.
 NSaved= 3 IEnMin= 3 EnMin= -604.179762614263     IErMin= 3 ErrMin= 6.31D-03
 ErrMax= 6.31D-03  0.00D+00 EMaxC= 1.00D-01 BMatC= 1.58D-02 BMatP= 8.34D-02
 IDIUse=3 WtCom= 9.37D-01 WtEn= 6.31D-02
 Coeff-Com: -0.190D+00 0.573D+00 0.617D+00
 Coeff-En:   0.000D+00 0.000D+00 0.100D+01
 Coeff:     -0.178D+00 0.537D+00 0.641D+00
 Gap=     0.210 Goal=   None    Shift=    0.000
 RMSDP=6.07D-04 MaxDP=2.52D-02 DE=-2.49D-01 OVMax= 3.32D-02

 Cycle   4  Pass 0  IDiag  1:
 E= -604.190525498172     Delta-E=       -0.010762883909 Rises=F Damp=F
 DIIS: error= 2.31D-03 at cycle   4 NSaved=   4.
 NSaved= 4 IEnMin= 4 EnMin= -604.190525498172     IErMin= 4 ErrMin= 2.31D-03
 ErrMax= 2.31D-03  0.00D+00 EMaxC= 1.00D-01 BMatC= 5.06D-03 BMatP= 1.58D-02
 IDIUse=3 WtCom= 9.77D-01 WtEn= 2.31D-02
 Coeff-Com: -0.450D-01 0.152D+00 0.364D+00 0.529D+00
 Coeff-En:   0.000D+00 0.000D+00 0.207D+00 0.793D+00
 Coeff:     -0.439D-01 0.148D+00 0.361D+00 0.535D+00
 Gap=     0.212 Goal=   None    Shift=    0.000
 RMSDP=2.82D-04 MaxDP=1.56D-02 DE=-1.08D-02 OVMax= 3.18D-02

 Cycle   5  Pass 0  IDiag  1:
 E= -604.192984522564     Delta-E=       -0.002459024392 Rises=F Damp=F
 DIIS: error= 1.68D-03 at cycle   5 NSaved=   5.
 NSaved= 5 IEnMin= 5 EnMin= -604.192984522564     IErMin= 5 ErrMin= 1.68D-03
 ErrMax= 1.68D-03  0.00D+00 EMaxC= 1.00D-01 BMatC= 2.30D-03 BMatP= 5.06D-03
 IDIUse=3 WtCom= 9.83D-01 WtEn= 1.68D-02
 Coeff-Com: -0.442D-02 0.297D-01 0.190D+00 0.416D+00 0.369D+00
 Coeff-En:   0.000D+00 0.000D+00 0.000D+00 0.311D+00 0.689D+00
 Coeff:     -0.434D-02 0.292D-01 0.187D+00 0.414D+00 0.374D+00
 Gap=     0.211 Goal=   None    Shift=    0.000
 RMSDP=1.43D-04 MaxDP=7.64D-03 DE=-2.46D-03 OVMax= 1.88D-02

 Cycle   6  Pass 0  IDiag  1:
 E= -604.194637927837     Delta-E=       -0.001653405273 Rises=F Damp=F
 DIIS: error= 3.98D-04 at cycle   6 NSaved=   6.
 NSaved= 6 IEnMin= 6 EnMin= -604.194637927837     IErMin= 6 ErrMin= 3.98D-04
 ErrMax= 3.98D-04  0.00D+00 EMaxC= 1.00D-01 BMatC= 1.59D-04 BMatP= 2.30D-03
 IDIUse=3 WtCom= 9.96D-01 WtEn= 3.98D-03
 Coeff-Com:  0.230D-02 0.446D-03 0.697D-01 0.184D+00 0.247D+00 0.496D+00
 Coeff-En:   0.000D+00 0.000D+00 0.000D+00 0.000D+00 0.706D-01 0.929D+00
 Coeff:      0.230D-02 0.444D-03 0.694D-01 0.183D+00 0.247D+00 0.498D+00
 Gap=     0.209 Goal=   None    Shift=    0.000
 RMSDP=4.19D-05 MaxDP=1.91D-03 DE=-1.65D-03 OVMax= 3.74D-03

 Cycle   7  Pass 0  IDiag  1:
 E= -604.194763467938     Delta-E=       -0.000125540101 Rises=F Damp=F
 DIIS: error= 1.07D-04 at cycle   7 NSaved=   7.
 NSaved= 7 IEnMin= 7 EnMin= -604.194763467938     IErMin= 7 ErrMin= 1.07D-04
 ErrMax= 1.07D-04  0.00D+00 EMaxC= 1.00D-01 BMatC= 6.22D-06 BMatP= 1.59D-04
 IDIUse=3 WtCom= 9.99D-01 WtEn= 1.07D-03
 Coeff-Com:  0.166D-02-0.292D-02 0.172D-01 0.546D-01 0.921D-01 0.249D+00
 Coeff-Com:  0.588D+00
 Coeff-En:   0.000D+00 0.000D+00 0.000D+00 0.000D+00 0.000D+00 0.000D+00
 Coeff-En:   0.100D+01
 Coeff:      0.166D-02-0.291D-02 0.172D-01 0.546D-01 0.920D-01 0.249D+00
 Coeff:      0.588D+00
 Gap=     0.209 Goal=   None    Shift=    0.000
 RMSDP=8.23D-06 MaxDP=5.62D-04 DE=-1.26D-04 OVMax= 7.42D-04

 Initial convergence to 1.0D-05 achieved.  Increase integral accuracy.
 Cycle   8  Pass 1  IDiag  1:
 E= -604.194737195622     Delta-E=        0.000026272317 Rises=F Damp=F
 DIIS: error= 2.81D-05 at cycle   1 NSaved=   1.
 NSaved= 1 IEnMin= 1 EnMin= -604.194737195622     IErMin= 1 ErrMin= 2.81D-05
 ErrMax= 2.81D-05  0.00D+00 EMaxC= 1.00D-01 BMatC= 4.95D-07 BMatP= 4.95D-07
 IDIUse=1 WtCom= 1.00D+00 WtEn= 0.00D+00
 Coeff-Com:  0.100D+01
 Coeff:      0.100D+01
 Gap=     0.209 Goal=   None    Shift=    0.000
 RMSDP=8.23D-06 MaxDP=5.62D-04 DE= 2.63D-05 OVMax= 4.10D-04

 Cycle   9  Pass 1  IDiag  1:
 E= -604.194737005568     Delta-E=        0.000000190054 Rises=F Damp=F
 DIIS: error= 4.31D-05 at cycle   2 NSaved=   2.
 NSaved= 2 IEnMin= 1 EnMin= -604.194737195622     IErMin= 1 ErrMin= 2.81D-05
 ErrMax= 4.31D-05  0.00D+00 EMaxC= 1.00D-01 BMatC= 6.96D-07 BMatP= 4.95D-07
 IDIUse=1 WtCom= 1.00D+00 WtEn= 0.00D+00
 Coeff-Com:  0.547D+00 0.453D+00
 Coeff:      0.547D+00 0.453D+00
 Gap=     0.209 Goal=   None    Shift=    0.000
 RMSDP=2.85D-06 MaxDP=1.83D-04 DE= 1.90D-07 OVMax= 2.75D-04

 Cycle  10  Pass 1  IDiag  1:
 E= -604.194737626717     Delta-E=       -0.000000621149 Rises=F Damp=F
 DIIS: error= 5.86D-06 at cycle   3 NSaved=   3.
 NSaved= 3 IEnMin= 3 EnMin= -604.194737626717     IErMin= 3 ErrMin= 5.86D-06
 ErrMax= 5.86D-06  0.00D+00 EMaxC= 1.00D-01 BMatC= 2.94D-08 BMatP= 4.95D-07
 IDIUse=1 WtCom= 1.00D+00 WtEn= 0.00D+00
 Coeff-Com:  0.134D+00 0.192D+00 0.674D+00
 Coeff:      0.134D+00 0.192D+00 0.674D+00
 Gap=     0.209 Goal=   None    Shift=    0.000
 RMSDP=8.54D-07 MaxDP=4.50D-05 DE=-6.21D-07 OVMax= 7.20D-05

 Cycle  11  Pass 1  IDiag  1:
 E= -604.194737633208     Delta-E=       -0.000000006492 Rises=F Damp=F
 DIIS: error= 5.64D-06 at cycle   4 NSaved=   4.
 NSaved= 4 IEnMin= 4 EnMin= -604.194737633208     IErMin= 4 ErrMin= 5.64D-06
 ErrMax= 5.64D-06  0.00D+00 EMaxC= 1.00D-01 BMatC= 2.43D-08 BMatP= 2.94D-08
 IDIUse=1 WtCom= 1.00D+00 WtEn= 0.00D+00
 Coeff-Com:  0.847D-02 0.692D-01 0.507D+00 0.415D+00
 Coeff:      0.847D-02 0.692D-01 0.507D+00 0.415D+00
 Gap=     0.209 Goal=   None    Shift=    0.000
 RMSDP=4.70D-07 MaxDP=2.95D-05 DE=-6.49D-09 OVMax= 5.85D-05

 Cycle  12  Pass 1  IDiag  1:
 E= -604.194737649074     Delta-E=       -0.000000015866 Rises=F Damp=F
 DIIS: error= 1.88D-06 at cycle   5 NSaved=   5.
 NSaved= 5 IEnMin= 5 EnMin= -604.194737649074     IErMin= 5 ErrMin= 1.88D-06
 ErrMax= 1.88D-06  0.00D+00 EMaxC= 1.00D-01 BMatC= 3.23D-09 BMatP= 2.43D-08
 IDIUse=1 WtCom= 1.00D+00 WtEn= 0.00D+00
 Coeff-Com: -0.879D-02 0.298D-01 0.302D+00 0.307D+00 0.370D+00
 Coeff:     -0.879D-02 0.298D-01 0.302D+00 0.307D+00 0.370D+00
 Gap=     0.209 Goal=   None    Shift=    0.000
 RMSDP=1.62D-07 MaxDP=1.01D-05 DE=-1.59D-08 OVMax= 1.87D-05

 Cycle  13  Pass 1  IDiag  1:
 E= -604.194737651501     Delta-E=       -0.000000002427 Rises=F Damp=F
 DIIS: error= 4.83D-07 at cycle   6 NSaved=   6.
 NSaved= 6 IEnMin= 6 EnMin= -604.194737651501     IErMin= 6 ErrMin= 4.83D-07
 ErrMax= 4.83D-07  0.00D+00 EMaxC= 1.00D-01 BMatC= 1.12D-10 BMatP= 3.23D-09
 IDIUse=1 WtCom= 1.00D+00 WtEn= 0.00D+00
 Coeff-Com: -0.567D-02 0.140D-01 0.154D+00 0.162D+00 0.229D+00 0.446D+00
 Coeff:     -0.567D-02 0.140D-01 0.154D+00 0.162D+00 0.229D+00 0.446D+00
 Gap=     0.209 Goal=   None    Shift=    0.000
 RMSDP=2.62D-08 MaxDP=1.54D-06 DE=-2.43D-09 OVMax= 2.11D-06

 Cycle  14  Pass 1  IDiag  1:
 E= -604.194737651577     Delta-E=       -0.000000000076 Rises=F Damp=F
 DIIS: error= 1.19D-07 at cycle   7 NSaved=   7.
 NSaved= 7 IEnMin= 7 EnMin= -604.194737651577     IErMin= 7 ErrMin= 1.19D-07
 ErrMax= 1.19D-07  0.00D+00 EMaxC= 1.00D-01 BMatC= 7.31D-12 BMatP= 1.12D-10
 IDIUse=1 WtCom= 1.00D+00 WtEn= 0.00D+00
 Coeff-Com: -0.153D-02 0.233D-02 0.316D-01 0.334D-01 0.581D-01 0.235D+00
 Coeff-Com:  0.642D+00
 Coeff:     -0.153D-02 0.233D-02 0.316D-01 0.334D-01 0.581D-01 0.235D+00
 Coeff:      0.642D+00
 Gap=     0.209 Goal=   None    Shift=    0.000
 RMSDP=7.24D-09 MaxDP=3.34D-07 DE=-7.59D-11 OVMax= 4.60D-07

 SCF Done:  E(RB3LYP) =  -604.194737652     A.U. after   14 cycles
            NFock= 14  Conv=0.72D-08     -V/T= 2.0038
 KE= 6.018849177796D+02 PE=-2.688311544835D+03 EE= 8.453456618779D+02
 Leave Link  502 at Thu Aug 26 21:29:02 2021, MaxMem= 24159191040 cpu:       290.6
 (Enter /public/home/users/caep010/software/Gaussian09/g09/l801.exe)
 DoSCS=F DFT=T ScalE2(SS,OS)=  1.000000  1.000000
 Range of M.O.s used for correlation:     1   338
 NBasis=   338 NAE=    41 NBE=    41 NFC=     0 NFV=     0
 NROrb=    338 NOA=    41 NOB=    41 NVA=   297 NVB=   297

 **** Warning!!: The largest alpha MO coefficient is  0.24275114D+02

 Leave Link  801 at Thu Aug 26 21:29:02 2021, MaxMem= 24159191040 cpu:         0.6
 (Enter /public/home/users/caep010/software/Gaussian09/g09/l1101.exe)
 Using compressed storage, NAtomX=    17.
 Will process     18 centers per pass.
 Leave Link 1101 at Thu Aug 26 21:29:03 2021, MaxMem= 24159191040 cpu:        19.7
 (Enter /public/home/users/caep010/software/Gaussian09/g09/l1102.exe)
 Symmetrizing basis deriv contribution to polar:
 IMax=3 JMax=2 DiffMx= 0.00D+00
 Leave Link 1102 at Thu Aug 26 21:29:03 2021, MaxMem= 24159191040 cpu:         0.9
 (Enter /public/home/users/caep010/software/Gaussian09/g09/l1110.exe)
 Forming Gx(P) for the SCF density, NAtomX=    17.
 Integral derivatives from FoFJK, PRISM(SPDF).
 Do as many integral derivatives as possible in FoFJK.
 G2DrvN: MDV=   24159190800.
 G2DrvN: will do    18 centers at a time, making    1 passes.
 Calling FoFCou, ICntrl=  3107 FMM=F I1Cent=   0 AccDes= 0.00D+00.
 FoFJK:  IHMeth= 1 ICntrl=    3107 DoSepK=F KAlg= 0 I1Cent=   0 FoldK=F
 IRaf=         0 NMat=   1 IRICut=       1 DoRegI=T DoRafI=F ISym2E= 0.
 FoFCou: FMM=F IPFlag=           0 FMFlag=      100000 FMFlg1=           0
         NFxFlg=           0 DoJE=F BraDBF=F KetDBF=F FulRan=T
         wScrn=  0.000000 ICntrl=    3107 IOpCl=  0 I1Cent=           0 NGrid=           0
         NMat0=    1 NMatS0=      1 NMatT0=    0 NMatD0=    1 NMtDS0=    0 NMtDT0=    0
 Symmetry not used in FoFCou.
 End of G2Drv F.D. properties file   721 does not exist.
 End of G2Drv F.D. properties file   722 does not exist.
 End of G2Drv F.D. properties file   788 does not exist.
 Leave Link 1110 at Thu Aug 26 21:29:22 2021, MaxMem= 24159191040 cpu:       611.0
 (Enter /public/home/users/caep010/software/Gaussian09/g09/l1002.exe)
 Minotr:  Closed shell wavefunction.
          IDoAtm=11111111111111111
          Direct CPHF calculation.
          Differentiating once with respect to nuclear coordinates.
          Requested convergence is 1.0D-08 RMS, and 1.0D-07 maximum.
          Secondary convergence is 1.0D-12 RMS, and 1.0D-12 maximum.
          NewPWx=T KeepS1=F KeepF1=F KeepIn=T MapXYZ=F SortEE=F KeepMc=T.
          MDV=   24159190528 using IRadAn=       2.
 Generate precomputed XC quadrature information.
 Keep R1 ints in memory in canonical form, NReq=1666903475.
 FoFCou: FMM=F IPFlag=           0 FMFlag=           0 FMFlg1=           0
         NFxFlg=           0 DoJE=F BraDBF=F KetDBF=F FulRan=T
         wScrn=  0.000000 ICntrl=     600 IOpCl=  0 I1Cent=           0 NGrid=           0
         NMat0=    1 NMatS0=  57291 NMatT0=    0 NMatD0=    1 NMtDS0=    0 NMtDT0=    0
 Symmetry not used in FoFCou.
          Solving linear equations simultaneously, MaxMat=       0.
          There are    54 degrees of freedom in the 1st order CPHF.  IDoFFX=6 NUNeed=     0.
     48 vectors produced by pass  0 Test12= 2.26D-14 1.85D-09 XBig12= 2.55D-01 1.31D-01.
 AX will form    48 AO Fock derivatives at one time.
     48 vectors produced by pass  1 Test12= 2.26D-14 1.85D-09 XBig12= 4.14D-02 5.17D-02.
     48 vectors produced by pass  2 Test12= 2.26D-14 1.85D-09 XBig12= 5.50D-04 2.84D-03.
     48 vectors produced by pass  3 Test12= 2.26D-14 1.85D-09 XBig12= 9.88D-06 3.60D-04.
     48 vectors produced by pass  4 Test12= 2.26D-14 1.85D-09 XBig12= 5.15D-08 2.66D-05.
     48 vectors produced by pass  5 Test12= 2.26D-14 1.85D-09 XBig12= 9.80D-11 1.16D-06.
     23 vectors produced by pass  6 Test12= 2.26D-14 1.85D-09 XBig12= 1.69D-13 4.15D-08.
      2 vectors produced by pass  7 Test12= 2.26D-14 1.85D-09 XBig12= 3.66D-16 2.24D-09.
 InvSVY:  IOpt=1 It=  1 EMax= 5.55D-16
 Solved reduced A of dimension   313 with    54 vectors.
 End of Minotr F.D. properties file   721 does not exist.
 End of Minotr F.D. properties file   722 does not exist.
 End of Minotr F.D. properties file   788 does not exist.
 Leave Link 1002 at Thu Aug 26 21:29:55 2021, MaxMem= 24159191040 cpu:      1042.3
 (Enter /public/home/users/caep010/software/Gaussian09/g09/l601.exe)
 Copying SCF densities to generalized density rwf, IOpCl= 0 IROHF=0.

 **********************************************************************

            Population analysis using the SCF density.

 **********************************************************************

 Orbital symmetries:
       Occupied  (A) (A) (A) (A) (A) (A) (A) (A) (A) (A) (A) (A)
                 (A) (A) (A) (A) (A) (A) (A) (A) (A) (A) (A) (A)
                 (A) (A) (A) (A) (A) (A) (A) (A) (A) (A) (A) (A)
                 (A) (A) (A) (A) (A)
       Virtual   (A) (A) (A) (A) (A) (A) (A) (A) (A) (A) (A) (A)
                 (A) (A) (A) (A) (A) (A) (A) (A) (A) (A) (A) (A)
                 (A) (A) (A) (A) (A) (A) (A) (A) (A) (A) (A) (A)
                 (A) (A) (A) (A) (A) (A) (A) (A) (A) (A) (A) (A)
                 (A) (A) (A) (A) (A) (A) (A) (A) (A) (A) (A) (A)
                 (A) (A) (A) (A) (A) (A) (A) (A) (A) (A) (A) (A)
                 (A) (A) (A) (A) (A) (A) (A) (A) (A) (A) (A) (A)
                 (A) (A) (A) (A) (A) (A) (A) (A) (A) (A) (A) (A)
                 (A) (A) (A) (A) (A) (A) (A) (A) (A) (A) (A) (A)
                 (A) (A) (A) (A) (A) (A) (A) (A) (A) (A) (A) (A)
                 (A) (A) (A) (A) (A) (A) (A) (A) (A) (A) (A) (A)
                 (A) (A) (A) (A) (A) (A) (A) (A) (A) (A) (A) (A)
                 (A) (A) (A) (A) (A) (A) (A) (A) (A) (A) (A) (A)
                 (A) (A) (A) (A) (A) (A) (A) (A) (A) (A) (A) (A)
                 (A) (A) (A) (A) (A) (A) (A) (A) (A) (A) (A) (A)
                 (A) (A) (A) (A) (A) (A) (A) (A) (A) (A) (A) (A)
                 (A) (A) (A) (A) (A) (A) (A) (A) (A) (A) (A) (A)
                 (A) (A) (A) (A) (A) (A) (A) (A) (A) (A) (A) (A)
                 (A) (A) (A) (A) (A) (A) (A) (A) (A) (A) (A) (A)
                 (A) (A) (A) (A) (A) (A) (A) (A) (A) (A) (A) (A)
                 (A) (A) (A) (A) (A) (A) (A) (A) (A) (A) (A) (A)
                 (A) (A) (A) (A) (A) (A) (A) (A) (A) (A) (A) (A)
                 (A) (A) (A) (A) (A) (A) (A) (A) (A) (A) (A) (A)
                 (A) (A) (A) (A) (A) (A) (A) (A) (A) (A) (A) (A)
                 (A) (A) (A) (A) (A) (A) (A) (A) (A)
 The electronic state is 1-A.
 Alpha  occ. eigenvalues --  -19.18820 -19.18820 -19.18470 -19.18470 -14.57520
 Alpha  occ. eigenvalues --  -14.57520 -10.27746 -10.27723 -10.26392 -10.21016
 Alpha  occ. eigenvalues --  -10.20991  -1.24627  -1.24461  -1.06926  -1.06904
 Alpha  occ. eigenvalues --   -0.96700  -0.88402  -0.81494  -0.73275  -0.69128
 Alpha  occ. eigenvalues --   -0.62008  -0.60773  -0.58831  -0.56746  -0.55802
 Alpha  occ. eigenvalues --   -0.55553  -0.53428  -0.53054  -0.51439  -0.49481
 Alpha  occ. eigenvalues --   -0.42903  -0.42100  -0.39371  -0.36436  -0.34173
 Alpha  occ. eigenvalues --   -0.32458  -0.32446  -0.31855  -0.31438  -0.30539
 Alpha  occ. eigenvalues --   -0.30014
 Alpha virt. eigenvalues --   -0.09075  -0.06701   0.01447   0.08306   0.11002
 Alpha virt. eigenvalues --    0.11957   0.14145   0.15329   0.16041   0.17808
 Alpha virt. eigenvalues --    0.18179   0.18924   0.21754   0.22191   0.24886
 Alpha virt. eigenvalues --    0.26523   0.28411   0.28689   0.29798   0.34136
 Alpha virt. eigenvalues --    0.35130   0.38240   0.38726   0.39645   0.43198
 Alpha virt. eigenvalues --    0.44664   0.45099   0.50468   0.50870   0.51297
 Alpha virt. eigenvalues --    0.51519   0.52576   0.53193   0.55492   0.59991
 Alpha virt. eigenvalues --    0.61298   0.62724   0.67182   0.68878   0.70403
 Alpha virt. eigenvalues --    0.71406   0.72885   0.73109   0.74000   0.74632
 Alpha virt. eigenvalues --    0.76975   0.79290   0.79433   0.80022   0.81414
 Alpha virt. eigenvalues --    0.81774   0.84569   0.85671   0.85766   0.87647
 Alpha virt. eigenvalues --    0.88037   0.89251   0.90886   0.92439   0.93926
 Alpha virt. eigenvalues --    0.94422   0.96387   0.97305   0.97308   0.98313
 Alpha virt. eigenvalues --    0.99201   1.00262   1.01584   1.05516   1.08949
 Alpha virt. eigenvalues --    1.09312   1.10627   1.12484   1.13076   1.14753
 Alpha virt. eigenvalues --    1.16493   1.21544   1.22538   1.23781   1.26302
 Alpha virt. eigenvalues --    1.27415   1.27808   1.29672   1.31837   1.32241
 Alpha virt. eigenvalues --    1.34233   1.37921   1.40913   1.42690   1.44113
 Alpha virt. eigenvalues --    1.44199   1.46376   1.49171   1.49283   1.50738
 Alpha virt. eigenvalues --    1.54204   1.54280   1.55702   1.57042   1.60062
 Alpha virt. eigenvalues --    1.61439   1.64254   1.65671   1.68085   1.70062
 Alpha virt. eigenvalues --    1.70919   1.74418   1.76063   1.76704   1.79761
 Alpha virt. eigenvalues --    1.79854   1.81385   1.88993   1.91533   1.95201
 Alpha virt. eigenvalues --    2.00015   2.03857   2.06346   2.09127   2.09914
 Alpha virt. eigenvalues --    2.15358   2.21568   2.24475   2.25210   2.30978
 Alpha virt. eigenvalues --    2.35908   2.41300   2.42949   2.43741   2.53457
 Alpha virt. eigenvalues --    2.55851   2.66911   2.69350   2.71637   2.71728
 Alpha virt. eigenvalues --    2.71857   2.86319   2.89583   2.90881   2.93719
 Alpha virt. eigenvalues --    2.98714   2.98996   3.00371   3.01878   3.07903
 Alpha virt. eigenvalues --    3.08680   3.09823   3.12039   3.14920   3.15735
 Alpha virt. eigenvalues --    3.18629   3.25089   3.26618   3.26756   3.29693
 Alpha virt. eigenvalues --    3.32554   3.33573   3.34921   3.35712   3.43037
 Alpha virt. eigenvalues --    3.45228   3.47104   3.49951   3.51591   3.54049
 Alpha virt. eigenvalues --    3.55051   3.57782   3.59416   3.59809   3.61261
 Alpha virt. eigenvalues --    3.65319   3.66514   3.68051   3.68067   3.73140
 Alpha virt. eigenvalues --    3.76165   3.78447   3.81910   3.82654   3.91673
 Alpha virt. eigenvalues --    3.93821   4.00583   4.00998   4.02032   4.05372
 Alpha virt. eigenvalues --    4.06686   4.06876   4.08657   4.11468   4.14236
 Alpha virt. eigenvalues --    4.16577   4.19010   4.19054   4.20500   4.22394
 Alpha virt. eigenvalues --    4.22940   4.25261   4.27126   4.27304   4.30012
 Alpha virt. eigenvalues --    4.32033   4.33842   4.34245   4.35765   4.37462
 Alpha virt. eigenvalues --    4.37585   4.38381   4.41090   4.44820   4.48518
 Alpha virt. eigenvalues --    4.49884   4.51352   4.53820   4.57775   4.58224
 Alpha virt. eigenvalues --    4.59131   4.60686   4.61706   4.62126   4.62258
 Alpha virt. eigenvalues --    4.65935   4.67309   4.72261   4.73129   4.73674
 Alpha virt. eigenvalues --    4.76718   4.80321   4.83966   4.88158   4.89614
 Alpha virt. eigenvalues --    4.94563   4.95425   4.98252   4.99072   5.00482
 Alpha virt. eigenvalues --    5.01659   5.02715   5.04869   5.05433   5.06740
 Alpha virt. eigenvalues --    5.07633   5.08573   5.12730   5.16030   5.16950
 Alpha virt. eigenvalues --    5.18962   5.21175   5.21747   5.27721   5.28859
 Alpha virt. eigenvalues --    5.33576   5.35558   5.38704   5.41694   5.41849
 Alpha virt. eigenvalues --    5.53271   5.53754   5.58650   5.60295   5.61641
 Alpha virt. eigenvalues --    5.70034   5.70282   5.80044   5.86289   5.91521
 Alpha virt. eigenvalues --    5.93267   6.03376   6.04223   6.07850   6.10686
 Alpha virt. eigenvalues --    6.20263   6.21206   6.24369   6.24929   6.28192
 Alpha virt. eigenvalues --    6.42567   6.57077   6.70529   6.71910   6.80670
 Alpha virt. eigenvalues --    6.86170   6.89209   6.99139   7.05868  10.60215
 Alpha virt. eigenvalues --   11.04480  11.06543  11.35134  11.47719  12.02260
 Alpha virt. eigenvalues --   12.45781  12.91108  12.93416  13.10076  13.18814
 Alpha virt. eigenvalues --   15.51467  15.79977
          Condensed to atoms (all electrons):
               1          2          3          4          5          6
     1  C    5.110815   0.236939   0.317289  -0.035571  -0.027964  -0.005099
     2  C    0.236939   5.110811   0.317297  -0.027970  -0.035568   0.001665
     3  C    0.317289   0.317297   4.513905   0.356495   0.356471  -0.003783
     4  C   -0.035571  -0.027970   0.356495   4.904589   0.315313   0.387486
     5  C   -0.027964  -0.035568   0.356471   0.315313   4.904595  -0.015772
     6  H   -0.005099   0.001665  -0.003783   0.387486  -0.015772   0.560645
     7  H    0.001664  -0.005097  -0.003783  -0.015772   0.387489   0.003223
     8  H    0.002565  -0.005094  -0.003319   0.387578  -0.019897  -0.055974
     9  H   -0.005093   0.002564  -0.003319  -0.019898   0.387585  -0.006002
    10  N    0.342242  -0.020510  -0.023550  -0.005706   0.002391   0.000854
    11  N   -0.020508   0.342239  -0.023552   0.002391  -0.005706  -0.000055
    12  O   -0.115853   0.004206   0.003472   0.000217  -0.000079  -0.000065
    13  O    0.004206  -0.115852   0.003472  -0.000079   0.000217   0.000001
    14  O   -0.136706   0.015451   0.005974   0.005588   0.000442   0.000599
    15  O    0.015451  -0.136704   0.005973   0.000442   0.005589  -0.000003
    16  H    0.345103  -0.024164  -0.026305   0.002837  -0.005682   0.000040
    17  H   -0.024163   0.345100  -0.026307  -0.005682   0.002838  -0.000001
               7          8          9         10         11         12
     1  C    0.001664   0.002565  -0.005093   0.342242  -0.020508  -0.115853
     2  C   -0.005097  -0.005094   0.002564  -0.020510   0.342239   0.004206
     3  C   -0.003783  -0.003319  -0.003319  -0.023550  -0.023552   0.003472
     4  C   -0.015772   0.387578  -0.019898  -0.005706   0.002391   0.000217
     5  C    0.387489  -0.019897   0.387585   0.002391  -0.005706  -0.000079
     6  H    0.003223  -0.055974  -0.006002   0.000854  -0.000055  -0.000065
     7  H    0.560642  -0.006002  -0.055975  -0.000055   0.000854   0.000001
     8  H   -0.006002   0.563403   0.003581   0.000238   0.000033  -0.000002
     9  H   -0.055975   0.003581   0.563395   0.000033   0.000238  -0.000005
    10  N   -0.000055   0.000238   0.000033   5.188364   0.000519   0.543790
    11  N    0.000854   0.000033   0.000238   0.000519   5.188377  -0.000005
    12  O    0.000001  -0.000002  -0.000005   0.543790  -0.000005   7.989450
    13  O   -0.000065  -0.000005  -0.000002  -0.000005   0.543785  -0.000000
    14  O   -0.000003  -0.000131   0.000009   0.537233   0.000299  -0.091630
    15  O    0.000599   0.000009  -0.000131   0.000299   0.537236  -0.000002
    16  H   -0.000001  -0.000087   0.000660  -0.036329  -0.000956   0.025063
    17  H    0.000040   0.000660  -0.000087  -0.000956  -0.036328   0.000142
              13         14         15         16         17
     1  C    0.004206  -0.136706   0.015451   0.345103  -0.024163
     2  C   -0.115852   0.015451  -0.136704  -0.024164   0.345100
     3  C    0.003472   0.005974   0.005973  -0.026305  -0.026307
     4  C   -0.000079   0.005588   0.000442   0.002837  -0.005682
     5  C    0.000217   0.000442   0.005589  -0.005682   0.002838
     6  H    0.000001   0.000599  -0.000003   0.000040  -0.000001
     7  H   -0.000065  -0.000003   0.000599  -0.000001   0.000040
     8  H   -0.000005  -0.000131   0.000009  -0.000087   0.000660
     9  H   -0.000002   0.000009  -0.000131   0.000660  -0.000087
    10  N   -0.000005   0.537233   0.000299  -0.036329  -0.000956
    11  N    0.543785   0.000299   0.537236  -0.000956  -0.036328
    12  O   -0.000000  -0.091630  -0.000002   0.025063   0.000142
    13  O    7.989452  -0.000002  -0.091631   0.000142   0.025062
    14  O   -0.000002   8.012376  -0.000005   0.009550   0.004674
    15  O   -0.091631  -0.000005   8.012370   0.004674   0.009550
    16  H    0.000142   0.009550   0.004674   0.577470   0.000612
    17  H    0.025062   0.004674   0.009550   0.000612   0.577476
 Mulliken charges:
               1
     1  C   -0.005318
     2  C   -0.005314
     3  C    0.233568
     4  C   -0.252257
     5  C   -0.252261
     6  H    0.132241
     7  H    0.132243
     8  H    0.132445
     9  H    0.132447
    10  N    0.471146
    11  N    0.471139
    12  O   -0.358696
    13  O   -0.358693
    14  O   -0.363718
    15  O   -0.363714
    16  H    0.127371
    17  H    0.127370
 Sum of Mulliken charges =  -0.00000
 Mulliken charges with hydrogens summed into heavy atoms:
               1
     1  C    0.122054
     2  C    0.122055
     3  C    0.233568
     4  C    0.012430
     5  C    0.012429
    10  N    0.471146
    11  N    0.471139
    12  O   -0.358696
    13  O   -0.358693
    14  O   -0.363718
    15  O   -0.363714
 APT charges:
               1
     1  C   -0.319679
     2  C   -0.319670
     3  C   -0.500491
     4  C   -0.540161
     5  C   -0.540229
     6  H    0.458219
     7  H    0.458223
     8  H    0.456489
     9  H    0.456510
    10  N   -1.014680
    11  N   -1.014683
    12  O    0.608448
    13  O    0.608448
    14  O    0.236030
    15  O    0.236037
    16  H    0.365598
    17  H    0.365594
 Sum of APT charges =  -0.00000
 APT charges with hydrogens summed into heavy atoms:
               1
     1  C    0.045919
     2  C    0.045924
     3  C   -0.500491
     4  C    0.374546
     5  C    0.374504
    10  N   -1.014680
    11  N   -1.014683
    12  O    0.608448
    13  O    0.608448
    14  O    0.236030
    15  O    0.236037
 Electronic spatial extent (au):  <R**2>=           1652.2104
 Charge=             -0.0000 electrons
 Dipole moment (field-independent basis, Debye):
    X=              0.0000    Y=              3.7722    Z=             -0.0000  Tot=              3.7722
 Quadrupole moment (field-independent basis, Debye-Ang):
   XX=            -76.7418   YY=            -56.9735   ZZ=            -62.6870
   XY=             -0.0001   XZ=             -1.9273   YZ=             -0.0001
 Traceless Quadrupole moment (field-independent basis, Debye-Ang):
   XX=            -11.2744   YY=              8.4939   ZZ=              2.7805
   XY=             -0.0001   XZ=             -1.9273   YZ=             -0.0001
 Octapole moment (field-independent basis, Debye-Ang**2):
  XXX=              0.0004  YYY=             -1.4039  ZZZ=              0.0000  XYY=             -0.0000
  XXY=             22.0256  XXZ=              0.0000  XZZ=              0.0001  YZZ=              2.6162
  YYZ=             -0.0000  XYZ=             -2.9679
 Hexadecapole moment (field-independent basis, Debye-Ang**3):
 XXXX=          -1162.0659 YYYY=           -627.0544 ZZZZ=           -241.3382 XXXY=             -0.0005
 XXXZ=              3.1010 YYYX=             -0.0007 YYYZ=              0.0001 ZZZX=             -4.7380
 ZZZY=             -0.0000 XXYY=           -293.2008 XXZZ=           -241.7240 YYZZ=           -140.7150
 XXYZ=              0.0001 YYXZ=             12.8832 ZZXY=              0.0000
 N-N= 6.368862275263D+02 E-N=-2.688311548094D+03  KE= 6.018849177796D+02
  Exact polarizability:   0.000   0.000   0.000   0.000   0.000   0.000
 Approx polarizability: 116.736   0.001 109.626 -10.337   0.000 147.102
 No NMR shielding tensors so no spin-rotation constants.
 Leave Link  601 at Thu Aug 26 21:29:56 2021, MaxMem= 24159191040 cpu:        15.1
 (Enter /public/home/users/caep010/software/Gaussian09/g09/l701.exe)
 Compute integral second derivatives.
 ... and contract with generalized density number  0.
 Leave Link  701 at Thu Aug 26 21:29:56 2021, MaxMem= 24159191040 cpu:        17.5
 (Enter /public/home/users/caep010/software/Gaussian09/g09/l702.exe)
 L702 exits ... SP integral derivatives will be done elsewhere.
 Leave Link  702 at Thu Aug 26 21:29:56 2021, MaxMem= 24159191040 cpu:         0.5
 (Enter /public/home/users/caep010/software/Gaussian09/g09/l703.exe)
 Compute integral second derivatives, UseDBF=F ICtDFT=           0.
 Integral derivatives from FoFJK, PRISM(SPDF).
 Calling FoFJK, ICntrl=    100147 FMM=F ISym2X=0 I1Cent= 0 IOpClX= 0 NMat=1 NMatS=1 NMatT=0.
 FoFJK:  IHMeth= 1 ICntrl=  100147 DoSepK=F KAlg= 0 I1Cent=   0 FoldK=F
 IRaf=         0 NMat=   1 IRICut=       1 DoRegI=T DoRafI=F ISym2E= 0.
 FoFCou: FMM=F IPFlag=           0 FMFlag=      100000 FMFlg1=         800
         NFxFlg=           0 DoJE=F BraDBF=F KetDBF=F FulRan=T
         wScrn=  0.000000 ICntrl=  100147 IOpCl=  0 I1Cent=           0 NGrid=           0
         NMat0=    1 NMatS0=      1 NMatT0=    0 NMatD0=    1 NMtDS0=    0 NMtDT0=    0
 Symmetry not used in FoFCou.
 Leave Link  703 at Thu Aug 26 21:30:33 2021, MaxMem= 24159191040 cpu:      1146.9
 (Enter /public/home/users/caep010/software/Gaussian09/g09/l716.exe)
 Dipole        = 1.40209899D-05 1.48410079D+00-9.96363754D-06
 Polarizability= 0.00000000D+00 0.00000000D+00 0.00000000D+00
                 0.00000000D+00 0.00000000D+00 0.00000000D+00
 ***** Axes restored to original set *****
 -------------------------------------------------------------------
 Center     Atomic                   Forces (Hartrees/Bohr)
 Number     Number              X              Y              Z
 -------------------------------------------------------------------
      1        6           0.032452552    0.033581042   -0.119232902
      2        6          -0.032450824    0.033575281    0.119218244
      3        6           0.000000045    0.000957023    0.000029393
      4        6           0.063008134   -0.062957228    0.104544463
      5        6          -0.063009249   -0.062972401   -0.104559934
      6        1          -0.145587282    0.037921158   -0.025493002
      7        1           0.145587783    0.037920113    0.025491701
      8        1           0.084898419    0.027239100   -0.081824825
      9        1          -0.084899866    0.027234435    0.081824232
     10        7          -0.012101593    0.000871235   -0.035664982
     11        7           0.012104050    0.000877145    0.035666954
     12        8           0.002235788    0.000531183    0.008225161
     13        8          -0.002236829    0.000530784   -0.008225272
     14        8           0.004101489    0.003126818   -0.008748339
     15        8          -0.004102033    0.003126242    0.008747580
     16        1          -0.027435782   -0.040778337    0.132281172
     17        1           0.027435199   -0.040783593   -0.132279644
 -------------------------------------------------------------------
 Cartesian Forces:  Max     0.145587783 RMS     0.060940156
 FormGI is forming the generalized inverse of G from B-inverse, IUseBI=4.
 Leave Link  716 at Thu Aug 26 21:30:33 2021, MaxMem= 24159191040 cpu:         0.9
 (Enter /public/home/users/caep010/software/Gaussian09/g09/l103.exe)

 GradGradGradGradGradGradGradGradGradGradGradGradGradGradGradGradGradGrad
 Berny optimization.
 Red2BG is reusing G-inverse.
 Internal  Forces:  Max     0.151905699 RMS     0.037315068
 Search for a local minimum.
 Step number   1 out of a maximum of   94
 All quantities printed in internal units (Hartrees-Bohrs-Radians)
 RMS Force = .37315D-01 SwitMx=.10000D-02 MixMth= 1
 Mixed Optimization -- RFO/linear search
 Second derivative matrix not updated -- analytic derivatives used.
 ITU=  0
     Eigenvalues ---    0.00272   0.00272   0.00329   0.00745   0.00777
     Eigenvalues ---    0.01637   0.02468   0.03008   0.03481   0.03571
     Eigenvalues ---    0.03576   0.03641   0.04977   0.05189   0.06281
     Eigenvalues ---    0.06415   0.07467   0.07491   0.08162   0.08994
     Eigenvalues ---    0.09746   0.14572   0.16325   0.17852   0.21827
     Eigenvalues ---    0.24011   0.25029   0.25342   0.25856   0.27360
     Eigenvalues ---    0.28739   0.29824   0.30597   0.39656   0.40081
     Eigenvalues ---    0.62785   0.63135   0.71014   0.71151   0.74743
     Eigenvalues ---    0.74766   0.80446   0.80575   0.81225   0.81362
 RFO step:  Lambda=-1.42207289D-01 EMin= 2.72204278D-03
 Linear search not attempted -- first point.
 Maximum step size (   0.300) exceeded in Quadratic search.
    -- Step size scaled by   0.713
 Iteration  1 RMS(Cart)=  0.04313906 RMS(Int)=  0.00168132
 Iteration  2 RMS(Cart)=  0.00118382 RMS(Int)=  0.00034125
 Iteration  3 RMS(Cart)=  0.00000330 RMS(Int)=  0.00034125
 Iteration  4 RMS(Cart)=  0.00000000 RMS(Int)=  0.00034125
 ITry= 1 IFail=0 DXMaxC= 1.61D-01 DCOld= 1.00D+10 DXMaxT= 3.00D-01 DXLimC= 3.00D+00 Rises=F
 Variable       Old X    -DE/DX   Delta X   Delta X   Delta X     New X
                                 (Linear)    (Quad)   (Total)
    R1        2.88306  -0.01093   0.00000  -0.01726  -0.01686   2.86620
    R2        2.76455   0.00414   0.00000   0.00814   0.00793   2.77248
    R3        2.78173   0.02622   0.00000   0.03166   0.03166   2.81340
    R4        1.80087   0.13292   0.00000   0.10489   0.10489   1.90576
    R5        2.76451   0.00414   0.00000   0.00815   0.00794   2.77246
    R6        2.78173   0.02622   0.00000   0.03166   0.03166   2.81340
    R7        1.80087   0.13292   0.00000   0.10489   0.10489   1.90576
    R8        2.79200   0.00457   0.00000   0.00716   0.00706   2.79906
    R9        2.79209   0.00455   0.00000   0.00712   0.00702   2.79911
   R10        2.85676  -0.00333   0.00000  -0.00062  -0.00043   2.85633
   R11        1.77684   0.15191   0.00000   0.11389   0.11389   1.89073
   R12        1.81906   0.12044   0.00000   0.10026   0.10026   1.91932
   R13        1.77684   0.15191   0.00000   0.11389   0.11389   1.89073
   R14        1.81906   0.12044   0.00000   0.10026   0.10026   1.91932
   R15        2.31064   0.00109   0.00000  -0.00147  -0.00147   2.30917
   R16        2.30171   0.00964   0.00000   0.00461   0.00461   2.30632
   R17        2.31064   0.00109   0.00000  -0.00147  -0.00147   2.30917
   R18        2.30171   0.00964   0.00000   0.00461   0.00461   2.30632
    A1        2.00125  -0.00620   0.00000  -0.00872  -0.00854   1.99271
    A2        2.40021  -0.01461   0.00000  -0.04634  -0.04714   2.35307
    A3        2.07692  -0.01143   0.00000  -0.02539  -0.02506   2.05186
    A4        2.33852  -0.00842   0.00000  -0.02447  -0.02571   2.31281
    A5        1.63505   0.02459   0.00000   0.06613   0.06683   1.70188
    A6        2.00125  -0.00620   0.00000  -0.00872  -0.00853   1.99272
    A7        2.40021  -0.01461   0.00000  -0.04634  -0.04715   2.35306
    A8        2.07698  -0.01143   0.00000  -0.02542  -0.02508   2.05189
    A9        2.33845  -0.00841   0.00000  -0.02445  -0.02569   2.31276
   A10        1.63505   0.02459   0.00000   0.06613   0.06683   1.70188
   A11        2.40811  -0.00094   0.00000  -0.00647  -0.00633   2.40178
   A12        2.37962   0.00721   0.00000   0.01545   0.01515   2.39477
   A13        2.37973   0.00721   0.00000   0.01544   0.01514   2.39488
   A14        2.40806  -0.00094   0.00000  -0.00646  -0.00633   2.40173
   A15        2.11374  -0.00393   0.00000  -0.01201  -0.01204   2.10170
   A16        2.08185  -0.00494   0.00000  -0.01195  -0.01193   2.06991
   A17        2.12492  -0.00145   0.00000  -0.00575  -0.00592   2.11900
   A18        2.07553  -0.00626   0.00000  -0.01241  -0.01226   2.06327
   A19        1.90467   0.00942   0.00000   0.02498   0.02500   1.92967
   A20        2.11374  -0.00393   0.00000  -0.01201  -0.01204   2.10170
   A21        2.08188  -0.00495   0.00000  -0.01197  -0.01195   2.06994
   A22        2.12492  -0.00145   0.00000  -0.00575  -0.00592   2.11899
   A23        2.07553  -0.00627   0.00000  -0.01241  -0.01226   2.06327
   A24        1.90467   0.00942   0.00000   0.02499   0.02500   1.92967
   A25        2.03458  -0.01060   0.00000  -0.01229  -0.01229   2.02229
   A26        2.08051   0.00163   0.00000  -0.00250  -0.00250   2.07801
   A27        2.16809   0.00897   0.00000   0.01479   0.01479   2.18288
   A28        2.03458  -0.01060   0.00000  -0.01229  -0.01229   2.02229
   A29        2.08051   0.00163   0.00000  -0.00250  -0.00250   2.07801
   A30        2.16809   0.00897   0.00000   0.01479   0.01479   2.18288
    D1       -2.43795  -0.01977   0.00000  -0.04974  -0.04909  -2.48704
    D2       -0.21600  -0.00076   0.00000   0.00511   0.00479  -0.21120
    D3       -0.21600  -0.00077   0.00000   0.00511   0.00479  -0.21121
    D4        2.00596   0.01824   0.00000   0.05996   0.05867   2.06463
    D5        0.47970   0.00472   0.00000   0.00638   0.00642   0.48612
    D6        2.18260   0.00628   0.00000   0.01170   0.01161   2.19421
    D7       -1.78177  -0.01357   0.00000  -0.04911  -0.04869  -1.83046
    D8       -0.07886  -0.01201   0.00000  -0.04380  -0.04351  -0.12237
    D9        2.59995  -0.00007   0.00000  -0.00094  -0.00081   2.59914
   D10       -0.54355  -0.00019   0.00000  -0.00171  -0.00158  -0.54513
   D11       -2.52562  -0.00173   0.00000  -0.00462  -0.00443  -2.53005
   D12        0.61407  -0.00185   0.00000  -0.00539  -0.00520   0.60886
   D13        0.02671   0.00189   0.00000   0.00740   0.00709   0.03380
   D14       -3.11679   0.00176   0.00000   0.00663   0.00632  -3.11047
   D15        2.18251   0.00627   0.00000   0.01169   0.01160   2.19412
   D16        0.47953   0.00472   0.00000   0.00638   0.00642   0.48596
   D17       -0.07896  -0.01202   0.00000  -0.04380  -0.04351  -0.12247
   D18       -1.78194  -0.01357   0.00000  -0.04910  -0.04869  -1.83063
   D19        2.59995  -0.00006   0.00000  -0.00094  -0.00081   2.59914
   D20       -0.54355  -0.00019   0.00000  -0.00170  -0.00158  -0.54512
   D21       -2.52558  -0.00174   0.00000  -0.00463  -0.00444  -2.53002
   D22        0.61410  -0.00186   0.00000  -0.00540  -0.00521   0.60889
   D23        0.02671   0.00189   0.00000   0.00741   0.00709   0.03380
   D24       -3.11679   0.00177   0.00000   0.00664   0.00632  -3.11047
   D25        0.31470   0.00689   0.00000   0.02026   0.02009   0.33479
   D26       -2.14627   0.00254   0.00000   0.00942   0.00928  -2.13700
   D27        2.06231   0.00254   0.00000   0.01103   0.01102   2.07333
   D28       -0.39866  -0.00182   0.00000   0.00019   0.00020  -0.39846
   D29        2.06228   0.00254   0.00000   0.01103   0.01102   2.07330
   D30       -0.39875  -0.00181   0.00000   0.00021   0.00021  -0.39854
   D31        0.31488   0.00688   0.00000   0.02024   0.02008   0.33496
   D32       -2.14615   0.00254   0.00000   0.00942   0.00927  -2.13688
   D33       -2.45056  -0.00712   0.00000  -0.02373  -0.02368  -2.47423
   D34        0.01831  -0.00090   0.00000  -0.00333  -0.00329   0.01502
   D35        0.01831  -0.00090   0.00000  -0.00332  -0.00328   0.01503
   D36        2.48718   0.00531   0.00000   0.01708   0.01710   2.50429
         Item               Value     Threshold  Converged?
 Maximum Force            0.151906     0.000450     NO 
 RMS     Force            0.037315     0.000300     NO 
 Maximum Displacement     0.161293     0.001800     NO 
 RMS     Displacement     0.043219     0.001200     NO 
 Predicted change in Energy=-7.288515D-02
 Lowest energy point so far.  Saving SCF results.
 GradGradGradGradGradGradGradGradGradGradGradGradGradGradGradGradGradGrad

 Leave Link  103 at Thu Aug 26 21:30:33 2021, MaxMem= 24159191040 cpu:         2.8
 (Enter /public/home/users/caep010/software/Gaussian09/g09/l202.exe)
                          Input orientation:                          
 ---------------------------------------------------------------------
 Center     Atomic      Atomic             Coordinates (Angstroms)
 Number     Number       Type             X           Y           Z
 ---------------------------------------------------------------------
      1          6           0       -0.710965    0.810249    2.808157
      2          6           0        0.710959    0.810242    2.280338
      3          6           0       -0.000001    2.066170    2.544205
      4          6           0       -0.256689    3.340082    1.833426
      5          6           0        0.256693    3.340063    3.255074
      6          1           0       -1.192646    3.619762    1.617030
      7          1           0        1.192653    3.619737    3.471471
      8          1           0        0.379590    3.620470    1.093092
      9          1           0       -0.379585    3.620437    3.995413
     10          7           0       -1.730102    0.373615    1.814582
     11          7           0        1.730102    0.373629    3.273915
     12          8           0       -2.709896   -0.196257    2.271130
     13          8           0        2.709894   -0.196249    2.817372
     14          8           0       -1.540723    0.603461    0.631024
     15          8           0        1.540729    0.603495    4.457471
     16          1           0       -1.163695    0.443410    3.631263
     17          1           0        1.163683    0.443385    1.457237
 ---------------------------------------------------------------------
                    Distance matrix (angstroms):
                    1          2          3          4          5
     1  C    0.000000
     2  C    1.516727   0.000000
     3  C    1.467133   1.467121   0.000000
     4  C    2.748913   2.745208   1.481198   0.000000
     5  C    2.745188   2.748902   1.481226   1.511504   0.000000
     6  H    3.089363   3.457903   2.166958   1.000532   2.204996
     7  H    3.457885   3.089350   2.166983   2.204992   1.000532
     8  H    3.468155   3.068670   2.160015   1.015659   2.183552
     9  H    3.068639   3.468135   2.160055   2.183550   1.015658
    10  N    1.488785   2.523163   2.527913   3.312285   3.849960
    11  N    2.523168   1.488785   2.527930   3.849960   3.312253
    12  O    2.301560   3.565862   3.540717   4.326142   4.719572
    13  O    3.565866   2.301559   3.540719   4.719577   4.326117
    14  O    2.339053   2.798762   2.858952   3.253247   4.195872
    15  O    2.798769   2.339053   2.858995   4.195859   3.253200
    16  H    1.008483   2.339635   2.273594   3.527831   3.248019
    17  H    2.339632   1.008484   2.273563   3.248050   3.527831
                    6          7          8          9         10
     6  H    0.000000
     7  H    3.021358   0.000000
     8  H    1.657238   2.513515   0.000000
     9  H    2.513519   1.657241   2.999969   0.000000
    10  N    3.296264   4.671732   3.938707   4.137847   0.000000
    11  N    4.671735   3.296225   4.137856   3.938668   3.755352
    12  O    4.158353   5.588606   5.049763   4.792771   1.221960
    13  O    5.588613   4.158319   4.792787   5.049729   4.587363
    14  O    3.192403   4.963608   3.606030   4.665780   1.220453
    15  O    4.963599   3.192345   4.665771   3.605973   4.211418
    16  H    3.761275   3.958151   4.349454   3.292558   1.904210
    17  H    3.958180   3.761275   3.292608   4.349445   2.916600
                   11         12         13         14         15
    11  N    0.000000
    12  O    4.587367   0.000000
    13  O    1.221960   5.447248   0.000000
    14  O    4.211413   2.167132   4.846381   0.000000
    15  O    1.220452   4.846390   2.167132   4.912946   0.000000
    16  H    2.916613   2.156356   4.009524   3.028069   2.832341
    17  H    1.904210   4.009511   2.156356   2.832325   3.028069
                   16         17
    16  H    0.000000
    17  H    3.184820   0.000000
 Stoichiometry    C5H6N2O4
 Framework group  C1[X(C5H6N2O4)]
 Deg. of freedom    45
 Full point group                 C1      NOp   1
 RotChk:  IX=0 Diff= 2.23D-02
 Largest Abelian subgroup         C1      NOp   1
 Largest concise Abelian subgroup C1      NOp   1
                         Standard orientation:                         
 ---------------------------------------------------------------------
 Center     Atomic      Atomic             Coordinates (Angstroms)
 Number     Number       Type             X           Y           Z
 ---------------------------------------------------------------------
      1          6           0       -0.534367   -0.278947    0.538121
      2          6           0        0.534358   -0.278960   -0.538116
      3          6           0       -0.000011    0.976971   -0.000036
      4          6           0       -0.531491    2.250887   -0.537264
      5          6           0        0.531530    2.250860    0.537274
      6          1           0       -1.471775    2.530573   -0.340528
      7          1           0        1.471820    2.530527    0.340538
      8          1           0       -0.265010    2.531274   -1.476378
      9          1           0        0.265055    2.531235    1.476392
     10          7           0       -1.876572   -0.715571    0.064493
     11          7           0        1.876564   -0.715583   -0.064489
     12          8           0       -2.573996   -1.285439    0.890348
     13          8           0        2.573981   -1.285466   -0.890339
     14          8           0       -2.201822   -0.485722   -1.089148
     15          8           0        2.201821   -0.485721    1.089147
     16          1           0       -0.599510   -0.645787    1.475258
     17          1           0        0.599492   -0.645817   -1.475246
 ---------------------------------------------------------------------
 Rotational constants (GHZ):      1.5687397      0.8853299      0.7015605
 Leave Link  202 at Thu Aug 26 21:30:33 2021, MaxMem= 24159191040 cpu:         0.2
 (Enter /public/home/users/caep010/software/Gaussian09/g09/l301.exe)
 Standard basis: GTBas3 (6D, 7F)
 Ernie: Thresh=  0.10000D-02 Tol=  0.10000D-05 Strict=F.
 There are   371 symmetry adapted cartesian basis functions of A   symmetry.
 There are   338 symmetry adapted basis functions of A   symmetry.
   338 basis functions,   526 primitive gaussians,   371 cartesian basis functions
    41 alpha electrons       41 beta electrons
       nuclear repulsion energy       634.0328950692 Hartrees.
 IExCor=  402 DFT=T Ex+Corr=B3LYP ExCW=0 ScaHFX=  0.200000
 ScaDFX=  0.800000  0.720000  1.000000  0.810000 ScalE2=  1.000000  1.000000
 IRadAn=      0 IRanWt=     -1 IRanGd=            0 ICorTp=0 IEmpDi=  4
 NAtoms=   17 NActive=   17 NUniq=   17 SFac= 1.00D+00 NAtFMM=   60 NAOKFM=F Big=F
 Integral buffers will be    131072 words long.
 Raffenetti 2 integral format.
 Two-electron integral symmetry is turned on.
 Leave Link  301 at Thu Aug 26 21:30:33 2021, MaxMem= 24159191040 cpu:         1.7
 (Enter /public/home/users/caep010/software/Gaussian09/g09/l302.exe)
 NPDir=0 NMtPBC=     1 NCelOv=     1 NCel=       1 NClECP=     1 NCelD=      1
         NCelK=      1 NCelE2=     1 NClLst=     1 CellRange=     0.0.
 One-electron integrals computed using PRISM.
 NBasis=   338 RedAO= T EigKep=  2.21D-04  NBF=   338
 NBsUse=   338 1.00D-06 EigRej= -1.00D+00 NBFU=   338
 Precomputing XC quadrature grid using
 IXCGrd= 4 IRadAn=           0 IRanWt=          -1 IRanGd=           0 AccXCQ= 0.00D+00.
 Generated NRdTot=       0 NPtTot=           0 NUsed=           0 NTot=          32
 NSgBfM=   370   371   371   371   371 MxSgAt=    17 MxSgA2=    17.
 Leave Link  302 at Thu Aug 26 21:30:34 2021, MaxMem= 24159191040 cpu:        16.2
 (Enter /public/home/users/caep010/software/Gaussian09/g09/l303.exe)
 DipDrv:  MaxL=1.
 Leave Link  303 at Thu Aug 26 21:30:34 2021, MaxMem= 24159191040 cpu:         1.0
 (Enter /public/home/users/caep010/software/Gaussian09/g09/l401.exe)
 Initial guess from the checkpoint file:  "/public/home/users/caep010/.cache/gau_scr/Gau-48273.chk"
 B after Tr=    -0.000000   -0.000000   -0.000000
         Rot=    0.999996    0.000002   -0.002766    0.000003 Ang=   0.32 deg.
 Guess basis will be translated and rotated to current coordinates.
 JPrj=2 DoOrth=T DoCkMO=T.
 Generating alternative initial guess.
 ExpMin= 1.61D-01 ExpMax= 5.48D+03 ExpMxC= 8.25D+02 IAcc=1 IRadAn=         1 AccDes= 0.00D+00
 Harris functional with IExCor=  402 and IRadAn=       1 diagonalized for initial guess.
 HarFok:  IExCor=  402 AccDes= 0.00D+00 IRadAn=         1 IDoV= 1 UseB2=F ITyADJ=14
 ICtDFT=  3500011 ScaDFX=  1.000000  1.000000  1.000000  1.000000
 FoFCou: FMM=F IPFlag=           0 FMFlag=      100000 FMFlg1=           0
         NFxFlg=           0 DoJE=T BraDBF=F KetDBF=T FulRan=T
         wScrn=  0.000000 ICntrl=     500 IOpCl=  0 I1Cent=   200000004 NGrid=           0
         NMat0=    1 NMatS0=      1 NMatT0=    0 NMatD0=    1 NMtDS0=    0 NMtDT0=    0
 Petite list used in FoFCou.
 Harris En= -604.336572704835    
 Leave Link  401 at Thu Aug 26 21:30:34 2021, MaxMem= 24159191040 cpu:        20.9
 (Enter /public/home/users/caep010/software/Gaussian09/g09/l502.exe)
 Closed shell SCF:
 Using DIIS extrapolation, IDIIS=  1040.
 Integral symmetry usage will be decided dynamically.
 Keep R1 ints in memory in canonical form, NReq=1667343251.
 IVT=      446027 IEndB=      446027 NGot= 24159191040 MDV= 22517587028
 LenX= 22517587028 LenY= 22517448946
 Requested convergence on RMS density matrix=1.00D-08 within 128 cycles.
 Requested convergence on MAX density matrix=1.00D-06.
 Requested convergence on             energy=1.00D-06.
 No special actions if energy rises.
 FoFCou: FMM=F IPFlag=           0 FMFlag=           0 FMFlg1=           0
         NFxFlg=           0 DoJE=F BraDBF=F KetDBF=F FulRan=T
         wScrn=  0.000000 ICntrl=     600 IOpCl=  0 I1Cent=           0 NGrid=           0
         NMat0=    1 NMatS0=  57291 NMatT0=    0 NMatD0=    1 NMtDS0=    0 NMtDT0=    0
 Symmetry not used in FoFCou.
 Integral accuracy reduced to 1.0D-05 until final iterations.

 Cycle   1  Pass 0  IDiag  1:
 E= -604.263632121684    
 DIIS: error= 4.68D-03 at cycle   1 NSaved=   1.
 NSaved= 1 IEnMin= 1 EnMin= -604.263632121684     IErMin= 1 ErrMin= 4.68D-03
 ErrMax= 4.68D-03  0.00D+00 EMaxC= 1.00D-01 BMatC= 6.11D-03 BMatP= 6.11D-03
 IDIUse=3 WtCom= 9.53D-01 WtEn= 4.68D-02
 Coeff-Com:  0.100D+01
 Coeff-En:   0.100D+01
 Coeff:      0.100D+01
 Gap=     1.055 Goal=   None    Shift=    0.000
 GapD=    1.055 DampG=2.000 DampE=1.000 DampFc=2.0000 IDamp=-1.
 RMSDP=4.27D-04 MaxDP=1.40D-02              OVMax= 1.57D-02

 Cycle   2  Pass 0  IDiag  1:
 E= -604.269540052306     Delta-E=       -0.005907930622 Rises=F Damp=F
 DIIS: error= 2.13D-03 at cycle   2 NSaved=   2.
 NSaved= 2 IEnMin= 2 EnMin= -604.269540052306     IErMin= 2 ErrMin= 2.13D-03
 ErrMax= 2.13D-03  0.00D+00 EMaxC= 1.00D-01 BMatC= 7.09D-04 BMatP= 6.11D-03
 IDIUse=3 WtCom= 9.79D-01 WtEn= 2.13D-02
 Coeff-Com:  0.159D+00 0.841D+00
 Coeff-En:   0.000D+00 0.100D+01
 Coeff:      0.156D+00 0.844D+00
 Gap=     0.211 Goal=   None    Shift=    0.000
 RMSDP=1.50D-04 MaxDP=7.81D-03 DE=-5.91D-03 OVMax= 9.89D-03

 Cycle   3  Pass 0  IDiag  1:
 E= -604.269575068621     Delta-E=       -0.000035016315 Rises=F Damp=F
 DIIS: error= 1.29D-03 at cycle   3 NSaved=   3.
 NSaved= 3 IEnMin= 3 EnMin= -604.269575068621     IErMin= 3 ErrMin= 1.29D-03
 ErrMax= 1.29D-03  0.00D+00 EMaxC= 1.00D-01 BMatC= 8.04D-04 BMatP= 7.09D-04
 IDIUse=3 WtCom= 2.18D-01 WtEn= 7.82D-01
 Coeff-Com:  0.228D-01 0.514D+00 0.464D+00
 Coeff-En:   0.000D+00 0.488D+00 0.512D+00
 Coeff:      0.496D-02 0.493D+00 0.502D+00
 Gap=     0.214 Goal=   None    Shift=    0.000
 RMSDP=9.68D-05 MaxDP=5.74D-03 DE=-3.50D-05 OVMax= 1.02D-02

 Cycle   4  Pass 0  IDiag  1:
 E= -604.270050070610     Delta-E=       -0.000475001989 Rises=F Damp=F
 DIIS: error= 5.46D-04 at cycle   4 NSaved=   4.
 NSaved= 4 IEnMin= 4 EnMin= -604.270050070610     IErMin= 4 ErrMin= 5.46D-04
 ErrMax= 5.46D-04  0.00D+00 EMaxC= 1.00D-01 BMatC= 2.43D-04 BMatP= 7.09D-04
 IDIUse=3 WtCom= 9.95D-01 WtEn= 5.46D-03
 Coeff-Com: -0.514D-05 0.289D+00 0.362D+00 0.348D+00
 Coeff-En:   0.000D+00 0.000D+00 0.224D+00 0.776D+00
 Coeff:     -0.511D-05 0.288D+00 0.361D+00 0.351D+00
 Gap=     0.213 Goal=   None    Shift=    0.000
 RMSDP=4.50D-05 MaxDP=2.60D-03 DE=-4.75D-04 OVMax= 6.04D-03

 Cycle   5  Pass 0  IDiag  1:
 E= -604.270223597024     Delta-E=       -0.000173526414 Rises=F Damp=F
 DIIS: error= 1.41D-04 at cycle   5 NSaved=   5.
 NSaved= 5 IEnMin= 5 EnMin= -604.270223597024     IErMin= 5 ErrMin= 1.41D-04
 ErrMax= 1.41D-04  0.00D+00 EMaxC= 1.00D-01 BMatC= 1.67D-05 BMatP= 2.43D-04
 IDIUse=3 WtCom= 9.99D-01 WtEn= 1.41D-03
 Coeff-Com: -0.431D-02 0.939D-01 0.149D+00 0.234D+00 0.527D+00
 Coeff-En:   0.000D+00 0.000D+00 0.000D+00 0.667D-01 0.933D+00
 Coeff:     -0.431D-02 0.937D-01 0.148D+00 0.234D+00 0.528D+00
 Gap=     0.213 Goal=   None    Shift=    0.000
 RMSDP=1.21D-05 MaxDP=8.30D-04 DE=-1.74D-04 OVMax= 1.42D-03

 Cycle   6  Pass 0  IDiag  1:
 E= -604.270234712836     Delta-E=       -0.000011115812 Rises=F Damp=F
 DIIS: error= 5.74D-05 at cycle   6 NSaved=   6.
 NSaved= 6 IEnMin= 6 EnMin= -604.270234712836     IErMin= 6 ErrMin= 5.74D-05
 ErrMax= 5.74D-05  0.00D+00 EMaxC= 1.00D-01 BMatC= 2.85D-06 BMatP= 1.67D-05
 IDIUse=1 WtCom= 1.00D+00 WtEn= 0.00D+00
 Coeff-Com: -0.295D-02 0.286D-01 0.567D-01 0.114D+00 0.359D+00 0.445D+00
 Coeff:     -0.295D-02 0.286D-01 0.567D-01 0.114D+00 0.359D+00 0.445D+00
 Gap=     0.213 Goal=   None    Shift=    0.000
 RMSDP=3.70D-06 MaxDP=2.18D-04 DE=-1.11D-05 OVMax= 2.85D-04

 Initial convergence to 1.0D-05 achieved.  Increase integral accuracy.
 Cycle   7  Pass 1  IDiag  1:
 E= -604.270171152296     Delta-E=        0.000063560539 Rises=F Damp=F
 DIIS: error= 2.53D-05 at cycle   1 NSaved=   1.
 NSaved= 1 IEnMin= 1 EnMin= -604.270171152296     IErMin= 1 ErrMin= 2.53D-05
 ErrMax= 2.53D-05  0.00D+00 EMaxC= 1.00D-01 BMatC= 2.04D-07 BMatP= 2.04D-07
 IDIUse=1 WtCom= 1.00D+00 WtEn= 0.00D+00
 Coeff-Com:  0.100D+01
 Coeff:      0.100D+01
 Gap=     0.213 Goal=   None    Shift=    0.000
 RMSDP=3.70D-06 MaxDP=2.18D-04 DE= 6.36D-05 OVMax= 1.33D-04

 Cycle   8  Pass 1  IDiag  1:
 E= -604.270171194899     Delta-E=       -0.000000042602 Rises=F Damp=F
 DIIS: error= 1.64D-05 at cycle   2 NSaved=   2.
 NSaved= 2 IEnMin= 2 EnMin= -604.270171194899     IErMin= 2 ErrMin= 1.64D-05
 ErrMax= 1.64D-05  0.00D+00 EMaxC= 1.00D-01 BMatC= 1.82D-07 BMatP= 2.04D-07
 IDIUse=1 WtCom= 1.00D+00 WtEn= 0.00D+00
 Coeff-Com:  0.480D+00 0.520D+00
 Coeff:      0.480D+00 0.520D+00
 Gap=     0.213 Goal=   None    Shift=    0.000
 RMSDP=1.54D-06 MaxDP=7.21D-05 DE=-4.26D-08 OVMax= 1.04D-04
[...]
 ,3.3394776202,1.8150455707\C,0,0.2132522187,3.3394819144,3.273445753\H
 ,0,-1.2350734951,3.6125407125,1.5763306845\H,0,1.2350697537,3.61254920
 86,3.5121594564\H,0,0.5185254864,3.616145978,1.0642430173\H,0,-0.51852
 92176,3.6161518763,4.0242469206\N,0,-1.7389732184,0.3648100355,1.79670
 71977\N,0,1.7389759502,0.3648098748,3.2917882889\O,0,-2.7345765386,-0.
 171204603,2.2550643716\O,0,2.7345793071,-0.1712029699,2.8334300388\O,0
 ,-1.5159166343,0.5813554913,0.6139923507\O,0,1.51591956,0.5813536608,4
 .4745038526\H,0,-0.956160111,0.4663034842,3.782510962\H,0,0.9561599264
 ,0.4663057762,1.3059852528\\Version=ES64L-G09RevE.01\State=1-A\HF=-601
 .1252487\RMSD=2.820e-09\Dipole=-0.0000007,1.5039303,-0.0000013\Quadrup
 ole=-6.561061,6.8428617,-0.2818007,-0.0000056,-6.0630511,0.0000029\PG=
 C01 [X(C5H6N2O4)]\\@


 A MAN IS NEVER SO BRILLIANT AS WHEN HE TAKES THE WORDS RIGHT OUT
 OF YOUR MOUTH. -- ARNOT SHEPPARD, JR.
 Diagonal vibrational polarizability:
        0.0000000       0.0000000       0.0000000

 Temperature=              298.150000 Pressure=                      1.000000
 E(ZPE)=                     0.118869 E(Thermal)=                    0.128749
 E(CCSD(T))=              -602.669808 E(Empiric)=                   -0.208410
 DE(Plus)=                  -0.046116 DE(2DF)=                      -0.431908
 E(Delta-G3XP)=             -0.732141 DE(HF)=                       -0.060391
 G4(0 K)=                 -604.029905 G4 Energy=                  -604.020025
 G4 Enthalpy=             -604.019081 G4 Free Energy=             -604.066388
 1\1\GINC-B1623\Mixed\G4\G4\C5H6N2O4\ROOT\27-Aug-2021\0\\#P Geom=AllChe
 ck Guess=TCheck SCRF=Check HF/GFHFB2 SCF=Tight\\JOHBUD01\\0,1\C,0,-0.7
 252606012,0.8053746563,2.7821835711\C,0,0.7252623653,0.8053750365,2.30
 6313702\C,0,0.0000003635,2.0660722474,2.5442490093\C,0,-0.2132551151,3
 .3394776202,1.8150455707\C,0,0.2132522187,3.3394819144,3.273445753\H,0
 ,-1.2350734951,3.6125407125,1.5763306845\H,0,1.2350697537,3.6125492086
 ,3.5121594564\H,0,0.5185254864,3.616145978,1.0642430173\H,0,-0.5185292
 176,3.6161518763,4.0242469206\N,0,-1.7389732184,0.3648100355,1.7967071
 977\N,0,1.7389759502,0.3648098748,3.2917882889\O,0,-2.7345765386,-0.17
 1204603,2.2550643716\O,0,2.7345793071,-0.1712029699,2.8334300388\O,0,-
 1.5159166343,0.5813554913,0.6139923507\O,0,1.51591956,0.5813536608,4.4
 745038526\H,0,-0.956160111,0.4663034842,3.782510962\H,0,0.9561599264,0
 .4663057762,1.3059852528\\Version=ES64L-G09RevE.01\State=1-A\MP2/GTBas
 1=-602.580411\MP4/GTBas1=-602.6900264\CCSD(T)/G3Bas1=-602.6698077\MP2/
 GTBas2=-602.6226367\MP4/GTBas2=-602.7361421\MP2/GTBas3=-602.9866777\MP
 4/GTBas3=-603.1219349\HF/GTLargeXP=-601.0672221\MP2/GTLargeXP=-603.761
 0442\HF/GFHFB1=-601.1155451\HF/GFHFB2=-601.1252487\G4=-604.0299051\Fre
 qCoord=-1.3705439113,1.5219375347,5.2575650008,1.3705472449,1.52193825
 33,4.3583012733,0.000000687,3.9043107184,4.8079338415,-0.402993764,6.3
 106981291,3.4299390473,0.4029882905,6.3107062439,6.185915984,-2.333950
 6597,6.8267125906,2.9788332886,2.3339435894,6.8267286458,6.6370195076,
 0.9798711623,6.833525555,2.0111278415,-0.9798782132,6.8335367011,7.604
 724571,-3.2861831353,0.6893910576,3.3952845446,3.2861882976,0.68939075
 39,6.2205783534,-5.1676007473,-0.3235298123,4.2614540744,5.1676059792,
 -0.3235267263,5.3544067901,-2.8646672791,1.0986026643,1.1602773905,2.8
 64672808,1.0985992053,8.455586862,-1.806880749,0.8811858799,7.14790981
 28,1.8068804001,0.8811902112,2.4679544613\PG=C01 [X(C5H6N2O4)]\NImag=0
 \\0.43411447,0.14101125,0.34071084,-0.07020836,-0.12306700,0.61830399,
 -0.15464757,-0.03099805,0.04197775,0.43411486,0.03099802,-0.00688215,-
 0.00110585,-0.14101096,0.34071008,0.04197783,0.00110601,-0.08390038,-0
 .07020769,0.12306631,0.61830461,-0.06277446,-0.06270613,0.01231164,-0.
 06277450,0.06270587,0.01231172,0.30023598,-0.10442439,-0.17062991,0.04
 650288,0.10442417,-0.17062947,-0.04650315,0.,0.75992669,0.00267266,0.0
 3020698,-0.07299250,0.00267273,-0.03020718,-0.07299246,0.00499448,0.00
 000004,0.31199486,0.00340862,-0.01095614,0.02450600,-0.00584207,0.0059
 9980,-0.02477086,-0.06465843,0.03668072,-0.00486552,0.64474575,-0.0011
 5168,-0.01763464,0.00287350,0.00386786,-0.01901952,0.00908677,0.023097
 12,-0.16517443,0.08038509,-0.04991717,0.32114345,-0.00270561,-0.003094
 57,-0.00924730,0.00428673,-0.00866481,0.00858273,-0.00473202,0.1286172
 6,-0.07950289,-0.03671454,-0.17351625,0.53069268,-0.00584199,-0.005999
 71,-0.02477081,0.00340862,0.01095619,0.02450592,-0.06465825,-0.0366805
 2,-0.00486505,-0.08212312,0.00684398,-0.03487522,0.64474529,-0.0038677
 3,-0.01901942,-0.00908667,0.00115166,-0.01763446,-0.00287338,-0.023096
 97,-0.16517590,-0.08038498,-0.00684431,-0.01865393,-0.02293039,0.04991
 799,0.32114544,0.00428673,0.00866495,0.00858274,-0.00270566,0.00309471
 ,-0.00924729,-0.00473157,-0.12861703,-0.07950178,-0.03487524,0.0229295
 0,-0.19301432,-0.03671523,0.17351733,0.53069083,0.00092361,-0.00007120
 ,-0.00058497,0.00026303,-0.00085278,0.00050617,0.00143721,-0.00095889,
 -0.00030397,-0.31182150,0.06959568,-0.05466788,-0.00373006,0.00111510,
 0.00027880,0.32493152,-0.00000677,0.00362191,-0.00325828,0.00182484,0.
 00047069,0.00535210,0.02978269,-0.01064055,0.00587422,0.06730273,-0.05
 529255,0.01883066,-0.01563200,0.00065489,0.00033629,-0.07464152,0.0593
 9970,0.00029478,0.00034400,0.00103928,0.00056958,-0.00215494,0.0001496
 4,-0.00320978,0.00188982,-0.00602507,-0.05204135,0.01949387,-0.0568563
 0,-0.02484147,0.00783461,-0.00516567,0.06082837,-0.02302350,0.06157258
 ,0.00026304,0.00085279,0.00050619,0.00092360,0.00007118,-0.00058498,0.
 00143730,0.00095892,-0.00030397,-0.00373010,-0.00111510,0.00027880,-0.
 31182109,-0.06959672,-0.05466751,0.00062806,-0.00067143,-0.00044208,0.
 32493106,-0.00182482,0.00047070,-0.00535210,0.00000678,0.00362190,0.00
 325826,-0.02978266,-0.01064066,-0.00587420,0.01563184,0.00065490,-0.00
 033633,-0.06730375,-0.05529314,-0.01883082,0.00067142,0.00137464,0.003
 20219,0.07464261,0.05940033,0.00056958,0.00215495,0.00014966,0.0002947
 9,-0.00034402,0.00103927,-0.00320962,-0.00188979,-0.00602505,-0.024841
 51,-0.00783470,-0.00516562,-0.05204102,-0.01949405,-0.05685610,-0.0004
 4207,-0.00320222,-0.00329600,0.06082798,0.02302369,0.06157235,-0.00006
 872,-0.00014477,-0.00089221,0.00094621,0.00018460,0.00012175,0.0009210
 6,0.00215254,-0.00417297,-0.18910390,-0.04905906,0.13942334,0.00686991
 ,0.00330776,-0.00815220,-0.01404856,-0.00794638,0.01924590,0.00112677,
 -0.00103094,0.00027978,0.19288422,0.00070481,-0.00014712,0.00609164,-0
 .00158555,0.00420333,-0.00386403,-0.02176571,-0.01124584,0.02105125,-0
 .04728734,-0.05566220,0.05222796,0.01327845,0.00065960,-0.00813904,0.0
 0514069,0.00269229,-0.00660214,0.00009500,-0.00023743,0.00206413,0.051
 29558,0.05995838,-0.00029795,-0.00225687,0.00010825,-0.00044453,0.0005
 7546,0.00092603,-0.00114734,0.00073941,-0.00537687,0.13645696,0.054168
 03,-0.17892501,0.01707468,0.00728418,-0.01613247,-0.00604263,-0.002819
 42,0.00653946,0.00048210,-0.00178902,0.00233352,-0.14477921,-0.0597270
 6,0.19279668,0.00094620,-0.00018460,0.00012175,-0.00006871,0.00014476,
 -0.00089220,0.00092101,-0.00215252,-0.00417289,0.00686995,-0.00330778,
 -0.00815219,-0.18910416,0.04905938,0.13942325,0.00112676,0.00103095,0.
 00027978,-0.01404855,0.00794642,0.01924582,-0.00011058,-0.00115025,-0.
 00157236,0.19288448,0.00158552,0.00420332,0.00386403,-0.00070482,-0.00
 014711,-0.00609163,0.02176574,-0.01124588,-0.02105122,-0.01327833,0.00
 065956,0.00813890,0.04728765,-0.05566244,-0.05222816,-0.00009500,-0.00
 023743,-0.00206412,-0.00514077,0.00269236,0.00660222,0.00115024,0.0014
 1759,0.00308577,-0.05129593,0.05995864,-0.00044454,-0.00057548,0.00092
 601,-0.00029795,0.00225688,0.00010827,-0.00114745,-0.00073940,-0.00537
 677,0.01707476,-0.00728420,-0.01613246,0.13645690,-0.05416825,-0.17892
 443,0.00048209,0.00178904,0.00233352,-0.00604261,0.00281942,0.00653941
 ,-0.00157236,-0.00308580,-0.00258498,-0.14477914,0.05972730,0.19279604
 ,-0.09002511,0.00807143,-0.03447269,-0.02732320,-0.01671311,-0.0173961
 4,-0.01964813,-0.01298756,0.01029803,0.00194309,0.00189064,0.00080084,
 0.00285407,0.00255141,-0.00171256,0.00031576,-0.00062523,-0.00070281,0
 .00001417,0.00128569,-0.00041497,0.00004045,0.00057080,0.00011324,0.00
 028192,-0.00044033,0.00042729,0.68247756,0.00072997,-0.09009097,-0.010
 93770,0.00173205,-0.00285620,0.01877970,-0.02805106,-0.01093033,-0.027
 96701,0.00512222,0.00161809,-0.00062030,-0.00706115,0.00167626,0.00215
 374,0.00013204,-0.00183529,0.00042611,0.00036754,-0.00216727,0.0002883
 7,0.00011981,0.00077484,0.00029690,0.00037371,0.00078778,0.00010795,0.
 22926991,0.37506669,-0.01267555,0.00389567,-0.11694921,0.00050974,-0.0
 0377810,0.01407611,-0.01180572,-0.01229672,0.00851982,0.00242978,0.004
 12383,-0.00253349,0.00034450,0.00023433,-0.00231991,-0.00051305,0.0017
 0672,0.00042124,-0.00019909,0.00078851,-0.00109230,0.00042521,0.001643
 71,0.00027057,0.00001480,-0.00061009,-0.00004056,-0.12300994,-0.115505
 98,0.83707095,-0.02732315,0.01671313,-0.01739610,-0.09002529,-0.008071
 28,-0.03447310,-0.01964814,0.01298753,0.01029795,0.00285407,-0.0025514
 5,-0.00171254,0.00194314,-0.00189063,0.00080087,0.00001418,-0.00128569
 ,-0.00041497,0.00031575,0.00062523,-0.00070281,0.00028192,0.00044033,0
 .00042728,0.00004045,-0.00057080,0.00011325,-0.00255743,0.00071241,-0.
 00145793,0.68247799,-0.00173209,-0.00285616,-0.01877974,-0.00072989,-0
 .09009100,0.01093785,0.02805112,-0.01093020,0.02796708,0.00706114,0.00
 167620,-0.00215377,-0.00512225,0.00161807,0.00062029,-0.00036753,-0.00
 216727,-0.00028837,-0.00013204,-0.00183527,-0.00042611,-0.00037371,0.0
 0078779,-0.00010796,-0.00011981,0.00077485,-0.00029691,-0.00071243,0.0
 0520465,0.00378254,-0.22926947,0.37506582,0.00050980,0.00377809,0.0140
 7605,-0.01267590,-0.00389555,-0.11694913,-0.01180571,0.01229669,0.0085
 1973,0.00034452,-0.00023439,-0.00231988,0.00242978,-0.00412377,-0.0025
 3343,-0.00019909,-0.00078852,-0.00109229,-0.00051304,-0.00170668,0.000
 42124,0.00001480,0.00061009,-0.00004056,0.00042521,-0.00164369,0.00027
 059,-0.00145795,-0.00378258,-0.00810779,-0.12300993,0.11550516,0.83707
 101,-0.04802925,-0.03887540,0.00632460,-0.00162969,-0.00056638,-0.0016
 4022,-0.00054627,0.00163675,-0.00488901,0.00052166,0.00038309,-0.00057
 937,-0.00220448,0.00023646,0.00067639,-0.00022494,-0.00014823,0.000469
 93,0.00014187,-0.00084089,-0.00000958,0.00008257,-0.00008572,-0.000039
 41,-0.00011496,0.00009612,-0.00031549,-0.42982357,-0.18564689,0.113976
 74,0.00201143,-0.00255533,0.00318038,0.48781829,-0.03579252,0.00673054
 ,0.00371997,-0.00135084,0.00037869,-0.00454204,0.00095796,-0.00040033,
 0.00193525,-0.00034806,0.00055327,-0.00013267,0.00035188,0.00006190,-0
 .00039599,0.00011411,0.00000245,0.00004658,-0.00002482,0.00008348,-0.0
 0014931,0.00005053,-0.00002322,-0.00001195,-0.00005486,-0.00016303,-0.
 00005308,-0.18549095,-0.17545008,0.06621076,0.00090139,-0.00254964,0.0
 0286659,0.24517190,0.15787786,-0.01283956,-0.00560174,0.01398559,-0.00
 289470,-0.00145560,-0.00220856,-0.00153794,-0.00025532,-0.00073859,-0.
 00007429,-0.00011593,0.00095151,-0.00008524,0.00078117,0.00014149,0.00
 020684,-0.00054876,-0.00018093,0.00003631,-0.00017015,0.00017146,-0.00
 011638,-0.00042788,0.00000952,0.00009012,0.00002454,0.00008489,0.10694
 568,0.06237836,-0.17356869,0.00099665,-0.00087686,0.00114790,-0.171513
 61,-0.10102430,0.20032140,-0.00162969,0.00056638,-0.00164022,-0.048029
 49,0.03887542,0.00632476,-0.00054629,-0.00163676,-0.00488902,-0.002204
 47,-0.00023646,0.00067639,0.00052165,-0.00038308,-0.00057936,0.0001418
 7,0.00084089,-0.00000959,-0.00022494,0.00014824,0.00046992,-0.00011496
 ,-0.00009612,-0.00031549,0.00008256,0.00008572,-0.00003941,0.00201142,
 0.00255533,0.00318037,-0.42982313,0.18564634,0.11397684,-0.00130577,-0
 .00092050,-0.00075611,0.48781790,0.00135086,0.00037866,0.00454207,0.03
 579259,0.00673057,-0.00372003,-0.00095798,-0.00040034,-0.00193528,-0.0
 0035188,0.00006191,0.00039599,0.00034805,0.00055327,0.00013266,0.00002
 482,0.00008348,0.00014931,-0.00011411,0.00000244,-0.00004657,0.0000548
 6,-0.00016303,0.00005309,-0.00005053,-0.00002322,0.00001195,-0.0009013
 9,-0.00254964,-0.00286659,0.18549039,-0.17544894,-0.06621055,0.0009205
 0,0.00097850,0.00067832,-0.24517118,0.15787645,-0.00289469,0.00145557,
 -0.00220854,-0.01283931,0.00560162,0.01398554,-0.00153791,0.00025531,-
 0.00073857,-0.00008524,-0.00078116,0.00014149,-0.00007430,0.00011592,0
 .00095150,0.00003631,0.00017015,0.00017145,0.00020683,0.00054876,-0.00
 018093,0.00009012,-0.00002454,0.00008489,-0.00011638,0.00042787,0.0000
 0952,0.00099665,0.00087687,0.00114791,0.10694568,-0.06237809,-0.173567
 91,-0.00075611,-0.00067832,0.00006303,-0.17151384,0.10102402,0.2003210
 5,0.01424926,0.00050321,-0.02122242,-0.00187043,0.00129398,-0.00073496
 ,-0.00125005,-0.00229703,-0.00271051,-0.00000485,0.00113062,-0.0006538
 4,-0.00094748,0.00044516,-0.00038507,0.00002604,-0.00018419,0.00006771
 ,0.00001046,-0.00038133,-0.00015198,0.00008027,0.00012399,0.00008988,0
 .00000599,-0.00011509,-0.00008018,-0.12900019,-0.02865209,0.04453599,0
 .00178704,-0.00184039,-0.00010728,-0.00603262,-0.02360861,0.08300143,-
 0.00058852,0.00040425,-0.00012875,0.12626953,-0.00122550,0.01934108,-0
 .00516408,-0.00145432,-0.00064776,-0.00209694,0.00107831,-0.00100105,0
 .00281752,-0.00047182,0.00112223,-0.00189868,-0.00002012,-0.00049402,-
 0.00095196,-0.00011602,0.00094012,0.00012367,-0.00011634,0.00020669,-0
 .00048313,0.00004566,0.00026250,0.00002641,-0.00002136,-0.00017849,-0.
 00009079,-0.02910805,-0.10033389,0.06320825,0.00027008,-0.00068090,0.0
 0005280,-0.02097022,0.01201522,0.04712518,-0.00054605,0.00039992,0.000
 04220,0.05546993,0.06806338,-0.00995696,0.00144203,-0.05847432,0.00344
 963,0.00339445,-0.00472658,0.00621305,0.00311163,-0.00414313,-0.000977
 80,-0.00124891,0.00140212,-0.00066308,0.00095319,0.00088131,0.00028320
 ,-0.00107585,-0.00017117,0.00012919,-0.00057542,0.00056301,-0.00014669
 ,-0.00088399,0.00002080,-0.00001998,0.00034529,0.00006961,0.04982231,0
 .06470587,-0.53762733,0.00125719,-0.00151098,0.00024408,0.05705741,0.0
 3441573,-0.04408669,-0.00174767,0.00142382,0.00037095,-0.09437584,-0.1
 0114753,0.64686528,-0.00187043,-0.00129397,-0.00073494,0.01424922,-0.0
 0050322,-0.02122239,-0.00125005,0.00229703,-0.00271051,-0.00094747,-0.
 00044517,-0.00038506,-0.00000485,-0.00113061,-0.00065381,0.00001046,0.
 00038133,-0.00015198,0.00002603,0.00018419,0.00006771,0.00000599,0.000
 11508,-0.00008018,0.00008027,-0.00012399,0.00008988,0.00178705,0.00184
 038,-0.00010729,-0.12900090,0.02865215,0.04453618,-0.00058853,-0.00040
 426,-0.00012875,-0.00603242,0.02360839,0.08300144,-0.00101625,-0.00047
 943,-0.00141347,0.12627004,0.00145434,-0.00064776,0.00209693,0.0012255
 1,0.01934106,0.00516415,-0.00107834,-0.00100104,-0.00281753,0.00002012
 ,-0.00049398,0.00095195,0.00047183,0.00112223,0.00189863,0.00011634,0.
 00020669,0.00048313,0.00011602,0.00094011,-0.00012368,0.00002136,-0.00
 017849,0.00009079,-0.00004566,0.00026249,-0.00002641,-0.00027008,-0.00
 068089,-0.00005279,0.02910809,-0.10033422,-0.06320781,0.00054605,0.000
 39993,-0.00004220,0.02097003,0.01201546,-0.04712504,0.00047943,0.00017
 904,0.00011182,-0.05546979,0.06806345,0.00344961,-0.00339445,-0.004726
 54,-0.00995705,-0.00144188,-0.05847433,0.00621307,-0.00311162,-0.00414
 310,-0.00066308,-0.00095317,0.00088131,-0.00097779,0.00124889,0.001402
 11,0.00012919,0.00057543,0.00056300,0.00028320,0.00107582,-0.00017117,
 -0.00001998,-0.00034530,0.00006961,-0.00014669,0.00088399,0.00002079,0
 .00125721,0.00151100,0.00024406,0.04982270,-0.06470554,-0.53762840,-0.
 00174768,-0.00142384,0.00037096,0.05705738,-0.03441558,-0.04408706,-0.
 00141347,-0.00011183,0.00120381,-0.09437616,0.10114695,0.64686665,-0.0
 5616143,-0.02375545,0.06598359,-0.00553336,-0.00726726,0.02019117,-0.0
 0359900,-0.00350692,0.00147379,-0.00006949,0.00172668,0.00052620,0.000
 16226,0.00075180,-0.00081404,0.00000523,-0.00019471,-0.00000425,0.0000
 0133,-0.00017273,0.00006223,0.00019446,-0.00015358,0.00002146,0.000012
 90,-0.00035953,0.00005350,0.00393379,0.00788242,-0.02130001,0.00271834
 ,0.00142659,0.00565137,-0.00025534,-0.00014875,-0.00022646,0.00017959,
 -0.00059639,-0.00110398,-0.00262021,-0.00233179,-0.00572313,0.00090200
 ,0.00000296,-0.00318732,0.06239103,-0.02491692,-0.06849242,0.09404320,
 0.00289233,0.00094350,-0.01301716,-0.00539260,-0.00994033,0.02634644,-
 0.00511254,0.00116769,0.00265276,0.00325097,0.00327393,-0.00153230,0.0
 0017046,0.00038527,-0.00009577,-0.00002228,0.00034094,-0.00023556,0.00
 024304,-0.00187233,-0.00009003,0.00007112,-0.00122666,-0.00048227,0.00
 181694,0.00088667,-0.01097804,-0.00179232,0.00087957,-0.00049396,0.000
 54927,-0.00027752,-0.00059800,-0.00014893,-0.00021800,-0.00012916,-0.0
 0259234,0.00127006,-0.00294976,0.00017953,-0.00046414,0.00051138,0.028
 75047,0.07252156,0.05711417,0.08669284,-0.30490745,0.00114803,0.001750
 97,-0.00376531,0.00141056,-0.00138750,0.00426120,-0.00114333,-0.000668
 49,0.00061412,0.00024075,0.00042340,0.00043130,0.00004677,0.00012424,-
 0.00002718,-0.00004410,0.00004230,0.00002442,0.00002013,-0.00042710,0.
 00009982,0.00023098,0.00016190,-0.00019927,0.00824528,0.00713172,-0.01
 873002,0.00026055,-0.00015696,-0.00078136,0.00024408,-0.00058406,0.003
 45661,-0.00043904,0.00019932,0.00007912,-0.00382098,-0.00129465,-0.002
 35074,-0.00190972,0.00015645,-0.00004099,-0.06144147,-0.09255808,0.321
 90063,-0.00553340,0.00726722,0.02019120,-0.05616123,0.02375517,0.06598
 321,-0.00359900,0.00350694,0.00147378,0.00016226,-0.00075181,-0.000814
 03,-0.00006948,-0.00172667,0.00052621,0.00000133,0.00017273,0.00006223
 ,0.00000522,0.00019471,-0.00000425,0.00001290,0.00035953,0.00005350,0.
 00019446,0.00015358,0.00002146,0.00271833,-0.00142661,0.00565145,0.003
 93372,-0.00788238,-0.02129997,0.00017961,0.00059640,-0.00110399,-0.000
 25532,0.00014875,-0.00022654,0.00090201,-0.00000295,-0.00318738,-0.002
 62018,0.00233179,-0.00572313,-0.00226212,0.00205382,-0.00016265,0.0623
 9089,-0.00289235,0.00094349,0.01301719,0.02491665,-0.06849214,-0.09404
 281,0.00539265,-0.00994042,-0.02634647,-0.00325098,0.00327397,0.001532
 28,0.00511253,0.00116771,-0.00265279,0.00002228,0.00034094,0.00023556,
 -0.00017046,0.00038527,0.00009577,-0.00007112,-0.00122666,0.00048228,-
 0.00024304,-0.00187233,0.00009004,0.00179232,0.00087956,0.00049398,-0.
 00181695,0.00088665,0.01097808,0.00014893,-0.00021800,0.00012916,-0.00
 054926,-0.00027750,0.00059801,-0.00017952,-0.00046414,-0.00051139,0.00
 259234,0.00127005,0.00294976,-0.00205381,0.00082221,0.00039369,-0.0287
 5021,0.07252133,0.00114805,-0.00175099,-0.00376533,0.05711382,-0.08669
 247,-0.30490814,0.00141057,0.00138750,0.00426117,0.00024074,-0.0004233
 9,0.00043131,-0.00114332,0.00066849,0.00061412,-0.00004410,-0.00004230
 ,0.00002442,0.00004677,-0.00012424,-0.00002718,0.00023098,-0.00016191,
 -0.00019927,0.00002013,0.00042710,0.00009982,0.00026055,0.00015697,-0.
 00078136,0.00824524,-0.00713165,-0.01872985,-0.00043904,-0.00019932,0.
 00007911,0.00024408,0.00058404,0.00345656,-0.00190974,-0.00015646,-0.0
 0004100,-0.00382094,0.00129464,-0.00235071,-0.00016265,-0.00039369,-0.
 00006491,-0.06144112,0.09255767,0.32190123\\0.00000733,0.00002262,-0.0
 0005806,-0.00000710,0.00002243,0.00005803,0.00000001,-0.00000882,0.000
 00024,-0.00012410,0.00000328,0.00002947,0.00012407,0.00000325,-0.00002
 954,0.00007147,-0.00001966,0.00001820,-0.00007151,-0.00001966,-0.00001
 821,0.00005122,0.00001621,-0.00004971,-0.00005118,0.00001621,0.0000496
 6,0.00000308,-0.00000359,0.00000555,-0.00000422,-0.00000290,-0.0000041
 0,0.00000308,0.00000223,0.00000200,-0.00000228,0.00000180,-0.00000237,
 0.00000026,0.00000255,-0.00000367,-0.00000002,0.00000234,0.00000270,-0
 .00001347,-0.00001916,0.00004826,0.00001337,-0.00001915,-0.00004845\\\
 @
 Job cpu time:       0 days 15 hours 43 minutes  3.6 seconds.
 File lengths (MBytes):  RWF=  63030 Int=      0 D2E=      0 Chk=     93 Scr=      1
 Normal termination of Gaussian 09 at Fri Aug 27 00:50:29 2021.
