 Entering Gaussian System, Link 0=g09
 Input=G4.KAVFUI01.gjf
 Output=G4.KAVFUI01.log
 Initial command:
 /public/home/users/caep010/software/Gaussian09/g09/l1.exe "/public/home/users/caep010/.cache/gau_scr/Gau-3637.inp" -scrdir="/public/home/users/caep010/.cache/gau_scr/"
 Entering Link 1 = /public/home/users/caep010/software/Gaussian09/g09/l1.exe PID=      3638.
  
 Copyright (c) 1988,1990,1992,1993,1995,1998,2003,2009,2015,
            Gaussian, Inc.  All Rights Reserved.
  
 This is part of the Gaussian(R) 09 program.  It is based on
 the Gaussian(R) 03 system (copyright 2003, Gaussian, Inc.),
 the Gaussian(R) 98 system (copyright 1998, Gaussian, Inc.),
 the Gaussian(R) 94 system (copyright 1995, Gaussian, Inc.),
 the Gaussian 92(TM) system (copyright 1992, Gaussian, Inc.),
 the Gaussian 90(TM) system (copyright 1990, Gaussian, Inc.),
 the Gaussian 88(TM) system (copyright 1988, Gaussian, Inc.),
 the Gaussian 86(TM) system (copyright 1986, Carnegie Mellon
 University), and the Gaussian 82(TM) system (copyright 1983,
 Carnegie Mellon University). Gaussian is a federally registered
 trademark of Gaussian, Inc.
  
 This software contains proprietary and confidential information,
 including trade secrets, belonging to Gaussian, Inc.
  
 This software is provided under written license and may be
 used, copied, transmitted, or stored only in accord with that
 written license.
  
 The following legend is applicable only to US Government
 contracts under FAR:
  
                    RESTRICTED RIGHTS LEGEND
  
 Use, reproduction and disclosure by the US Government is
 subject to restrictions as set forth in subparagraphs (a)
 and (c) of the Commercial Computer Software - Restricted
 Rights clause in FAR 52.227-19.
  
 Gaussian, Inc.
 340 Quinnipiac St., Bldg. 40, Wallingford CT 06492
  
  
 ---------------------------------------------------------------
 Warning -- This program may not be used in any manner that
 competes with the business of Gaussian, Inc. or will provide
 assistance to any competitor of Gaussian, Inc.  The licensee
 of this program is prohibited from giving any competitor of
 Gaussian, Inc. access to this program.  By using this program,
 the user acknowledges that Gaussian, Inc. is engaged in the
 business of creating and licensing software in the field of
 computational chemistry and represents and warrants to the
 licensee that it is not a competitor of Gaussian, Inc. and that
 it will not use this program in any manner prohibited above.
 ---------------------------------------------------------------
  

 Cite this work as:
 Gaussian 09, Revision E.01,
 M. J. Frisch, G. W. Trucks, H. B. Schlegel, G. E. Scuseria, 
 M. A. Robb, J. R. Cheeseman, G. Scalmani, V. Barone, B. Mennucci, 
 G. A. Petersson, H. Nakatsuji, M. Caricato, X. Li, H. P. Hratchian, 
 A. F. Izmaylov, J. Bloino, G. Zheng, J. L. Sonnenberg, M. Hada, 
 M. Ehara, K. Toyota, R. Fukuda, J. Hasegawa, M. Ishida, T. Nakajima, 
 Y. Honda, O. Kitao, H. Nakai, T. Vreven, J. A. Montgomery, Jr., 
 J. E. Peralta, F. Ogliaro, M. Bearpark, J. J. Heyd, E. Brothers, 
 K. N. Kudin, V. N. Staroverov, T. Keith, R. Kobayashi, J. Normand, 
 K. Raghavachari, A. Rendell, J. C. Burant, S. S. Iyengar, J. Tomasi, 
 M. Cossi, N. Rega, J. M. Millam, M. Klene, J. E. Knox, J. B. Cross, 
 V. Bakken, C. Adamo, J. Jaramillo, R. Gomperts, R. E. Stratmann, 
 O. Yazyev, A. J. Austin, R. Cammi, C. Pomelli, J. W. Ochterski, 
 R. L. Martin, K. Morokuma, V. G. Zakrzewski, G. A. Voth, 
 P. Salvador, J. J. Dannenberg, S. Dapprich, A. D. Daniels, 
 O. Farkas, J. B. Foresman, J. V. Ortiz, J. Cioslowski, 
 and D. J. Fox, Gaussian, Inc., Wallingford CT, 2013.
 
 ******************************************
 Gaussian 09:  ES64L-G09RevE.01 30-Nov-2015
                25-Aug-2021 
 ******************************************
 %nproc=32
 Will use up to   32 processors via shared memory.
 %mem=180GB
 ----------------
 #P G4 OPT=calcfc
 ----------------
 1/10=4,14=-1,18=20,19=15,26=3,38=1/1,3;
 2/9=110,12=2,17=6,18=5,40=1/2;
 3/5=35,7=104,11=2,16=1,25=1,30=1,71=2,74=-5,140=1/1,2,3;
 4//1;
 5/5=2,38=5/2;
 8/6=4,10=90,11=11/1;
 11/6=1,8=1,9=11,15=111,16=1/1,2,10;
 10/6=1,13=1/2;
 6/7=2,8=2,9=2,10=2,28=1/1;
 7/10=1,18=20,25=1/1,2,3,16;
 1/10=4,14=-1,18=20,19=15,26=3/3(2);
 2/9=110/2;
 99//99;
 2/9=110/2;
 3/5=35,7=104,11=2,16=1,25=1,30=1,71=1,74=-5/1,2,3;
 4/5=5,16=3,69=1/1;
 5/5=2,38=5/2;
 7//1,2,3,16;
 1/14=-1,18=20,19=15,26=3/3(-5);
 2/9=110/2;
 6/7=2,8=2,9=2,10=2,19=2,28=1/1;
 99/9=1/99;
 Leave Link    1 at Wed Aug 25 23:30:09 2021, MaxMem= 24159191040 cpu:         3.1
 (Enter /public/home/users/caep010/software/Gaussian09/g09/l101.exe)
 --------
 KAVFUI01
 --------
 Symbolic Z-matrix:
 Charge =  0 Multiplicity = 1
 N                     1.7678    4.0646    4.8205 
 O                     2.853     4.4397    4.3847 
 O                     1.2887    2.9595    4.6295 
 C                     0.999     4.986     5.6141 
 N                     1.4634    6.2507    5.8674 
 C                     0.5334    6.7826    6.5892 
 N                    -0.4874    5.8997    6.8044 
 H                     0.5558    7.6521    6.9195 
 N                    -1.6516    6.1286    7.5906 
 O                    -2.3337    5.1601    7.8049 
 O                    -1.7903    7.2674    7.9558 
 C                    -0.1871    4.7253    6.1692 
 H                    -0.6851    3.9405    6.1322 
 
 NAtoms=     13 NQM=       13 NQMF=       0 NMMI=      0 NMMIF=      0
                NMic=       0 NMicF=      0.
                    Isotopes and Nuclear Properties:
 (Nuclear quadrupole moments (NQMom) in fm**2, nuclear magnetic moments (NMagM)
  in nuclear magnetons)

  Atom         1           2           3           4           5           6           7           8           9          10
 IAtWgt=          14          16          16          12          14          12          14           1          14          16
 AtmWgt=  14.0030740  15.9949146  15.9949146  12.0000000  14.0030740  12.0000000  14.0030740   1.0078250  14.0030740  15.9949146
 NucSpn=           2           0           0           0           2           0           2           1           2           0
 AtZEff=   0.0000000   0.0000000   0.0000000   0.0000000   0.0000000   0.0000000   0.0000000   0.0000000   0.0000000   0.0000000
 NQMom=    2.0440000   0.0000000   0.0000000   0.0000000   2.0440000   0.0000000   2.0440000   0.0000000   2.0440000   0.0000000
 NMagM=    0.4037610   0.0000000   0.0000000   0.0000000   0.4037610   0.0000000   0.4037610   2.7928460   0.4037610   0.0000000
 AtZNuc=   7.0000000   8.0000000   8.0000000   6.0000000   7.0000000   6.0000000   7.0000000   1.0000000   7.0000000   8.0000000

  Atom        11          12          13
 IAtWgt=          16          12           1
 AtmWgt=  15.9949146  12.0000000   1.0078250
 NucSpn=           0           0           1
 AtZEff=   0.0000000   0.0000000   0.0000000
 NQMom=    0.0000000   0.0000000   0.0000000
 NMagM=    0.0000000   0.0000000   2.7928460
 AtZNuc=   8.0000000   6.0000000   1.0000000
 Leave Link  101 at Wed Aug 25 23:30:09 2021, MaxMem= 24159191040 cpu:        10.1
 (Enter /public/home/users/caep010/software/Gaussian09/g09/l103.exe)

 GradGradGradGradGradGradGradGradGradGradGradGradGradGradGradGradGradGrad
 Berny optimization.
 Initialization pass.
                           ----------------------------
                           !    Initial Parameters    !
                           ! (Angstroms and Degrees)  !
 --------------------------                            --------------------------
 ! Name  Definition              Value          Derivative Info.                !
 --------------------------------------------------------------------------------
 ! R1    R(1,2)                  1.2281         calculate D2E/DX2 analytically  !
 ! R2    R(1,3)                  1.2195         calculate D2E/DX2 analytically  !
 ! R3    R(1,4)                  1.4387         calculate D2E/DX2 analytically  !
 ! R4    R(4,5)                  1.3709         calculate D2E/DX2 analytically  !
 ! R5    R(4,12)                 1.3353         calculate D2E/DX2 analytically  !
 ! R6    R(5,6)                  1.2918         calculate D2E/DX2 analytically  !
 ! R7    R(6,7)                  1.3667         calculate D2E/DX2 analytically  !
 ! R8    R(6,8)                  0.9304         calculate D2E/DX2 analytically  !
 ! R9    R(7,9)                  1.4233         calculate D2E/DX2 analytically  !
 ! R10   R(7,12)                 1.3685         calculate D2E/DX2 analytically  !
 ! R11   R(9,10)                 1.2038         calculate D2E/DX2 analytically  !
 ! R12   R(9,11)                 1.2039         calculate D2E/DX2 analytically  !
 ! R13   R(12,13)                0.9302         calculate D2E/DX2 analytically  !
 ! A1    A(2,1,3)              124.6337         calculate D2E/DX2 analytically  !
 ! A2    A(2,1,4)              118.185          calculate D2E/DX2 analytically  !
 ! A3    A(3,1,4)              117.1813         calculate D2E/DX2 analytically  !
 ! A4    A(1,4,5)              120.7797         calculate D2E/DX2 analytically  !
 ! A5    A(1,4,12)             125.3771         calculate D2E/DX2 analytically  !
 ! A6    A(5,4,12)             113.8426         calculate D2E/DX2 analytically  !
 ! A7    A(4,5,6)              103.8402         calculate D2E/DX2 analytically  !
 ! A8    A(5,6,7)              111.0817         calculate D2E/DX2 analytically  !
 ! A9    A(5,6,8)              124.4595         calculate D2E/DX2 analytically  !
 ! A10   A(7,6,8)              124.4588         calculate D2E/DX2 analytically  !
 ! A11   A(6,7,9)              126.4423         calculate D2E/DX2 analytically  !
 ! A12   A(6,7,12)             108.5052         calculate D2E/DX2 analytically  !
 ! A13   A(9,7,12)             125.0205         calculate D2E/DX2 analytically  !
 ! A14   A(7,9,10)             115.6202         calculate D2E/DX2 analytically  !
 ! A15   A(7,9,11)             114.4502         calculate D2E/DX2 analytically  !
 ! A16   A(10,9,11)            129.92           calculate D2E/DX2 analytically  !
 ! A17   A(4,12,7)             102.7284         calculate D2E/DX2 analytically  !
 ! A18   A(4,12,13)            128.5901         calculate D2E/DX2 analytically  !
 ! A19   A(7,12,13)            128.6815         calculate D2E/DX2 analytically  !
 ! D1    D(2,1,4,5)              0.4501         calculate D2E/DX2 analytically  !
 ! D2    D(2,1,4,12)          -179.2246         calculate D2E/DX2 analytically  !
 ! D3    D(3,1,4,5)           -179.5639         calculate D2E/DX2 analytically  !
 ! D4    D(3,1,4,12)             0.7614         calculate D2E/DX2 analytically  !
 ! D5    D(1,4,5,6)            179.857          calculate D2E/DX2 analytically  !
 ! D6    D(12,4,5,6)            -0.433          calculate D2E/DX2 analytically  !
 ! D7    D(1,4,12,7)           179.9584         calculate D2E/DX2 analytically  !
 ! D8    D(1,4,12,13)           -0.0903         calculate D2E/DX2 analytically  !
 ! D9    D(5,4,12,7)             0.264          calculate D2E/DX2 analytically  !
 ! D10   D(5,4,12,13)         -179.7847         calculate D2E/DX2 analytically  !
 ! D11   D(4,5,6,7)              0.4152         calculate D2E/DX2 analytically  !
 ! D12   D(4,5,6,8)           -179.6187         calculate D2E/DX2 analytically  !
 ! D13   D(5,6,7,9)            177.7394         calculate D2E/DX2 analytically  !
 ! D14   D(5,6,7,12)            -0.2795         calculate D2E/DX2 analytically  !
 ! D15   D(8,6,7,9)             -2.2267         calculate D2E/DX2 analytically  !
 ! D16   D(8,6,7,12)           179.7544         calculate D2E/DX2 analytically  !
 ! D17   D(6,7,9,10)          -169.8991         calculate D2E/DX2 analytically  !
 ! D18   D(6,7,9,11)             9.0927         calculate D2E/DX2 analytically  !
 ! D19   D(12,7,9,10)            7.8068         calculate D2E/DX2 analytically  !
 ! D20   D(12,7,9,11)         -173.2014         calculate D2E/DX2 analytically  !
 ! D21   D(6,7,12,4)             0.0028         calculate D2E/DX2 analytically  !
 ! D22   D(6,7,12,13)         -179.9485         calculate D2E/DX2 analytically  !
 ! D23   D(9,7,12,4)          -178.0512         calculate D2E/DX2 analytically  !
 ! D24   D(9,7,12,13)            1.9975         calculate D2E/DX2 analytically  !
 --------------------------------------------------------------------------------
 Trust Radius=3.00D-01 FncErr=1.00D-07 GrdErr=1.00D-06
 Number of steps in this run=     66 maximum allowed number of steps=    100.
 GradGradGradGradGradGradGradGradGradGradGradGradGradGradGradGradGradGrad

 Leave Link  103 at Wed Aug 25 23:30:09 2021, MaxMem= 24159191040 cpu:         0.5
 (Enter /public/home/users/caep010/software/Gaussian09/g09/l202.exe)
                          Input orientation:                          
 ---------------------------------------------------------------------
 Center     Atomic      Atomic             Coordinates (Angstroms)
 Number     Number       Type             X           Y           Z
 ---------------------------------------------------------------------
      1          7           0        1.767800    4.064600    4.820500
      2          8           0        2.853000    4.439700    4.384700
      3          8           0        1.288700    2.959500    4.629500
      4          6           0        0.999000    4.986000    5.614100
      5          7           0        1.463400    6.250700    5.867400
      6          6           0        0.533400    6.782600    6.589200
      7          7           0       -0.487400    5.899700    6.804400
      8          1           0        0.555800    7.652100    6.919500
      9          7           0       -1.651600    6.128600    7.590600
     10          8           0       -2.333700    5.160100    7.804900
     11          8           0       -1.790300    7.267400    7.955800
     12          6           0       -0.187100    4.725300    6.169200
     13          1           0       -0.685100    3.940500    6.132200
 ---------------------------------------------------------------------
                    Distance matrix (angstroms):
                    1          2          3          4          5
     1  N    0.000000
     2  O    1.228121   0.000000
     3  O    1.219534   2.167476   0.000000
     4  C    1.438691   2.290673   2.271578   0.000000
     5  N    2.442886   2.721968   3.520641   1.370874   0.000000
     6  C    3.469808   3.966049   4.361994   2.096515   1.291825
     7  N    3.519855   4.375479   4.065648   2.112119   2.192439
     8  H    4.329538   4.692745   5.272735   3.001430   1.973468
     9  N    4.860643   5.781142   5.239911   3.498252   3.561959
    10  O    5.189322   6.254486   5.295997   3.992093   4.400146
    11  O    5.722596   6.504527   6.253200   4.297504   3.997706
    12  C    2.465188   3.536696   2.768883   1.335265   2.267615
    13  H    2.784363   3.977576   2.667650   2.048827   3.165943
                    6          7          8          9         10
     6  C    0.000000
     7  N    1.366695   0.000000
     8  H    0.930392   2.042650   0.000000
     9  N    2.490932   1.423330   2.764786   0.000000
    10  O    3.511509   2.226394   3.917041   1.203818   0.000000
    11  O    2.739016   2.212210   2.593472   1.203941   2.181460
    12  C    2.219911   1.368530   3.111432   2.476770   2.733580
    13  H    3.125880   2.080722   3.991948   2.801577   2.646362
                   11         12         13
    11  O    0.000000
    12  C    3.496350   0.000000
    13  H    3.951613   0.930206   0.000000
 Stoichiometry    C3H2N4O4
 Framework group  C1[X(C3H2N4O4)]
 Deg. of freedom    33
 Full point group                 C1      NOp   1
 Largest Abelian subgroup         C1      NOp   1
 Largest concise Abelian subgroup C1      NOp   1
                         Standard orientation:                         
 ---------------------------------------------------------------------
 Center     Atomic      Atomic             Coordinates (Angstroms)
 Number     Number       Type             X           Y           Z
 ---------------------------------------------------------------------
      1          7           0       -2.433674    0.246940   -0.008341
      2          8           0       -3.280522   -0.640939    0.044566
      3          8           0       -2.682395    1.439543   -0.064027
      4          6           0       -1.046804   -0.135698   -0.004640
      5          7           0       -0.683632   -1.456577    0.047110
      6          6           0        0.607656   -1.422885    0.031200
      7          7           0        1.065265   -0.136059   -0.019069
      8          1           0        1.154204   -2.175542    0.051768
      9          7           0        2.426866    0.278286   -0.003912
     10          8           0        2.609842    1.460044    0.134455
     11          8           0        3.222046   -0.619010   -0.113556
     12          6           0       -0.012128    0.707471   -0.042643
     13          1           0       -0.022094    1.636979   -0.077289
 ---------------------------------------------------------------------
 Rotational constants (GHZ):      3.3579402      0.6566216      0.5500282
 Leave Link  202 at Wed Aug 25 23:30:09 2021, MaxMem= 24159191040 cpu:         0.5
 (Enter /public/home/users/caep010/software/Gaussian09/g09/l301.exe)
 Standard basis: GTBas3 (6D, 7F)
 Ernie: Thresh=  0.10000D-02 Tol=  0.10000D-05 Strict=F.
 There are   351 symmetry adapted cartesian basis functions of A   symmetry.
 There are   318 symmetry adapted basis functions of A   symmetry.
   318 basis functions,   498 primitive gaussians,   351 cartesian basis functions
    40 alpha electrons       40 beta electrons
       nuclear repulsion energy       610.0920678679 Hartrees.
 IExCor=  402 DFT=T Ex+Corr=B3LYP ExCW=0 ScaHFX=  0.200000
 ScaDFX=  0.800000  0.720000  1.000000  0.810000 ScalE2=  1.000000  1.000000
 IRadAn=      0 IRanWt=     -1 IRanGd=            0 ICorTp=0 IEmpDi=  4
 NAtoms=   13 NActive=   13 NUniq=   13 SFac= 1.00D+00 NAtFMM=   60 NAOKFM=F Big=F
 Integral buffers will be    131072 words long.
 Raffenetti 2 integral format.
 Two-electron integral symmetry is turned on.
 Leave Link  301 at Wed Aug 25 23:30:09 2021, MaxMem= 24159191040 cpu:         2.2
 (Enter /public/home/users/caep010/software/Gaussian09/g09/l302.exe)
 NPDir=0 NMtPBC=     1 NCelOv=     1 NCel=       1 NClECP=     1 NCelD=      1
         NCelK=      1 NCelE2=     1 NClLst=     1 CellRange=     0.0.
 One-electron integrals computed using PRISM.
 NBasis=   318 RedAO= T EigKep=  1.53D-04  NBF=   318
 NBsUse=   318 1.00D-06 EigRej= -1.00D+00 NBFU=   318
 Precomputing XC quadrature grid using
 IXCGrd= 4 IRadAn=           0 IRanWt=          -1 IRanGd=           0 AccXCQ= 0.00D+00.
 Generated NRdTot=       0 NPtTot=           0 NUsed=           0 NTot=          32
 NSgBfM=   350   350   350   350   350 MxSgAt=    13 MxSgA2=    13.
 Leave Link  302 at Wed Aug 25 23:30:10 2021, MaxMem= 24159191040 cpu:        16.1
 (Enter /public/home/users/caep010/software/Gaussian09/g09/l303.exe)
 DipDrv:  MaxL=1.
 Leave Link  303 at Wed Aug 25 23:30:10 2021, MaxMem= 24159191040 cpu:         2.0
 (Enter /public/home/users/caep010/software/Gaussian09/g09/l401.exe)
 ExpMin= 1.61D-01 ExpMax= 5.48D+03 ExpMxC= 8.25D+02 IAcc=1 IRadAn=         1 AccDes= 0.00D+00
 Harris functional with IExCor=  402 and IRadAn=       1 diagonalized for initial guess.
 HarFok:  IExCor=  402 AccDes= 0.00D+00 IRadAn=         1 IDoV= 1 UseB2=F ITyADJ=14
 ICtDFT=  3500011 ScaDFX=  1.000000  1.000000  1.000000  1.000000
 FoFCou: FMM=F IPFlag=           0 FMFlag=      100000 FMFlg1=           0
         NFxFlg=           0 DoJE=T BraDBF=F KetDBF=T FulRan=T
         wScrn=  0.000000 ICntrl=     500 IOpCl=  0 I1Cent=   200000004 NGrid=           0
         NMat0=    1 NMatS0=      1 NMatT0=    0 NMatD0=    1 NMtDS0=    0 NMtDT0=    0
 Petite list used in FoFCou.
 Harris En= -635.230688990640    
 JPrj=0 DoOrth=F DoCkMO=F.
 Leave Link  401 at Wed Aug 25 23:30:11 2021, MaxMem= 24159191040 cpu:        21.1
 (Enter /public/home/users/caep010/software/Gaussian09/g09/l502.exe)
 Closed shell SCF:
 Using DIIS extrapolation, IDIIS=  1040.
 Integral symmetry usage will be decided dynamically.
 Keep R1 ints in memory in canonical form, NReq=1308544116.
 IVT=      401907 IEndB=      401907 NGot= 24159191040 MDV= 22872453853
 LenX= 22872453853 LenY= 22872330211
 Requested convergence on RMS density matrix=1.00D-08 within 128 cycles.
 Requested convergence on MAX density matrix=1.00D-06.
 Requested convergence on             energy=1.00D-06.
 No special actions if energy rises.
 FoFCou: FMM=F IPFlag=           0 FMFlag=           0 FMFlg1=           0
         NFxFlg=           0 DoJE=F BraDBF=F KetDBF=F FulRan=T
         wScrn=  0.000000 ICntrl=     600 IOpCl=  0 I1Cent=           0 NGrid=           0
         NMat0=    1 NMatS0=  50721 NMatT0=    0 NMatD0=    1 NMtDS0=    0 NMtDT0=    0
 Symmetry not used in FoFCou.
 Integral accuracy reduced to 1.0D-05 until final iterations.

 Cycle   1  Pass 0  IDiag  1:
 E= -634.752141051136    
 DIIS: error= 5.12D-02 at cycle   1 NSaved=   1.
 NSaved= 1 IEnMin= 1 EnMin= -634.752141051136     IErMin= 1 ErrMin= 5.12D-02
 ErrMax= 5.12D-02  0.00D+00 EMaxC= 1.00D-01 BMatC= 5.93D-01 BMatP= 5.93D-01
 IDIUse=3 WtCom= 4.88D-01 WtEn= 5.12D-01
 Coeff-Com:  0.100D+01
 Coeff-En:   0.100D+01
 Coeff:      0.100D+01
 Gap=     0.180 Goal=   None    Shift=    0.000
 GapD=    0.180 DampG=1.000 DampE=0.500 DampFc=0.5000 IDamp=-1.
 Damping current iteration by 5.00D-01
 RMSDP=4.95D-03 MaxDP=3.03D-01              OVMax= 3.58D-01

 Cycle   2  Pass 0  IDiag  1:
 E= -634.740271692704     Delta-E=        0.011869358432 Rises=F Damp=T
 DIIS: error= 1.75D-02 at cycle   2 NSaved=   2.
 NSaved= 2 IEnMin= 1 EnMin= -634.752141051136     IErMin= 2 ErrMin= 1.75D-02
 ErrMax= 1.75D-02  0.00D+00 EMaxC= 1.00D-01 BMatC= 1.86D-01 BMatP= 5.93D-01
 IDIUse=3 WtCom= 8.25D-01 WtEn= 1.75D-01
 Coeff-Com:  0.339D+00 0.661D+00
 Coeff-En:   0.510D+00 0.490D+00
 Coeff:      0.369D+00 0.631D+00
 Gap=     0.146 Goal=   None    Shift=    0.000
 RMSDP=1.51D-03 MaxDP=1.24D-01 DE= 1.19D-02 OVMax= 2.34D-01

 Cycle   3  Pass 0  IDiag  1:
 E= -635.147173025633     Delta-E=       -0.406901332929 Rises=F Damp=F
 DIIS: error= 7.93D-03 at cycle   3 NSaved=   3.
 NSaved= 3 IEnMin= 3 EnMin= -635.147173025633     IErMin= 3 ErrMin= 7.93D-03
 ErrMax= 7.93D-03  0.00D+00 EMaxC= 1.00D-01 BMatC= 3.59D-02 BMatP= 1.86D-01
 IDIUse=3 WtCom= 9.21D-01 WtEn= 7.93D-02
 Coeff-Com:  0.166D+00 0.310D+00 0.524D+00
 Coeff-En:   0.000D+00 0.000D+00 0.100D+01
 Coeff:      0.153D+00 0.286D+00 0.561D+00
 Gap=     0.185 Goal=   None    Shift=    0.000
 RMSDP=8.98D-04 MaxDP=5.96D-02 DE=-4.07D-01 OVMax= 1.21D-01

 Cycle   4  Pass 0  IDiag  1:
 E= -635.151856095977     Delta-E=       -0.004683070344 Rises=F Damp=F
 DIIS: error= 1.02D-02 at cycle   4 NSaved=   4.
 NSaved= 4 IEnMin= 4 EnMin= -635.151856095977     IErMin= 3 ErrMin= 7.93D-03
 ErrMax= 1.02D-02  0.00D+00 EMaxC= 1.00D-01 BMatC= 3.22D-02 BMatP= 3.59D-02
 IDIUse=3 WtCom= 8.98D-01 WtEn= 1.02D-01
 Coeff-Com:  0.506D-01 0.783D-01 0.453D+00 0.419D+00
 Coeff-En:   0.000D+00 0.000D+00 0.469D+00 0.531D+00
 Coeff:      0.455D-01 0.703D-01 0.454D+00 0.430D+00
 Gap=     0.183 Goal=   None    Shift=    0.000
 RMSDP=5.54D-04 MaxDP=4.44D-02 DE=-4.68D-03 OVMax= 8.95D-02

 Cycle   5  Pass 0  IDiag  1:
 E= -635.174936944353     Delta-E=       -0.023080848376 Rises=F Damp=F
 DIIS: error= 3.77D-03 at cycle   5 NSaved=   5.
 NSaved= 5 IEnMin= 5 EnMin= -635.174936944353     IErMin= 5 ErrMin= 3.77D-03
 ErrMax= 3.77D-03  0.00D+00 EMaxC= 1.00D-01 BMatC= 3.86D-03 BMatP= 3.22D-02
 IDIUse=3 WtCom= 9.62D-01 WtEn= 3.77D-02
 Coeff-Com:  0.162D-01 0.157D-01 0.259D+00 0.310D+00 0.399D+00
 Coeff-En:   0.000D+00 0.000D+00 0.000D+00 0.978D-01 0.902D+00
 Coeff:      0.156D-01 0.151D-01 0.249D+00 0.302D+00 0.418D+00
 Gap=     0.177 Goal=   None    Shift=    0.000
 RMSDP=2.04D-04 MaxDP=1.58D-02 DE=-2.31D-02 OVMax= 3.19D-02

 Cycle   6  Pass 0  IDiag  1:
 E= -635.177675661471     Delta-E=       -0.002738717119 Rises=F Damp=F
 DIIS: error= 1.06D-03 at cycle   6 NSaved=   6.
 NSaved= 6 IEnMin= 6 EnMin= -635.177675661471     IErMin= 6 ErrMin= 1.06D-03
 ErrMax= 1.06D-03  0.00D+00 EMaxC= 1.00D-01 BMatC= 4.92D-04 BMatP= 3.86D-03
 IDIUse=3 WtCom= 9.89D-01 WtEn= 1.06D-02
 Coeff-Com:  0.233D-02-0.274D-02 0.899D-01 0.128D+00 0.291D+00 0.491D+00
 Coeff-En:   0.000D+00 0.000D+00 0.000D+00 0.000D+00 0.135D+00 0.865D+00
 Coeff:      0.230D-02-0.272D-02 0.890D-01 0.127D+00 0.290D+00 0.495D+00
 Gap=     0.174 Goal=   None    Shift=    0.000
 RMSDP=6.79D-05 MaxDP=4.17D-03 DE=-2.74D-03 OVMax= 7.68D-03

 Cycle   7  Pass 0  IDiag  1:
 E= -635.178039484341     Delta-E=       -0.000363822870 Rises=F Damp=F
 DIIS: error= 2.52D-04 at cycle   7 NSaved=   7.
 NSaved= 7 IEnMin= 7 EnMin= -635.178039484341     IErMin= 7 ErrMin= 2.52D-04
 ErrMax= 2.52D-04  0.00D+00 EMaxC= 1.00D-01 BMatC= 3.72D-05 BMatP= 4.92D-04
 IDIUse=3 WtCom= 9.97D-01 WtEn= 2.52D-03
 Coeff-Com:  0.473D-04-0.250D-02 0.343D-01 0.513D-01 0.141D+00 0.305D+00
 Coeff-Com:  0.471D+00
 Coeff-En:   0.000D+00 0.000D+00 0.000D+00 0.000D+00 0.000D+00 0.301D-01
 Coeff-En:   0.970D+00
 Coeff:      0.471D-04-0.249D-02 0.342D-01 0.512D-01 0.140D+00 0.304D+00
 Coeff:      0.472D+00
 Gap=     0.174 Goal=   None    Shift=    0.000
 RMSDP=1.96D-05 MaxDP=9.49D-04 DE=-3.64D-04 OVMax= 1.84D-03

 Cycle   8  Pass 0  IDiag  1:
 E= -635.178070636104     Delta-E=       -0.000031151763 Rises=F Damp=F
 DIIS: error= 5.17D-05 at cycle   8 NSaved=   8.
 NSaved= 8 IEnMin= 8 EnMin= -635.178070636104     IErMin= 8 ErrMin= 5.17D-05
 ErrMax= 5.17D-05  0.00D+00 EMaxC= 1.00D-01 BMatC= 2.16D-06 BMatP= 3.72D-05
 IDIUse=1 WtCom= 1.00D+00 WtEn= 0.00D+00
 Coeff-Com: -0.318D-03-0.114D-02 0.804D-02 0.128D-01 0.429D-01 0.110D+00
 Coeff-Com:  0.244D+00 0.583D+00
 Coeff:     -0.318D-03-0.114D-02 0.804D-02 0.128D-01 0.429D-01 0.110D+00
 Coeff:      0.244D+00 0.583D+00
 Gap=     0.174 Goal=   None    Shift=    0.000
 RMSDP=5.66D-06 MaxDP=3.55D-04 DE=-3.12D-05 OVMax= 7.71D-04

 Initial convergence to 1.0D-05 achieved.  Increase integral accuracy.
 Cycle   9  Pass 1  IDiag  1:
 E= -635.178100494380     Delta-E=       -0.000029858276 Rises=F Damp=F
 DIIS: error= 4.52D-05 at cycle   1 NSaved=   1.
 NSaved= 1 IEnMin= 1 EnMin= -635.178100494380     IErMin= 1 ErrMin= 4.52D-05
 ErrMax= 4.52D-05  0.00D+00 EMaxC= 1.00D-01 BMatC= 1.10D-06 BMatP= 1.10D-06
 IDIUse=1 WtCom= 1.00D+00 WtEn= 0.00D+00
 Coeff-Com:  0.100D+01
 Coeff:      0.100D+01
 Gap=     0.174 Goal=   None    Shift=    0.000
 RMSDP=5.66D-06 MaxDP=3.55D-04 DE=-2.99D-05 OVMax= 1.59D-03

 Cycle  10  Pass 1  IDiag  1:
 E= -635.178095510018     Delta-E=        0.000004984362 Rises=F Damp=F
 DIIS: error= 1.37D-04 at cycle   2 NSaved=   2.
 NSaved= 2 IEnMin= 1 EnMin= -635.178100494380     IErMin= 1 ErrMin= 4.52D-05
 ErrMax= 1.37D-04  0.00D+00 EMaxC= 1.00D-01 BMatC= 7.50D-06 BMatP= 1.10D-06
 IDIUse=3 WtCom= 4.61D-01 WtEn= 5.39D-01
 Coeff-Com:  0.731D+00 0.269D+00
 Coeff-En:   0.817D+00 0.183D+00
 Coeff:      0.777D+00 0.223D+00
 Gap=     0.174 Goal=   None    Shift=    0.000
 RMSDP=5.89D-06 MaxDP=5.08D-04 DE= 4.98D-06 OVMax= 1.06D-03

 Cycle  11  Pass 1  IDiag  1:
 E= -635.178101219875     Delta-E=       -0.000005709857 Rises=F Damp=F
 DIIS: error= 1.57D-05 at cycle   3 NSaved=   3.
 NSaved= 3 IEnMin= 3 EnMin= -635.178101219875     IErMin= 3 ErrMin= 1.57D-05
 ErrMax= 1.57D-05  0.00D+00 EMaxC= 1.00D-01 BMatC= 1.51D-07 BMatP= 1.10D-06
 IDIUse=1 WtCom= 1.00D+00 WtEn= 0.00D+00
 Coeff-Com:  0.238D+00-0.138D-01 0.776D+00
 Coeff:      0.238D+00-0.138D-01 0.776D+00
 Gap=     0.174 Goal=   None    Shift=    0.000
 RMSDP=1.12D-06 MaxDP=7.95D-05 DE=-5.71D-06 OVMax= 1.24D-04

 Cycle  12  Pass 1  IDiag  1:
 E= -635.178101323429     Delta-E=       -0.000000103554 Rises=F Damp=F
 DIIS: error= 7.02D-06 at cycle   4 NSaved=   4.
 NSaved= 4 IEnMin= 4 EnMin= -635.178101323429     IErMin= 4 ErrMin= 7.02D-06
 ErrMax= 7.02D-06  0.00D+00 EMaxC= 1.00D-01 BMatC= 1.90D-08 BMatP= 1.51D-07
 IDIUse=1 WtCom= 1.00D+00 WtEn= 0.00D+00
 Coeff-Com: -0.362D-02-0.633D-01 0.482D+00 0.585D+00
 Coeff:     -0.362D-02-0.633D-01 0.482D+00 0.585D+00
 Gap=     0.174 Goal=   None    Shift=    0.000
 RMSDP=3.67D-07 MaxDP=2.41D-05 DE=-1.04D-07 OVMax= 4.10D-05

 Cycle  13  Pass 1  IDiag  1:
 E= -635.178101336739     Delta-E=       -0.000000013310 Rises=F Damp=F
 DIIS: error= 2.48D-06 at cycle   5 NSaved=   5.
 NSaved= 5 IEnMin= 5 EnMin= -635.178101336739     IErMin= 5 ErrMin= 2.48D-06
 ErrMax= 2.48D-06  0.00D+00 EMaxC= 1.00D-01 BMatC= 1.74D-09 BMatP= 1.90D-08
 IDIUse=1 WtCom= 1.00D+00 WtEn= 0.00D+00
 Coeff-Com: -0.982D-02-0.424D-01 0.300D+00 0.393D+00 0.359D+00
 Coeff:     -0.982D-02-0.424D-01 0.300D+00 0.393D+00 0.359D+00
 Gap=     0.174 Goal=   None    Shift=    0.000
 RMSDP=1.37D-07 MaxDP=1.17D-05 DE=-1.33D-08 OVMax= 2.31D-05

 Cycle  14  Pass 1  IDiag  1:
 E= -635.178101337953     Delta-E=       -0.000000001214 Rises=F Damp=F
 DIIS: error= 1.08D-06 at cycle   6 NSaved=   6.
 NSaved= 6 IEnMin= 6 EnMin= -635.178101337953     IErMin= 6 ErrMin= 1.08D-06
 ErrMax= 1.08D-06  0.00D+00 EMaxC= 1.00D-01 BMatC= 2.58D-10 BMatP= 1.74D-09
 IDIUse=1 WtCom= 1.00D+00 WtEn= 0.00D+00
 Coeff-Com: -0.650D-02-0.229D-01 0.157D+00 0.213D+00 0.279D+00 0.380D+00
 Coeff:     -0.650D-02-0.229D-01 0.157D+00 0.213D+00 0.279D+00 0.380D+00
 Gap=     0.174 Goal=   None    Shift=    0.000
 RMSDP=4.40D-08 MaxDP=3.76D-06 DE=-1.21D-09 OVMax= 8.01D-06

 Cycle  15  Pass 1  IDiag  1:
 E= -635.178101338117     Delta-E=       -0.000000000164 Rises=F Damp=F
 DIIS: error= 1.49D-07 at cycle   7 NSaved=   7.
 NSaved= 7 IEnMin= 7 EnMin= -635.178101338117     IErMin= 7 ErrMin= 1.49D-07
 ErrMax= 1.49D-07  0.00D+00 EMaxC= 1.00D-01 BMatC= 1.09D-11 BMatP= 2.58D-10
 IDIUse=1 WtCom= 1.00D+00 WtEn= 0.00D+00
 Coeff-Com: -0.216D-02-0.632D-02 0.416D-01 0.589D-01 0.110D+00 0.211D+00
 Coeff-Com:  0.587D+00
 Coeff:     -0.216D-02-0.632D-02 0.416D-01 0.589D-01 0.110D+00 0.211D+00
 Coeff:      0.587D+00
 Gap=     0.174 Goal=   None    Shift=    0.000
 RMSDP=1.10D-08 MaxDP=7.26D-07 DE=-1.64D-10 OVMax= 1.30D-06

 Cycle  16  Pass 1  IDiag  1:
 E= -635.178101338116     Delta-E=        0.000000000001 Rises=F Damp=F
 DIIS: error= 3.53D-08 at cycle   8 NSaved=   8.
 NSaved= 8 IEnMin= 7 EnMin= -635.178101338117     IErMin= 8 ErrMin= 3.53D-08
 ErrMax= 3.53D-08  0.00D+00 EMaxC= 1.00D-01 BMatC= 1.01D-12 BMatP= 1.09D-11
 IDIUse=1 WtCom= 1.00D+00 WtEn= 0.00D+00
 Coeff-Com: -0.362D-03-0.607D-03 0.317D-02 0.593D-02 0.239D-01 0.596D-01
 Coeff-Com:  0.288D+00 0.620D+00
 Coeff:     -0.362D-03-0.607D-03 0.317D-02 0.593D-02 0.239D-01 0.596D-01
 Coeff:      0.288D+00 0.620D+00
 Gap=     0.174 Goal=   None    Shift=    0.000
 RMSDP=4.17D-09 MaxDP=2.83D-07 DE= 1.36D-12 OVMax= 4.07D-07

 SCF Done:  E(RB3LYP) =  -635.178101338     A.U. after   16 cycles
            NFock= 16  Conv=0.42D-08     -V/T= 2.0048
 KE= 6.321613272148D+02 PE=-2.708050906804D+03 EE= 8.306194103828D+02
 Leave Link  502 at Wed Aug 25 23:30:53 2021, MaxMem= 24159191040 cpu:       254.3
 (Enter /public/home/users/caep010/software/Gaussian09/g09/l801.exe)
 DoSCS=F DFT=T ScalE2(SS,OS)=  1.000000  1.000000
 Range of M.O.s used for correlation:     1   318
 NBasis=   318 NAE=    40 NBE=    40 NFC=     0 NFV=     0
 NROrb=    318 NOA=    40 NOB=    40 NVA=   278 NVB=   278

 **** Warning!!: The largest alpha MO coefficient is  0.51815879D+02

 Leave Link  801 at Wed Aug 25 23:30:53 2021, MaxMem= 24159191040 cpu:         0.6
 (Enter /public/home/users/caep010/software/Gaussian09/g09/l1101.exe)
 Using compressed storage, NAtomX=    13.
 Will process     14 centers per pass.
 Leave Link 1101 at Wed Aug 25 23:30:54 2021, MaxMem= 24159191040 cpu:        17.4
 (Enter /public/home/users/caep010/software/Gaussian09/g09/l1102.exe)
 Symmetrizing basis deriv contribution to polar:
 IMax=3 JMax=2 DiffMx= 0.00D+00
 Leave Link 1102 at Wed Aug 25 23:30:54 2021, MaxMem= 24159191040 cpu:         0.9
 (Enter /public/home/users/caep010/software/Gaussian09/g09/l1110.exe)
 Forming Gx(P) for the SCF density, NAtomX=    13.
 Integral derivatives from FoFJK, PRISM(SPDF).
 Do as many integral derivatives as possible in FoFJK.
 G2DrvN: MDV=   24159190832.
 G2DrvN: will do    14 centers at a time, making    1 passes.
 Calling FoFCou, ICntrl=  3107 FMM=F I1Cent=   0 AccDes= 0.00D+00.
 FoFJK:  IHMeth= 1 ICntrl=    3107 DoSepK=F KAlg= 0 I1Cent=   0 FoldK=F
 IRaf=         0 NMat=   1 IRICut=       1 DoRegI=T DoRafI=F ISym2E= 0.
 FoFCou: FMM=F IPFlag=           0 FMFlag=      100000 FMFlg1=           0
         NFxFlg=           0 DoJE=F BraDBF=F KetDBF=F FulRan=T
         wScrn=  0.000000 ICntrl=    3107 IOpCl=  0 I1Cent=           0 NGrid=           0
         NMat0=    1 NMatS0=      1 NMatT0=    0 NMatD0=    1 NMtDS0=    0 NMtDT0=    0
 Symmetry not used in FoFCou.
 End of G2Drv F.D. properties file   721 does not exist.
 End of G2Drv F.D. properties file   722 does not exist.
 End of G2Drv F.D. properties file   788 does not exist.
 Leave Link 1110 at Wed Aug 25 23:31:08 2021, MaxMem= 24159191040 cpu:       425.5
 (Enter /public/home/users/caep010/software/Gaussian09/g09/l1002.exe)
 Minotr:  Closed shell wavefunction.
          IDoAtm=1111111111111
          Direct CPHF calculation.
          Differentiating once with respect to nuclear coordinates.
          Requested convergence is 1.0D-08 RMS, and 1.0D-07 maximum.
          Secondary convergence is 1.0D-12 RMS, and 1.0D-12 maximum.
          NewPWx=T KeepS1=F KeepF1=F KeepIn=T MapXYZ=F SortEE=F KeepMc=T.
          MDV=   24159190588 using IRadAn=       2.
 Generate precomputed XC quadrature information.
 Keep R1 ints in memory in canonical form, NReq=1308147370.
 FoFCou: FMM=F IPFlag=           0 FMFlag=           0 FMFlg1=           0
         NFxFlg=           0 DoJE=F BraDBF=F KetDBF=F FulRan=T
         wScrn=  0.000000 ICntrl=     600 IOpCl=  0 I1Cent=           0 NGrid=           0
         NMat0=    1 NMatS0=  50721 NMatT0=    0 NMatD0=    1 NMtDS0=    0 NMtDT0=    0
 Symmetry not used in FoFCou.
          Solving linear equations simultaneously, MaxMat=       0.
          There are    42 degrees of freedom in the 1st order CPHF.  IDoFFX=6 NUNeed=     0.
     36 vectors produced by pass  0 Test12= 2.65D-14 2.38D-09 XBig12= 3.22D-01 1.48D-01.
 AX will form    36 AO Fock derivatives at one time.
     36 vectors produced by pass  1 Test12= 2.65D-14 2.38D-09 XBig12= 4.87D-01 2.98D-01.
     36 vectors produced by pass  2 Test12= 2.65D-14 2.38D-09 XBig12= 8.00D-03 1.12D-02.
     36 vectors produced by pass  3 Test12= 2.65D-14 2.38D-09 XBig12= 1.26D-04 1.69D-03.
     36 vectors produced by pass  4 Test12= 2.65D-14 2.38D-09 XBig12= 8.55D-07 1.73D-04.
     36 vectors produced by pass  5 Test12= 2.65D-14 2.38D-09 XBig12= 2.03D-09 6.81D-06.
     30 vectors produced by pass  6 Test12= 2.65D-14 2.38D-09 XBig12= 3.55D-12 2.92D-07.
      3 vectors produced by pass  7 Test12= 2.65D-14 2.38D-09 XBig12= 5.90D-15 8.48D-09.
 InvSVY:  IOpt=1 It=  1 EMax= 2.11D-15
 Solved reduced A of dimension   249 with    36 vectors.
 End of Minotr F.D. properties file   721 does not exist.
 End of Minotr F.D. properties file   722 does not exist.
 End of Minotr F.D. properties file   788 does not exist.
 Leave Link 1002 at Wed Aug 25 23:31:31 2021, MaxMem= 24159191040 cpu:       724.2
 (Enter /public/home/users/caep010/software/Gaussian09/g09/l601.exe)
 Copying SCF densities to generalized density rwf, IOpCl= 0 IROHF=0.

 **********************************************************************

            Population analysis using the SCF density.

 **********************************************************************

 Orbital symmetries:
       Occupied  (A) (A) (A) (A) (A) (A) (A) (A) (A) (A) (A) (A)
                 (A) (A) (A) (A) (A) (A) (A) (A) (A) (A) (A) (A)
                 (A) (A) (A) (A) (A) (A) (A) (A) (A) (A) (A) (A)
                 (A) (A) (A) (A)
       Virtual   (A) (A) (A) (A) (A) (A) (A) (A) (A) (A) (A) (A)
                 (A) (A) (A) (A) (A) (A) (A) (A) (A) (A) (A) (A)
                 (A) (A) (A) (A) (A) (A) (A) (A) (A) (A) (A) (A)
                 (A) (A) (A) (A) (A) (A) (A) (A) (A) (A) (A) (A)
                 (A) (A) (A) (A) (A) (A) (A) (A) (A) (A) (A) (A)
                 (A) (A) (A) (A) (A) (A) (A) (A) (A) (A) (A) (A)
                 (A) (A) (A) (A) (A) (A) (A) (A) (A) (A) (A) (A)
                 (A) (A) (A) (A) (A) (A) (A) (A) (A) (A) (A) (A)
                 (A) (A) (A) (A) (A) (A) (A) (A) (A) (A) (A) (A)
                 (A) (A) (A) (A) (A) (A) (A) (A) (A) (A) (A) (A)
                 (A) (A) (A) (A) (A) (A) (A) (A) (A) (A) (A) (A)
                 (A) (A) (A) (A) (A) (A) (A) (A) (A) (A) (A) (A)
                 (A) (A) (A) (A) (A) (A) (A) (A) (A) (A) (A) (A)
                 (A) (A) (A) (A) (A) (A) (A) (A) (A) (A) (A) (A)
                 (A) (A) (A) (A) (A) (A) (A) (A) (A) (A) (A) (A)
                 (A) (A) (A) (A) (A) (A) (A) (A) (A) (A) (A) (A)
                 (A) (A) (A) (A) (A) (A) (A) (A) (A) (A) (A) (A)
                 (A) (A) (A) (A) (A) (A) (A) (A) (A) (A) (A) (A)
                 (A) (A) (A) (A) (A) (A) (A) (A) (A) (A) (A) (A)
                 (A) (A) (A) (A) (A) (A) (A) (A) (A) (A) (A) (A)
                 (A) (A) (A) (A) (A) (A) (A) (A) (A) (A) (A) (A)
                 (A) (A) (A) (A) (A) (A) (A) (A) (A) (A) (A) (A)
                 (A) (A) (A) (A) (A) (A) (A) (A) (A) (A) (A) (A)
                 (A) (A)
 The electronic state is 1-A.
 Alpha  occ. eigenvalues --  -19.23996 -19.23863 -19.18187 -19.18001 -14.66135
 Alpha  occ. eigenvalues --  -14.57823 -14.48765 -14.37522 -10.28914 -10.28850
 Alpha  occ. eigenvalues --  -10.26854  -1.31833  -1.23960  -1.14111  -1.10245
 Alpha  occ. eigenvalues --   -1.06227  -0.96871  -0.85470  -0.80143  -0.74047
 Alpha  occ. eigenvalues --   -0.67038  -0.63594  -0.62157  -0.61138  -0.57423
 Alpha  occ. eigenvalues --   -0.55809  -0.55171  -0.53470  -0.52591  -0.50000
 Alpha  occ. eigenvalues --   -0.49186  -0.39304  -0.37571  -0.36419  -0.35322
 Alpha  occ. eigenvalues --   -0.33315  -0.31987  -0.31778  -0.30423  -0.29916
 Alpha virt. eigenvalues --   -0.12541  -0.08731  -0.01581   0.04313   0.04768
 Alpha virt. eigenvalues --    0.13003   0.13827   0.15348   0.15768   0.17492
 Alpha virt. eigenvalues --    0.21378   0.23198   0.27252   0.28700   0.31036
 Alpha virt. eigenvalues --    0.34048   0.36510   0.37799   0.40086   0.40882
 Alpha virt. eigenvalues --    0.45350   0.46237   0.47625   0.50843   0.51463
 Alpha virt. eigenvalues --    0.52088   0.55465   0.56895   0.57845   0.59682
 Alpha virt. eigenvalues --    0.60791   0.61564   0.63732   0.64337   0.65921
 Alpha virt. eigenvalues --    0.66810   0.67379   0.69154   0.69850   0.72719
 Alpha virt. eigenvalues --    0.73908   0.75398   0.77816   0.79677   0.79938
 Alpha virt. eigenvalues --    0.81606   0.82542   0.84486   0.85237   0.87469
 Alpha virt. eigenvalues --    0.88428   0.89921   0.91606   0.92575   0.92694
 Alpha virt. eigenvalues --    0.94552   0.95384   0.95917   0.96983   0.97712
 Alpha virt. eigenvalues --    0.98434   1.01227   1.02871   1.04471   1.06245
 Alpha virt. eigenvalues --    1.07028   1.10134   1.12231   1.12524   1.17460
 Alpha virt. eigenvalues --    1.18082   1.20323   1.22432   1.24928   1.27096
 Alpha virt. eigenvalues --    1.29093   1.30599   1.32454   1.33828   1.35513
 Alpha virt. eigenvalues --    1.38724   1.39670   1.40729   1.41921   1.44066
 Alpha virt. eigenvalues --    1.46832   1.49874   1.50494   1.52676   1.53741
 Alpha virt. eigenvalues --    1.56892   1.58460   1.58540   1.62451   1.63929
 Alpha virt. eigenvalues --    1.65045   1.68413   1.69519   1.70741   1.74221
 Alpha virt. eigenvalues --    1.75089   1.76034   1.78568   1.81655   1.83003
 Alpha virt. eigenvalues --    1.89054   1.89691   1.95900   2.01182   2.13349
 Alpha virt. eigenvalues --    2.16148   2.19780   2.25013   2.26290   2.32688
 Alpha virt. eigenvalues --    2.37949   2.42355   2.43618   2.46765   2.49328
 Alpha virt. eigenvalues --    2.65048   2.71913   2.79506   2.82175   2.91624
 Alpha virt. eigenvalues --    2.93410   2.98752   3.01018   3.03052   3.04354
 Alpha virt. eigenvalues --    3.09844   3.11046   3.14567   3.18249   3.20042
 Alpha virt. eigenvalues --    3.23944   3.25633   3.32582   3.33717   3.39043
 Alpha virt. eigenvalues --    3.40302   3.41237   3.42563   3.44792   3.46051
 Alpha virt. eigenvalues --    3.49037   3.52149   3.56649   3.59103   3.60267
 Alpha virt. eigenvalues --    3.62496   3.63825   3.64686   3.72208   3.73883
 Alpha virt. eigenvalues --    3.75123   3.77986   3.79218   3.83911   3.84234
 Alpha virt. eigenvalues --    3.90987   3.92055   3.95514   3.97001   3.97811
 Alpha virt. eigenvalues --    4.00600   4.00773   4.05874   4.06446   4.08041
 Alpha virt. eigenvalues --    4.08587   4.11923   4.12189   4.14565   4.16628
 Alpha virt. eigenvalues --    4.17153   4.22127   4.22994   4.24399   4.26637
 Alpha virt. eigenvalues --    4.28173   4.29925   4.31360   4.33029   4.35723
 Alpha virt. eigenvalues --    4.37627   4.38053   4.40419   4.41761   4.44825
 Alpha virt. eigenvalues --    4.46028   4.46590   4.47834   4.50139   4.52005
 Alpha virt. eigenvalues --    4.54166   4.56692   4.58421   4.59623   4.61191
 Alpha virt. eigenvalues --    4.63123   4.65769   4.66433   4.70048   4.70880
 Alpha virt. eigenvalues --    4.72191   4.75480   4.76635   4.82468   4.85441
 Alpha virt. eigenvalues --    4.89196   4.91596   4.95197   4.96492   4.97724
 Alpha virt. eigenvalues --    5.00298   5.02237   5.02997   5.03502   5.05773
 Alpha virt. eigenvalues --    5.05894   5.07550   5.11376   5.12718   5.13013
 Alpha virt. eigenvalues --    5.18916   5.22230   5.25889   5.27011   5.32569
 Alpha virt. eigenvalues --    5.38038   5.40263   5.43322   5.44331   5.51293
 Alpha virt. eigenvalues --    5.52637   5.58471   5.59378   5.62076   5.65513
 Alpha virt. eigenvalues --    5.74629   5.80284   5.82146   5.86671   5.92402
 Alpha virt. eigenvalues --    5.98914   6.03461   6.04718   6.04995   6.17118
 Alpha virt. eigenvalues --    6.18681   6.20358   6.24015   6.28201   6.35677
 Alpha virt. eigenvalues --    6.45353   6.65872   6.74193   6.79705   6.83013
 Alpha virt. eigenvalues --    6.91918   7.07238   7.18285   9.05362  10.40988
 Alpha virt. eigenvalues --   10.79421  11.16995  11.29517  11.33355  11.38207
 Alpha virt. eigenvalues --   11.69202  12.93799  13.02289  13.10302  13.18918
 Alpha virt. eigenvalues --   17.22549  18.79824  24.26405
          Condensed to atoms (all electrons):
               1          2          3          4          5          6
     1  N    5.326750   0.525056   0.548158   0.287524  -0.011498  -0.004141
     2  O    0.525056   7.992016  -0.089580  -0.096218  -0.000576   0.001073
     3  O    0.548158  -0.089580   7.999051  -0.119249   0.001463   0.000128
     4  C    0.287524  -0.096218  -0.119249   4.797635   0.464252  -0.113094
     5  N   -0.011498  -0.000576   0.001463   0.464252   6.369680   0.579887
     6  C   -0.004141   0.001073   0.000128  -0.113094   0.579887   4.697208
     7  N   -0.000721  -0.000022   0.000312  -0.025016  -0.054571   0.463667
     8  H   -0.000150   0.000023   0.000002   0.005070  -0.009915   0.356707
     9  N    0.000026  -0.000000  -0.000002   0.002394   0.001991  -0.028562
    10  O   -0.000009   0.000000   0.000000   0.000632  -0.000219   0.004591
    11  O   -0.000000  -0.000000   0.000000  -0.000222   0.000417   0.015126
    12  C   -0.015100   0.005794   0.013377   0.470781  -0.036698  -0.110253
    13  H   -0.008828   0.000156   0.012627   0.003536   0.007056   0.002564
               7          8          9         10         11         12
     1  N   -0.000721  -0.000150   0.000026  -0.000009  -0.000000  -0.015100
     2  O   -0.000022   0.000023  -0.000000   0.000000  -0.000000   0.005794
     3  O    0.000312   0.000002  -0.000002   0.000000   0.000000   0.013377
     4  C   -0.025016   0.005070   0.002394   0.000632  -0.000222   0.470781
     5  N   -0.054571  -0.009915   0.001991  -0.000219   0.000417  -0.036698
     6  C    0.463667   0.356707  -0.028562   0.004591   0.015126  -0.110253
     7  N    6.426359  -0.020726   0.278378  -0.140523  -0.145464   0.352945
     8  H   -0.020726   0.488605  -0.003739   0.000154   0.009855   0.007183
     9  N    0.278378  -0.003739   4.944247   0.598726   0.611209  -0.023850
    10  O   -0.140523   0.000154   0.598726   7.901398  -0.069822   0.016688
    11  O   -0.145464   0.009855   0.611209  -0.069822   7.896293   0.004847
    12  C    0.352945   0.007183  -0.023850   0.016688   0.004847   5.003796
    13  H   -0.012271  -0.000148   0.000004   0.007477   0.000164   0.326023
              13
     1  N   -0.008828
     2  O    0.000156
     3  O    0.012627
     4  C    0.003536
     5  N    0.007056
     6  C    0.002564
     7  N   -0.012271
     8  H   -0.000148
     9  N    0.000004
    10  O    0.007477
    11  O    0.000164
    12  C    0.326023
    13  H    0.463248
 Mulliken charges:
               1
     1  N    0.352934
     2  O   -0.337720
     3  O   -0.366289
     4  C    0.321974
     5  N   -0.311268
     6  C    0.135100
     7  N   -0.122348
     8  H    0.167079
     9  N    0.619179
    10  O   -0.319095
    11  O   -0.322402
    12  C   -0.015535
    13  H    0.198392
 Sum of Mulliken charges =  -0.00000
 Mulliken charges with hydrogens summed into heavy atoms:
               1
     1  N    0.352934
     2  O   -0.337720
     3  O   -0.366289
     4  C    0.321974
     5  N   -0.311268
     6  C    0.302179
     7  N   -0.122348
     9  N    0.619179
    10  O   -0.319095
    11  O   -0.322402
    12  C    0.182857
 APT charges:
               1
     1  N   -1.205356
     2  O    0.689076
     3  O    0.409822
     4  C   -0.250116
     5  N    0.012470
     6  C   -0.177432
     7  N   -0.204230
     8  H    0.542803
     9  N   -1.071192
    10  O    0.383399
    11  O    0.638796
    12  C   -0.171506
    13  H    0.403465
 Sum of APT charges =  -0.00000
 APT charges with hydrogens summed into heavy atoms:
               1
     1  N   -1.205356
     2  O    0.689076
     3  O    0.409822
     4  C   -0.250116
     5  N    0.012470
     6  C    0.365371
     7  N   -0.204230
     9  N   -1.071192
    10  O    0.383399
    11  O    0.638796
    12  C    0.231959
 Electronic spatial extent (au):  <R**2>=           1802.8800
 Charge=             -0.0000 electrons
 Dipole moment (field-independent basis, Debye):
    X=              3.5130    Y=             -0.0899    Z=             -0.0814  Tot=              3.5151
 Quadrupole moment (field-independent basis, Debye-Ang):
   XX=            -76.9478   YY=            -62.0190   ZZ=            -56.4474
   XY=             -2.8572   XZ=              0.1508   YZ=             -0.2561
 Traceless Quadrupole moment (field-independent basis, Debye-Ang):
   XX=            -11.8097   YY=              3.1190   ZZ=              8.6907
   XY=             -2.8572   XZ=              0.1508   YZ=             -0.2561
 Octapole moment (field-independent basis, Debye-Ang**2):
  XXX=             22.9992  YYY=              1.2774  ZZZ=              0.0053  XYY=             12.5576
  XXY=             -1.9371  XXZ=              0.2359  XZZ=              1.1832  YZZ=              2.5006
  YYZ=             -0.3624  XYZ=             -1.9531
 Hexadecapole moment (field-independent basis, Debye-Ang**3):
 XXXX=          -1864.0427 YYYY=           -378.6086 ZZZZ=            -46.4047 XXXY=              3.2861
 XXXZ=              2.5632 YYYX=            -16.6692 YYYZ=             -0.0689 ZZZX=              0.0819
 ZZZY=              0.5500 XXYY=           -375.3600 XXZZ=           -262.4987 YYZZ=            -71.5492
 XXYZ=             -1.0658 YYXZ=             -0.6011 ZZXY=              0.1896
 N-N= 6.100920678679D+02 E-N=-2.708050910107D+03  KE= 6.321613272148D+02
  Exact polarizability:   0.000   0.000   0.000   0.000   0.000   0.000
 Approx polarizability: 164.230   9.997 170.449  -2.131   0.819  55.396
 No NMR shielding tensors so no spin-rotation constants.
 Leave Link  601 at Wed Aug 25 23:31:31 2021, MaxMem= 24159191040 cpu:        15.2
 (Enter /public/home/users/caep010/software/Gaussian09/g09/l701.exe)
 Compute integral second derivatives.
 ... and contract with generalized density number  0.
 Leave Link  701 at Wed Aug 25 23:31:32 2021, MaxMem= 24159191040 cpu:        17.9
 (Enter /public/home/users/caep010/software/Gaussian09/g09/l702.exe)
 L702 exits ... SP integral derivatives will be done elsewhere.
 Leave Link  702 at Wed Aug 25 23:31:32 2021, MaxMem= 24159191040 cpu:         0.8
 (Enter /public/home/users/caep010/software/Gaussian09/g09/l703.exe)
 Compute integral second derivatives, UseDBF=F ICtDFT=           0.
 Integral derivatives from FoFJK, PRISM(SPDF).
 Calling FoFJK, ICntrl=    100147 FMM=F ISym2X=0 I1Cent= 0 IOpClX= 0 NMat=1 NMatS=1 NMatT=0.
 FoFJK:  IHMeth= 1 ICntrl=  100147 DoSepK=F KAlg= 0 I1Cent=   0 FoldK=F
 IRaf=         0 NMat=   1 IRICut=       1 DoRegI=T DoRafI=F ISym2E= 0.
 FoFCou: FMM=F IPFlag=           0 FMFlag=      100000 FMFlg1=         800
         NFxFlg=           0 DoJE=F BraDBF=F KetDBF=F FulRan=T
         wScrn=  0.000000 ICntrl=  100147 IOpCl=  0 I1Cent=           0 NGrid=           0
         NMat0=    1 NMatS0=      1 NMatT0=    0 NMatD0=    1 NMtDS0=    0 NMtDT0=    0
 Symmetry not used in FoFCou.
 Leave Link  703 at Wed Aug 25 23:32:02 2021, MaxMem= 24159191040 cpu:       930.4
 (Enter /public/home/users/caep010/software/Gaussian09/g09/l716.exe)
 Dipole        = 1.38212612D+00-3.53519274D-02-3.20280705D-02
 Polarizability= 0.00000000D+00 0.00000000D+00 0.00000000D+00
                 0.00000000D+00 0.00000000D+00 0.00000000D+00
 ***** Axes restored to original set *****
 -------------------------------------------------------------------
 Center     Atomic                   Forces (Hartrees/Bohr)
 Number     Number              X              Y              Z
 -------------------------------------------------------------------
      1        7           0.021800143    0.001213526   -0.011723085
      2        8          -0.009495131    0.001783873    0.005946567
      3        8          -0.010179787   -0.008180376    0.002247498
      4        6           0.029030712    0.007829812   -0.012545735
      5        7           0.004767562   -0.007736856   -0.006622469
      6        6           0.002940792   -0.126854217   -0.052186024
      7        7          -0.011336143   -0.008800433    0.001899753
      8        1          -0.001819444    0.152099358    0.061316341
      9        7           0.003282968    0.000655834    0.001295770
     10        8          -0.004260400   -0.004375629   -0.000961989
     11        8          -0.002765460    0.007924342    0.003611726
     12        6           0.071584414    0.116000094    0.007975933
     13        1          -0.093550227   -0.131559328   -0.000254286
 -------------------------------------------------------------------
 Cartesian Forces:  Max     0.152099358 RMS     0.048799777
 Force constants in Cartesian coordinates: 
                1             2             3             4             5 
      1  0.728719D+00
      2  0.206200D+00  0.793686D+00
      3 -0.183469D+00  0.115144D+00  0.383200D+00
      4 -0.429832D+00 -0.100647D+00  0.146949D+00  0.520858D+00
      5 -0.907419D-01 -0.153092D+00  0.207937D-01  0.163489D+00  0.170746D+00
      6  0.151126D+00  0.262406D-01 -0.154422D+00 -0.198362D+00 -0.322412D-01
      7 -0.172648D+00 -0.144436D+00 -0.663192D-02 -0.429146D-01 -0.921090D-01
      8 -0.158702D+00 -0.499010D+00 -0.862614D-01 -0.642980D-01 -0.300699D-01
      9 -0.124547D-01 -0.940075D-01 -0.108091D+00  0.125875D-01  0.259891D-01
     10 -0.114972D+00  0.250736D-01  0.285985D-01 -0.533542D-01  0.118570D-01
     11  0.290160D-01 -0.119620D+00 -0.311622D-01 -0.256311D-02  0.160016D-01
     12  0.303282D-01 -0.293132D-01 -0.109589D+00  0.391072D-01 -0.827639D-02
     13  0.695910D-02  0.184471D-01 -0.151377D-02  0.296152D-02  0.352454D-02
     14  0.813127D-02 -0.292473D-01 -0.122551D-01 -0.363501D-02 -0.227604D-02
     15 -0.555567D-02 -0.182563D-01 -0.131825D-01 -0.239701D-02 -0.336391D-02
     16  0.575630D-02 -0.767235D-02 -0.224631D-02 -0.316093D-02 -0.461815D-03
     17 -0.899550D-02 -0.573441D-02  0.796939D-04  0.100920D-02  0.154938D-02
     18 -0.320736D-02 -0.781922D-03  0.796592D-02  0.199021D-02  0.106784D-02
     19 -0.444347D-02 -0.934565D-02  0.201929D-02 -0.130681D-02  0.416745D-02
     20 -0.927005D-02  0.765338D-02  0.546657D-02  0.218563D-02 -0.314493D-03
     21  0.243960D-02  0.563090D-02  0.721929D-02  0.114765D-02 -0.200955D-02
     22  0.160256D-02  0.570986D-03  0.396907D-03 -0.530685D-04 -0.158750D-04
     23  0.508684D-04  0.184014D-03 -0.699895D-03 -0.132752D-03 -0.261008D-04
     24  0.157979D-03 -0.989508D-03  0.142284D-02 -0.750038D-04  0.508376D-04
     25 -0.280208D-02  0.820508D-02  0.728492D-02  0.229767D-02 -0.216143D-02
     26  0.931141D-03  0.126543D-02 -0.151354D-02  0.850895D-04 -0.156324D-03
     27  0.409899D-02 -0.608319D-02 -0.657244D-03 -0.195161D-02  0.181457D-02
     28  0.718862D-03 -0.267069D-02 -0.182160D-02 -0.431121D-03  0.994783D-03
     29 -0.295477D-03 -0.164604D-02 -0.377005D-03  0.213436D-03  0.725013D-03
     30 -0.792203D-03  0.131488D-02  0.581592D-03  0.436953D-03 -0.494090D-03
     31  0.776116D-03 -0.213902D-02 -0.191705D-02 -0.937788D-03  0.572274D-03
     32 -0.810283D-03  0.181420D-02  0.152682D-02  0.991716D-03 -0.632558D-03
     33 -0.137321D-02  0.240318D-02  0.297253D-03  0.999521D-03 -0.698770D-03
     34 -0.186199D-01  0.988802D-02  0.144414D-01  0.510634D-02  0.462226D-03
     35  0.247563D-01  0.301967D-02 -0.127444D-01  0.359443D-02 -0.207581D-02
     36  0.201811D-01 -0.393840D-02 -0.128265D-01 -0.265319D-04 -0.208586D-02
     37 -0.121433D-02 -0.147413D-02 -0.208976D-02  0.767288D-03  0.422763D-03
     38 -0.270716D-03  0.726548D-03  0.200233D-02 -0.292607D-03 -0.379409D-03
     39 -0.147916D-02  0.263590D-02 -0.191824D-02 -0.406118D-03 -0.546268D-03
                6             7             8             9            10 
      6  0.126647D+00
      7  0.121420D-02  0.197036D+00
      8  0.108544D-01  0.226247D+00  0.593644D+00
      9  0.324423D-01 -0.618689D-03  0.108955D+00  0.707557D-01
     10  0.449578D-01  0.191473D-01 -0.606292D-02 -0.210870D-02  0.707394D+00
     11 -0.527148D-03  0.503021D-02 -0.585267D-01 -0.347266D-01  0.753089D-01
     12 -0.404063D-02  0.241936D-02 -0.286917D-01  0.670440D-02 -0.281665D+00
     13  0.547790D-03  0.483129D-05  0.546766D-02  0.456485D-02 -0.123211D+00
     14  0.458470D-03  0.685943D-03 -0.266431D-03 -0.220655D-02 -0.835068D-01
     15  0.123737D-02  0.258799D-02 -0.486112D-02  0.750043D-03 -0.583342D-02
     16  0.127912D-02  0.411152D-03  0.371876D-03 -0.605380D-03  0.656424D-02
     17  0.223831D-03  0.236250D-02 -0.267212D-02 -0.206833D-02  0.982261D-02
     18 -0.101850D-02  0.260849D-03 -0.880270D-03 -0.134370D-02  0.473168D-02
     19  0.183199D-02  0.762871D-03  0.209445D-02  0.535706D-03 -0.542942D-01
     20 -0.930797D-03 -0.434154D-03 -0.391275D-02 -0.143005D-02  0.595621D-01
     21 -0.248948D-02 -0.438410D-03 -0.274618D-02 -0.614488D-03  0.594726D-01
     22 -0.378887D-04 -0.369166D-03  0.855269D-03  0.902294D-04 -0.790096D-03
     23  0.105339D-03  0.885253D-04  0.177678D-04  0.287557D-03  0.582199D-04
     24 -0.463334D-04 -0.222986D-03 -0.129858D-03 -0.772990D-03  0.575917D-02
     25 -0.290507D-02  0.737794D-03 -0.441986D-02 -0.241468D-02  0.140524D-01
     26  0.394145D-03 -0.630946D-03 -0.386556D-03  0.412245D-03 -0.137003D-02
     27  0.486748D-03 -0.836439D-03  0.281585D-02  0.112983D-02 -0.732547D-02
     28  0.782032D-03 -0.425337D-04  0.169901D-02  0.778597D-03 -0.358072D-02
     29  0.120373D-03  0.295220D-03  0.115832D-02  0.242573D-03 -0.363457D-02
     30 -0.268137D-03  0.189415D-03 -0.796409D-03 -0.326368D-03  0.121365D-02
     31  0.917061D-03 -0.211906D-03  0.113805D-02  0.633540D-03 -0.221704D-02
     32 -0.886343D-03  0.479627D-03 -0.482559D-03 -0.514077D-03  0.344139D-02
     33 -0.435448D-03  0.300378D-03 -0.911700D-03 -0.389522D-03  0.256290D-02
     34 -0.129650D-02 -0.280367D-02 -0.558228D-02 -0.706482D-03 -0.392319D+00
     35 -0.367725D-02  0.168841D-02  0.212507D-02 -0.666995D-04 -0.927507D-01
     36  0.157303D-02  0.227463D-02  0.377733D-02  0.429673D-03  0.143577D+00
     37 -0.549262D-04  0.889678D-03  0.119153D-02 -0.281732D-03 -0.241974D-02
     38 -0.134369D-03  0.732825D-03 -0.161896D-02 -0.866543D-03  0.220115D-02
     39  0.333929D-03 -0.498379D-03 -0.112369D-02 -0.674336D-03  0.605990D-02
               11            12            13            14            15 
     11  0.580785D+00
     12  0.134193D+00  0.354094D+00
     13 -0.649327D-01  0.136801D-02  0.501264D+00
     14 -0.224184D+00 -0.150317D-01 -0.211237D-01  0.462419D+00
     15 -0.247345D-01 -0.800850D-01 -0.228411D+00  0.155800D+00  0.288056D+00
     16  0.501155D-01  0.212942D-01 -0.287114D+00  0.120571D+00  0.163259D+00
     17 -0.757775D-01 -0.388865D-01  0.116287D+00 -0.174890D+00 -0.103791D+00
     18 -0.622695D-01 -0.188896D-01  0.162041D+00 -0.104883D+00 -0.206135D+00
     19 -0.457689D-03  0.356897D-01 -0.821115D-01  0.290821D-01  0.712744D-01
     20 -0.105772D-01 -0.413285D-01 -0.267204D-01  0.488561D-02  0.841365D-02
     21 -0.926595D-02 -0.248569D-01  0.473051D-01 -0.226824D-01 -0.120460D-01
     22  0.169299D-02  0.643634D-02  0.178213D-02  0.311020D-01  0.101062D-01
     23  0.256531D-02 -0.284993D-02  0.112060D-02 -0.322758D-02 -0.999580D-03
     24 -0.404911D-02  0.506882D-02 -0.180745D-02 -0.175167D-01 -0.834792D-02
     25  0.335917D-02 -0.456837D-02  0.101242D-01 -0.159051D-01 -0.649080D-02
     26 -0.102441D-01 -0.466661D-02 -0.139756D-01 -0.171052D-02  0.327148D-02
     27 -0.716778D-02  0.362227D-02 -0.650030D-02  0.405514D-02  0.152326D-01
     28 -0.453615D-02  0.532400D-03 -0.784017D-02  0.253610D-02  0.295804D-02
     29 -0.208982D-02  0.917264D-03 -0.813110D-03  0.388678D-02  0.269971D-02
     30  0.214022D-02  0.681586D-03  0.387072D-02  0.120373D-02 -0.389302D-02
     31  0.263556D-02  0.229790D-02 -0.686618D-03  0.209708D-02  0.941833D-03
     32  0.108974D-02 -0.143971D-02  0.322188D-02 -0.231199D-02 -0.281961D-02
     33 -0.614265D-03 -0.211978D-02  0.126100D-02 -0.174758D-02 -0.209207D-02
     34 -0.717188D-01  0.150405D+00 -0.191521D-01 -0.659440D-01 -0.582014D-02
     35 -0.105479D+00  0.372506D-01 -0.213026D-01 -0.367279D-01 -0.999666D-02
     36  0.260732D-01 -0.139348D+00  0.119084D-01  0.134146D-01  0.168645D-01
     37 -0.229499D-01 -0.364499D-02 -0.297986D-02 -0.409104D-02  0.338048D-02
     38  0.605706D-02 -0.187603D-02  0.799642D-03  0.365091D-02 -0.136191D-02
     39  0.121111D-01  0.875761D-02  0.536591D-02  0.139142D-02  0.364139D-02
               16            17            18            19            20 
     16  0.452855D+00
     17  0.132858D-01  0.126329D+01
     18 -0.211183D+00  0.467752D+00  0.362886D+00
     19 -0.155554D+00 -0.103475D+00  0.116658D-01  0.541858D+00
     20 -0.103617D+00 -0.223231D+00 -0.974057D-02  0.944818D-01  0.678947D+00
     21  0.157948D-01 -0.767570D-02 -0.680457D-01 -0.226634D+00  0.167915D+00
     22  0.238178D-01 -0.257552D-01  0.326313D-02 -0.751301D-03 -0.308561D-01
     23 -0.281921D-01 -0.733390D+00 -0.292655D+00  0.234640D-02 -0.103015D-01
     24  0.232184D-02 -0.293405D+00 -0.691321D-01  0.214352D-02  0.124390D-01
     25 -0.416927D-01 -0.432417D-02  0.139430D-01 -0.844146D-01 -0.121341D-01
     26  0.170899D-02  0.234328D-01  0.139862D-01 -0.200043D-01 -0.125527D+00
     27  0.155922D-01  0.187068D-01 -0.163158D-01  0.110038D-01 -0.201241D-01
     28  0.819476D-02  0.109979D-01  0.510767D-02 -0.613304D-01 -0.509542D-01
     29  0.326226D-02  0.485683D-02 -0.121338D-02 -0.344852D-01 -0.343659D-03
     30 -0.876496D-03 -0.848450D-02  0.174950D-02  0.422087D-01  0.284665D-01
     31  0.166995D-02  0.727695D-03 -0.277883D-03 -0.107505D-01  0.551441D-01
     32 -0.730062D-02 -0.572616D-02  0.200974D-02  0.393870D-01 -0.359862D-01
     33 -0.256924D-02 -0.344317D-02  0.189412D-02  0.291973D-01 -0.478954D-01
     34 -0.876481D-02 -0.153513D-01  0.750359D-02 -0.100358D+00  0.342777D-02
     35 -0.450751D-01 -0.709650D-01 -0.958288D-02  0.906139D-02 -0.267622D+00
     36 -0.613464D-02 -0.258424D-01  0.766684D-02  0.327130D-01 -0.865343D-01
     37 -0.298323D-02  0.340861D-02  0.416191D-02  0.126931D-01  0.191845D-01
     38  0.300333D-02 -0.744551D-03 -0.280840D-02 -0.128528D-01 -0.136695D-01
     39  0.407411D-02 -0.316485D-02 -0.128189D-02 -0.136488D-01 -0.147165D-01
               21            22            23            24            25 
     21  0.283324D+00
     22 -0.113700D-01 -0.222377D-01
     23 -0.578753D-02  0.251499D-01  0.743430D+00
     24  0.506948D-02 -0.107948D-01  0.302799D+00  0.656263D-01
     25  0.121273D-01  0.227311D-02  0.470652D-03 -0.182706D-02  0.506452D+00
     26 -0.130436D-01 -0.298626D-02 -0.235860D-02  0.111417D-02  0.172746D+00
     27 -0.699865D-01 -0.279725D-02 -0.579617D-03  0.287863D-03 -0.126202D+00
     28  0.370080D-01 -0.345504D-03 -0.189096D-03  0.373761D-04 -0.270185D+00
     29  0.160449D-01  0.112035D-02  0.273801D-03 -0.271769D-03 -0.209829D+00
     30  0.959620D-03  0.481247D-03  0.251837D-03 -0.325999D-03  0.696598D-01
     31  0.339049D-01 -0.108087D-02  0.163054D-02  0.919101D-03 -0.125797D+00
     32 -0.398931D-01  0.178742D-02  0.129027D-02 -0.423918D-03  0.414714D-01
     33 -0.121275D-01  0.910950D-03 -0.288171D-03 -0.999296D-03  0.345529D-01
     34  0.301061D-01 -0.532610D-02 -0.221365D-02  0.276285D-02 -0.125731D-01
     35 -0.892733D-01 -0.168805D-02  0.136990D-02  0.864207D-03  0.243960D-01
     36 -0.105184D+00  0.306748D-02  0.129530D-02 -0.212430D-04  0.949544D-02
     37 -0.863214D-03  0.147813D-02 -0.188022D-03  0.625435D-03  0.152701D-02
     38  0.278698D-02 -0.977329D-03  0.173008D-03 -0.481310D-03 -0.187394D-02
     39 -0.122133D-02  0.247409D-03 -0.879265D-03  0.217056D-02 -0.265498D-02
               26            27            28            29            30 
     26  0.108933D+01
     27  0.975281D-01  0.349087D+00
     28 -0.224610D+00  0.646664D-01  0.304897D+00
     29 -0.428058D+00  0.542695D-01  0.292266D+00  0.521172D+00
     30  0.645693D-01 -0.116455D+00 -0.105681D+00 -0.723507D-01  0.828198D-01
     31  0.574831D-01  0.390796D-01  0.292086D-01 -0.499815D-01 -0.109161D-01
     32 -0.546065D+00 -0.137762D+00 -0.210733D-01 -0.991061D-01 -0.176469D-01
     33 -0.148991D+00 -0.144676D+00 -0.320817D-02  0.150849D-02  0.338949D-01
     34  0.303484D-01  0.128955D-01  0.268593D-02  0.189197D-02 -0.813211D-03
     35  0.210758D-02 -0.878479D-02 -0.458125D-02 -0.249242D-02  0.115303D-02
     36 -0.127193D-01 -0.221094D-01 -0.209597D-02 -0.246579D-02  0.142758D-02
     37  0.274414D-03 -0.172308D-02 -0.194973D-02 -0.974503D-05  0.101875D-02
     38 -0.163351D-02  0.131186D-02  0.120621D-03  0.166322D-02  0.673117D-03
     39 -0.341088D-03  0.353040D-03  0.936405D-03  0.875783D-03 -0.846237D-03
               31            32            33            34            35 
     31  0.113664D+00
     32 -0.633176D-01  0.677764D+00
     33 -0.678330D-01  0.196584D+00  0.122243D+00
     34 -0.330572D-02  0.231487D-02  0.512853D-02  0.786782D+00
     35 -0.629004D-02  0.785672D-02  0.416600D-02  0.510518D+00  0.105737D+01
     36  0.187459D-02  0.551545D-03  0.451065D-02 -0.213019D+00  0.123008D+00
     37 -0.331308D-03 -0.593403D-03  0.701314D-04 -0.231352D+00 -0.402326D+00
     38  0.299825D-03  0.495150D-03 -0.710771D-04 -0.398041D+00 -0.588487D+00
     39  0.375505D-03  0.714039D-03  0.000000D+00 -0.158857D-02 -0.323155D-01
               36            37            38            39 
     36  0.207155D+00
     37 -0.381578D-02  0.225875D+00
     38 -0.345336D-01  0.407151D+00  0.593767D+00
     39  0.398622D-01  0.321679D-02  0.353590D-01 -0.491762D-01
 FormGI is forming the generalized inverse of G from B-inverse, IUseBI=4.
 Leave Link  716 at Wed Aug 25 23:32:02 2021, MaxMem= 24159191040 cpu:         5.6
 (Enter /public/home/users/caep010/software/Gaussian09/g09/l103.exe)

 GradGradGradGradGradGradGradGradGradGradGradGradGradGradGradGradGradGrad
 Berny optimization.
 Red2BG is reusing G-inverse.
 Internal  Forces:  Max     0.163868745 RMS     0.031448002
 Search for a local minimum.
 Step number   1 out of a maximum of   66
 All quantities printed in internal units (Hartrees-Bohrs-Radians)
 RMS Force = .31448D-01 SwitMx=.10000D-02 MixMth= 1
 Mixed Optimization -- RFO/linear search
 Second derivative matrix not updated -- analytic derivatives used.
 ITU=  0
     Eigenvalues ---    0.00409   0.00619   0.00780   0.01414   0.01935
     Eigenvalues ---    0.02460   0.05348   0.05729   0.09797   0.11579
     Eigenvalues ---    0.11835   0.14237   0.17975   0.18663   0.19725
     Eigenvalues ---    0.22647   0.24496   0.25953   0.27877   0.31961
     Eigenvalues ---    0.33860   0.39653   0.40742   0.42272   0.45939
     Eigenvalues ---    0.53483   0.61282   0.65417   0.69295   0.79444
     Eigenvalues ---    0.85426   0.85791   0.85988
 RFO step:  Lambda=-6.25941032D-02 EMin= 4.09250555D-03
 Linear search not attempted -- first point.
 Iteration  1 RMS(Cart)=  0.04165805 RMS(Int)=  0.00112097
 Iteration  2 RMS(Cart)=  0.00139644 RMS(Int)=  0.00001860
 Iteration  3 RMS(Cart)=  0.00000323 RMS(Int)=  0.00001831
 Iteration  4 RMS(Cart)=  0.00000000 RMS(Int)=  0.00001831
 ITry= 1 IFail=0 DXMaxC= 1.81D-01 DCOld= 1.00D+10 DXMaxT= 3.00D-01 DXLimC= 3.00D+00 Rises=F
 Variable       Old X    -DE/DX   Delta X   Delta X   Delta X     New X
                                 (Linear)    (Quad)   (Total)
    R1        2.32081  -0.00996   0.00000  -0.01880  -0.01880   2.30201
    R2        2.30459   0.01106   0.00000   0.01412   0.01412   2.31871
    R3        2.71873   0.00640   0.00000   0.01774   0.01774   2.73647
    R4        2.59058   0.00460   0.00000   0.00184   0.00184   2.59242
    R5        2.52329   0.03042   0.00000   0.04618   0.04616   2.56945
    R6        2.44120   0.01812   0.00000   0.01863   0.01864   2.45984
    R7        2.58268   0.01549   0.00000   0.02970   0.02971   2.61239
    R8        1.75819   0.16387   0.00000   0.17750   0.17750   1.93568
    R9        2.68970   0.00592   0.00000   0.01349   0.01349   2.70320
   R10        2.58615   0.00917   0.00000   0.01280   0.01279   2.59893
   R11        2.27489   0.00576   0.00000   0.00622   0.00622   2.28110
   R12        2.27512   0.00891   0.00000   0.00851   0.00851   2.28363
   R13        1.75784   0.16109   0.00000   0.17493   0.17493   1.93276
    A1        2.17527   0.00981   0.00000   0.02593   0.02593   2.20120
    A2        2.06272  -0.00281   0.00000  -0.00404  -0.00404   2.05868
    A3        2.04520  -0.00701   0.00000  -0.02190  -0.02190   2.02330
    A4        2.10800   0.00684   0.00000   0.01912   0.01912   2.12712
    A5        2.18824  -0.00192   0.00000  -0.00941  -0.00940   2.17884
    A6        1.98693  -0.00492   0.00000  -0.00970  -0.00971   1.97721
    A7        1.81235   0.00612   0.00000   0.01752   0.01755   1.82990
    A8        1.93874  -0.00378   0.00000  -0.01212  -0.01210   1.92664
    A9        2.17223   0.00772   0.00000   0.03869   0.03868   2.21091
   A10        2.17222  -0.00395   0.00000  -0.02657  -0.02658   2.14564
   A11        2.20684  -0.00327   0.00000  -0.01032  -0.01031   2.19652
   A12        1.89377   0.00270   0.00000   0.00592   0.00591   1.89968
   A13        2.18202   0.00057   0.00000   0.00442   0.00443   2.18645
   A14        2.01795  -0.00193   0.00000  -0.00355  -0.00358   2.01438
   A15        1.99753   0.00329   0.00000   0.00772   0.00770   2.00523
   A16        2.26753  -0.00132   0.00000  -0.00395  -0.00397   2.26356
   A17        1.79295  -0.00012   0.00000  -0.00160  -0.00163   1.79132
   A18        2.24432   0.00928   0.00000   0.05416   0.05418   2.29850
   A19        2.24592  -0.00916   0.00000  -0.05256  -0.05255   2.19337
    D1        0.00785   0.00011   0.00000   0.00087   0.00089   0.00874
    D2       -3.12806   0.00000   0.00000  -0.00052  -0.00053  -3.12859
    D3       -3.13398   0.00001   0.00000   0.00037   0.00038  -3.13360
    D4        0.01329  -0.00011   0.00000  -0.00102  -0.00104   0.01225
    D5        3.13910   0.00004   0.00000   0.00017   0.00016   3.13925
    D6       -0.00756   0.00015   0.00000   0.00140   0.00141  -0.00615
    D7        3.14087   0.00026   0.00000   0.00225   0.00225  -3.14007
    D8       -0.00158   0.00011   0.00000   0.00123   0.00119  -0.00038
    D9        0.00461   0.00012   0.00000   0.00086   0.00086   0.00547
   D10       -3.13783  -0.00003   0.00000  -0.00016  -0.00020  -3.13804
   D11        0.00725  -0.00035   0.00000  -0.00316  -0.00315   0.00409
   D12       -3.13494  -0.00005   0.00000  -0.00110  -0.00105  -3.13599
   D13        3.10214   0.00052   0.00000   0.00496   0.00493   3.10706
   D14       -0.00488   0.00048   0.00000   0.00398   0.00397  -0.00091
   D15       -0.03886   0.00022   0.00000   0.00288   0.00289  -0.03597
   D16        3.13731   0.00019   0.00000   0.00190   0.00194   3.13924
   D17       -2.96530  -0.00232   0.00000  -0.02166  -0.02165  -2.98695
   D18        0.15870   0.00003   0.00000  -0.01001  -0.01001   0.14869
   D19        0.13625  -0.00227   0.00000  -0.02057  -0.02058   0.11567
   D20       -3.02294   0.00009   0.00000  -0.00893  -0.00894  -3.03187
   D21        0.00005  -0.00033   0.00000  -0.00275  -0.00276  -0.00271
   D22       -3.14069  -0.00019   0.00000  -0.00181  -0.00185   3.14064
   D23       -3.10758  -0.00027   0.00000  -0.00335  -0.00335  -3.11093
   D24        0.03486  -0.00013   0.00000  -0.00240  -0.00244   0.03242
         Item               Value     Threshold  Converged?
 Maximum Force            0.163869     0.000450     NO 
 RMS     Force            0.031448     0.000300     NO 
 Maximum Displacement     0.181418     0.001800     NO 
 RMS     Displacement     0.041729     0.001200     NO 
 Predicted change in Energy=-3.374727D-02
 Lowest energy point so far.  Saving SCF results.
 GradGradGradGradGradGradGradGradGradGradGradGradGradGradGradGradGradGrad

 Leave Link  103 at Wed Aug 25 23:32:02 2021, MaxMem= 24159191040 cpu:         5.4
 (Enter /public/home/users/caep010/software/Gaussian09/g09/l202.exe)
                          Input orientation:                          
 ---------------------------------------------------------------------
 Center     Atomic      Atomic             Coordinates (Angstroms)
 Number     Number       Type             X           Y           Z
 ---------------------------------------------------------------------
      1          7           0        1.794606    4.052759    4.799674
      2          8           0        2.869297    4.423990    4.362448
      3          8           0        1.286833    2.948799    4.629425
      4          6           0        1.028056    4.985778    5.598929
      5          7           0        1.476187    6.256176    5.858227
      6          6           0        0.543863    6.796098    6.588746
      7          7           0       -0.482578    5.895168    6.802787
      8          1           0        0.537155    7.748102    6.966730
      9          7           0       -1.651935    6.129534    7.592674
     10          8           0       -2.346123    5.161977    7.790271
     11          8           0       -1.792180    7.269656    7.967895
     12          6           0       -0.177578    4.714836    6.166206
     13          1           0       -0.759702    3.873926    6.157989
 ---------------------------------------------------------------------
                    Distance matrix (angstroms):
                    1          2          3          4          5
     1  N    0.000000
     2  O    1.218171   0.000000
     3  O    1.227007   2.179830   0.000000
     4  C    1.448078   2.287937   2.270724   0.000000
     5  N    2.465151   2.744998   3.533349   1.371848   0.000000
     6  C    3.505858   3.998867   4.380942   2.119301   1.301691
     7  N    3.548591   4.399395   4.066375   2.135013   2.204377
     8  H    4.464625   4.823991   5.390578   3.121265   2.082403
     9  N    4.898213   5.812467   5.247312   3.530659   3.579035
    10  O    5.226822   6.284520   5.299762   4.027172   4.420420
    11  O    5.766375   6.544190   6.268613   4.333801   4.019958
    12  C    2.489029   3.552686   2.761356   1.359694   2.281560
    13  H    2.898532   4.086095   2.716740   2.178266   3.280879
                    6          7          8          9         10
     6  C    0.000000
     7  N    1.382415   0.000000
     8  H    1.024319   2.121344   0.000000
     9  N    2.504737   1.430470   2.793507   0.000000
    10  O    3.530727   2.232822   3.959742   1.207108   0.000000
    11  O    2.753799   2.227499   2.580124   1.208444   2.186485
    12  C    2.242915   1.375297   3.217512   2.491969   2.745926
    13  H    3.228610   2.139621   4.164749   2.818185   2.615368
                   11         12         13
    11  O    0.000000
    12  C    3.518540   0.000000
    13  H    3.984062   1.022773   0.000000
 Stoichiometry    C3H2N4O4
 Framework group  C1[X(C3H2N4O4)]
 Deg. of freedom    33
 Full point group                 C1      NOp   1
 RotChk:  IX=0 Diff= 3.06D-03
 Largest Abelian subgroup         C1      NOp   1
 Largest concise Abelian subgroup C1      NOp   1
                         Standard orientation:                         
 ---------------------------------------------------------------------
 Center     Atomic      Atomic             Coordinates (Angstroms)
 Number     Number       Type             X           Y           Z
 ---------------------------------------------------------------------
      1          7           0       -2.460820    0.242841   -0.007884
      2          8           0       -3.302298   -0.636787    0.038040
      3          8           0       -2.677819    1.449459   -0.058191
      4          6           0       -1.067090   -0.150122   -0.002675
      5          7           0       -0.685926   -1.467206    0.041702
      6          6           0        0.615390   -1.438399    0.029572
      7          7           0        1.067811   -0.132913   -0.016182
      8          1           0        1.245429   -2.245809    0.048794
      9          7           0        2.437246    0.280207   -0.001172
     10          8           0        2.618922    1.467414    0.119836
     11          8           0        3.240286   -0.616771   -0.105545
     12          6           0       -0.016682    0.712639   -0.035139
     13          1           0        0.023954    1.734085   -0.067715
 ---------------------------------------------------------------------
 Rotational constants (GHZ):      3.3080433      0.6499030      0.5438260
 Leave Link  202 at Wed Aug 25 23:32:03 2021, MaxMem= 24159191040 cpu:         1.0
 (Enter /public/home/users/caep010/software/Gaussian09/g09/l301.exe)
 Standard basis: GTBas3 (6D, 7F)
 Ernie: Thresh=  0.10000D-02 Tol=  0.10000D-05 Strict=F.
 There are   351 symmetry adapted cartesian basis functions of A   symmetry.
 There are   318 symmetry adapted basis functions of A   symmetry.
   318 basis functions,   498 primitive gaussians,   351 cartesian basis functions
    40 alpha electrons       40 beta electrons
       nuclear repulsion energy       605.8601429017 Hartrees.
 IExCor=  402 DFT=T Ex+Corr=B3LYP ExCW=0 ScaHFX=  0.200000
 ScaDFX=  0.800000  0.720000  1.000000  0.810000 ScalE2=  1.000000  1.000000
 IRadAn=      0 IRanWt=     -1 IRanGd=            0 ICorTp=0 IEmpDi=  4
 NAtoms=   13 NActive=   13 NUniq=   13 SFac= 1.00D+00 NAtFMM=   60 NAOKFM=F Big=F
 Integral buffers will be    131072 words long.
 Raffenetti 2 integral format.
 Two-electron integral symmetry is turned on.
 Leave Link  301 at Wed Aug 25 23:32:03 2021, MaxMem= 24159191040 cpu:         1.6
 (Enter /public/home/users/caep010/software/Gaussian09/g09/l302.exe)
 NPDir=0 NMtPBC=     1 NCelOv=     1 NCel=       1 NClECP=     1 NCelD=      1
         NCelK=      1 NCelE2=     1 NClLst=     1 CellRange=     0.0.
 One-electron integrals computed using PRISM.
 NBasis=   318 RedAO= T EigKep=  1.64D-04  NBF=   318
 NBsUse=   318 1.00D-06 EigRej= -1.00D+00 NBFU=   318
 Precomputing XC quadrature grid using
 IXCGrd= 4 IRadAn=           0 IRanWt=          -1 IRanGd=           0 AccXCQ= 0.00D+00.
 Generated NRdTot=       0 NPtTot=           0 NUsed=           0 NTot=          32
 NSgBfM=   351   351   351   351   351 MxSgAt=    13 MxSgA2=    13.
 Leave Link  302 at Wed Aug 25 23:32:03 2021, MaxMem= 24159191040 cpu:        17.3
 (Enter /public/home/users/caep010/software/Gaussian09/g09/l303.exe)
 DipDrv:  MaxL=1.
 Leave Link  303 at Wed Aug 25 23:32:04 2021, MaxMem= 24159191040 cpu:         0.9
 (Enter /public/home/users/caep010/software/Gaussian09/g09/l401.exe)
 Initial guess from the checkpoint file:  "/public/home/users/caep010/.cache/gau_scr/Gau-3638.chk"
 B after Tr=    -0.000000    0.000000   -0.000000
         Rot=    1.000000   -0.000197    0.000030   -0.000037 Ang=  -0.02 deg.
 Guess basis will be translated and rotated to current coordinates.
 JPrj=2 DoOrth=T DoCkMO=T.
 Generating alternative initial guess.
 ExpMin= 1.61D-01 ExpMax= 5.48D+03 ExpMxC= 8.25D+02 IAcc=1 IRadAn=         1 AccDes= 0.00D+00
 Harris functional with IExCor=  402 and IRadAn=       1 diagonalized for initial guess.
 HarFok:  IExCor=  402 AccDes= 0.00D+00 IRadAn=         1 IDoV= 1 UseB2=F ITyADJ=14
 ICtDFT=  3500011 ScaDFX=  1.000000  1.000000  1.000000  1.000000
 FoFCou: FMM=F IPFlag=           0 FMFlag=      100000 FMFlg1=           0
         NFxFlg=           0 DoJE=T BraDBF=F KetDBF=T FulRan=T
         wScrn=  0.000000 ICntrl=     500 IOpCl=  0 I1Cent=   200000004 NGrid=           0
         NMat0=    1 NMatS0=      1 NMatT0=    0 NMatD0=    1 NMtDS0=    0 NMtDT0=    0
 Petite list used in FoFCou.
 Harris En= -635.251377632830    
 Leave Link  401 at Wed Aug 25 23:32:04 2021, MaxMem= 24159191040 cpu:        20.1
 (Enter /public/home/users/caep010/software/Gaussian09/g09/l502.exe)
 Closed shell SCF:
 Using DIIS extrapolation, IDIIS=  1040.
 Integral symmetry usage will be decided dynamically.
 Keep R1 ints in memory in canonical form, NReq=1308544116.
 IVT=      401907 IEndB=      401907 NGot= 24159191040 MDV= 22872453853
 LenX= 22872453853 LenY= 22872330211
 Requested convergence on RMS density matrix=1.00D-08 within 128 cycles.
 Requested convergence on MAX density matrix=1.00D-06.
 Requested convergence on             energy=1.00D-06.
 No special actions if energy rises.
 FoFCou: FMM=F IPFlag=           0 FMFlag=           0 FMFlg1=           0
         NFxFlg=           0 DoJE=F BraDBF=F KetDBF=F FulRan=T
         wScrn=  0.000000 ICntrl=     600 IOpCl=  0 I1Cent=           0 NGrid=           0
         NMat0=    1 NMatS0=  50721 NMatT0=    0 NMatD0=    1 NMtDS0=    0 NMtDT0=    0
 Symmetry not used in FoFCou.
 Integral accuracy reduced to 1.0D-05 until final iterations.

 Cycle   1  Pass 0  IDiag  1:
 E= -635.210640394286    
 DIIS: error= 4.78D-03 at cycle   1 NSaved=   1.
 NSaved= 1 IEnMin= 1 EnMin= -635.210640394286     IErMin= 1 ErrMin= 4.78D-03
 ErrMax= 4.78D-03  0.00D+00 EMaxC= 1.00D-01 BMatC= 5.62D-03 BMatP= 5.62D-03
 IDIUse=3 WtCom= 9.52D-01 WtEn= 4.78D-02
 Coeff-Com:  0.100D+01
 Coeff-En:   0.100D+01
 Coeff:      0.100D+01
 Gap=     1.062 Goal=   None    Shift=    0.000
 GapD=    1.062 DampG=2.000 DampE=1.000 DampFc=2.0000 IDamp=-1.
 RMSDP=6.32D-04 MaxDP=3.44D-02              OVMax= 2.18D-02

 Cycle   2  Pass 0  IDiag  1:
 E= -635.214896408211     Delta-E=       -0.004256013925 Rises=F Damp=F
 DIIS: error= 2.01D-03 at cycle   2 NSaved=   2.
 NSaved= 2 IEnMin= 2 EnMin= -635.214896408211     IErMin= 2 ErrMin= 2.01D-03
[...]
 Alpha virt. eigenvalues --   18.74147  18.76310  18.78805  18.79482  18.86570
 Alpha virt. eigenvalues --   18.91950  18.93641  18.94002  18.99972  19.00958
 Alpha virt. eigenvalues --   19.04320  19.06565  19.09372  19.10980  19.11719
 Alpha virt. eigenvalues --   19.13079  19.14010  19.19371  19.20899  19.22988
 Alpha virt. eigenvalues --   19.23363  19.25580  19.25799  19.30526  19.35964
 Alpha virt. eigenvalues --   19.39966  19.43763  19.44768  19.48607  19.49548
 Alpha virt. eigenvalues --   19.53694  19.55461  19.61581  19.62897  19.65557
 Alpha virt. eigenvalues --   19.67113  19.69303  19.69761  19.70855  19.70975
 Alpha virt. eigenvalues --   19.72568  19.72773  19.74899  19.84015  19.92258
 Alpha virt. eigenvalues --   19.94434  19.98389  20.01148  20.18371  20.20106
 Alpha virt. eigenvalues --   20.26791  20.29560  20.46214  20.72520  20.99229
 Alpha virt. eigenvalues --   21.49048  21.61937  21.63458  21.69886  22.07284
 Alpha virt. eigenvalues --   22.08371  22.11681  22.14662  22.16128  22.16892
 Alpha virt. eigenvalues --   22.22539  22.26524  22.28158  22.32886  22.37581
 Alpha virt. eigenvalues --   22.39763  22.86724  23.02015  23.24541  23.26089
 Alpha virt. eigenvalues --   23.28316  23.32302  23.54278  23.55546  23.56426
 Alpha virt. eigenvalues --   23.57212  23.65046  23.70380  24.57119  24.59004
 Alpha virt. eigenvalues --   24.65215  24.74295  39.53053  40.73586  41.77964
 Alpha virt. eigenvalues --   51.75258  52.02951  52.88984  52.95989  64.13924
 Alpha virt. eigenvalues --   64.25146  64.33489  64.45111
          Condensed to atoms (all electrons):
               1          2          3          4          5          6
     1  N    5.483409   0.390459   0.320503   0.374589  -0.014102   0.011654
     2  O    0.390459   8.139430  -0.092450  -0.069947  -0.017650   0.002117
     3  O    0.320503  -0.092450   8.273512  -0.070439   0.003311  -0.005590
     4  C    0.374589  -0.069947  -0.070439   4.710600   0.383465  -0.062469
     5  N   -0.014102  -0.017650   0.003311   0.383465   6.675566   0.532372
     6  C    0.011654   0.002117  -0.005590  -0.062469   0.532372   4.827053
     7  N    0.004207   0.002093  -0.013217  -0.143628  -0.060390   0.415803
     8  H   -0.000022  -0.000102   0.000052   0.005574  -0.027727   0.401153
     9  N   -0.001087   0.000417   0.001702  -0.002351  -0.004452  -0.028840
    10  O    0.001046   0.000023   0.000178  -0.006125   0.002071   0.011566
    11  O    0.000707  -0.000071  -0.000216  -0.001555  -0.001257  -0.018176
    12  C   -0.063639   0.006897   0.021913   0.626670  -0.050195  -0.163473
    13  H    0.001018  -0.000160   0.000227  -0.003682   0.002812   0.004621
               7          8          9         10         11         12
     1  N    0.004207  -0.000022  -0.001087   0.001046   0.000707  -0.063639
     2  O    0.002093  -0.000102   0.000417   0.000023  -0.000071   0.006897
     3  O   -0.013217   0.000052   0.001702   0.000178  -0.000216   0.021913
     4  C   -0.143628   0.005574  -0.002351  -0.006125  -0.001555   0.626670
     5  N   -0.060390  -0.027727  -0.004452   0.002071  -0.001257  -0.050195
     6  C    0.415803   0.401153  -0.028840   0.011566  -0.018176  -0.163473
     7  N    6.232707  -0.022405   0.290525  -0.081783  -0.073813   0.407276
     8  H   -0.022405   0.357132   0.002198   0.000203  -0.000667   0.004964
     9  N    0.290525   0.002198   5.322397   0.424414   0.402220  -0.057864
    10  O   -0.081783   0.000203   0.424414   8.124900  -0.090786  -0.005136
    11  O   -0.073813  -0.000667   0.402220  -0.090786   8.143789   0.015420
    12  C    0.407276   0.004964  -0.057864  -0.005136   0.015420   5.023902
    13  H   -0.008174  -0.000095   0.000113   0.002326   0.000181   0.369193
              13
     1  N    0.001018
     2  O   -0.000160
     3  O    0.000227
     4  C   -0.003682
     5  N    0.002812
     6  C    0.004621
     7  N   -0.008174
     8  H   -0.000095
     9  N    0.000113
    10  O    0.002326
    11  O    0.000181
    12  C    0.369193
    13  H    0.316560
 Mulliken charges:
               1
     1  N    0.491256
     2  O   -0.361056
     3  O   -0.439488
     4  C    0.259297
     5  N   -0.423824
     6  C    0.072208
     7  N    0.050799
     8  H    0.279742
     9  N    0.650608
    10  O   -0.382897
    11  O   -0.375776
    12  C   -0.135928
    13  H    0.315059
 Sum of Mulliken charges =  -0.00000
 Mulliken charges with hydrogens summed into heavy atoms:
               1
     1  N    0.491256
     2  O   -0.361056
     3  O   -0.439488
     4  C    0.259297
     5  N   -0.423824
     6  C    0.351950
     7  N    0.050799
     9  N    0.650608
    10  O   -0.382897
    11  O   -0.375776
    12  C    0.179131
 Electronic spatial extent (au):  <R**2>=           1835.8200
 Charge=             -0.0000 electrons
 Dipole moment (field-independent basis, Debye):
    X=              3.7751    Y=             -0.3833    Z=             -0.0005  Tot=              3.7945
 Quadrupole moment (field-independent basis, Debye-Ang):
   XX=            -82.8085   YY=            -63.4674   ZZ=            -58.9148
   XY=             -3.2134   XZ=              0.0012   YZ=             -0.0027
 Traceless Quadrupole moment (field-independent basis, Debye-Ang):
   XX=            -14.4116   YY=              4.9295   ZZ=              9.4821
   XY=             -3.2134   XZ=              0.0012   YZ=             -0.0027
 Octapole moment (field-independent basis, Debye-Ang**2):
  XXX=             22.9990  YYY=              0.5505  ZZZ=             -0.0000  XYY=             16.3158
  XXY=             -6.0799  XXZ=              0.0033  XZZ=              1.8308  YZZ=              2.6399
  YYZ=             -0.0031  XYZ=             -0.0119
 Hexadecapole moment (field-independent basis, Debye-Ang**3):
 XXXX=          -2009.5612 YYYY=           -395.9848 ZZZZ=            -52.4050 XXXY=              5.0625
 XXXZ=              0.0149 YYYX=            -22.1682 YYYZ=             -0.0039 ZZZX=              0.0001
 ZZZY=              0.0042 XXYY=           -399.4972 XXZZ=           -279.0625 YYZZ=            -79.1600
 XXYZ=             -0.0103 YYXZ=             -0.0024 ZZXY=              0.7433
 N-N= 6.047123900467D+02 E-N=-2.694180764009D+03  KE= 6.308839095708D+02
 No NMR shielding tensors so no spin-rotation constants.
 Leave Link  601 at Thu Aug 26 01:50:52 2021, MaxMem= 24159191040 cpu:        38.8
 (Enter /public/home/users/caep010/software/Gaussian09/g09/l9999.exe)
 1\1\GINC-B0953\SP\RHF\GFHFB2\C3H2N4O4\ROOT\26-Aug-2021\0\\#P Geom=AllC
 heck Guess=TCheck SCRF=Check HF/GFHFB2 SCF=Tight\\KAVFUI01\\0,1\N,0,1.
 8059952821,4.0484079902,4.7936180505\O,0,2.8633609041,4.4312904427,4.3
 276778525\O,0,1.3093507185,2.9342462607,4.6561820516\C,0,1.0387602182,
 4.9840258846,5.5944139506\N,0,1.4690884072,6.2638885859,5.8335670932\C
 ,0,0.5437682699,6.8012715001,6.5740127949\N,0,-0.4706856589,5.88739308
 38,6.8125158116\H,0,0.5128766702,7.8008563323,6.9730723396\N,0,-1.6498
 718518,6.1298195807,7.5877127339\O,0,-2.41305353,5.1981764205,7.675339
 973\O,0,-1.7331835627,7.2400454415,8.0583144571\C,0,-0.1606941792,4.70
 33927905,6.181562997\H,0,-0.7898116875,3.8339856865,6.2140098946\\Vers
 ion=ES64L-G09RevE.01\State=1-A\HF=-631.9902789\RMSD=5.858e-09\Dipole=-
 0.9596103,0.7674666,0.8478497\Quadrupole=-4.3973516,3.0697016,1.327650
 1,2.9651291,7.7576666,-3.2311289\PG=C01 [X(C3H2N4O4)]\\@


 ADAM SMITH SAID, "THE REAL PRICE OF ANYTHING IS THE TOIL AND TROUBLE
 OF ACQUIRING IT."  BUT IN ALL UNDERTAKINGS WITH NATURE WE SHOULD FIRST
 READ CAREFULLY THE SMALL PRINT IN THE CONTRACT. THIS MIGHT DISCLOSE
 THAT THE REAL PRICE IS TO BE PAID BY THOSE WHO INHERIT THE DEPLETION
 AND DESPOILATION THAT FOLLOWS.
                               -- E. R. HARRISON IN "COSMOLOGY" (1980)
 Diagonal vibrational polarizability:
        0.0000000       0.0000000       0.0000000

 Temperature=              298.150000 Pressure=                      1.000000
 E(ZPE)=                     0.074552 E(Thermal)=                    0.083176
 E(CCSD(T))=              -633.560483 E(Empiric)=                   -0.201463
 DE(Plus)=                  -0.044249 DE(2DF)=                      -0.420844
 E(Delta-G3XP)=             -0.750109 DE(HF)=                       -0.063773
 G4(0 K)=                 -634.966370 G4 Energy=                  -634.957746
 G4 Enthalpy=             -634.956802 G4 Free Energy=             -635.001425
 1\1\GINC-B0953\Mixed\G4\G4\C3H2N4O4\ROOT\26-Aug-2021\0\\#P Geom=AllChe
 ck Guess=TCheck SCRF=Check HF/GFHFB2 SCF=Tight\\KAVFUI01\\0,1\N,0,1.80
 59952821,4.0484079902,4.7936180505\O,0,2.8633609041,4.4312904427,4.327
 6778525\O,0,1.3093507185,2.9342462607,4.6561820516\C,0,1.0387602182,4.
 9840258846,5.5944139506\N,0,1.4690884072,6.2638885859,5.8335670932\C,0
 ,0.5437682699,6.8012715001,6.5740127949\N,0,-0.4706856589,5.8873930838
 ,6.8125158116\H,0,0.5128766702,7.8008563323,6.9730723396\N,0,-1.649871
 8518,6.1298195807,7.5877127339\O,0,-2.41305353,5.1981764205,7.67533997
 3\O,0,-1.7331835627,7.2400454415,8.0583144571\C,0,-0.1606941792,4.7033
 927905,6.181562997\H,0,-0.7898116875,3.8339856865,6.2140098946\\Versio
 n=ES64L-G09RevE.01\State=1-A\MP2/GTBas1=-633.4896402\MP4/GTBas1=-633.5
 866391\CCSD(T)/G3Bas1=-633.5604831\MP2/GTBas2=-633.5304866\MP4/GTBas2=
 -633.630888\MP2/GTBas3=-633.8861544\MP4/GTBas3=-634.0074831\HF/GTLarge
 XP=-631.9289389\MP2/GTLargeXP=-634.6771103\HF/GFHFB1=-631.9802926\HF/G
 FHFB2=-631.9902789\G4=-634.9663697\FreqCoord=3.4128364804,7.6503823757
 ,9.0586253012,5.4109679283,8.3739253519,8.1781259325,2.4743142699,5.54
 49218392,8.7989089024,1.9629723301,9.4184439611,10.5719102406,2.776174
 7546,11.8370339543,11.023844184,1.0275731099,12.8525404905,12.42308377
 64,-0.8894669899,11.125560565,12.8737891598,0.9691964466,14.7414820701
 ,13.1771970267,-3.1178059542,11.5836802516,14.338699042,-4.5600103156,
 9.8231298251,14.5042905258,-3.2752422716,13.681703074,15.2280074166,-0
 .3036679899,8.8881242695,11.6814611374,-1.492527786,7.2451829448,11.74
 27768878\PG=C01 [X(C3H2N4O4)]\NImag=0\\0.74215160,0.21628555,0.7578784
 1,-0.21136906,0.07443851,0.38513110,-0.45541522,-0.11473601,0.17468853
 ,0.54165682,-0.10534694,-0.15737189,0.03069184,0.17375839,0.17048176,0
 .17826963,0.03612605,-0.16736817,-0.23081284,-0.04636171,0.14425009,-0
 .17000398,-0.13341866,0.00196020,-0.03780639,-0.08657673,0.00445379,0.
 18993572,-0.14676838,-0.46977818,-0.06418463,-0.06070213,-0.02678823,0
 .01464459,0.21059090,0.56467894,-0.00313135,-0.07191096,-0.10431806,0.
 01432109,0.02961934,0.02994094,-0.01239514,0.08210190,0.06824357,-0.10
 524712,0.01972048,0.02226836,-0.05326303,0.01122741,0.04722837,0.01849
 001,-0.00639729,-0.00184650,0.61347165,0.02347745,-0.11118169,-0.02557
 267,-0.00272603,0.01667420,-0.00005142,0.00409161,-0.06151912,-0.03326
 718,0.06010792,0.56933276,0.02370701,-0.02340138,-0.10239099,0.0419061
 5,-0.00812624,-0.00640725,0.00215245,-0.02719745,0.00789404,-0.2480612
 4,0.12697364,0.33720488,0.00589149,0.01702560,-0.00261502,0.00322550,0
 .00298244,-0.00003197,0.00038055,0.00564496,0.00440548,-0.11523884,-0.
 06151666,0.00347443,0.46376972,0.00796453,-0.02742208,-0.01130975,-0.0
 0347325,-0.00176304,0.00087784,0.00065400,-0.00052945,-0.00221051,-0.0
 7727606,-0.22509033,-0.01493761,-0.00996227,0.44967671,-0.00607186,-0.
 01655348,-0.01265131,-0.00249374,-0.00285830,0.00155845,0.00250234,-0.
 00509830,0.00088239,-0.00253630,-0.02405568,-0.07639776,-0.21364635,0.
 13869568,0.27768467,0.00595243,-0.00736723,-0.00260270,-0.00315650,-0.
 00053030,0.00139759,0.00034720,0.00057541,-0.00047046,0.00400148,0.050
 63943,0.02186230,-0.26273353,0.10923956,0.15094182,0.47596456,-0.00855
 424,-0.00516176,0.00057557,0.00102860,0.00165008,0.00018339,0.00211364
 ,-0.00245898,-0.00183844,0.00937406,-0.07307743,-0.03650065,0.09978321
 ,-0.16129222,-0.09108083,-0.02531906,0.80627719,-0.00305753,-0.0001113
 1,0.00803527,0.00199278,0.00108588,-0.00113070,0.00011613,-0.00094857,
 -0.00127462,0.00611927,-0.06038858,-0.01817279,0.14733622,-0.09654459,
 -0.19598060,-0.20574230,0.26984864,0.35911359,-0.00358103,-0.00936425,
 0.00215145,-0.00163884,0.00402168,0.00187283,0.00069518,0.00219940,0.0
 0060653,-0.05026297,-0.00187775,0.03342587,-0.07833858,0.02794344,0.06
 872453,-0.13045696,-0.07961467,0.01234756,0.50215370,-0.00922659,0.007
 51723,0.00579920,0.00242144,-0.00021950,-0.00108329,-0.00024189,-0.003
 99524,-0.00149593,0.05693841,-0.00893645,-0.03969216,-0.02591104,0.004
 49905,0.00833117,-0.08244268,-0.20083033,-0.00729480,0.08036678,0.6349
 7745,0.00220512,0.00587980,0.00727386,0.00126327,-0.00200942,-0.002549
 96,-0.00032408,-0.00290812,-0.00062688,0.05585792,-0.00566179,-0.02574
 317,0.04817517,-0.02283438,-0.01460336,0.01129426,-0.00891906,-0.06656
 037,-0.20682320,0.16052026,0.27284989,0.00141856,0.00029609,0.00037734
 ,-0.00007181,0.00000526,-0.00003748,-0.00030945,0.00074442,0.00000880,
 -0.00066354,0.00046737,0.00530127,0.00159589,0.02377004,0.00544444,-0.
 04803009,0.00302752,0.01235303,0.00063954,-0.02397144,-0.00949098,0.04
 783382,-0.00015965,0.00021848,-0.00053943,-0.00005269,-0.00003790,0.00
 006943,0.00015053,-0.00003556,0.00019860,0.00022278,0.00219247,-0.0024
 1570,0.00267765,-0.00380410,-0.00122242,-0.00124344,-0.32006348,-0.110
 40043,0.00099710,-0.01317378,-0.00561502,-0.00207619,0.33455407,0.0002
 0330,-0.00080333,0.00145102,-0.00005960,0.00003590,-0.00009181,-0.0002
 1755,-0.00014529,-0.00071418,0.00520879,-0.00255850,0.00420015,-0.0025
 9955,-0.01343075,-0.00827974,0.01072394,-0.11286465,-0.07792774,0.0000
 3324,0.00883150,0.00338789,-0.01562976,0.12031946,0.07712260,-0.003070
 71,0.00822854,0.00724736,0.00249540,-0.00201698,-0.00296730,0.00066778
 ,-0.00452074,-0.00236641,0.01387807,0.00282604,-0.00555939,0.01029272,
 -0.01528822,-0.00612973,-0.04101918,-0.00612237,0.01287565,-0.07672287
 ,-0.01462660,0.00673712,0.00233377,0.00059090,-0.00159384,0.52716418,0
 .00079710,0.00113174,-0.00156527,0.00012014,-0.00014810,0.00037068,-0.
 00058931,-0.00032200,0.00038724,-0.00116713,-0.01073319,-0.00433753,-0
 .01440795,-0.00243035,0.00368275,0.00240861,0.02554125,0.01397032,-0.0
 2159633,-0.12555487,-0.01421676,-0.00311013,-0.00324304,0.00087131,0.2
 0791479,1.00344211,0.00441181,-0.00586871,-0.00076299,-0.00215237,0.00
 160838,0.00055618,-0.00086688,0.00266407,0.00107495,-0.00708559,-0.006
 64672,0.00397088,-0.00579761,0.00419022,0.01473244,0.01612283,0.018913
 81,-0.01686385,0.00408867,-0.01826479,-0.06478412,-0.00300282,-0.00126
 876,0.00044574,-0.08421760,0.16807643,0.35790422,0.00085809,-0.0027362
 4,-0.00178752,-0.00051832,0.00098275,0.00078038,-0.00004772,0.00178108
 ,0.00077111,-0.00353612,-0.00467606,0.00060091,-0.00818323,0.00207618,
 0.00395217,0.00757767,0.01296941,0.00384583,-0.06712816,-0.04992827,0.
 03099120,-0.00022282,-0.00028679,-0.00008806,-0.30146432,-0.23135845,0
 .03564460,0.34895197,-0.00019911,-0.00156884,-0.00032044,0.00017848,0.
 00066780,0.00008193,0.00029323,0.00111055,0.00021130,-0.00365490,-0.00
 178759,0.00121085,-0.00046719,0.00415334,0.00288708,0.00283748,0.00439
 466,-0.00211684,-0.03351421,0.00234545,0.01299132,0.00119345,0.0004935
 2,-0.00043031,-0.21643457,-0.39059980,0.01022904,0.30355897,0.47275984
 ,-0.00081980,0.00114963,0.00048641,0.00047361,-0.00038435,-0.00023859,
 0.00020369,-0.00065111,-0.00025515,0.00099166,0.00180556,0.00069777,0.
 00299544,0.00141760,-0.00390334,-0.00003555,-0.00799814,0.00261761,0.0
 3724712,0.02251002,0.00620034,0.00047566,0.00042488,-0.00029932,0.0413
 2719,0.01887112,-0.10472322,-0.06683430,-0.00897402,0.06947565,0.00076
 542,-0.00208441,-0.00199119,-0.00093804,0.00052099,0.00094854,-0.00016
 843,0.00116735,0.00061733,-0.00234680,0.00269208,0.00226779,-0.0005948
 6,0.00219324,0.00087185,0.00088748,0.00052058,0.00052375,-0.00711702,0
 .04990521,0.03347028,-0.00143830,0.00179734,0.00129855,-0.12369741,0.0
 3155560,0.03285806,0.02390700,-0.05640762,-0.01747597,0.11386381,-0.00
 084573,0.00182047,0.00167949,0.00101524,-0.00057566,-0.00094324,0.0004
 4880,-0.00050088,-0.00050003,0.00346006,0.00126907,-0.00144081,0.00333
 500,-0.00209824,-0.00252868,-0.00791594,-0.00659031,0.00151759,0.03584
 773,-0.03169378,-0.03962814,0.00187049,0.00178055,-0.00026030,0.015073
 20,-0.49837356,-0.16496537,-0.02799305,-0.09045596,-0.02990791,-0.0253
 2590,0.61673406,-0.00151848,0.00239700,0.00048964,0.00113645,-0.000657
 44,-0.00055028,0.00034287,-0.00091596,-0.00041847,0.00255986,-0.000994
 31,-0.00206611,0.00130628,-0.00186507,-0.00200233,-0.00268791,-0.00336
 980,0.00172725,0.02811838,-0.04776092,-0.01658672,0.00132635,-0.000217
 82,-0.00122735,0.02658313,-0.17450969,-0.16948129,-0.00666250,-0.01345
 185,0.02953056,-0.05566730,0.23620948,0.15648737,-0.01835400,0.0099158
 8,0.01297764,0.00484921,0.00041784,-0.00105501,-0.00306593,-0.00559064
 ,-0.00026258,-0.31915605,-0.05815412,0.12329377,-0.01782721,-0.0648876
 2,-0.00497035,-0.00743335,-0.01193315,0.00805284,-0.09787123,0.0041679
 4,0.02841449,-0.00421602,-0.00258593,0.00225778,-0.01228843,0.02938755
 ,0.01144168,0.00221617,0.00214505,0.00017642,-0.00281272,0.00174571,0.
 00522732,0.63787119,0.02322860,0.00336766,-0.01121771,0.00323880,-0.00
 232493,-0.00381032,0.00142733,0.00137391,-0.00036546,-0.07376934,-0.10
 065222,0.03015982,-0.01983385,-0.03666307,-0.00874064,-0.04322032,-0.0
 6704334,-0.00602823,0.00798971,-0.24882537,-0.07985608,-0.00133343,0.0
 0110095,0.00066110,0.02705940,0.00344920,-0.00981712,-0.00482817,-0.00
 359953,0.00099742,-0.00699304,0.00799565,0.00515855,0.24997178,0.69950
 417,0.01805214,-0.00351058,-0.01425438,0.00002149,-0.00217823,0.001908
 09,0.00241364,0.00369543,0.00017775,0.11734648,0.02112421,-0.12764569,
 0.01221169,0.01732485,0.01589042,-0.00389190,-0.02413487,0.00738171,0.
 02987326,-0.07764642,-0.09844205,0.00273661,0.00138600,0.00033584,0.01
 055048,-0.01116720,-0.02225147,-0.00247641,-0.00303936,0.00138752,0.00
 189538,0.00010813,0.00402011,-0.20496254,0.07676076,0.26686778,-0.0013
 6552,-0.00176534,-0.00130538,0.00058122,0.00055417,-0.00004653,0.00088
 547,0.00127565,-0.00025790,-0.00012674,-0.01535126,-0.00437132,-0.0022
 3962,-0.00295355,0.00341120,-0.00190119,0.00272647,0.00323679,0.009629
 25,0.01254873,-0.00177056,0.00113046,-0.00003161,0.00046277,0.00143100
 ,0.00004551,-0.00144478,-0.00241022,0.00047094,0.00127484,-0.00031014,
 -0.00071560,-0.00006445,-0.16191163,-0.16293747,0.01622969,0.15660766,
 -0.00065259,0.00055045,0.00152529,-0.00007099,-0.00024459,-0.00010393,
 0.00105655,-0.00123576,-0.00092985,0.00121360,0.00350952,-0.00029479,0
 .00065009,0.00276378,-0.00145835,0.00233849,-0.00134535,-0.00258908,-0
 .01339863,-0.01610987,0.00225738,-0.00088345,0.00001783,-0.00022613,-0
 .00268338,-0.00215939,0.00114952,0.00043865,0.00208655,0.00073929,0.00
 045859,0.00068859,-0.00002215,-0.15460030,-0.25768310,0.00127729,0.166
 13336,0.26916132,-0.00088092,0.00216876,-0.00112140,-0.00028481,-0.000
 46565,0.00012302,-0.00034145,-0.00105654,-0.00060628,0.00194892,0.0092
 9343,0.00485603,0.00478579,0.00062648,0.00307008,0.00308809,-0.0028149
 8,-0.00096475,-0.01166622,-0.01275384,0.00018465,0.00013754,-0.0007187
 9,0.00159691,-0.00248667,-0.00043340,0.00018251,0.00126259,0.00072131,
 -0.00097624,0.00038295,0.00065980,0.00007762,0.01940855,0.00609791,-0.
 03537564,-0.01535437,-0.00132449,0.02895349\\-0.00000301,-0.00000328,0
 .00000707,-0.00000386,-0.00000686,-0.00000203,0.00000765,-0.00000618,-
 0.00000689,0.00017458,0.00006554,-0.00008691,0.00002876,-0.00000883,-0
 .00001527,-0.00001122,0.00038358,0.00016313,-0.00000271,0.00000363,0.,
 0.00001385,-0.00033250,-0.00013872,0.00001537,-0.00001179,-0.00001154,
 0.00000380,0.00000096,0.00000643,-0.00001327,0.00000323,0.00000211,-0.
 00027689,-0.00019410,0.00008491,0.00006693,0.00010660,-0.00000230\\\@
 Job cpu time:       0 days 12 hours 30 minutes 16.2 seconds.
 File lengths (MBytes):  RWF=  51248 Int=      0 D2E=      0 Chk=     75 Scr=      1
 Normal termination of Gaussian 09 at Thu Aug 26 01:50:53 2021.
