 Entering Gaussian System, Link 0=g09
 Input=G4.KIBSAS01.gjf
 Output=G4.KIBSAS01.log
 Initial command:
 /public/home/users/caep010/software/Gaussian09/g09/l1.exe "/public/home/users/caep010/.cache/gau_scr/Gau-123887.inp" -scrdir="/public/home/users/caep010/.cache/gau_scr/"
 Entering Link 1 = /public/home/users/caep010/software/Gaussian09/g09/l1.exe PID=    123888.
  
 Copyright (c) 1988,1990,1992,1993,1995,1998,2003,2009,2015,
            Gaussian, Inc.  All Rights Reserved.
  
 This is part of the Gaussian(R) 09 program.  It is based on
 the Gaussian(R) 03 system (copyright 2003, Gaussian, Inc.),
 the Gaussian(R) 98 system (copyright 1998, Gaussian, Inc.),
 the Gaussian(R) 94 system (copyright 1995, Gaussian, Inc.),
 the Gaussian 92(TM) system (copyright 1992, Gaussian, Inc.),
 the Gaussian 90(TM) system (copyright 1990, Gaussian, Inc.),
 the Gaussian 88(TM) system (copyright 1988, Gaussian, Inc.),
 the Gaussian 86(TM) system (copyright 1986, Carnegie Mellon
 University), and the Gaussian 82(TM) system (copyright 1983,
 Carnegie Mellon University). Gaussian is a federally registered
 trademark of Gaussian, Inc.
  
 This software contains proprietary and confidential information,
 including trade secrets, belonging to Gaussian, Inc.
  
 This software is provided under written license and may be
 used, copied, transmitted, or stored only in accord with that
 written license.
  
 The following legend is applicable only to US Government
 contracts under FAR:
  
                    RESTRICTED RIGHTS LEGEND
  
 Use, reproduction and disclosure by the US Government is
 subject to restrictions as set forth in subparagraphs (a)
 and (c) of the Commercial Computer Software - Restricted
 Rights clause in FAR 52.227-19.
  
 Gaussian, Inc.
 340 Quinnipiac St., Bldg. 40, Wallingford CT 06492
  
  
 ---------------------------------------------------------------
 Warning -- This program may not be used in any manner that
 competes with the business of Gaussian, Inc. or will provide
 assistance to any competitor of Gaussian, Inc.  The licensee
 of this program is prohibited from giving any competitor of
 Gaussian, Inc. access to this program.  By using this program,
 the user acknowledges that Gaussian, Inc. is engaged in the
 business of creating and licensing software in the field of
 computational chemistry and represents and warrants to the
 licensee that it is not a competitor of Gaussian, Inc. and that
 it will not use this program in any manner prohibited above.
 ---------------------------------------------------------------
  

 Cite this work as:
 Gaussian 09, Revision E.01,
 M. J. Frisch, G. W. Trucks, H. B. Schlegel, G. E. Scuseria, 
 M. A. Robb, J. R. Cheeseman, G. Scalmani, V. Barone, B. Mennucci, 
 G. A. Petersson, H. Nakatsuji, M. Caricato, X. Li, H. P. Hratchian, 
 A. F. Izmaylov, J. Bloino, G. Zheng, J. L. Sonnenberg, M. Hada, 
 M. Ehara, K. Toyota, R. Fukuda, J. Hasegawa, M. Ishida, T. Nakajima, 
 Y. Honda, O. Kitao, H. Nakai, T. Vreven, J. A. Montgomery, Jr., 
 J. E. Peralta, F. Ogliaro, M. Bearpark, J. J. Heyd, E. Brothers, 
 K. N. Kudin, V. N. Staroverov, T. Keith, R. Kobayashi, J. Normand, 
 K. Raghavachari, A. Rendell, J. C. Burant, S. S. Iyengar, J. Tomasi, 
 M. Cossi, N. Rega, J. M. Millam, M. Klene, J. E. Knox, J. B. Cross, 
 V. Bakken, C. Adamo, J. Jaramillo, R. Gomperts, R. E. Stratmann, 
 O. Yazyev, A. J. Austin, R. Cammi, C. Pomelli, J. W. Ochterski, 
 R. L. Martin, K. Morokuma, V. G. Zakrzewski, G. A. Voth, 
 P. Salvador, J. J. Dannenberg, S. Dapprich, A. D. Daniels, 
 O. Farkas, J. B. Foresman, J. V. Ortiz, J. Cioslowski, 
 and D. J. Fox, Gaussian, Inc., Wallingford CT, 2013.
 
 ******************************************
 Gaussian 09:  ES64L-G09RevE.01 30-Nov-2015
                27-Aug-2021 
 ******************************************
 %nproc=32
 Will use up to   32 processors via shared memory.
 %mem=180GB
 ----------------
 #P G4 OPT=calcfc
 ----------------
 1/10=4,14=-1,18=20,19=15,26=3,38=1/1,3;
 2/9=110,12=2,17=6,18=5,40=1/2;
 3/5=35,7=104,11=2,16=1,25=1,30=1,71=2,74=-5,140=1/1,2,3;
 4//1;
 5/5=2,38=5/2;
 8/6=4,10=90,11=11/1;
 11/6=1,8=1,9=11,15=111,16=1/1,2,10;
 10/6=1,13=1/2;
 6/7=2,8=2,9=2,10=2,28=1/1;
 7/10=1,18=20,25=1/1,2,3,16;
 1/10=4,14=-1,18=20,19=15,26=3/3(2);
 2/9=110/2;
 99//99;
 2/9=110/2;
 3/5=35,7=104,11=2,16=1,25=1,30=1,71=1,74=-5/1,2,3;
 4/5=5,16=3,69=1/1;
 5/5=2,38=5/2;
 7//1,2,3,16;
 1/14=-1,18=20,19=15,26=3/3(-5);
 2/9=110/2;
 6/7=2,8=2,9=2,10=2,19=2,28=1/1;
 99/9=1/99;
 Leave Link    1 at Fri Aug 27 04:04:33 2021, MaxMem= 24159191040 cpu:         4.1
 (Enter /public/home/users/caep010/software/Gaussian09/g09/l101.exe)
 --------
 KIBSAS01
 --------
 Symbolic Z-matrix:
 Charge =  0 Multiplicity = 1
 C                     2.3199    5.5062    3.7856 
 C                     3.4765    5.505     4.6896 
 N                     2.176     4.513     2.9704 
 N                     1.4176    6.5202    3.6808 
 O                     1.0357    4.8982    2.2203 
 N                     4.6358    5.1212    4.2466 
 O                     5.5017    5.2128    5.3169 
 N                     4.8685    5.6639    6.4296 
 C                     3.6461    5.8387    6.0553 
 N                     2.6782    6.28      7.0348 
 O                     1.5301    6.3604    6.6736 
 O                     3.0977    6.5474    8.1498 
 C                     0.6624    6.0955    2.6966 
 N                    -0.3647    6.6886    2.136 
 H                    -0.6191    7.4613    2.4139 
 H                    -0.784     6.3038    1.4906 
 
 NAtoms=     16 NQM=       16 NQMF=       0 NMMI=      0 NMMIF=      0
                NMic=       0 NMicF=      0.
                    Isotopes and Nuclear Properties:
 (Nuclear quadrupole moments (NQMom) in fm**2, nuclear magnetic moments (NMagM)
  in nuclear magnetons)

  Atom         1           2           3           4           5           6           7           8           9          10
 IAtWgt=          12          12          14          14          16          14          16          14          12          14
 AtmWgt=  12.0000000  12.0000000  14.0030740  14.0030740  15.9949146  14.0030740  15.9949146  14.0030740  12.0000000  14.0030740
 NucSpn=           0           0           2           2           0           2           0           2           0           2
 AtZEff=   0.0000000   0.0000000   0.0000000   0.0000000   0.0000000   0.0000000   0.0000000   0.0000000   0.0000000   0.0000000
 NQMom=    0.0000000   0.0000000   2.0440000   2.0440000   0.0000000   2.0440000   0.0000000   2.0440000   0.0000000   2.0440000
 NMagM=    0.0000000   0.0000000   0.4037610   0.4037610   0.0000000   0.4037610   0.0000000   0.4037610   0.0000000   0.4037610
 AtZNuc=   6.0000000   6.0000000   7.0000000   7.0000000   8.0000000   7.0000000   8.0000000   7.0000000   6.0000000   7.0000000

  Atom        11          12          13          14          15          16
 IAtWgt=          16          16          12          14           1           1
 AtmWgt=  15.9949146  15.9949146  12.0000000  14.0030740   1.0078250   1.0078250
 NucSpn=           0           0           0           2           1           1
 AtZEff=   0.0000000   0.0000000   0.0000000   0.0000000   0.0000000   0.0000000
 NQMom=    0.0000000   0.0000000   0.0000000   2.0440000   0.0000000   0.0000000
 NMagM=    0.0000000   0.0000000   0.0000000   0.4037610   2.7928460   2.7928460
 AtZNuc=   8.0000000   8.0000000   6.0000000   7.0000000   1.0000000   1.0000000
 Leave Link  101 at Fri Aug 27 04:04:33 2021, MaxMem= 24159191040 cpu:         9.8
 (Enter /public/home/users/caep010/software/Gaussian09/g09/l103.exe)

 GradGradGradGradGradGradGradGradGradGradGradGradGradGradGradGradGradGrad
 Berny optimization.
 Initialization pass.
                           ----------------------------
                           !    Initial Parameters    !
                           ! (Angstroms and Degrees)  !
 --------------------------                            --------------------------
 ! Name  Definition              Value          Derivative Info.                !
 --------------------------------------------------------------------------------
 ! R1    R(1,2)                  1.468          calculate D2E/DX2 analytically  !
 ! R2    R(1,3)                  1.2929         calculate D2E/DX2 analytically  !
 ! R3    R(1,4)                  1.3614         calculate D2E/DX2 analytically  !
 ! R4    R(2,6)                  1.299          calculate D2E/DX2 analytically  !
 ! R5    R(2,9)                  1.4161         calculate D2E/DX2 analytically  !
 ! R6    R(3,5)                  1.4182         calculate D2E/DX2 analytically  !
 ! R7    R(4,13)                 1.3112         calculate D2E/DX2 analytically  !
 ! R8    R(5,13)                 1.3415         calculate D2E/DX2 analytically  !
 ! R9    R(6,7)                  1.3798         calculate D2E/DX2 analytically  !
 ! R10   R(7,8)                  1.3574         calculate D2E/DX2 analytically  !
 ! R11   R(8,9)                  1.2903         calculate D2E/DX2 analytically  !
 ! R12   R(9,10)                 1.446          calculate D2E/DX2 analytically  !
 ! R13   R(10,11)                1.2063         calculate D2E/DX2 analytically  !
 ! R14   R(10,12)                1.2209         calculate D2E/DX2 analytically  !
 ! R15   R(13,14)                1.3119         calculate D2E/DX2 analytically  !
 ! R16   R(14,15)                0.8597         calculate D2E/DX2 analytically  !
 ! R17   R(14,16)                0.8605         calculate D2E/DX2 analytically  !
 ! A1    A(2,1,3)              118.381          calculate D2E/DX2 analytically  !
 ! A2    A(2,1,4)              124.7656         calculate D2E/DX2 analytically  !
 ! A3    A(3,1,4)              116.7347         calculate D2E/DX2 analytically  !
 ! A4    A(1,2,6)              119.5621         calculate D2E/DX2 analytically  !
 ! A5    A(1,2,9)              133.4785         calculate D2E/DX2 analytically  !
 ! A6    A(6,2,9)              106.9554         calculate D2E/DX2 analytically  !
 ! A7    A(1,3,5)              102.3756         calculate D2E/DX2 analytically  !
 ! A8    A(1,4,13)             101.4354         calculate D2E/DX2 analytically  !
 ! A9    A(3,5,13)             106.1622         calculate D2E/DX2 analytically  !
 ! A10   A(2,6,7)              106.0165         calculate D2E/DX2 analytically  !
 ! A11   A(6,7,8)              111.4193         calculate D2E/DX2 analytically  !
 ! A12   A(7,8,9)              104.4276         calculate D2E/DX2 analytically  !
 ! A13   A(2,9,8)              111.1804         calculate D2E/DX2 analytically  !
 ! A14   A(2,9,10)             130.1678         calculate D2E/DX2 analytically  !
 ! A15   A(8,9,10)             118.618          calculate D2E/DX2 analytically  !
 ! A16   A(9,10,11)            117.0384         calculate D2E/DX2 analytically  !
 ! A17   A(9,10,12)            117.0941         calculate D2E/DX2 analytically  !
 ! A18   A(11,10,12)           125.865          calculate D2E/DX2 analytically  !
 ! A19   A(4,13,5)             113.2842         calculate D2E/DX2 analytically  !
 ! A20   A(4,13,14)            128.7001         calculate D2E/DX2 analytically  !
 ! A21   A(5,13,14)            118.0107         calculate D2E/DX2 analytically  !
 ! A22   A(13,14,15)           119.9951         calculate D2E/DX2 analytically  !
 ! A23   A(13,14,16)           119.9904         calculate D2E/DX2 analytically  !
 ! A24   A(15,14,16)           120.0145         calculate D2E/DX2 analytically  !
 ! D1    D(3,1,2,6)             41.0461         calculate D2E/DX2 analytically  !
 ! D2    D(3,1,2,9)           -138.1233         calculate D2E/DX2 analytically  !
 ! D3    D(4,1,2,6)           -134.8532         calculate D2E/DX2 analytically  !
 ! D4    D(4,1,2,9)             45.9773         calculate D2E/DX2 analytically  !
 ! D5    D(2,1,3,5)           -176.2835         calculate D2E/DX2 analytically  !
 ! D6    D(4,1,3,5)             -0.0549         calculate D2E/DX2 analytically  !
 ! D7    D(2,1,4,13)           175.4851         calculate D2E/DX2 analytically  !
 ! D8    D(3,1,4,13)            -0.4754         calculate D2E/DX2 analytically  !
 ! D9    D(1,2,6,7)           -179.2238         calculate D2E/DX2 analytically  !
 ! D10   D(9,2,6,7)              0.1462         calculate D2E/DX2 analytically  !
 ! D11   D(1,2,9,8)            179.271          calculate D2E/DX2 analytically  !
 ! D12   D(1,2,9,10)             1.4579         calculate D2E/DX2 analytically  !
 ! D13   D(6,2,9,8)              0.0263         calculate D2E/DX2 analytically  !
 ! D14   D(6,2,9,10)          -177.7868         calculate D2E/DX2 analytically  !
 ! D15   D(1,3,5,13)             0.5606         calculate D2E/DX2 analytically  !
 ! D16   D(1,4,13,5)             0.8524         calculate D2E/DX2 analytically  !
 ! D17   D(1,4,13,14)         -178.3001         calculate D2E/DX2 analytically  !
 ! D18   D(3,5,13,4)            -0.932          calculate D2E/DX2 analytically  !
 ! D19   D(3,5,13,14)          178.3188         calculate D2E/DX2 analytically  !
 ! D20   D(2,6,7,8)             -0.2739         calculate D2E/DX2 analytically  !
 ! D21   D(6,7,8,9)              0.2841         calculate D2E/DX2 analytically  !
 ! D22   D(7,8,9,2)             -0.1873         calculate D2E/DX2 analytically  !
 ! D23   D(7,8,9,10)           177.9091         calculate D2E/DX2 analytically  !
 ! D24   D(2,9,10,11)            1.8182         calculate D2E/DX2 analytically  !
 ! D25   D(2,9,10,12)         -177.6408         calculate D2E/DX2 analytically  !
 ! D26   D(8,9,10,11)         -175.8587         calculate D2E/DX2 analytically  !
 ! D27   D(8,9,10,12)            4.6822         calculate D2E/DX2 analytically  !
 ! D28   D(4,13,14,15)          -0.0459         calculate D2E/DX2 analytically  !
 ! D29   D(4,13,14,16)        -179.9971         calculate D2E/DX2 analytically  !
 ! D30   D(5,13,14,15)        -179.1641         calculate D2E/DX2 analytically  !
 ! D31   D(5,13,14,16)           0.8846         calculate D2E/DX2 analytically  !
 --------------------------------------------------------------------------------
 Trust Radius=3.00D-01 FncErr=1.00D-07 GrdErr=1.00D-06
 Number of steps in this run=     82 maximum allowed number of steps=    100.
 GradGradGradGradGradGradGradGradGradGradGradGradGradGradGradGradGradGrad

 Leave Link  103 at Fri Aug 27 04:04:34 2021, MaxMem= 24159191040 cpu:         0.6
 (Enter /public/home/users/caep010/software/Gaussian09/g09/l202.exe)
                          Input orientation:                          
 ---------------------------------------------------------------------
 Center     Atomic      Atomic             Coordinates (Angstroms)
 Number     Number       Type             X           Y           Z
 ---------------------------------------------------------------------
      1          6           0        2.319900    5.506200    3.785600
      2          6           0        3.476500    5.505000    4.689600
      3          7           0        2.176000    4.513000    2.970400
      4          7           0        1.417600    6.520200    3.680800
      5          8           0        1.035700    4.898200    2.220300
      6          7           0        4.635800    5.121200    4.246600
      7          8           0        5.501700    5.212800    5.316900
      8          7           0        4.868500    5.663900    6.429600
      9          6           0        3.646100    5.838700    6.055300
     10          7           0        2.678200    6.280000    7.034800
     11          8           0        1.530100    6.360400    6.673600
     12          8           0        3.097700    6.547400    8.149800
     13          6           0        0.662400    6.095500    2.696600
     14          7           0       -0.364700    6.688600    2.136000
     15          1           0       -0.619100    7.461300    2.413900
     16          1           0       -0.784000    6.303800    1.490600
 ---------------------------------------------------------------------
                    Distance matrix (angstroms):
                    1          2          3          4          5
     1  C    0.000000
     2  C    1.467972   0.000000
     3  N    1.292944   2.372976   0.000000
     4  N    1.361369   2.507464   2.260241   0.000000
     5  O    2.114000   3.524649   1.418208   2.215805   0.000000
     6  N    2.392517   1.299049   2.837113   3.554454   4.137190
     7  O    3.543277   2.140168   4.129899   4.589770   5.443626
     8  N    3.675727   2.233946   4.532129   4.494203   5.744115
     9  C    2.649698   1.416071   3.665417   3.326996   4.733493
    10  N    3.359233   2.595741   4.460251   3.591117   5.271298
    11  O    3.113517   2.907996   4.188528   2.999174   4.713209
    12  O    4.553604   3.633603   5.640434   4.774457   6.490815
    13  C    2.068937   3.498557   2.206866   1.311239   1.341545
    14  N    3.365461   4.761995   3.447407   2.364605   2.274590
    15  H    3.787043   5.077387   4.100579   2.576597   3.057013
    16  H    3.941749   5.387350   3.762761   3.113013   2.412360
                    6          7          8          9         10
     6  N    0.000000
     7  O    1.379752   0.000000
     8  N    2.261451   1.357400   0.000000
     9  C    2.183050   2.092902   1.290317   0.000000
    10  N    3.598482   3.473075   2.354413   1.446028   0.000000
    11  O    4.131745   4.351003   3.419000   2.265375   1.206260
    12  O    4.431114   3.947872   2.622097   2.278141   1.220946
    13  C    4.374891   5.573505   5.640288   4.499920   4.787219
    14  N    5.649458   6.834527   6.846269   5.671839   5.781387
    15  H    6.037287   7.137742   7.033509   5.838198   5.798308
    16  H    6.194216   7.439145   7.533522   6.377977   6.536478
                   11         12         13         14         15
    11  O    0.000000
    12  O    2.161367   0.000000
    13  C    4.079167   5.989348   0.000000
    14  N    4.928265   6.940745   1.311859   0.000000
    15  H    4.896538   6.895677   1.894088   0.859659   0.000000
    16  H    5.676421   7.711801   1.894703   0.860479   1.489792
                   16
    16  H    0.000000
 Stoichiometry    C4H2N6O4
 Framework group  C1[X(C4H2N6O4)]
 Deg. of freedom    42
 Full point group                 C1      NOp   1
 Largest Abelian subgroup         C1      NOp   1
 Largest concise Abelian subgroup C1      NOp   1
                         Standard orientation:                         
 ---------------------------------------------------------------------
 Center     Atomic      Atomic             Coordinates (Angstroms)
 Number     Number       Type             X           Y           Z
 ---------------------------------------------------------------------
      1          6           0       -0.877991   -0.479589    0.079450
      2          6           0        0.552386   -0.778328   -0.060968
      3          7           0       -1.604932   -1.275728    0.793188
      4          7           0       -1.524335    0.537737   -0.553488
      5          8           0       -2.904350   -0.732679    0.626085
      6          7           0        0.936496   -2.007151   -0.234124
      7          8           0        2.313459   -1.968119   -0.312644
      8          7           0        2.781078   -0.699509   -0.192244
      9          6           0        1.721468    0.020397   -0.037715
     10          7           0        1.874925    1.443435    0.168221
     11          8           0        0.871982    2.077298    0.385906
     12          8           0        3.006228    1.896938    0.096131
     13          6           0       -2.765671    0.323436   -0.189471
     14          7           0       -3.845988    0.985721   -0.528982
     15          1           0       -3.787892    1.660090   -1.058948
     16          1           0       -4.612529    0.745383   -0.220637
 ---------------------------------------------------------------------
 Rotational constants (GHZ):      1.3468334      0.4908804      0.3762377
 Leave Link  202 at Fri Aug 27 04:04:34 2021, MaxMem= 24159191040 cpu:         0.7
 (Enter /public/home/users/caep010/software/Gaussian09/g09/l301.exe)
 Standard basis: GTBas3 (6D, 7F)
 Ernie: Thresh=  0.10000D-02 Tol=  0.10000D-05 Strict=F.
 There are   444 symmetry adapted cartesian basis functions of A   symmetry.
 There are   402 symmetry adapted basis functions of A   symmetry.
   402 basis functions,   630 primitive gaussians,   444 cartesian basis functions
    50 alpha electrons       50 beta electrons
       nuclear repulsion energy       883.4906025117 Hartrees.
 IExCor=  402 DFT=T Ex+Corr=B3LYP ExCW=0 ScaHFX=  0.200000
 ScaDFX=  0.800000  0.720000  1.000000  0.810000 ScalE2=  1.000000  1.000000
 IRadAn=      0 IRanWt=     -1 IRanGd=            0 ICorTp=0 IEmpDi=  4
 NAtoms=   16 NActive=   16 NUniq=   16 SFac= 1.00D+00 NAtFMM=   60 NAOKFM=F Big=F
 Integral buffers will be    131072 words long.
 Raffenetti 2 integral format.
 Two-electron integral symmetry is turned on.
 Leave Link  301 at Fri Aug 27 04:04:34 2021, MaxMem= 24159191040 cpu:         2.1
 (Enter /public/home/users/caep010/software/Gaussian09/g09/l302.exe)
 NPDir=0 NMtPBC=     1 NCelOv=     1 NCel=       1 NClECP=     1 NCelD=      1
         NCelK=      1 NCelE2=     1 NClLst=     1 CellRange=     0.0.
 One-electron integrals computed using PRISM.
 NBasis=   402 RedAO= T EigKep=  1.14D-04  NBF=   402
 NBsUse=   402 1.00D-06 EigRej= -1.00D+00 NBFU=   402
 Precomputing XC quadrature grid using
 IXCGrd= 4 IRadAn=           0 IRanWt=          -1 IRanGd=           0 AccXCQ= 0.00D+00.
 Generated NRdTot=       0 NPtTot=           0 NUsed=           0 NTot=          32
 NSgBfM=   442   442   442   442   442 MxSgAt=    16 MxSgA2=    16.
 Leave Link  302 at Fri Aug 27 04:04:34 2021, MaxMem= 24159191040 cpu:        18.5
 (Enter /public/home/users/caep010/software/Gaussian09/g09/l303.exe)
 DipDrv:  MaxL=1.
 Leave Link  303 at Fri Aug 27 04:04:35 2021, MaxMem= 24159191040 cpu:         1.2
 (Enter /public/home/users/caep010/software/Gaussian09/g09/l401.exe)
 ExpMin= 1.61D-01 ExpMax= 5.48D+03 ExpMxC= 8.25D+02 IAcc=1 IRadAn=         1 AccDes= 0.00D+00
 Harris functional with IExCor=  402 and IRadAn=       1 diagonalized for initial guess.
 HarFok:  IExCor=  402 AccDes= 0.00D+00 IRadAn=         1 IDoV= 1 UseB2=F ITyADJ=14
 ICtDFT=  3500011 ScaDFX=  1.000000  1.000000  1.000000  1.000000
 FoFCou: FMM=F IPFlag=           0 FMFlag=      100000 FMFlg1=           0
         NFxFlg=           0 DoJE=T BraDBF=F KetDBF=T FulRan=T
         wScrn=  0.000000 ICntrl=     500 IOpCl=  0 I1Cent=   200000004 NGrid=           0
         NMat0=    1 NMatS0=      1 NMatT0=    0 NMatD0=    1 NMtDS0=    0 NMtDT0=    0
 Petite list used in FoFCou.
 Harris En= -782.759040686621    
 JPrj=0 DoOrth=F DoCkMO=F.
 Leave Link  401 at Fri Aug 27 04:04:35 2021, MaxMem= 24159191040 cpu:        18.0
 (Enter /public/home/users/caep010/software/Gaussian09/g09/l502.exe)
 Closed shell SCF:
 Using DIIS extrapolation, IDIIS=  1040.
 Integral symmetry usage will be decided dynamically.
 Keep R1 ints in memory in canonical form, NReq=3325471200.
 IVT=      627354 IEndB=      627354 NGot= 24159191040 MDV= 20877780181
 LenX= 20877780181 LenY= 20877582601
 Requested convergence on RMS density matrix=1.00D-08 within 128 cycles.
 Requested convergence on MAX density matrix=1.00D-06.
 Requested convergence on             energy=1.00D-06.
 No special actions if energy rises.
 FoFCou: FMM=F IPFlag=           0 FMFlag=           0 FMFlg1=           0
         NFxFlg=           0 DoJE=F BraDBF=F KetDBF=F FulRan=T
         wScrn=  0.000000 ICntrl=     600 IOpCl=  0 I1Cent=           0 NGrid=           0
         NMat0=    1 NMatS0=  81003 NMatT0=    0 NMatD0=    1 NMtDS0=    0 NMtDT0=    0
 Symmetry not used in FoFCou.
 Integral accuracy reduced to 1.0D-05 until final iterations.

 Cycle   1  Pass 0  IDiag  1:
 E= -782.479066769969    
 DIIS: error= 3.94D-02 at cycle   1 NSaved=   1.
 NSaved= 1 IEnMin= 1 EnMin= -782.479066769969     IErMin= 1 ErrMin= 3.94D-02
 ErrMax= 3.94D-02  0.00D+00 EMaxC= 1.00D-01 BMatC= 4.35D-01 BMatP= 4.35D-01
 IDIUse=3 WtCom= 6.06D-01 WtEn= 3.94D-01
 Coeff-Com:  0.100D+01
 Coeff-En:   0.100D+01
 Coeff:      0.100D+01
 Gap=     0.083 Goal=   None    Shift=    0.000
 GapD=    0.083 DampG=0.500 DampE=0.500 DampFc=0.2500 IDamp=-1.
 Damping current iteration by 2.50D-01
 RMSDP=3.00D-03 MaxDP=2.42D-01              OVMax= 3.16D-01

 Cycle   2  Pass 0  IDiag  1:
 E= -782.591588456399     Delta-E=       -0.112521686429 Rises=F Damp=T
 DIIS: error= 1.33D-02 at cycle   2 NSaved=   2.
 NSaved= 2 IEnMin= 2 EnMin= -782.591588456399     IErMin= 2 ErrMin= 1.33D-02
 ErrMax= 1.33D-02  0.00D+00 EMaxC= 1.00D-01 BMatC= 8.24D-02 BMatP= 4.35D-01
 IDIUse=3 WtCom= 8.67D-01 WtEn= 1.33D-01
 Coeff-Com: -0.530D+00 0.153D+01
 Coeff-En:   0.000D+00 0.100D+01
 Coeff:     -0.459D+00 0.146D+01
 Gap=     0.155 Goal=   None    Shift=    0.000
 RMSDP=8.99D-04 MaxDP=5.85D-02 DE=-1.13D-01 OVMax= 1.69D-01

 Cycle   3  Pass 0  IDiag  1:
 E= -782.773928901529     Delta-E=       -0.182340445130 Rises=F Damp=F
 DIIS: error= 3.77D-03 at cycle   3 NSaved=   3.
 NSaved= 3 IEnMin= 3 EnMin= -782.773928901529     IErMin= 3 ErrMin= 3.77D-03
 ErrMax= 3.77D-03  0.00D+00 EMaxC= 1.00D-01 BMatC= 1.46D-02 BMatP= 8.24D-02
 IDIUse=3 WtCom= 9.62D-01 WtEn= 3.77D-02
 Coeff-Com: -0.222D+00 0.589D+00 0.633D+00
 Coeff-En:   0.000D+00 0.000D+00 0.100D+01
 Coeff:     -0.214D+00 0.567D+00 0.647D+00
 Gap=     0.161 Goal=   None    Shift=    0.000
 RMSDP=3.83D-04 MaxDP=2.45D-02 DE=-1.82D-01 OVMax= 3.29D-02

 Cycle   4  Pass 0  IDiag  1:
 E= -782.780344214319     Delta-E=       -0.006415312790 Rises=F Damp=F
 DIIS: error= 2.29D-03 at cycle   4 NSaved=   4.
 NSaved= 4 IEnMin= 4 EnMin= -782.780344214319     IErMin= 4 ErrMin= 2.29D-03
 ErrMax= 2.29D-03  0.00D+00 EMaxC= 1.00D-01 BMatC= 5.93D-03 BMatP= 1.46D-02
 IDIUse=3 WtCom= 9.77D-01 WtEn= 2.29D-02
 Coeff-Com: -0.573D-01 0.148D+00 0.393D+00 0.516D+00
 Coeff-En:   0.000D+00 0.000D+00 0.310D+00 0.690D+00
 Coeff:     -0.560D-01 0.145D+00 0.391D+00 0.520D+00
 Gap=     0.156 Goal=   None    Shift=    0.000
 RMSDP=1.91D-04 MaxDP=1.11D-02 DE=-6.42D-03 OVMax= 2.23D-02

 Cycle   5  Pass 0  IDiag  1:
 E= -782.784184795859     Delta-E=       -0.003840581541 Rises=F Damp=F
 DIIS: error= 8.82D-04 at cycle   5 NSaved=   5.
 NSaved= 5 IEnMin= 5 EnMin= -782.784184795859     IErMin= 5 ErrMin= 8.82D-04
 ErrMax= 8.82D-04  0.00D+00 EMaxC= 1.00D-01 BMatC= 9.68D-04 BMatP= 5.93D-03
 IDIUse=3 WtCom= 9.91D-01 WtEn= 8.82D-03
 Coeff-Com: -0.110D-01 0.296D-01 0.187D+00 0.346D+00 0.449D+00
 Coeff-En:   0.000D+00 0.000D+00 0.000D+00 0.141D+00 0.859D+00
 Coeff:     -0.109D-01 0.293D-01 0.185D+00 0.344D+00 0.453D+00
 Gap=     0.155 Goal=   None    Shift=    0.000
 RMSDP=8.12D-05 MaxDP=6.68D-03 DE=-3.84D-03 OVMax= 1.16D-02

 Cycle   6  Pass 0  IDiag  1:
 E= -782.784884410267     Delta-E=       -0.000699614408 Rises=F Damp=F
 DIIS: error= 4.54D-04 at cycle   6 NSaved=   6.
 NSaved= 6 IEnMin= 6 EnMin= -782.784884410267     IErMin= 6 ErrMin= 4.54D-04
 ErrMax= 4.54D-04  0.00D+00 EMaxC= 1.00D-01 BMatC= 1.39D-04 BMatP= 9.68D-04
 IDIUse=3 WtCom= 9.95D-01 WtEn= 4.54D-03
 Coeff-Com: -0.183D-03 0.165D-02 0.740D-01 0.163D+00 0.311D+00 0.451D+00
 Coeff-En:   0.000D+00 0.000D+00 0.000D+00 0.000D+00 0.117D+00 0.883D+00
 Coeff:     -0.182D-03 0.164D-02 0.736D-01 0.162D+00 0.310D+00 0.453D+00
 Gap=     0.155 Goal=   None    Shift=    0.000
 RMSDP=2.95D-05 MaxDP=3.11D-03 DE=-7.00D-04 OVMax= 5.73D-03

 Cycle   7  Pass 0  IDiag  1:
 E= -782.784973478091     Delta-E=       -0.000089067824 Rises=F Damp=F
 DIIS: error= 2.30D-04 at cycle   7 NSaved=   7.
 NSaved= 7 IEnMin= 7 EnMin= -782.784973478091     IErMin= 7 ErrMin= 2.30D-04
 ErrMax= 2.30D-04  0.00D+00 EMaxC= 1.00D-01 BMatC= 2.40D-05 BMatP= 1.39D-04
 IDIUse=3 WtCom= 9.98D-01 WtEn= 2.30D-03
 Coeff-Com:  0.811D-03-0.135D-02 0.378D-01 0.877D-01 0.190D+00 0.333D+00
 Coeff-Com:  0.352D+00
 Coeff-En:   0.000D+00 0.000D+00 0.000D+00 0.000D+00 0.000D+00 0.134D+00
 Coeff-En:   0.866D+00
 Coeff:      0.809D-03-0.135D-02 0.378D-01 0.875D-01 0.189D+00 0.333D+00
 Coeff:      0.353D+00
 Gap=     0.155 Goal=   None    Shift=    0.000
 RMSDP=1.18D-05 MaxDP=1.18D-03 DE=-8.91D-05 OVMax= 2.22D-03

 Cycle   8  Pass 0  IDiag  1:
 E= -782.784991169396     Delta-E=       -0.000017691305 Rises=F Damp=F
 DIIS: error= 6.07D-05 at cycle   8 NSaved=   8.
 NSaved= 8 IEnMin= 8 EnMin= -782.784991169396     IErMin= 8 ErrMin= 6.07D-05
 ErrMax= 6.07D-05  0.00D+00 EMaxC= 1.00D-01 BMatC= 2.10D-06 BMatP= 2.40D-05
 IDIUse=1 WtCom= 1.00D+00 WtEn= 0.00D+00
 Coeff-Com:  0.622D-03-0.138D-02 0.117D-01 0.278D-01 0.703D-01 0.136D+00
 Coeff-Com:  0.241D+00 0.513D+00
 Coeff:      0.622D-03-0.138D-02 0.117D-01 0.278D-01 0.703D-01 0.136D+00
 Coeff:      0.241D+00 0.513D+00
 Gap=     0.155 Goal=   None    Shift=    0.000
 RMSDP=3.40D-06 MaxDP=2.30D-04 DE=-1.77D-05 OVMax= 4.46D-04

 Initial convergence to 1.0D-05 achieved.  Increase integral accuracy.
 Cycle   9  Pass 1  IDiag  1:
 E= -782.785033010951     Delta-E=       -0.000041841555 Rises=F Damp=F
 DIIS: error= 1.45D-05 at cycle   1 NSaved=   1.
 NSaved= 1 IEnMin= 1 EnMin= -782.785033010951     IErMin= 1 ErrMin= 1.45D-05
 ErrMax= 1.45D-05  0.00D+00 EMaxC= 1.00D-01 BMatC= 3.87D-07 BMatP= 3.87D-07
 IDIUse=1 WtCom= 1.00D+00 WtEn= 0.00D+00
 Coeff-Com:  0.100D+01
 Coeff:      0.100D+01
 Gap=     0.155 Goal=   None    Shift=    0.000
 RMSDP=3.40D-06 MaxDP=2.30D-04 DE=-4.18D-05 OVMax= 4.07D-04

 Cycle  10  Pass 1  IDiag  1:
 E= -782.785032337401     Delta-E=        0.000000673549 Rises=F Damp=F
 DIIS: error= 3.36D-05 at cycle   2 NSaved=   2.
 NSaved= 2 IEnMin= 1 EnMin= -782.785033010951     IErMin= 1 ErrMin= 1.45D-05
 ErrMax= 3.36D-05  0.00D+00 EMaxC= 1.00D-01 BMatC= 1.15D-06 BMatP= 3.87D-07
 IDIUse=1 WtCom= 1.00D+00 WtEn= 0.00D+00
 Coeff-Com:  0.654D+00 0.346D+00
 Coeff:      0.654D+00 0.346D+00
 Gap=     0.155 Goal=   None    Shift=    0.000
 RMSDP=2.49D-06 MaxDP=2.14D-04 DE= 6.74D-07 OVMax= 3.37D-04

 Cycle  11  Pass 1  IDiag  1:
 E= -782.785033272114     Delta-E=       -0.000000934713 Rises=F Damp=F
 DIIS: error= 1.04D-05 at cycle   3 NSaved=   3.
 NSaved= 3 IEnMin= 3 EnMin= -782.785033272114     IErMin= 3 ErrMin= 1.04D-05
 ErrMax= 1.04D-05  0.00D+00 EMaxC= 1.00D-01 BMatC= 8.28D-08 BMatP= 3.87D-07
 IDIUse=1 WtCom= 1.00D+00 WtEn= 0.00D+00
 Coeff-Com:  0.138D+00 0.210D+00 0.653D+00
 Coeff:      0.138D+00 0.210D+00 0.653D+00
 Gap=     0.155 Goal=   None    Shift=    0.000
 RMSDP=8.99D-07 MaxDP=8.98D-05 DE=-9.35D-07 OVMax= 1.72D-04

 Cycle  12  Pass 1  IDiag  1:
 E= -782.785033291850     Delta-E=       -0.000000019736 Rises=F Damp=F
 DIIS: error= 1.18D-05 at cycle   4 NSaved=   4.
 NSaved= 4 IEnMin= 4 EnMin= -782.785033291850     IErMin= 3 ErrMin= 1.04D-05
 ErrMax= 1.18D-05  0.00D+00 EMaxC= 1.00D-01 BMatC= 6.02D-08 BMatP= 8.28D-08
 IDIUse=1 WtCom= 1.00D+00 WtEn= 0.00D+00
 Coeff-Com:  0.140D-02 0.113D+00 0.527D+00 0.359D+00
 Coeff:      0.140D-02 0.113D+00 0.527D+00 0.359D+00
 Gap=     0.155 Goal=   None    Shift=    0.000
 RMSDP=5.46D-07 MaxDP=5.52D-05 DE=-1.97D-08 OVMax= 1.13D-04

 Cycle  13  Pass 1  IDiag  1:
 E= -782.785033336606     Delta-E=       -0.000000044756 Rises=F Damp=F
 DIIS: error= 2.19D-06 at cycle   5 NSaved=   5.
 NSaved= 5 IEnMin= 5 EnMin= -782.785033336606     IErMin= 5 ErrMin= 2.19D-06
 ErrMax= 2.19D-06  0.00D+00 EMaxC= 1.00D-01 BMatC= 3.45D-09 BMatP= 6.02D-08
 IDIUse=1 WtCom= 1.00D+00 WtEn= 0.00D+00
 Coeff-Com: -0.934D-02 0.651D-01 0.325D+00 0.250D+00 0.369D+00
 Coeff:     -0.934D-02 0.651D-01 0.325D+00 0.250D+00 0.369D+00
 Gap=     0.155 Goal=   None    Shift=    0.000
 RMSDP=1.24D-07 MaxDP=1.19D-05 DE=-4.48D-08 OVMax= 2.06D-05

 Cycle  14  Pass 1  IDiag  1:
 E= -782.785033339114     Delta-E=       -0.000000002508 Rises=F Damp=F
 DIIS: error= 3.30D-07 at cycle   6 NSaved=   6.
 NSaved= 6 IEnMin= 6 EnMin= -782.785033339114     IErMin= 6 ErrMin= 3.30D-07
 ErrMax= 3.30D-07  0.00D+00 EMaxC= 1.00D-01 BMatC= 1.39D-10 BMatP= 3.45D-09
 IDIUse=1 WtCom= 1.00D+00 WtEn= 0.00D+00
 Coeff-Com: -0.566D-02 0.295D-01 0.149D+00 0.116D+00 0.224D+00 0.487D+00
 Coeff:     -0.566D-02 0.295D-01 0.149D+00 0.116D+00 0.224D+00 0.487D+00
 Gap=     0.155 Goal=   None    Shift=    0.000
 RMSDP=2.79D-08 MaxDP=1.79D-06 DE=-2.51D-09 OVMax= 2.44D-06

 Cycle  15  Pass 1  IDiag  1:
 E= -782.785033339190     Delta-E=       -0.000000000076 Rises=F Damp=F
 DIIS: error= 9.36D-08 at cycle   7 NSaved=   7.
 NSaved= 7 IEnMin= 7 EnMin= -782.785033339190     IErMin= 7 ErrMin= 9.36D-08
 ErrMax= 9.36D-08  0.00D+00 EMaxC= 1.00D-01 BMatC= 9.36D-12 BMatP= 1.39D-10
 IDIUse=1 WtCom= 1.00D+00 WtEn= 0.00D+00
 Coeff-Com: -0.170D-02 0.750D-02 0.367D-01 0.280D-01 0.730D-01 0.252D+00
 Coeff-Com:  0.605D+00
 Coeff:     -0.170D-02 0.750D-02 0.367D-01 0.280D-01 0.730D-01 0.252D+00
 Coeff:      0.605D+00
 Gap=     0.155 Goal=   None    Shift=    0.000
 RMSDP=8.68D-09 MaxDP=6.51D-07 DE=-7.64D-11 OVMax= 8.52D-07

 SCF Done:  E(RB3LYP) =  -782.785033339     A.U. after   15 cycles
            NFock= 15  Conv=0.87D-08     -V/T= 2.0049
 KE= 7.789789254372D+02 PE=-3.599869419439D+03 EE= 1.154614858151D+03
 Leave Link  502 at Fri Aug 27 04:06:05 2021, MaxMem= 24159191040 cpu:       453.3
 (Enter /public/home/users/caep010/software/Gaussian09/g09/l801.exe)
 DoSCS=F DFT=T ScalE2(SS,OS)=  1.000000  1.000000
 Range of M.O.s used for correlation:     1   402
 NBasis=   402 NAE=    50 NBE=    50 NFC=     0 NFV=     0
 NROrb=    402 NOA=    50 NOB=    50 NVA=   352 NVB=   352

 **** Warning!!: The largest alpha MO coefficient is  0.52211626D+02

 Leave Link  801 at Fri Aug 27 04:06:05 2021, MaxMem= 24159191040 cpu:         0.7
 (Enter /public/home/users/caep010/software/Gaussian09/g09/l1101.exe)
 Using compressed storage, NAtomX=    16.
 Will process     17 centers per pass.
 Leave Link 1101 at Fri Aug 27 04:06:06 2021, MaxMem= 24159191040 cpu:        25.6
 (Enter /public/home/users/caep010/software/Gaussian09/g09/l1102.exe)
 Symmetrizing basis deriv contribution to polar:
 IMax=3 JMax=2 DiffMx= 0.00D+00
 Leave Link 1102 at Fri Aug 27 04:06:07 2021, MaxMem= 24159191040 cpu:         1.3
 (Enter /public/home/users/caep010/software/Gaussian09/g09/l1110.exe)
 Forming Gx(P) for the SCF density, NAtomX=    16.
 Integral derivatives from FoFJK, PRISM(SPDF).
 Do as many integral derivatives as possible in FoFJK.
 G2DrvN: MDV=   24159190808.
 G2DrvN: will do    17 centers at a time, making    1 passes.
 Calling FoFCou, ICntrl=  3107 FMM=F I1Cent=   0 AccDes= 0.00D+00.
 FoFJK:  IHMeth= 1 ICntrl=    3107 DoSepK=F KAlg= 0 I1Cent=   0 FoldK=F
 IRaf=         0 NMat=   1 IRICut=       1 DoRegI=T DoRafI=F ISym2E= 0.
 FoFCou: FMM=F IPFlag=           0 FMFlag=      100000 FMFlg1=           0
         NFxFlg=           0 DoJE=F BraDBF=F KetDBF=F FulRan=T
         wScrn=  0.000000 ICntrl=    3107 IOpCl=  0 I1Cent=           0 NGrid=           0
         NMat0=    1 NMatS0=      1 NMatT0=    0 NMatD0=    1 NMtDS0=    0 NMtDT0=    0
 Symmetry not used in FoFCou.
 End of G2Drv F.D. properties file   721 does not exist.
 End of G2Drv F.D. properties file   722 does not exist.
 End of G2Drv F.D. properties file   788 does not exist.
 Leave Link 1110 at Fri Aug 27 04:06:31 2021, MaxMem= 24159191040 cpu:       770.8
 (Enter /public/home/users/caep010/software/Gaussian09/g09/l1002.exe)
 Minotr:  Closed shell wavefunction.
          IDoAtm=1111111111111111
          Direct CPHF calculation.
          Differentiating once with respect to nuclear coordinates.
          Requested convergence is 1.0D-08 RMS, and 1.0D-07 maximum.
          Secondary convergence is 1.0D-12 RMS, and 1.0D-12 maximum.
          NewPWx=T KeepS1=F KeepF1=F KeepIn=T MapXYZ=F SortEE=F KeepMc=T.
          MDV=   24159190474 using IRadAn=       2.
 Generate precomputed XC quadrature information.
 Keep R1 ints in memory in canonical form, NReq=3324850231.
 FoFCou: FMM=F IPFlag=           0 FMFlag=           0 FMFlg1=           0
         NFxFlg=           0 DoJE=F BraDBF=F KetDBF=F FulRan=T
         wScrn=  0.000000 ICntrl=     600 IOpCl=  0 I1Cent=           0 NGrid=           0
         NMat0=    1 NMatS0=  81003 NMatT0=    0 NMatD0=    1 NMtDS0=    0 NMtDT0=    0
 Symmetry not used in FoFCou.
          Solving linear equations simultaneously, MaxMat=       0.
          There are    51 degrees of freedom in the 1st order CPHF.  IDoFFX=6 NUNeed=     0.
     45 vectors produced by pass  0 Test12= 3.45D-14 1.96D-09 XBig12= 2.62D-01 1.16D-01.
 AX will form    45 AO Fock derivatives at one time.
     45 vectors produced by pass  1 Test12= 3.45D-14 1.96D-09 XBig12= 1.00D-01 8.69D-02.
     45 vectors produced by pass  2 Test12= 3.45D-14 1.96D-09 XBig12= 2.94D-03 7.61D-03.
     45 vectors produced by pass  3 Test12= 3.45D-14 1.96D-09 XBig12= 5.44D-05 1.10D-03.
     45 vectors produced by pass  4 Test12= 3.45D-14 1.96D-09 XBig12= 3.33D-07 9.09D-05.
     45 vectors produced by pass  5 Test12= 3.45D-14 1.96D-09 XBig12= 8.10D-10 3.86D-06.
     36 vectors produced by pass  6 Test12= 3.45D-14 1.96D-09 XBig12= 1.92D-12 1.69D-07.
      5 vectors produced by pass  7 Test12= 3.45D-14 1.96D-09 XBig12= 4.43D-15 6.22D-09.
 InvSVY:  IOpt=1 It=  1 EMax= 7.77D-16
 Solved reduced A of dimension   311 with    51 vectors.
 End of Minotr F.D. properties file   721 does not exist.
 End of Minotr F.D. properties file   722 does not exist.
 End of Minotr F.D. properties file   788 does not exist.
 Leave Link 1002 at Fri Aug 27 04:07:26 2021, MaxMem= 24159191040 cpu:      1726.0
 (Enter /public/home/users/caep010/software/Gaussian09/g09/l601.exe)
 Copying SCF densities to generalized density rwf, IOpCl= 0 IROHF=0.

 **********************************************************************

            Population analysis using the SCF density.

 **********************************************************************

 Orbital symmetries:
       Occupied  (A) (A) (A) (A) (A) (A) (A) (A) (A) (A) (A) (A)
                 (A) (A) (A) (A) (A) (A) (A) (A) (A) (A) (A) (A)
                 (A) (A) (A) (A) (A) (A) (A) (A) (A) (A) (A) (A)
                 (A) (A) (A) (A) (A) (A) (A) (A) (A) (A) (A) (A)
                 (A) (A)
       Virtual   (A) (A) (A) (A) (A) (A) (A) (A) (A) (A) (A) (A)
                 (A) (A) (A) (A) (A) (A) (A) (A) (A) (A) (A) (A)
                 (A) (A) (A) (A) (A) (A) (A) (A) (A) (A) (A) (A)
                 (A) (A) (A) (A) (A) (A) (A) (A) (A) (A) (A) (A)
                 (A) (A) (A) (A) (A) (A) (A) (A) (A) (A) (A) (A)
                 (A) (A) (A) (A) (A) (A) (A) (A) (A) (A) (A) (A)
                 (A) (A) (A) (A) (A) (A) (A) (A) (A) (A) (A) (A)
                 (A) (A) (A) (A) (A) (A) (A) (A) (A) (A) (A) (A)
                 (A) (A) (A) (A) (A) (A) (A) (A) (A) (A) (A) (A)
                 (A) (A) (A) (A) (A) (A) (A) (A) (A) (A) (A) (A)
                 (A) (A) (A) (A) (A) (A) (A) (A) (A) (A) (A) (A)
                 (A) (A) (A) (A) (A) (A) (A) (A) (A) (A) (A) (A)
                 (A) (A) (A) (A) (A) (A) (A) (A) (A) (A) (A) (A)
                 (A) (A) (A) (A) (A) (A) (A) (A) (A) (A) (A) (A)
                 (A) (A) (A) (A) (A) (A) (A) (A) (A) (A) (A) (A)
                 (A) (A) (A) (A) (A) (A) (A) (A) (A) (A) (A) (A)
                 (A) (A) (A) (A) (A) (A) (A) (A) (A) (A) (A) (A)
                 (A) (A) (A) (A) (A) (A) (A) (A) (A) (A) (A) (A)
                 (A) (A) (A) (A) (A) (A) (A) (A) (A) (A) (A) (A)
                 (A) (A) (A) (A) (A) (A) (A) (A) (A) (A) (A) (A)
                 (A) (A) (A) (A) (A) (A) (A) (A) (A) (A) (A) (A)
                 (A) (A) (A) (A) (A) (A) (A) (A) (A) (A) (A) (A)
                 (A) (A) (A) (A) (A) (A) (A) (A) (A) (A) (A) (A)
                 (A) (A) (A) (A) (A) (A) (A) (A) (A) (A) (A) (A)
                 (A) (A) (A) (A) (A) (A) (A) (A) (A) (A) (A) (A)
                 (A) (A) (A) (A) (A) (A) (A) (A) (A) (A) (A) (A)
                 (A) (A) (A) (A) (A) (A) (A) (A) (A) (A) (A) (A)
                 (A) (A) (A) (A) (A) (A) (A) (A) (A) (A) (A) (A)
                 (A) (A) (A) (A) (A) (A) (A) (A) (A) (A) (A) (A)
                 (A) (A) (A) (A)
 The electronic state is 1-A.
 Alpha  occ. eigenvalues --  -19.30269 -19.25146 -19.19891 -19.19232 -14.59627
 Alpha  occ. eigenvalues --  -14.44636 -14.43704 -14.39828 -14.37672 -14.34535
 Alpha  occ. eigenvalues --  -10.34164 -10.31057 -10.28999 -10.28494  -1.26329
 Alpha  occ. eigenvalues --   -1.23041  -1.18326  -1.08502  -1.02149  -0.97154
 Alpha  occ. eigenvalues --   -0.95687  -0.93103  -0.87538  -0.78510  -0.72236
 Alpha  occ. eigenvalues --   -0.68762  -0.66079  -0.64042  -0.61127  -0.58626
 Alpha  occ. eigenvalues --   -0.57623  -0.57280  -0.53100  -0.52796  -0.51848
 Alpha  occ. eigenvalues --   -0.51499  -0.47363  -0.44047  -0.40205  -0.38905
 Alpha  occ. eigenvalues --   -0.37322  -0.36230  -0.35723  -0.35453  -0.33620
 Alpha  occ. eigenvalues --   -0.33140  -0.32788  -0.31621  -0.30655  -0.26864
 Alpha virt. eigenvalues --   -0.11336  -0.07688  -0.01929   0.02690   0.04629
 Alpha virt. eigenvalues --    0.05307   0.07644   0.10683   0.11967   0.13714
 Alpha virt. eigenvalues --    0.17353   0.18206   0.21449   0.21874   0.23645
 Alpha virt. eigenvalues --    0.26404   0.28623   0.32372   0.34652   0.36962
 Alpha virt. eigenvalues --    0.37741   0.38402   0.39431   0.42927   0.44014
 Alpha virt. eigenvalues --    0.45507   0.46057   0.46550   0.48626   0.48976
 Alpha virt. eigenvalues --    0.50103   0.51253   0.51907   0.53215   0.55607
 Alpha virt. eigenvalues --    0.55695   0.56773   0.58571   0.59044   0.60523
 Alpha virt. eigenvalues --    0.60726   0.61316   0.64024   0.64332   0.64850
 Alpha virt. eigenvalues --    0.66208   0.67343   0.68539   0.69074   0.70214
 Alpha virt. eigenvalues --    0.72141   0.74211   0.75010   0.75962   0.76897
 Alpha virt. eigenvalues --    0.78630   0.79723   0.81035   0.82037   0.82441
 Alpha virt. eigenvalues --    0.83543   0.84586   0.85845   0.87084   0.88233
 Alpha virt. eigenvalues --    0.89563   0.91776   0.92786   0.94168   0.94219
 Alpha virt. eigenvalues --    0.95322   0.96163   0.96481   0.96871   0.98205
 Alpha virt. eigenvalues --    1.00778   1.00874   1.02826   1.04047   1.06587
 Alpha virt. eigenvalues --    1.09608   1.09994   1.11381   1.12109   1.13690
 Alpha virt. eigenvalues --    1.14827   1.16695   1.18529   1.19243   1.20002
 Alpha virt. eigenvalues --    1.21981   1.26024   1.27457   1.29034   1.30831
 Alpha virt. eigenvalues --    1.31259   1.32755   1.34396   1.36768   1.37068
 Alpha virt. eigenvalues --    1.38125   1.40273   1.40649   1.42144   1.43973
 Alpha virt. eigenvalues --    1.46588   1.47512   1.51012   1.51574   1.51908
 Alpha virt. eigenvalues --    1.53864   1.55618   1.56793   1.58029   1.60365
 Alpha virt. eigenvalues --    1.61446   1.63645   1.64220   1.66182   1.68054
 Alpha virt. eigenvalues --    1.69205   1.69310   1.70358   1.72459   1.74676
 Alpha virt. eigenvalues --    1.77637   1.78119   1.81255   1.82367   1.86607
 Alpha virt. eigenvalues --    1.88647   1.90281   1.92088   1.93036   1.94051
 Alpha virt. eigenvalues --    1.98848   2.02346   2.05055   2.08014   2.09750
 Alpha virt. eigenvalues --    2.14498   2.15587   2.19506   2.21701   2.24808
 Alpha virt. eigenvalues --    2.26040   2.31328   2.37494   2.39034   2.42626
 Alpha virt. eigenvalues --    2.45878   2.51365   2.60009   2.69036   2.71860
 Alpha virt. eigenvalues --    2.80005   2.82100   2.86001   2.90030   2.91940
 Alpha virt. eigenvalues --    2.93759   2.96301   3.00110   3.01840   3.04858
 Alpha virt. eigenvalues --    3.08361   3.10300   3.11415   3.12026   3.15605
 Alpha virt. eigenvalues --    3.15901   3.17089   3.20374   3.23112   3.26649
 Alpha virt. eigenvalues --    3.28385   3.33581   3.34143   3.39242   3.40323
 Alpha virt. eigenvalues --    3.41887   3.46280   3.47326   3.50492   3.52198
 Alpha virt. eigenvalues --    3.52839   3.54247   3.55164   3.56619   3.60657
 Alpha virt. eigenvalues --    3.61545   3.62129   3.63317   3.65120   3.68400
 Alpha virt. eigenvalues --    3.70681   3.72791   3.74637   3.76233   3.76688
 Alpha virt. eigenvalues --    3.79730   3.81724   3.83006   3.85574   3.86866
 Alpha virt. eigenvalues --    3.91647   3.92829   3.93717   3.95225   3.98416
 Alpha virt. eigenvalues --    4.00410   4.01828   4.03226   4.04603   4.05566
 Alpha virt. eigenvalues --    4.06924   4.07901   4.08478   4.09029   4.13370
 Alpha virt. eigenvalues --    4.15059   4.16156   4.17663   4.17795   4.17902
 Alpha virt. eigenvalues --    4.18823   4.23347   4.23776   4.25463   4.25664
 Alpha virt. eigenvalues --    4.27025   4.28040   4.30452   4.31800   4.32555
 Alpha virt. eigenvalues --    4.34023   4.35189   4.35387   4.36859   4.38850
 Alpha virt. eigenvalues --    4.40609   4.41420   4.41938   4.43353   4.43952
 Alpha virt. eigenvalues --    4.46123   4.47630   4.47742   4.49185   4.50632
 Alpha virt. eigenvalues --    4.52100   4.53641   4.54537   4.55019   4.56465
 Alpha virt. eigenvalues --    4.57281   4.58921   4.60607   4.62416   4.64794
 Alpha virt. eigenvalues --    4.66016   4.67244   4.69418   4.73360   4.73687
 Alpha virt. eigenvalues --    4.76338   4.77687   4.77982   4.79752   4.83275
 Alpha virt. eigenvalues --    4.84709   4.86229   4.87335   4.88587   4.89341
 Alpha virt. eigenvalues --    4.92027   4.96862   4.98324   4.99712   5.00922
 Alpha virt. eigenvalues --    5.01679   5.02097   5.03917   5.05899   5.07387
 Alpha virt. eigenvalues --    5.09830   5.13045   5.17665   5.20436   5.26034
 Alpha virt. eigenvalues --    5.28848   5.32121   5.36073   5.38484   5.40844
 Alpha virt. eigenvalues --    5.42505   5.44671   5.45326   5.47888   5.55933
 Alpha virt. eigenvalues --    5.58051   5.59034   5.59626   5.64765   5.70871
 Alpha virt. eigenvalues --    5.72372   5.74756   5.76669   5.78977   5.79472
 Alpha virt. eigenvalues --    5.83052   5.88613   5.92272   5.95389   5.97809
 Alpha virt. eigenvalues --    6.00489   6.03616   6.04871   6.07730   6.16980
 Alpha virt. eigenvalues --    6.24403   6.27214   6.29863   6.37388   6.41602
 Alpha virt. eigenvalues --    6.55766   6.62271   6.74093   6.87966   6.99928
 Alpha virt. eigenvalues --    7.10872   7.13810   9.85441  10.35854  10.61684
 Alpha virt. eigenvalues --   10.96165  11.22864  11.24613  11.29227  11.31593
 Alpha virt. eigenvalues --   11.38395  11.40378  11.82709  12.83425  12.96848
 Alpha virt. eigenvalues --   13.21285  13.24906  13.56910  16.22994  16.88627
 Alpha virt. eigenvalues --   18.62112  21.33032
          Condensed to atoms (all electrons):
               1          2          3          4          5          6
     1  C    4.562288   0.332953   0.573366   0.512801  -0.079173  -0.051614
     2  C    0.332953   4.668371  -0.034533  -0.013919  -0.001196   0.504234
     3  N    0.573366  -0.034533   6.503142  -0.059011   0.285111  -0.003229
     4  N    0.512801  -0.013919  -0.059011   6.485645  -0.080803  -0.000148
     5  O   -0.079173  -0.001196   0.285111  -0.080803   7.673396   0.000126
     6  N   -0.051614   0.504234  -0.003229  -0.000148   0.000126   6.491367
     7  O   -0.002328  -0.099816   0.000147  -0.000013  -0.000000   0.292001
     8  N    0.005131  -0.011366  -0.000065   0.000043   0.000000  -0.142279
     9  C   -0.052302   0.444229   0.000942  -0.003714  -0.000036   0.026473
    10  N   -0.009502  -0.049742   0.000076   0.002199  -0.000001   0.001874
    11  O    0.013885  -0.011362  -0.000170  -0.002336  -0.000003   0.000018
    12  O    0.000164   0.002830  -0.000000  -0.000010  -0.000000  -0.000073
    13  C   -0.115530  -0.006314  -0.101389   0.563713   0.437950  -0.000181
    14  N   -0.005658  -0.000230   0.002431  -0.013706  -0.033043   0.000001
    15  H    0.000242  -0.000004  -0.000229  -0.003773   0.002705  -0.000000
    16  H   -0.000090   0.000007  -0.000086   0.003854   0.000892  -0.000000
               7          8          9         10         11         12
     1  C   -0.002328   0.005131  -0.052302  -0.009502   0.013885   0.000164
     2  C   -0.099816  -0.011366   0.444229  -0.049742  -0.011362   0.002830
     3  N    0.000147  -0.000065   0.000942   0.000076  -0.000170  -0.000000
     4  N   -0.000013   0.000043  -0.003714   0.002199  -0.002336  -0.000010
     5  O   -0.000000   0.000000  -0.000036  -0.000001  -0.000003  -0.000000
     6  N    0.292001  -0.142279   0.026473   0.001874   0.000018  -0.000073
     7  O    7.741818   0.272399  -0.065489   0.001483  -0.000027   0.000342
     8  N    0.272399   6.527436   0.448454  -0.021009   0.002602  -0.002428
     9  C   -0.065489   0.448454   4.736994   0.343744  -0.098571  -0.092711
    10  N    0.001483  -0.021009   0.343744   5.354399   0.527807   0.495601
    11  O   -0.000027   0.002602  -0.098571   0.527807   7.967242  -0.070027
    12  O    0.000342  -0.002428  -0.092711   0.495601  -0.070027   7.991866
    13  C   -0.000002   0.000006   0.000318  -0.000103   0.000779   0.000000
    14  N   -0.000000  -0.000000  -0.000002  -0.000000   0.000000   0.000000
    15  H   -0.000000  -0.000000   0.000001   0.000000  -0.000000  -0.000000
    16  H    0.000000  -0.000000   0.000000  -0.000000   0.000000   0.000000
              13         14         15         16
     1  C   -0.115530  -0.005658   0.000242  -0.000090
     2  C   -0.006314  -0.000230  -0.000004   0.000007
     3  N   -0.101389   0.002431  -0.000229  -0.000086
     4  N    0.563713  -0.013706  -0.003773   0.003854
     5  O    0.437950  -0.033043   0.002705   0.000892
     6  N   -0.000181   0.000001  -0.000000  -0.000000
     7  O   -0.000002  -0.000000  -0.000000   0.000000
     8  N    0.000006  -0.000000  -0.000000  -0.000000
     9  C    0.000318  -0.000002   0.000001   0.000000
    10  N   -0.000103  -0.000000   0.000000  -0.000000
    11  O    0.000779   0.000000  -0.000000   0.000000
    12  O    0.000000   0.000000  -0.000000   0.000000
    13  C    4.317040   0.471581  -0.007881  -0.019507
    14  N    0.471581   6.276872   0.376323   0.380145
    15  H   -0.007881   0.376323   0.412299  -0.029441
    16  H   -0.019507   0.380145  -0.029441   0.418212
 Mulliken charges:
               1
     1  C    0.315368
     2  C    0.275856
     3  N   -0.166503
     4  N   -0.390821
     5  O   -0.205926
     6  N   -0.118569
     7  O   -0.140514
     8  N   -0.078923
     9  C    0.311671
    10  N    0.353172
    11  O   -0.329837
    12  O   -0.325555
    13  C    0.459522
    14  N   -0.454713
    15  H    0.249758
    16  H    0.246014
 Sum of Mulliken charges =  -0.00000
 Mulliken charges with hydrogens summed into heavy atoms:
               1
     1  C    0.315368
     2  C    0.275856
     3  N   -0.166503
     4  N   -0.390821
     5  O   -0.205926
     6  N   -0.118569
     7  O   -0.140514
     8  N   -0.078923
     9  C    0.311671
    10  N    0.353172
    11  O   -0.329837
    12  O   -0.325555
    13  C    0.459522
    14  N    0.041058
 APT charges:
               1
     1  C   -0.319694
     2  C   -0.469316
     3  N    0.297693
     4  N   -0.714110
     5  O    0.091694
     6  N    0.358201
     7  O    0.056820
     8  N    0.646077
     9  C   -0.482139
    10  N   -0.991696
    11  O   -0.021588
    12  O    0.840840
    13  C   -0.296018
    14  N   -0.556575
    15  H    0.570972
    16  H    0.988839
 Sum of APT charges =  -0.00000
 APT charges with hydrogens summed into heavy atoms:
               1
     1  C   -0.319694
     2  C   -0.469316
     3  N    0.297693
     4  N   -0.714110
     5  O    0.091694
     6  N    0.358201
     7  O    0.056820
     8  N    0.646077
     9  C   -0.482139
    10  N   -0.991696
    11  O   -0.021588
    12  O    0.840840
    13  C   -0.296018
    14  N    1.003236
 Electronic spatial extent (au):  <R**2>=           2688.9141
 Charge=             -0.0000 electrons
 Dipole moment (field-independent basis, Debye):
    X=             -5.2697    Y=              1.2122    Z=             -1.1767  Tot=              5.5339
 Quadrupole moment (field-independent basis, Debye-Ang):
   XX=            -61.7696   YY=            -84.4265   ZZ=            -74.0441
   XY=            -11.4232   XZ=              4.9287   YZ=             -0.3460
 Traceless Quadrupole moment (field-independent basis, Debye-Ang):
   XX=             11.6438   YY=            -11.0131   ZZ=             -0.6307
   XY=            -11.4232   XZ=              4.9287   YZ=             -0.3460
 Octapole moment (field-independent basis, Debye-Ang**2):
  XXX=           -143.3470  YYY=             13.9176  ZZZ=              0.0906  XYY=            -16.2214
  XXY=             27.1849  XXZ=            -14.6728  XZZ=              4.6019  YZZ=              7.1706
  YYZ=             -7.0399  XYZ=              0.9813
 Hexadecapole moment (field-independent basis, Debye-Ang**3):
 XXXX=          -1900.9189 YYYY=           -851.4380 ZZZZ=           -130.6443 XXXY=           -166.2181
 XXXZ=             66.0609 YYYX=            -38.3363 YYYZ=             -8.4992 ZZZX=              4.1670
 ZZZY=              4.6535 XXYY=           -508.5388 XXZZ=           -387.3647 YYZZ=           -150.3190
 XXYZ=            -21.7950 YYXZ=             18.2971 ZZXY=             -7.8433
 N-N= 8.834906025117D+02 E-N=-3.599869423870D+03  KE= 7.789789254372D+02
  Exact polarizability:   0.000   0.000   0.000   0.000   0.000   0.000
 Approx polarizability: 215.689 -16.343 163.890 -12.307  -9.449  88.653
 No NMR shielding tensors so no spin-rotation constants.
 Leave Link  601 at Fri Aug 27 04:07:27 2021, MaxMem= 24159191040 cpu:        21.6
 (Enter /public/home/users/caep010/software/Gaussian09/g09/l701.exe)
 Compute integral second derivatives.
 ... and contract with generalized density number  0.
 Leave Link  701 at Fri Aug 27 04:07:27 2021, MaxMem= 24159191040 cpu:        19.4
 (Enter /public/home/users/caep010/software/Gaussian09/g09/l702.exe)
 L702 exits ... SP integral derivatives will be done elsewhere.
 Leave Link  702 at Fri Aug 27 04:07:28 2021, MaxMem= 24159191040 cpu:         0.6
 (Enter /public/home/users/caep010/software/Gaussian09/g09/l703.exe)
 Compute integral second derivatives, UseDBF=F ICtDFT=           0.
 Integral derivatives from FoFJK, PRISM(SPDF).
 Calling FoFJK, ICntrl=    100147 FMM=F ISym2X=0 I1Cent= 0 IOpClX= 0 NMat=1 NMatS=1 NMatT=0.
 FoFJK:  IHMeth= 1 ICntrl=  100147 DoSepK=F KAlg= 0 I1Cent=   0 FoldK=F
 IRaf=         0 NMat=   1 IRICut=       1 DoRegI=T DoRafI=F ISym2E= 0.
 FoFCou: FMM=F IPFlag=           0 FMFlag=      100000 FMFlg1=         800
         NFxFlg=           0 DoJE=F BraDBF=F KetDBF=F FulRan=T
         wScrn=  0.000000 ICntrl=  100147 IOpCl=  0 I1Cent=           0 NGrid=           0
         NMat0=    1 NMatS0=      1 NMatT0=    0 NMatD0=    1 NMtDS0=    0 NMtDT0=    0
 Symmetry not used in FoFCou.
 Leave Link  703 at Fri Aug 27 04:08:18 2021, MaxMem= 24159191040 cpu:      1611.9
 (Enter /public/home/users/caep010/software/Gaussian09/g09/l716.exe)
 Dipole        =-2.07327899D+00 4.76897622D-01-4.62967481D-01
 Polarizability= 0.00000000D+00 0.00000000D+00 0.00000000D+00
                 0.00000000D+00 0.00000000D+00 0.00000000D+00
 ***** Axes restored to original set *****
 -------------------------------------------------------------------
 Center     Atomic                   Forces (Hartrees/Bohr)
 Number     Number              X              Y              Z
 -------------------------------------------------------------------
      1        6           0.003496006    0.009819949    0.008930047
      2        6          -0.009339331    0.000390182   -0.004167535
      3        7          -0.006592192   -0.014103745   -0.013411661
      4        7          -0.003412199    0.008419230   -0.000087847
      5        8           0.001815152   -0.002630522   -0.000350560
      6        7           0.015860356   -0.003033161   -0.000383708
      7        8          -0.004955071    0.001532086   -0.000767730
      8        7           0.015321321   -0.005845613   -0.005205286
      9        6          -0.008306122    0.003385414    0.005918013
     10        7           0.008807522    0.007181613    0.016384012
     11        8          -0.019729572   -0.002307008   -0.010189771
     12        8           0.002614820   -0.001136217   -0.000683994
     13        6           0.030999570   -0.015976111    0.017657110
     14        7           0.139297321   -0.083168048    0.074942629
     15        1          -0.062195789    0.193372254    0.071550577
     16        1          -0.103681793   -0.095900302   -0.160134296
 -------------------------------------------------------------------
 Cartesian Forces:  Max     0.193372254 RMS     0.051609143
 FormGI is forming the generalized inverse of G from B-inverse, IUseBI=4.
 GSVD:  received Info=                   1 from GESDD.
 Leave Link  716 at Fri Aug 27 04:08:19 2021, MaxMem= 24159191040 cpu:         1.2
 (Enter /public/home/users/caep010/software/Gaussian09/g09/l103.exe)

 GradGradGradGradGradGradGradGradGradGradGradGradGradGradGradGradGradGrad
 Berny optimization.
 Red2BG is reusing G-inverse.
 Internal  Forces:  Max     0.215346082 RMS     0.036286133
 Search for a local minimum.
 Step number   1 out of a maximum of   82
 All quantities printed in internal units (Hartrees-Bohrs-Radians)
 RMS Force = .36286D-01 SwitMx=.10000D-02 MixMth= 1
 Mixed Optimization -- RFO/linear search
 Second derivative matrix not updated -- analytic derivatives used.
 ITU=  0
     Eigenvalues ---   -0.00011   0.00397   0.00809   0.01002   0.01299
     Eigenvalues ---    0.02197   0.03011   0.03491   0.04807   0.04999
     Eigenvalues ---    0.05625   0.06430   0.11264   0.11767   0.11811
     Eigenvalues ---    0.14087   0.14981   0.15545   0.16528   0.21142
     Eigenvalues ---    0.21450   0.23757   0.25978   0.28244   0.29258
     Eigenvalues ---    0.31515   0.32771   0.33661   0.36623   0.40973
     Eigenvalues ---    0.42334   0.48712   0.49326   0.55927   0.57733
     Eigenvalues ---    0.61021   0.65369   0.66286   0.66846   0.85023
     Eigenvalues ---    1.18504   1.19511
 Eigenvalue     1 is  -1.15D-04 should be greater than     0.000000 Eigenvector:
                          D26       D27       D24       D25       D4
   1                    0.49779   0.48680   0.46148   0.45050  -0.17418
                          D2        D3        D1        D12       D11
   1                   -0.16868  -0.12109  -0.11559   0.07566   0.04153
 RFO step:  Lambda=-7.74014191D-02 EMin=-1.14531934D-04
 Linear search not attempted -- first point.
 Iteration  1 RMS(Cart)=  0.12723337 RMS(Int)=  0.06811761
 Iteration  2 RMS(Cart)=  0.06977837 RMS(Int)=  0.02117928
 Iteration  3 RMS(Cart)=  0.03025705 RMS(Int)=  0.00133205
 Iteration  4 RMS(Cart)=  0.00135315 RMS(Int)=  0.00028384
 Iteration  5 RMS(Cart)=  0.00000235 RMS(Int)=  0.00028383
 Iteration  6 RMS(Cart)=  0.00000000 RMS(Int)=  0.00028383
 ITry= 1 IFail=0 DXMaxC= 9.88D-01 DCOld= 1.00D+10 DXMaxT= 3.00D-01 DXLimC= 3.00D+00 Rises=F
 Variable       Old X    -DE/DX   Delta X   Delta X   Delta X     New X
                                 (Linear)    (Quad)   (Total)
    R1        2.77406   0.00077   0.00000  -0.00835  -0.00835   2.76571
    R2        2.44331   0.01799   0.00000   0.02516   0.02516   2.46847
    R3        2.57261   0.00302   0.00000   0.00926   0.00926   2.58187
    R4        2.45485   0.01260   0.00000   0.01753   0.01757   2.47241
    R5        2.67599   0.00813   0.00000   0.01551   0.01562   2.69161
    R6        2.68002  -0.00374   0.00000  -0.01013  -0.01013   2.66989
    R7        2.47788  -0.00126   0.00000  -0.00423  -0.00422   2.47366
    R8        2.53515   0.00315   0.00000   0.00115   0.00116   2.53631
    R9        2.60735  -0.00444   0.00000  -0.01495  -0.01505   2.59231
   R10        2.56511  -0.00250   0.00000  -0.01007  -0.01016   2.55495
   R11        2.43835   0.01309   0.00000   0.01852   0.01856   2.45690
   R12        2.73260   0.01044   0.00000   0.01991   0.01991   2.75251
   R13        2.27950   0.02168   0.00000   0.02435   0.02435   2.30385
   R14        2.30725   0.00002   0.00000  -0.00595  -0.00595   2.30130
   R15        2.47905   0.03311   0.00000   0.04590   0.04590   2.52495
   R16        1.62452   0.21535   0.00000   0.16981   0.16981   1.79433
   R17        1.62607   0.21352   0.00000   0.16912   0.16912   1.79519
    A1        2.06614   0.00472   0.00000   0.03562   0.03561   2.10175
    A2        2.17757  -0.00405   0.00000  -0.03312  -0.03314   2.14442
    A3        2.03740  -0.00062   0.00000  -0.00177  -0.00180   2.03560
    A4        2.08675   0.00374   0.00000   0.03367   0.03311   2.11986
    A5        2.32964  -0.00355   0.00000  -0.03396  -0.03443   2.29521
    A6        1.86672  -0.00018   0.00000   0.00087   0.00070   1.86742
    A7        1.78679  -0.00267   0.00000  -0.00352  -0.00354   1.78325
    A8        1.77038  -0.00329   0.00000  -0.00756  -0.00756   1.76282
    A9        1.85288   0.00071   0.00000   0.00211   0.00211   1.85499
   A10        1.85034   0.00006   0.00000  -0.00213  -0.00205   1.84828
   A11        1.94463   0.00375   0.00000   0.01052   0.01040   1.95503
   A12        1.82261   0.00353   0.00000   0.00581   0.00586   1.82846
   A13        1.94046  -0.00716   0.00000  -0.01515  -0.01511   1.92535
   A14        2.27186  -0.00120   0.00000  -0.00758  -0.00785   2.26401
   A15        2.07027   0.00835   0.00000   0.02157   0.02122   2.09149
   A16        2.04271  -0.00503   0.00000  -0.01944  -0.01956   2.02315
   A17        2.04368  -0.00080   0.00000   0.00286   0.00274   2.04641
   A18        2.19676   0.00586   0.00000   0.01683   0.01671   2.21347
   A19        1.97718   0.00587   0.00000   0.01087   0.01087   1.98806
   A20        2.24624  -0.00413   0.00000  -0.00905  -0.00906   2.23718
   A21        2.05968  -0.00174   0.00000  -0.00177  -0.00178   2.05790
   A22        2.09431  -0.00234   0.00000  -0.00964  -0.00964   2.08467
   A23        2.09423   0.00072   0.00000   0.00595   0.00594   2.10016
   A24        2.09465   0.00162   0.00000   0.00368   0.00367   2.09832
    D1        0.71639   0.00174   0.00000  -0.09325  -0.09314   0.62325
    D2       -2.41071   0.00100   0.00000  -0.15312  -0.15324  -2.56395
    D3       -2.35363   0.00084   0.00000  -0.10598  -0.10586  -2.45949
    D4        0.80246   0.00009   0.00000  -0.16585  -0.16596   0.63649
    D5       -3.07673  -0.00084   0.00000  -0.01229  -0.01256  -3.08929
    D6       -0.00096  -0.00017   0.00000  -0.00204  -0.00203  -0.00299
    D7        3.06279   0.00155   0.00000   0.01966   0.01941   3.08220
    D8       -0.00830   0.00045   0.00000   0.00570   0.00568  -0.00262
    D9       -3.12805  -0.00067   0.00000  -0.03260  -0.03420   3.12094
   D10        0.00255  -0.00015   0.00000   0.01246   0.01251   0.01506
   D11        3.12887   0.00073   0.00000   0.04916   0.04841  -3.10591
   D12        0.02545   0.00085   0.00000   0.08613   0.08519   0.11063
   D13        0.00046   0.00002   0.00000  -0.00553  -0.00545  -0.00499
   D14       -3.10297   0.00015   0.00000   0.03144   0.03133  -3.07163
   D15        0.00978  -0.00020   0.00000  -0.00248  -0.00248   0.00730
   D16        0.01488  -0.00052   0.00000  -0.00710  -0.00713   0.00775
   D17       -3.11192  -0.00102   0.00000  -0.01107  -0.01106  -3.12299
   D18       -0.01627   0.00041   0.00000   0.00624   0.00630  -0.00997
   D19        3.11225   0.00082   0.00000   0.00966   0.00972   3.12197
   D20       -0.00478   0.00021   0.00000  -0.01599  -0.01620  -0.02098
   D21        0.00496  -0.00018   0.00000   0.01234   0.01264   0.01760
   D22       -0.00327   0.00011   0.00000  -0.00419  -0.00431  -0.00758
   D23        3.10510  -0.00019   0.00000  -0.03697  -0.03753   3.06757
   D24        0.03173   0.00220   0.00000   0.47045   0.47020   0.50194
   D25       -3.10042  -0.00071   0.00000   0.44366   0.44341  -2.65701
   D26       -3.06931   0.00263   0.00000   0.51045   0.51070  -2.55862
   D27        0.08172  -0.00027   0.00000   0.48365   0.48390   0.56562
   D28       -0.00080  -0.00001   0.00000  -0.00358  -0.00360  -0.00440
   D29       -3.14154   0.00026   0.00000   0.00446   0.00444  -3.13711
   D30       -3.12700  -0.00058   0.00000  -0.00779  -0.00776  -3.13477
   D31        0.01544  -0.00031   0.00000   0.00025   0.00028   0.01572
         Item               Value     Threshold  Converged?
 Maximum Force            0.215346     0.000450     NO 
 RMS     Force            0.036286     0.000300     NO 
 Maximum Displacement     0.988002     0.001800     NO 
 RMS     Displacement     0.197437     0.001200     NO 
 Predicted change in Energy=-4.312351D-02
 Lowest energy point so far.  Saving SCF results.
 GradGradGradGradGradGradGradGradGradGradGradGradGradGradGradGradGradGrad

 Leave Link  103 at Fri Aug 27 04:08:19 2021, MaxMem= 24159191040 cpu:         3.3
 (Enter /public/home/users/caep010/software/Gaussian09/g09/l202.exe)
                          Input orientation:                          
 ---------------------------------------------------------------------
 Center     Atomic      Atomic             Coordinates (Angstroms)
 Number     Number       Type             X           Y           Z
 ---------------------------------------------------------------------
      1          6           0        2.374714    5.455135    3.754114
      2          6           0        3.510649    5.426864    4.676524
      3          7           0        2.234241    4.523740    2.849085
      4          7           0        1.456214    6.466491    3.739798
      5          8           0        1.086678    4.959019    2.149251
      6          7           0        4.690189    5.009102    4.294520
      7          8           0        5.508206    5.142304    5.387639
      8          7           0        4.854730    5.666638    6.448772
      9          6           0        3.634851    5.840219    6.033893
     10          7           0        2.614614    6.311920    6.960279
     11          8           0        1.487969    5.884568    6.774926
     12          8           0        2.971412    7.070228    7.843846
     13          6           0        0.702478    6.105190    2.732406
     14          7           0       -0.363323    6.735632    2.230512
     15          1           0       -0.650760    7.551166    2.622769
     16          1           0       -0.834464    6.367981    1.492065
 ---------------------------------------------------------------------
                    Distance matrix (angstroms):
                    1          2          3          4          5
     1  C    0.000000
     2  C    1.463553   0.000000
     3  N    1.306257   2.405074   0.000000
     4  N    1.366268   2.485756   2.274419   0.000000
     5  O    2.116778   3.532933   1.412847   2.222356   0.000000
     6  N    2.419175   1.308345   2.890767   3.590306   4.194040
     7  O    3.547540   2.139368   4.188762   4.570284   5.483672
     8  N    3.668296   2.237166   4.596838   4.419074   5.760626
     9  C    2.633179   1.424339   3.719923   3.225143   4.728651
    10  N    3.327331   2.608015   4.499355   3.425972   5.225985
    11  O    3.177427   2.950258   4.221493   3.090573   4.734400
    12  O    4.437396   3.608788   5.654702   4.416280   6.359074
    13  C    2.064663   3.482175   2.204745   1.309006   1.342158
    14  N    3.384950   4.764820   3.467339   2.379306   2.294659
    15  H    3.850556   5.103713   4.188050   2.619850   3.156285
    16  H    4.031002   5.468682   3.828796   3.210797   2.471407
                    6          7          8          9         10
     6  N    0.000000
     7  O    1.371789   0.000000
     8  N    2.258369   1.352021   0.000000
     9  C    2.197707   2.100997   1.300138   0.000000
    10  N    3.620997   3.494864   2.386660   1.456563   0.000000
    11  O    4.144041   4.317155   3.389535   2.271608   1.219145
    12  O    4.449736   4.023080   2.731883   2.286701   1.217795
    13  C    4.420797   5.574266   5.589714   4.423668   4.644773
    14  N    5.725297   6.854269   6.794449   5.590427   5.605207
    15  H    6.146754   7.167984   6.964206   5.738429   5.568877
    16  H    6.342089   7.543689   7.578110   6.393866   6.465342
                   11         12         13         14         15
    11  O    0.000000
    12  O    2.179215   0.000000
    13  C    4.124032   5.675048   0.000000
    14  N    4.980290   6.537731   1.336146   0.000000
    15  H    4.959044   6.372681   1.983461   0.949516   0.000000
    16  H    5.791028   7.437940   1.992409   0.949971   1.646866
                   16
    16  H    0.000000
 Stoichiometry    C4H2N6O4
 Framework group  C1[X(C4H2N6O4)]
 Deg. of freedom    42
 Full point group                 C1      NOp   1
 RotChk:  IX=0 Diff= 4.37D-02
 Largest Abelian subgroup         C1      NOp   1
 Largest concise Abelian subgroup C1      NOp   1
                         Standard orientation:                         
 ---------------------------------------------------------------------
 Center     Atomic      Atomic             Coordinates (Angstroms)
 Number     Number       Type             X           Y           Z
 ---------------------------------------------------------------------
      1          6           0       -0.854434   -0.554737    0.073221
      2          6           0        0.580460   -0.825017   -0.026853
      3          7           0       -1.646569   -1.401301    0.675017
      4          7           0       -1.445397    0.535288   -0.500625
      5          8           0       -2.915021   -0.808496    0.485945
      6          7           0        1.036584   -2.040329   -0.190357
      7          8           0        2.400998   -1.922189   -0.269228
      8          7           0        2.804091   -0.634598   -0.182138
      9          6           0        1.707240    0.046250   -0.028112
     10          7           0        1.772206    1.484147    0.195061
     11          8           0        0.907842    1.950921    0.917081
     12          8           0        2.684807    2.090300   -0.336692
     13          6           0       -2.704200    0.315363   -0.216823
     14          7           0       -3.766883    1.054471   -0.548051
     15          1           0       -3.643311    1.850981   -1.049930
     16          1           0       -4.638326    0.789836   -0.277866
 ---------------------------------------------------------------------
 Rotational constants (GHZ):      1.2738772      0.5055351      0.3825023
 Leave Link  202 at Fri Aug 27 04:08:19 2021, MaxMem= 24159191040 cpu:         0.2
 (Enter /public/home/users/caep010/software/Gaussian09/g09/l301.exe)
 Standard basis: GTBas3 (6D, 7F)
 Ernie: Thresh=  0.10000D-02 Tol=  0.10000D-05 Strict=F.
 There are   444 symmetry adapted cartesian basis functions of A   symmetry.
 There are   402 symmetry adapted basis functions of A   symmetry.
   402 basis functions,   630 primitive gaussians,   444 cartesian basis functions
    50 alpha electrons       50 beta electrons
       nuclear repulsion energy       880.8279745350 Hartrees.
 IExCor=  402 DFT=T Ex+Corr=B3LYP ExCW=0 ScaHFX=  0.200000
 ScaDFX=  0.800000  0.720000  1.000000  0.810000 ScalE2=  1.000000  1.000000
 IRadAn=      0 IRanWt=     -1 IRanGd=            0 ICorTp=0 IEmpDi=  4
 NAtoms=   16 NActive=   16 NUniq=   16 SFac= 1.00D+00 NAtFMM=   60 NAOKFM=F Big=F
 Integral buffers will be    131072 words long.
 Raffenetti 2 integral format.
 Two-electron integral symmetry is turned on.
 Leave Link  301 at Fri Aug 27 04:08:19 2021, MaxMem= 24159191040 cpu:         1.6
 (Enter /public/home/users/caep010/software/Gaussian09/g09/l302.exe)
 NPDir=0 NMtPBC=     1 NCelOv=     1 NCel=       1 NClECP=     1 NCelD=      1
         NCelK=      1 NCelE2=     1 NClLst=     1 CellRange=     0.0.
 One-electron integrals computed using PRISM.
 NBasis=   402 RedAO= T EigKep=  1.21D-04  NBF=   402
 NBsUse=   402 1.00D-06 EigRej= -1.00D+00 NBFU=   402
 Precomputing XC quadrature grid using
 IXCGrd= 4 IRadAn=           0 IRanWt=          -1 IRanGd=           0 AccXCQ= 0.00D+00.
 Generated NRdTot=       0 NPtTot=           0 NUsed=           0 NTot=          32
 NSgBfM=   442   442   442   442   442 MxSgAt=    16 MxSgA2=    16.
 Leave Link  302 at Fri Aug 27 04:08:20 2021, MaxMem= 24159191040 cpu:        18.1
 (Enter /public/home/users/caep010/software/Gaussian09/g09/l303.exe)
 DipDrv:  MaxL=1.
 Leave Link  303 at Fri Aug 27 04:08:20 2021, MaxMem= 24159191040 cpu:         1.0
 (Enter /public/home/users/caep010/software/Gaussian09/g09/l401.exe)
 Initial guess from the checkpoint file:  "/public/home/users/caep010/.cache/gau_scr/Gau-123888.chk"
 B after Tr=     0.000000    0.000000    0.000000
         Rot=    0.999869   -0.012371    0.002055   -0.010252 Ang=  -1.86 deg.
 Guess basis will be translated and rotated to current coordinates.
 JPrj=2 DoOrth=T DoCkMO=T.
 Generating alternative initial guess.
 ExpMin= 1.61D-01 ExpMax= 5.48D+03 ExpMxC= 8.25D+02 IAcc=1 IRadAn=         1 AccDes= 0.00D+00
 Harris functional with IExCor=  402 and IRadAn=       1 diagonalized for initial guess.
 HarFok:  IExCor=  402 AccDes= 0.00D+00 IRadAn=         1 IDoV= 1 UseB2=F ITyADJ=14
 ICtDFT=  3500011 ScaDFX=  1.000000  1.000000  1.000000  1.000000
 FoFCou: FMM=F IPFlag=           0 FMFlag=      100000 FMFlg1=           0
         NFxFlg=           0 DoJE=T BraDBF=F KetDBF=T FulRan=T
         wScrn=  0.000000 ICntrl=     500 IOpCl=  0 I1Cent=   200000004 NGrid=           0
         NMat0=    1 NMatS0=      1 NMatT0=    0 NMatD0=    1 NMtDS0=    0 NMtDT0=    0
 Petite list used in FoFCou.
 Harris En= -782.786816291797    
 Leave Link  401 at Fri Aug 27 04:08:21 2021, MaxMem= 24159191040 cpu:        23.2
 (Enter /public/home/users/caep010/software/Gaussian09/g09/l502.exe)
 Closed shell SCF:
 Using DIIS extrapolation, IDIIS=  1040.
 Integral symmetry usage will be decided dynamically.
 Keep R1 ints in memory in canonical form, NReq=3325471200.
 IVT=      627354 IEndB=      627354 NGot= 24159191040 MDV= 20877780181
 LenX= 20877780181 LenY= 20877582601
 Requested convergence on RMS density matrix=1.00D-08 within 128 cycles.
 Requested convergence on MAX density matrix=1.00D-06.
 Requested convergence on             energy=1.00D-06.
 No special actions if energy rises.
 FoFCou: FMM=F IPFlag=           0 FMFlag=           0 FMFlg1=           0
         NFxFlg=           0 DoJE=F BraDBF=F KetDBF=F FulRan=T
         wScrn=  0.000000 ICntrl=     600 IOpCl=  0 I1Cent=           0 NGrid=           0
         NMat0=    1 NMatS0=  81003 NMatT0=    0 NMatD0=    1 NMtDS0=    0 NMtDT0=    0
 Symmetry not used in FoFCou.
 Integral accuracy reduced to 1.0D-05 until final iterations.

 Cycle   1  Pass 0  IDiag  1:
 E= -782.457668647351    
 DIIS: error= 3.30D-02 at cycle   1 NSaved=   1.
 NSaved= 1 IEnMin= 1 EnMin= -782.457668647351     IErMin= 1 ErrMin= 3.30D-02
 ErrMax= 3.30D-02  0.00D+00 EMaxC= 1.00D-01 BMatC= 2.41D-01 BMatP= 2.41D-01
 IDIUse=3 WtCom= 6.70D-01 WtEn= 3.30D-01
 Coeff-Com:  0.100D+01
 Coeff-En:   0.100D+01
 Coeff:      0.100D+01
 Recover alternate guess density for next cycle.
 RMSDP=2.40D-03 MaxDP=1.33D-01              OVMax= 0.00D+00

 Cycle   2  Pass 0  IDiag  1:
 E= -782.551141133722     Delta-E=       -0.093472486371 Rises=F Damp=F
 DIIS: error= 2.36D-02 at cycle   2 NSaved=   2.
 NSaved= 2 IEnMin= 2 EnMin= -782.551141133722     IErMin= 2 ErrMin= 2.36D-02
 ErrMax= 2.36D-02  0.00D+00 EMaxC= 1.00D-01 BMatC= 4.01D-01 BMatP= 2.41D-01
 IDIUse=2 WtCom= 0.00D+00 WtEn= 1.00D+00
 Coeff-En:   0.143D-01 0.986D+00
 Coeff:      0.143D-01 0.986D+00
 Gap=     0.077 Goal=   None    Shift=    0.000
 RMSDP=2.89D-03 MaxDP=2.19D-01 DE=-9.35D-02 OVMax= 2.70D-01

 Cycle   3  Pass 0  IDiag  1:
 E= -782.092721451345     Delta-E=        0.458419682377 Rises=F Damp=F
 DIIS: error= 4.19D-02 at cycle   3 NSaved=   3.
 NSaved= 3 IEnMin= 2 EnMin= -782.551141133722     IErMin= 2 ErrMin= 2.36D-02
 ErrMax= 4.19D-02  0.00D+00 EMaxC= 1.00D-01 BMatC= 1.03D+00 BMatP= 2.41D-01
 IDIUse=2 WtCom= 0.00D+00 WtEn= 1.00D+00
 Coeff-En:   0.000D+00 0.696D+00 0.304D+00
 Coeff:      0.000D+00 0.696D+00 0.304D+00
 Gap=     0.141 Goal=   None    Shift=    0.000
 RMSDP=1.56D-03 MaxDP=1.42D-01 DE= 4.58D-01 OVMax= 1.49D-01

 Cycle   4  Pass 0  IDiag  1:
 E= -782.812243743802     Delta-E=       -0.719522292457 Rises=F Damp=F
 DIIS: error= 5.50D-03 at cycle   4 NSaved=   4.
 NSaved= 4 IEnMin= 4 EnMin= -782.812243743802     IErMin= 4 ErrMin= 5.50D-03
 ErrMax= 5.50D-03  0.00D+00 EMaxC= 1.00D-01 BMatC= 2.83D-02 BMatP= 2.41D-01
 IDIUse=3 WtCom= 9.45D-01 WtEn= 5.50D-02
 Coeff-Com:  0.156D-01 0.198D+00 0.522D-02 0.781D+00
 Coeff-En:   0.000D+00 0.000D+00 0.000D+00 0.100D+01
 Coeff:      0.148D-01 0.187D+00 0.494D-02 0.793D+00
 Gap=     0.164 Goal=   None    Shift=    0.000
 RMSDP=4.64D-04 MaxDP=3.34D-02 DE=-7.20D-01 OVMax= 3.88D-02

 Cycle   5  Pass 0  IDiag  1:
 E= -782.825478705012     Delta-E=       -0.013234961209 Rises=F Damp=F
 DIIS: error= 3.12D-03 at cycle   5 NSaved=   5.
 NSaved= 5 IEnMin= 5 EnMin= -782.825478705012     IErMin= 5 ErrMin= 3.12D-03
 ErrMax= 3.12D-03  0.00D+00 EMaxC= 1.00D-01 BMatC= 9.63D-03 BMatP= 2.83D-02
 IDIUse=3 WtCom= 9.69D-01 WtEn= 3.12D-02
 Coeff-Com:  0.191D-02 0.735D-01-0.324D-01 0.537D+00 0.420D+00
 Coeff-En:   0.000D+00 0.000D+00 0.000D+00 0.224D+00 0.776D+00
 Coeff:      0.185D-02 0.712D-01-0.314D-01 0.527D+00 0.431D+00
 Gap=     0.159 Goal=   None    Shift=    0.000
 RMSDP=2.67D-04 MaxDP=1.88D-02 DE=-1.32D-02 OVMax= 4.05D-02

 Cycle   6  Pass 0  IDiag  1:
 E= -782.830886519763     Delta-E=       -0.005407814752 Rises=F Damp=F
 DIIS: error= 2.27D-03 at cycle   6 NSaved=   6.
 NSaved= 6 IEnMin= 6 EnMin= -782.830886519763     IErMin= 6 ErrMin= 2.27D-03
 ErrMax= 2.27D-03  0.00D+00 EMaxC= 1.00D-01 BMatC= 2.80D-03 BMatP= 9.63D-03
 IDIUse=3 WtCom= 9.77D-01 WtEn= 2.27D-02
 Coeff-Com:  0.573D-04 0.232D-01-0.271D-01 0.287D+00 0.344D+00 0.372D+00
 Coeff-En:   0.000D+00 0.000D+00 0.000D+00 0.000D+00 0.264D+00 0.736D+00
 Coeff:      0.560D-04 0.227D-01-0.265D-01 0.281D+00 0.342D+00 0.381D+00
 Gap=     0.157 Goal=   None    Shift=    0.000
 RMSDP=1.19D-04 MaxDP=1.07D-02 DE=-5.41D-03 OVMax= 2.39D-02

 Cycle   7  Pass 0  IDiag  1:
 E= -782.832944002809     Delta-E=       -0.002057483046 Rises=F Damp=F
 DIIS: error= 4.87D-04 at cycle   7 NSaved=   7.
 NSaved= 7 IEnMin= 7 EnMin= -782.832944002809     IErMin= 7 ErrMin= 4.87D-04
 ErrMax= 4.87D-04  0.00D+00 EMaxC= 1.00D-01 BMatC= 1.98D-04 BMatP= 2.80D-03
 IDIUse=3 WtCom= 9.95D-01 WtEn= 4.87D-03
 Coeff-Com: -0.309D-04 0.474D-02-0.123D-01 0.104D+00 0.161D+00 0.256D+00
 Coeff-Com:  0.487D+00
 Coeff-En:   0.000D+00 0.000D+00 0.000D+00 0.000D+00 0.000D+00 0.607D-01
 Coeff-En:   0.939D+00
 Coeff:     -0.308D-04 0.471D-02-0.122D-01 0.104D+00 0.160D+00 0.255D+00
 Coeff:      0.489D+00
 Gap=     0.157 Goal=   None    Shift=    0.000
 RMSDP=3.51D-05 MaxDP=2.24D-03 DE=-2.06D-03 OVMax= 5.26D-03

 Cycle   8  Pass 0  IDiag  1:
 E= -782.833082828763     Delta-E=       -0.000138825954 Rises=F Damp=F
 DIIS: error= 1.17D-04 at cycle   8 NSaved=   8.
 NSaved= 8 IEnMin= 8 EnMin= -782.833082828763     IErMin= 8 ErrMin= 1.17D-04
 ErrMax= 1.17D-04  0.00D+00 EMaxC= 1.00D-01 BMatC= 2.43D-05 BMatP= 1.98D-04
 IDIUse=3 WtCom= 9.99D-01 WtEn= 1.17D-03
 Coeff-Com: -0.929D-04 0.131D-02-0.568D-02 0.442D-01 0.752D-01 0.137D+00
 Coeff-Com:  0.331D+00 0.418D+00
 Coeff-En:   0.000D+00 0.000D+00 0.000D+00 0.000D+00 0.000D+00 0.000D+00
 Coeff-En:   0.896D-01 0.910D+00
 Coeff:     -0.928D-04 0.131D-02-0.567D-02 0.441D-01 0.751D-01 0.137D+00
 Coeff:      0.330D+00 0.418D+00
 Gap=     0.157 Goal=   None    Shift=    0.000
 RMSDP=1.22D-05 MaxDP=6.60D-04 DE=-1.39D-04 OVMax= 1.60D-03

 Cycle   9  Pass 0  IDiag  1:
 E= -782.833102147371     Delta-E=       -0.000019318608 Rises=F Damp=F
 DIIS: error= 3.30D-05 at cycle   9 NSaved=   9.
 NSaved= 9 IEnMin= 9 EnMin= -782.833102147371     IErMin= 9 ErrMin= 3.30D-05
 ErrMax= 3.30D-05  0.00D+00 EMaxC= 1.00D-01 BMatC= 1.53D-06 BMatP= 2.43D-05
 IDIUse=1 WtCom= 1.00D+00 WtEn= 0.00D+00
[...]
   XX=             12.2136   YY=            -10.1938   ZZ=             -2.0198
   XY=            -13.4882   XZ=              3.4540   YZ=             -0.0003
 Octapole moment (field-independent basis, Debye-Ang**2):
  XXX=           -115.6015  YYY=             17.7599  ZZZ=              1.3623  XYY=            -23.4248
  XXY=             37.3759  XXZ=              4.5467  XZZ=              6.3905  YZZ=              2.7296
  YYZ=             -7.7698  XYZ=              1.7446
 Hexadecapole moment (field-independent basis, Debye-Ang**3):
 XXXX=          -1871.5208 YYYY=           -930.6121 ZZZZ=           -169.5239 XXXY=           -170.2280
 XXXZ=             10.4810 YYYX=            -61.8936 YYYZ=             -9.4446 ZZZX=             -8.1456
 ZZZY=              4.2301 XXYY=           -500.2414 XXZZ=           -405.8065 YYZZ=           -174.3324
 XXYZ=              0.2707 YYXZ=             25.2812 ZZXY=             -7.7391
 N-N= 8.821455211968D+02 E-N=-3.593415502334D+03  KE= 7.775310416641D+02
 No NMR shielding tensors so no spin-rotation constants.
 Leave Link  601 at Fri Aug 27 11:48:19 2021, MaxMem= 24159191040 cpu:        48.3
 (Enter /public/home/users/caep010/software/Gaussian09/g09/l9999.exe)
 1\1\GINC-B1334\SP\RHF\GFHFB2\C4H2N6O4\ROOT\27-Aug-2021\0\\#P Geom=AllC
 heck Guess=TCheck SCRF=Check HF/GFHFB2 SCF=Tight\\KIBSAS01\\0,1\C,0,2.
 4347011931,5.4535043613,3.7167969526\C,0,3.5554613484,5.4044981941,4.6
 532265254\N,0,2.2316106306,4.5051063146,2.8388911375\N,0,1.5502301489,
 6.4977664149,3.7035851332\O,0,1.0850403444,4.9685590813,2.1604038852\N
 ,0,4.7483835041,4.9789696542,4.3233137754\O,0,5.5188561493,5.116274508
 1,5.4455964383\N,0,4.8236354772,5.6491453917,6.4794637158\C,0,3.624096
 3414,5.828425608,6.0119543294\N,0,2.5550693081,6.3202569888,6.87500056
 19\O,0,1.4587143812,5.8168123183,6.684265328\O,0,2.846175675,7.1596837
 066,7.7054572296\C,0,0.7552500794,6.1371964907,2.7291938637\N,0,-0.296
 1136351,6.8124103317,2.2240259456\H,0,-0.6623113335,7.560219987,2.7898
 691654\H,0,-0.9503996125,6.3073706486,1.649356013\\Version=ES64L-G09Re
 vE.01\State=1-A\HF=-778.8266684\RMSD=7.838e-09\Dipole=-1.4842099,0.555
 5871,-1.1159498\Quadrupole=7.6651839,-2.8138124,-4.8513715,-2.7210202,
 8.6965485,-7.0777574\PG=C01 [X(C4H2N6O4)]\\@


 LET US LEARN TO DREAM, GENTLEMEN, THEN PERHAPS WE SHALL
 DISCOVER THE TRUTH;  BUT LET US BEWARE OF PUBLISHING
 OUR DREAMS ABROAD BEFORE THEY HAVE BEEN SCRUTINIZED
 BY OUR VIGILANT INTELLECT ... LET US ALWAYS ALLOW
 THE FRUIT TO HANG UNTIL IT IS RIPE.  UNRIPE FRUIT
 BRINGS EVEN THE GROWER BUT LITTLE PROFIT; IT DAMAGES
 THE HEALTH OF THOSE WHO CONSUME IT; IT ENDANGERS
 PARTICULARLY THE YOUTH WHO CANNOT YET DISTINGUISH
 BETWEEN RIPE AND UNRIPE FRUIT.

                                  -- KEKULE, 1890
 Diagonal vibrational polarizability:
        0.0000000       0.0000000       0.0000000

 Temperature=              298.150000 Pressure=                      1.000000
 E(ZPE)=                     0.090596 E(Thermal)=                    0.101641
 E(CCSD(T))=              -780.801725 E(Empiric)=                   -0.250092
 DE(Plus)=                  -0.055974 DE(2DF)=                      -0.507827
 E(Delta-G3XP)=             -0.934125 DE(HF)=                       -0.075891
 G4(0 K)=                 -782.535039 G4 Energy=                  -782.523993
 G4 Enthalpy=             -782.523049 G4 Free Energy=             -782.573941
 1\1\GINC-B1334\Mixed\G4\G4\C4H2N6O4\ROOT\27-Aug-2021\0\\#P Geom=AllChe
 ck Guess=TCheck SCRF=Check HF/GFHFB2 SCF=Tight\\KIBSAS01\\0,1\C,0,2.43
 47011931,5.4535043613,3.7167969526\C,0,3.5554613484,5.4044981941,4.653
 2265254\N,0,2.2316106306,4.5051063146,2.8388911375\N,0,1.5502301489,6.
 4977664149,3.7035851332\O,0,1.0850403444,4.9685590813,2.1604038852\N,0
 ,4.7483835041,4.9789696542,4.3233137754\O,0,5.5188561493,5.1162745081,
 5.4455964383\N,0,4.8236354772,5.6491453917,6.4794637158\C,0,3.62409634
 14,5.828425608,6.0119543294\N,0,2.5550693081,6.3202569888,6.8750005619
 \O,0,1.4587143812,5.8168123183,6.684265328\O,0,2.846175675,7.159683706
 6,7.7054572296\C,0,0.7552500794,6.1371964907,2.7291938637\N,0,-0.29611
 36351,6.8124103317,2.2240259456\H,0,-0.6623113335,7.560219987,2.789869
 1654\H,0,-0.9503996125,6.3073706486,1.649356013\\Version=ES64L-G09RevE
 .01\State=1-A\MP2/GTBas1=-780.704014\MP4/GTBas1=-780.8306324\CCSD(T)/G
 3Bas1=-780.8017249\MP2/GTBas2=-780.7553085\MP4/GTBas2=-780.8866066\MP2
 /GTBas3=-781.182739\MP4/GTBas3=-781.3384596\HF/GTLargeXP=-778.7536802\
 MP2/GTLargeXP=-782.1681586\HF/GFHFB1=-778.814754\HF/GFHFB2=-778.826668
 4\G4=-782.5350387\FreqCoord=4.6009184704,10.3056297074,7.023728332,6.7
 188482246,10.2130214724,8.7933237672,4.2171329271,8.5134171342,5.36472
 67709,2.9295104244,12.2789989997,6.9987616115,2.050429094,9.3892159388
 ,4.0825716794,8.9731443966,9.4088890703,8.169879022,10.4291266891,9.66
 8357641,10.2906858987,9.1153500167,10.6753376752,12.2444119109,6.84854
 95645,11.0141281851,11.360947206,4.8283812429,11.9435547984,12.9918682
 255,2.7565706866,10.9921822479,12.6314308694,5.3784925517,13.529841403
 5,14.5612038926,1.4272158119,11.5976205912,5.157428966,-0.5595736746,1
 2.8735898318,4.2027999497,-1.2515870351,14.2867452798,5.2720886693,-1.
 7959949844,11.9192031444,3.1168311603\PG=C01 [X(C4H2N6O4)]\NImag=0\\0.
 57322141,-0.10966193,0.53717518,0.25759270,0.18519513,0.54933001,-0.17
 710177,0.01727451,-0.08618811,0.75973002,0.00830409,-0.07398767,-0.012
 42376,-0.13228039,0.24184809,-0.09161349,-0.00599633,-0.15968721,0.131
 66298,0.10905987,0.59674046,-0.08365370,-0.05684466,-0.05025955,-0.010
 83073,-0.02022856,-0.02195878,0.25461470,-0.01041997,-0.26712000,-0.15
 405953,-0.01108688,0.00667601,0.00007345,-0.06296494,0.45497734,-0.016
 38880,-0.19251597,-0.22922953,-0.01527295,-0.00979514,-0.02439933,0.10
 362575,0.21644421,0.33319466,-0.15638395,0.10181302,0.00216314,-0.0231
 4614,0.02132560,-0.00130907,-0.00565276,0.06552009,0.01298849,0.402252
 90,0.08954890,-0.19831968,-0.01524949,0.00370392,0.00007429,0.00360468
 ,0.01303718,-0.05930740,-0.05712661,-0.09534212,0.40284501,-0.01172876
 ,-0.00253219,-0.08588136,-0.01373225,0.01907504,0.00374850,-0.02422092
 ,-0.00967905,0.00479086,0.20820972,0.14455299,0.38907873,-0.06158335,0
 .00275558,-0.06311694,0.01002781,-0.00212915,-0.00259602,-0.11501541,-
 0.02440676,-0.06927688,0.01691921,0.01435416,0.00162207,0.26989642,0.0
 1523561,-0.03374618,-0.01892994,-0.00068118,0.00031843,-0.00781878,0.0
 4984424,-0.06245072,0.04033257,-0.04462905,-0.03267831,-0.08262080,-0.
 06162248,0.35327214,-0.05191924,-0.03215260,-0.05892407,-0.00172411,-0
 .00789074,0.00281192,-0.01581862,-0.02499024,-0.08753323,-0.04178611,-
 0.03049921,-0.03314025,0.12495156,0.14556151,0.29683590,-0.03516961,0.
 00481526,-0.00699427,-0.35649716,0.10613635,0.09505558,0.00098227,0.00
 202205,0.00411793,0.00367440,-0.00179335,0.00096440,0.00081791,0.00075
 861,0.00189337,0.53087769,0.00257551,-0.00451803,0.00797477,0.09954461
 ,-0.10903228,-0.04690863,-0.00167644,-0.00095555,-0.00204545,0.0000725
 9,0.00101770,-0.00000760,-0.00065092,0.00104864,-0.00087957,-0.1409615
 8,0.16623703,-0.01958178,0.01303965,0.01347766,0.07122116,-0.04384671,
 -0.13877211,-0.00036145,-0.00165080,-0.00017314,-0.00368219,-0.0006519
 7,-0.00241283,0.00111942,-0.00036158,-0.00022028,-0.07642842,0.1103874
 7,0.37777917,-0.00099011,0.00634588,0.00798481,-0.10303703,0.02550141,
 -0.02340208,0.00069087,0.00062653,0.00077659,-0.00277184,-0.00044135,-
 0.00320677,-0.00123528,0.00022121,-0.00175230,-0.13051828,0.01617823,0
 .00453455,0.48373453,0.00599705,0.00959868,-0.00156473,0.01406801,0.00
 589099,-0.00948547,0.00007707,-0.00090967,-0.00039686,-0.00173676,-0.0
 0010895,-0.00134777,0.00054565,-0.00043022,0.00036980,-0.01189406,-0.0
 7472352,-0.01419415,-0.10355538,0.14880592,0.00321028,-0.00472042,0.00
 362152,-0.05436344,0.00575973,-0.02697802,-0.00039940,0.00033702,0.002
 23943,-0.00203161,0.00038687,-0.00062568,-0.00287942,0.00328050,-0.002
 98075,-0.08291061,0.00859115,-0.11346892,0.01107646,0.05590856,0.27750
 589,0.00379212,-0.00106829,0.00035536,-0.00044853,-0.02138844,-0.09316
 248,-0.00079496,-0.00065154,0.00042865,-0.00108388,0.00049087,0.000266
 07,-0.00123178,0.00163150,-0.00097289,-0.02066463,0.01584083,0.0166795
 0,-0.12976012,0.04620739,0.08413564,0.55073271,0.00241727,0.00277082,-
 0.00287625,0.00110327,0.02386119,0.00986805,0.00086063,0.00016857,0.00
 021737,0.00000877,0.00001352,0.00014922,-0.00080783,-0.00015004,0.0006
 0393,0.00503497,0.01105170,-0.04562411,0.01809786,-0.09416559,-0.04174
 364,-0.08762128,0.14097384,0.00575046,-0.00549750,-0.00424223,-0.01225
 744,-0.01267876,-0.02736380,-0.00077076,0.00096194,-0.00086679,-0.0002
 2739,0.00023761,0.00026842,-0.00169301,0.00001004,0.00020347,-0.028903
 94,-0.03413180,-0.10799145,0.00276598,-0.01489431,-0.11982565,0.130956
 09,0.06562843,0.41149302,0.00548885,-0.01064974,-0.02276338,-0.1012451
 3,0.00757801,0.00595318,-0.00111752,0.00338759,-0.00089521,0.00133183,
 -0.00025787,0.00138858,-0.00275251,-0.00015599,-0.00043034,0.00554709,
 0.01129392,0.01178357,-0.11380317,0.04548729,0.04885745,-0.36433699,0.
 04796402,-0.12550629,0.73637216,-0.00555245,0.00177517,-0.00040989,-0.
 00613617,-0.08599121,-0.04859876,0.00105858,0.00086749,0.00052396,0.00
 123024,-0.00016340,-0.00019108,0.00076026,0.00001685,0.00020211,0.0339
 2555,0.00603831,-0.01460627,0.03765721,-0.00529013,-0.02494375,0.03790
 525,-0.07449238,-0.00034628,-0.12534882,0.23616581,-0.00475233,-0.0055
 8439,-0.01458954,-0.04133245,-0.03720763,-0.22406840,0.00048043,0.0028
 3739,0.00169692,0.00263737,-0.00036328,0.00057793,0.00074653,-0.000687
 99,0.00072717,0.09445607,-0.04104440,-0.02077929,0.01014763,-0.0154025
 2,-0.02246687,-0.14361254,0.00935788,-0.16321281,0.02728230,0.14649791
 ,0.58302527,0.00794190,-0.00449115,-0.00053238,0.00908657,0.00088784,0
 .00749336,-0.00041997,0.00064628,0.00114943,-0.00298534,0.00024928,0.0
 0275378,-0.00244257,0.00339240,-0.00100084,0.00599284,-0.00411809,-0.0
 0672292,-0.00031263,-0.00046486,-0.01153484,-0.03870451,0.01176683,0.0
 2183988,-0.10887012,0.02910809,0.02802850,0.76698007,-0.00068508,-0.00
 032799,-0.00126669,0.00143767,-0.00488665,-0.00262656,-0.00036336,-0.0
 0060009,-0.00043470,0.00085133,-0.00089137,0.00301699,0.00132322,-0.00
 000989,0.00055725,0.00260422,0.00510242,-0.00253155,-0.00298975,0.0142
 3332,0.00024520,0.01510647,-0.01567673,-0.00105846,0.02420549,-0.07925
 247,-0.00962385,0.18290780,0.55241727,-0.00121960,0.00081739,-0.001643
 24,0.01974871,-0.00706554,-0.00803322,-0.00019393,-0.00041559,-0.00048
 723,0.00146272,-0.00059034,0.00129171,0.00175469,-0.00047168,0.0012320
 2,0.00015500,-0.00346362,-0.00640331,-0.01716633,0.00190938,0.00674849
 ,0.01199365,0.00645496,0.01624192,0.02425871,-0.01515463,-0.12805233,0
 .04851034,0.29957041,0.55983570,-0.00455665,0.00244385,0.00045639,-0.0
 0169648,-0.00207497,-0.00314313,0.00010876,-0.00042128,-0.00079929,0.0
 0170104,0.00007071,-0.00254930,0.00123424,-0.00207820,0.00044186,-0.00
 242419,0.00099521,-0.00112973,-0.00391910,0.00631041,0.00538860,0.0042
 4312,-0.00147024,0.00706826,-0.07112892,-0.01686149,0.00728326,-0.4924
 7055,-0.16497719,-0.04454106,0.58192292,0.00036514,-0.00047136,0.00057
 117,0.00178821,-0.00032693,-0.00121113,0.00037528,0.00044471,0.0003166
 0,-0.00044722,0.00022034,0.00026455,-0.00044657,0.00037387,-0.00013195
 ,-0.00167746,0.00036595,0.00028701,0.00105284,-0.00231346,-0.00002550,
 -0.00111593,0.00389028,0.00134363,-0.00704470,0.01624739,-0.00275881,-
 0.14870135,-0.15816501,-0.04381048,0.22439167,0.16450831,-0.00024010,0
 .00049348,-0.00015237,-0.00017230,-0.00007826,-0.00055291,0.00033942,0
 .00034625,0.00019061,-0.00051001,0.00078978,-0.00490096,-0.00087831,-0
 .00075357,-0.00061965,-0.00170451,0.00101916,0.00019035,0.00367261,-0.
 00079028,0.00079860,0.00072019,-0.00121959,-0.00372074,0.02089119,0.00
 133158,0.01939445,-0.02798641,-0.04099440,-0.11273677,0.06613493,0.077
 11718,0.09570861,-0.00217239,0.00089569,-0.00007739,-0.00315583,0.0014
 8010,-0.00243109,0.00007719,-0.00010735,-0.00024610,0.00102557,-0.0001
 0152,-0.00046124,0.00079321,-0.00079292,0.00036470,-0.00221857,0.00059
 654,0.00317956,0.00187955,-0.00017714,0.00154838,-0.00141527,0.0022706
 4,0.00043968,0.01452354,0.01252320,0.01879681,-0.14195292,-0.05790443,
 -0.04335270,-0.01437745,-0.06881226,-0.06192034,0.14673476,0.00003657,
 -0.00018150,0.00079595,0.00475810,0.00018234,0.00197475,0.00010444,0.0
 0023311,0.00010317,-0.00021915,0.00059049,-0.00176007,-0.00069944,-0.0
 0004055,-0.00028299,0.00066125,-0.00121916,-0.00191506,0.00145897,-0.0
 0130859,-0.00117196,-0.00478409,0.00199906,0.00062148,0.00480415,-0.01
 594541,-0.04546462,-0.06938639,-0.31207922,-0.23849113,-0.04731778,-0.
 02444453,-0.03772122,0.10966759,0.35226059,0.00069975,-0.00077702,0.00
 079547,0.00353376,-0.00164349,0.00312173,0.00016426,0.00020025,0.00032
 241,-0.00047010,0.00039130,-0.00100201,-0.00094429,0.00050701,-0.00044
 453,0.00235179,0.00079832,-0.00057636,0.00399389,-0.00081967,-0.004144
 61,-0.00721012,-0.00072952,-0.00074759,0.00951642,-0.04416480,-0.03213
 198,-0.05906111,-0.24390749,-0.32730197,-0.03658329,-0.03213774,0.0053
 8875,0.08344841,0.32262468,0.35633920,-0.07380496,0.04777655,-0.036355
 67,-0.00253162,0.00541595,-0.00215532,-0.03092997,0.03083233,-0.014208
 01,-0.20567075,-0.03751731,-0.13278651,-0.11040298,0.02320775,-0.01172
 148,-0.00072279,0.00049920,-0.00065124,0.00083352,-0.00068015,0.001056
 69,0.00006478,0.00044234,0.00103196,0.00001607,-0.00040989,-0.00066250
 ,-0.00148757,-0.00276164,-0.00280814,0.00131720,0.00061421,0.00247366,
 0.00007294,0.00167026,0.00125655,0.72140260,0.00189287,0.03195740,0.02
 050739,0.00792255,-0.00548660,-0.00145764,0.07165824,-0.06953285,0.003
 85586,-0.04137054,-0.13352309,-0.07164771,0.02831315,-0.19499835,-0.06
 248672,0.00052341,-0.00058106,0.00208118,-0.00037108,0.00083266,-0.002
 73386,-0.00083685,-0.00036305,-0.00064516,-0.00150482,0.00016126,-0.00
 030796,-0.00219547,0.00073426,0.00150193,0.00112990,-0.00050723,0.0000
 4958,0.00062423,-0.00040696,-0.00075915,-0.20721535,0.54795658,-0.0698
 3542,0.05965385,-0.01231601,-0.00074098,-0.00310280,0.00221930,0.01774
 488,-0.03246720,0.00285211,-0.13565741,-0.06445684,-0.25661000,-0.0111
 8989,-0.06572399,-0.13518774,-0.00239375,-0.00032304,-0.00036270,0.001
 24288,0.00096282,0.00024758,-0.00037776,-0.00005145,0.00004172,-0.0004
 0341,-0.00025928,-0.00056961,-0.00277631,-0.00175018,-0.00157623,0.001
 96996,0.00040882,0.00157750,0.00058681,0.00116181,0.00079169,0.3109073
 3,0.07809343,0.52429474,0.00453545,-0.00195806,-0.00107995,0.00087906,
 0.00118391,0.00150972,-0.00676359,0.00526570,-0.00455091,-0.02966336,0
 .01308871,-0.02659402,-0.00533691,0.01667306,0.00100504,0.00041059,-0.
 00017207,0.00006084,-0.00082554,-0.00016644,-0.00122257,-0.00038722,-0
 .00009426,-0.00054490,-0.00006265,0.00015322,0.00055232,-0.00041444,0.
 00119357,0.00149167,0.00007363,-0.00031350,-0.00088787,0.00023066,-0.0
 0071059,-0.00071312,-0.27299857,0.14041784,-0.11902300,0.64575492,-0.0
 0135680,-0.00412895,-0.00930357,-0.00181998,0.00100178,-0.00069657,0.0
 0567216,-0.00263569,0.00185343,-0.00654332,0.02240158,0.00427796,0.040
 62817,-0.03292953,0.00980977,-0.00023806,0.00023378,-0.00050897,0.0003
 6324,-0.00015258,0.00104911,0.00034381,0.00016669,0.00056709,0.0002889
 1,-0.00020155,-0.00031298,0.00010406,-0.00112217,-0.00119734,0.0001202
 3,0.00034760,0.00061792,-0.00008821,0.00071189,0.00068767,0.11248475,-
 0.17174970,0.01663840,-0.16627462,0.59598921,0.00197770,-0.00948035,-0
 .00073235,-0.00020137,0.00179304,0.00133464,-0.00915615,0.00218377,-0.
 00297790,-0.04321640,0.01762401,-0.01846408,0.02560747,-0.01245515,0.0
 1914076,0.00039726,-0.00000802,-0.00019502,-0.00090109,-0.00017778,-0.
 00072678,-0.00012685,-0.00007771,-0.00035319,0.00008968,0.00008189,0.0
 0045619,0.00056573,0.00113036,0.00117038,-0.00052049,-0.00027535,-0.00
 075180,-0.00007874,-0.00072081,-0.00062351,-0.09678205,0.01752737,-0.1
 2127340,0.23454270,0.31710230,0.44192204,-0.00087217,0.00050414,0.0008
 0698,0.00009923,-0.00013107,0.00003493,0.00058990,0.00112429,-0.001504
 34,0.00222483,-0.00214488,0.00018132,-0.00292486,0.00071675,-0.0026576
 0,-0.00003607,-0.00002905,0.00004159,0.00004025,0.00002142,-0.00002900
 ,-0.00004044,0.00000465,0.00000368,-0.00002564,0.00002537,-0.00002422,
 0.00000500,0.00005807,-0.00004035,-0.00000414,-0.00002907,0.00004252,-
 0.00002217,-0.00004371,-0.00001214,-0.00768007,0.02042113,0.02242585,-
 0.11059240,0.12950541,0.06163446,0.10674184,0.00009738,-0.00198843,0.0
 0105840,0.00014592,0.00021969,0.00036849,-0.00060111,0.00150298,-0.001
 92715,-0.00447507,0.00051835,-0.00250358,0.00327781,0.00149550,0.00216
 527,0.00010860,-0.00003685,0.00000552,-0.00022266,-0.00000886,-0.00025
 925,-0.00007409,-0.00003659,-0.00010363,-0.00001156,0.00006385,0.00010
 708,0.00024049,0.00050648,0.00041824,-0.00022692,-0.00015001,-0.000226
 85,-0.00005031,-0.00033454,-0.00025868,0.01242522,-0.01761066,-0.00601
 737,0.11206854,-0.25250611,-0.18369496,-0.12978284,0.27654287,0.000519
 89,0.00038851,-0.00050919,0.00018099,0.00003341,0.00003734,-0.00151286
 ,0.00002884,0.00136420,0.00112770,0.00010886,-0.00043522,-0.00421499,0
 .00170859,-0.00153211,-0.00000830,-0.00002250,0.00001268,0.00007939,-0
 .00004019,-0.00011239,-0.00008835,-0.00000376,-0.00004248,-0.00005397,
 0.00005707,0.00004048,-0.00050632,-0.00000937,0.00001653,0.00033053,-0
 .00004458,0.00000533,0.00014666,0.00003095,0.00002421,-0.00541566,0.01
 786669,0.00990919,0.06633367,-0.20743520,-0.16853966,-0.06893944,0.194
 69967,0.16831100,0.00130893,0.00004936,-0.00199176,-0.00013229,0.00041
 932,0.00006170,-0.00188509,0.00063385,0.00005566,-0.00177178,0.0030546
 7,-0.00010617,0.00323685,-0.00172131,0.00112701,-0.00005147,0.00001150
 ,-0.00006247,-0.00000564,-0.00003949,0.00009739,0.00003559,0.00002236,
 0.00004774,0.00006310,-0.00003813,-0.00002718,0.00005422,-0.00000640,-
 0.00005337,-0.00002345,0.00000072,0.00002533,-0.00002283,-0.00000021,0
 .00002934,-0.01747783,-0.01940921,-0.01247976,-0.22483964,-0.11318974,
 -0.17383186,0.01249689,0.00708061,0.01202106,0.22901443,0.00120584,0.0
 0151254,-0.00001897,0.00025782,-0.00036146,-0.00014944,-0.00000875,-0.
 00135823,0.00059470,0.00394158,-0.00268909,0.00095311,-0.00119485,0.00
 090836,0.00004437,-0.00002576,-0.00002908,0.00009035,0.00007684,0.0000
 5000,0.00004025,0.00001439,-0.00001131,-0.00001429,-0.00003590,0.00000
 044,-0.00004184,0.00005423,0.00001786,-0.00001196,-0.00003391,-0.00001
 992,0.00001922,-0.00002384,-0.00001700,-0.00001167,0.01321577,0.013117
 37,0.01723302,-0.12035499,-0.15542625,-0.15055260,-0.02022058,-0.00817
 768,-0.00736700,0.12313209,0.15248345,-0.00247127,-0.00033125,0.000682
 44,-0.00036221,0.00001175,-0.00015887,0.00229768,-0.00015071,-0.000984
 05,0.00030116,0.00124163,0.00371623,0.00098802,-0.00157676,-0.00036861
 ,-0.00004760,0.00006376,-0.00010445,0.00015378,-0.00003682,0.00016816,
 0.00001583,0.00004620,0.00011816,0.00003152,-0.00001977,-0.00004759,-0
 .00021986,-0.00031696,-0.00030245,0.00019252,0.00008657,0.00018100,0.0
 0005657,0.00021506,0.00018911,-0.01317961,-0.00144524,-0.01403814,-0.1
 5087962,-0.13314902,-0.14938631,-0.01196422,-0.00383120,-0.00854991,0.
 17508734,0.13919276,0.16888528\\0.00000206,0.00000096,0.00000073,-0.00
 000101,-0.00000101,-0.00000029,-0.00000076,-0.00000125,-0.00000015,-0.
 00000071,-0.00000063,0.00000044,0.00000127,-0.00000026,0.00000004,0.00
 000394,0.00000175,0.00000116,-0.00000023,0.00000273,-0.00000215,-0.000
 00006,0.00000005,-0.00000218,0.00000229,0.00000181,0.00000175,-0.00000
 021,0.00000258,0.00000252,-0.00000096,-0.00000055,-0.00000141,-0.00000
 229,0.00000008,-0.00000102,0.00000653,-0.00000326,0.00000149,-0.000002
 46,0.00000078,0.00000887,-0.00000093,0.00000107,-0.00000188,-0.0000064
 7,-0.00000485,-0.00000791\\\@
 Job cpu time:       0 days 21 hours 51 minutes 29.9 seconds.
 File lengths (MBytes):  RWF= 157529 Int=      0 D2E=      0 Chk=    119 Scr=      1
 Normal termination of Gaussian 09 at Fri Aug 27 11:48:21 2021.
