 Entering Gaussian System, Link 0=g09
 Input=G4.KOTSIV.gjf
 Output=G4.KOTSIV.log
 Initial command:
 /public/home/users/caep010/software/Gaussian09/g09/l1.exe "/public/home/users/caep010/.cache/gau_scr/Gau-64093.inp" -scrdir="/public/home/users/caep010/.cache/gau_scr/"
 Entering Link 1 = /public/home/users/caep010/software/Gaussian09/g09/l1.exe PID=     64094.
  
 Copyright (c) 1988,1990,1992,1993,1995,1998,2003,2009,2015,
            Gaussian, Inc.  All Rights Reserved.
  
 This is part of the Gaussian(R) 09 program.  It is based on
 the Gaussian(R) 03 system (copyright 2003, Gaussian, Inc.),
 the Gaussian(R) 98 system (copyright 1998, Gaussian, Inc.),
 the Gaussian(R) 94 system (copyright 1995, Gaussian, Inc.),
 the Gaussian 92(TM) system (copyright 1992, Gaussian, Inc.),
 the Gaussian 90(TM) system (copyright 1990, Gaussian, Inc.),
 the Gaussian 88(TM) system (copyright 1988, Gaussian, Inc.),
 the Gaussian 86(TM) system (copyright 1986, Carnegie Mellon
 University), and the Gaussian 82(TM) system (copyright 1983,
 Carnegie Mellon University). Gaussian is a federally registered
 trademark of Gaussian, Inc.
  
 This software contains proprietary and confidential information,
 including trade secrets, belonging to Gaussian, Inc.
  
 This software is provided under written license and may be
 used, copied, transmitted, or stored only in accord with that
 written license.
  
 The following legend is applicable only to US Government
 contracts under FAR:
  
                    RESTRICTED RIGHTS LEGEND
  
 Use, reproduction and disclosure by the US Government is
 subject to restrictions as set forth in subparagraphs (a)
 and (c) of the Commercial Computer Software - Restricted
 Rights clause in FAR 52.227-19.
  
 Gaussian, Inc.
 340 Quinnipiac St., Bldg. 40, Wallingford CT 06492
  
  
 ---------------------------------------------------------------
 Warning -- This program may not be used in any manner that
 competes with the business of Gaussian, Inc. or will provide
 assistance to any competitor of Gaussian, Inc.  The licensee
 of this program is prohibited from giving any competitor of
 Gaussian, Inc. access to this program.  By using this program,
 the user acknowledges that Gaussian, Inc. is engaged in the
 business of creating and licensing software in the field of
 computational chemistry and represents and warrants to the
 licensee that it is not a competitor of Gaussian, Inc. and that
 it will not use this program in any manner prohibited above.
 ---------------------------------------------------------------
  

 Cite this work as:
 Gaussian 09, Revision E.01,
 M. J. Frisch, G. W. Trucks, H. B. Schlegel, G. E. Scuseria, 
 M. A. Robb, J. R. Cheeseman, G. Scalmani, V. Barone, B. Mennucci, 
 G. A. Petersson, H. Nakatsuji, M. Caricato, X. Li, H. P. Hratchian, 
 A. F. Izmaylov, J. Bloino, G. Zheng, J. L. Sonnenberg, M. Hada, 
 M. Ehara, K. Toyota, R. Fukuda, J. Hasegawa, M. Ishida, T. Nakajima, 
 Y. Honda, O. Kitao, H. Nakai, T. Vreven, J. A. Montgomery, Jr., 
 J. E. Peralta, F. Ogliaro, M. Bearpark, J. J. Heyd, E. Brothers, 
 K. N. Kudin, V. N. Staroverov, T. Keith, R. Kobayashi, J. Normand, 
 K. Raghavachari, A. Rendell, J. C. Burant, S. S. Iyengar, J. Tomasi, 
 M. Cossi, N. Rega, J. M. Millam, M. Klene, J. E. Knox, J. B. Cross, 
 V. Bakken, C. Adamo, J. Jaramillo, R. Gomperts, R. E. Stratmann, 
 O. Yazyev, A. J. Austin, R. Cammi, C. Pomelli, J. W. Ochterski, 
 R. L. Martin, K. Morokuma, V. G. Zakrzewski, G. A. Voth, 
 P. Salvador, J. J. Dannenberg, S. Dapprich, A. D. Daniels, 
 O. Farkas, J. B. Foresman, J. V. Ortiz, J. Cioslowski, 
 and D. J. Fox, Gaussian, Inc., Wallingford CT, 2013.
 
 ******************************************
 Gaussian 09:  ES64L-G09RevE.01 30-Nov-2015
                25-Aug-2021 
 ******************************************
 %nproc=32
 Will use up to   32 processors via shared memory.
 %mem=180GB
 ----------------
 #P G4 OPT=calcfc
 ----------------
 1/10=4,14=-1,18=20,19=15,26=3,38=1/1,3;
 2/9=110,12=2,17=6,18=5,40=1/2;
 3/5=35,7=104,11=2,16=1,25=1,30=1,71=2,74=-5,140=1/1,2,3;
 4//1;
 5/5=2,38=5/2;
 8/6=4,10=90,11=11/1;
 11/6=1,8=1,9=11,15=111,16=1/1,2,10;
 10/6=1,13=1/2;
 6/7=2,8=2,9=2,10=2,28=1/1;
 7/10=1,18=20,25=1/1,2,3,16;
 1/10=4,14=-1,18=20,19=15,26=3/3(2);
 2/9=110/2;
 99//99;
 2/9=110/2;
 3/5=35,7=104,11=2,16=1,25=1,30=1,71=1,74=-5/1,2,3;
 4/5=5,16=3,69=1/1;
 5/5=2,38=5/2;
 7//1,2,3,16;
 1/14=-1,18=20,19=15,26=3/3(-5);
 2/9=110/2;
 6/7=2,8=2,9=2,10=2,19=2,28=1/1;
 99/9=1/99;
 Leave Link    1 at Wed Aug 25 17:57:44 2021, MaxMem= 24159191040 cpu:         2.6
 (Enter /public/home/users/caep010/software/Gaussian09/g09/l101.exe)
 ------
 KOTSIV
 ------
 Symbolic Z-matrix:
 Charge =  0 Multiplicity = 1
 C                     5.53      2.2524    7.5855 
 C                     5.2901    1.6932    6.3266 
 C                     4.9795    2.5005    5.2854 
 C                     4.8999    3.8887    5.4733 
 C                     5.1329    4.4321    6.6963 
 C                     5.4457    3.6397    7.7523 
 N                     5.838     1.467     8.6236 
 H                     6.0089    1.8704    9.5225 
 H                     5.6278    4.0752    8.7125 
 O                     5.3725    0.2778    6.1403 
 C                     4.4744   -0.1191    5.1007 
 N                     4.5622    4.7608    4.3392 
 O                     4.3491    4.27      3.2232 
 H                     5.8974    0.4763    8.5007 
 H                     5.0694    5.4921    6.8277 
 H                     4.7946    2.08      4.319 
 O                     4.4909    5.9858    4.5003 
 H                     4.536    -1.1782    4.9613 
 H                     4.7409    0.3765    4.1906 
 H                     3.4743    0.1473    5.3723 
 
 NAtoms=     20 NQM=       20 NQMF=       0 NMMI=      0 NMMIF=      0
                NMic=       0 NMicF=      0.
                    Isotopes and Nuclear Properties:
 (Nuclear quadrupole moments (NQMom) in fm**2, nuclear magnetic moments (NMagM)
  in nuclear magnetons)

  Atom         1           2           3           4           5           6           7           8           9          10
 IAtWgt=          12          12          12          12          12          12          14           1           1          16
 AtmWgt=  12.0000000  12.0000000  12.0000000  12.0000000  12.0000000  12.0000000  14.0030740   1.0078250   1.0078250  15.9949146
 NucSpn=           0           0           0           0           0           0           2           1           1           0
 AtZEff=   0.0000000   0.0000000   0.0000000   0.0000000   0.0000000   0.0000000   0.0000000   0.0000000   0.0000000   0.0000000
 NQMom=    0.0000000   0.0000000   0.0000000   0.0000000   0.0000000   0.0000000   2.0440000   0.0000000   0.0000000   0.0000000
 NMagM=    0.0000000   0.0000000   0.0000000   0.0000000   0.0000000   0.0000000   0.4037610   2.7928460   2.7928460   0.0000000
 AtZNuc=   6.0000000   6.0000000   6.0000000   6.0000000   6.0000000   6.0000000   7.0000000   1.0000000   1.0000000   8.0000000

  Atom        11          12          13          14          15          16          17          18          19          20
 IAtWgt=          12          14          16           1           1           1          16           1           1           1
 AtmWgt=  12.0000000  14.0030740  15.9949146   1.0078250   1.0078250   1.0078250  15.9949146   1.0078250   1.0078250   1.0078250
 NucSpn=           0           2           0           1           1           1           0           1           1           1
 AtZEff=   0.0000000   0.0000000   0.0000000   0.0000000   0.0000000   0.0000000   0.0000000   0.0000000   0.0000000   0.0000000
 NQMom=    0.0000000   2.0440000   0.0000000   0.0000000   0.0000000   0.0000000   0.0000000   0.0000000   0.0000000   0.0000000
 NMagM=    0.0000000   0.4037610   0.0000000   2.7928460   2.7928460   2.7928460   0.0000000   2.7928460   2.7928460   2.7928460
 AtZNuc=   6.0000000   7.0000000   8.0000000   1.0000000   1.0000000   1.0000000   8.0000000   1.0000000   1.0000000   1.0000000
 Leave Link  101 at Wed Aug 25 17:57:44 2021, MaxMem= 24159191040 cpu:        10.1
 (Enter /public/home/users/caep010/software/Gaussian09/g09/l103.exe)

 GradGradGradGradGradGradGradGradGradGradGradGradGradGradGradGradGradGrad
 Berny optimization.
 Initialization pass.
                           ----------------------------
                           !    Initial Parameters    !
                           ! (Angstroms and Degrees)  !
 --------------------------                            --------------------------
 ! Name  Definition              Value          Derivative Info.                !
 --------------------------------------------------------------------------------
 ! R1    R(1,2)                  1.3982         calculate D2E/DX2 analytically  !
 ! R2    R(1,6)                  1.3998         calculate D2E/DX2 analytically  !
 ! R3    R(1,7)                  1.3377         calculate D2E/DX2 analytically  !
 ! R4    R(2,3)                  1.3536         calculate D2E/DX2 analytically  !
 ! R5    R(2,10)                 1.43           calculate D2E/DX2 analytically  !
 ! R6    R(3,4)                  1.4031         calculate D2E/DX2 analytically  !
 ! R7    R(3,16)                 1.07           calculate D2E/DX2 analytically  !
 ! R8    R(4,5)                  1.3584         calculate D2E/DX2 analytically  !
 ! R9    R(4,12)                 1.47           calculate D2E/DX2 analytically  !
 ! R10   R(5,6)                  1.3568         calculate D2E/DX2 analytically  !
 ! R11   R(5,15)                 1.07           calculate D2E/DX2 analytically  !
 ! R12   R(6,9)                  1.07           calculate D2E/DX2 analytically  !
 ! R13   R(7,8)                  1.0            calculate D2E/DX2 analytically  !
 ! R14   R(7,14)                 1.0001         calculate D2E/DX2 analytically  !
 ! R15   R(10,11)                1.43           calculate D2E/DX2 analytically  !
 ! R16   R(11,18)                1.07           calculate D2E/DX2 analytically  !
 ! R17   R(11,19)                1.07           calculate D2E/DX2 analytically  !
 ! R18   R(11,20)                1.07           calculate D2E/DX2 analytically  !
 ! R19   R(12,13)                1.2376         calculate D2E/DX2 analytically  !
 ! R20   R(12,17)                1.2376         calculate D2E/DX2 analytically  !
 ! A1    A(2,1,6)              119.5577         calculate D2E/DX2 analytically  !
 ! A2    A(2,1,7)              120.2253         calculate D2E/DX2 analytically  !
 ! A3    A(6,1,7)              120.217          calculate D2E/DX2 analytically  !
 ! A4    A(1,2,3)              119.5636         calculate D2E/DX2 analytically  !
 ! A5    A(1,2,10)             120.2161         calculate D2E/DX2 analytically  !
 ! A6    A(3,2,10)             120.2203         calculate D2E/DX2 analytically  !
 ! A7    A(2,3,4)              120.0044         calculate D2E/DX2 analytically  !
 ! A8    A(2,3,16)             119.9988         calculate D2E/DX2 analytically  !
 ! A9    A(4,3,16)             119.9967         calculate D2E/DX2 analytically  !
 ! A10   A(3,4,5)              120.438          calculate D2E/DX2 analytically  !
 ! A11   A(3,4,12)             119.7811         calculate D2E/DX2 analytically  !
 ! A12   A(5,4,12)             119.7809         calculate D2E/DX2 analytically  !
 ! A13   A(4,5,6)              120.4402         calculate D2E/DX2 analytically  !
 ! A14   A(4,5,15)             119.7798         calculate D2E/DX2 analytically  !
 ! A15   A(6,5,15)             119.78           calculate D2E/DX2 analytically  !
 ! A16   A(1,6,5)              119.996          calculate D2E/DX2 analytically  !
 ! A17   A(1,6,9)              120.0044         calculate D2E/DX2 analytically  !
 ! A18   A(5,6,9)              119.9995         calculate D2E/DX2 analytically  !
 ! A19   A(1,7,8)              120.0065         calculate D2E/DX2 analytically  !
 ! A20   A(1,7,14)             119.9966         calculate D2E/DX2 analytically  !
 ! A21   A(8,7,14)             119.9968         calculate D2E/DX2 analytically  !
 ! A22   A(2,10,11)            109.466          calculate D2E/DX2 analytically  !
 ! A23   A(10,11,18)           109.468          calculate D2E/DX2 analytically  !
 ! A24   A(10,11,19)           109.4735         calculate D2E/DX2 analytically  !
 ! A25   A(10,11,20)           109.4737         calculate D2E/DX2 analytically  !
 ! A26   A(18,11,19)           109.4694         calculate D2E/DX2 analytically  !
 ! A27   A(18,11,20)           109.4696         calculate D2E/DX2 analytically  !
 ! A28   A(19,11,20)           109.4733         calculate D2E/DX2 analytically  !
 ! A29   A(4,12,13)            119.9983         calculate D2E/DX2 analytically  !
 ! A30   A(4,12,17)            120.003          calculate D2E/DX2 analytically  !
 ! A31   A(13,12,17)           119.9987         calculate D2E/DX2 analytically  !
 ! D1    D(6,1,2,3)              0.003          calculate D2E/DX2 analytically  !
 ! D2    D(6,1,2,10)           179.9956         calculate D2E/DX2 analytically  !
 ! D3    D(7,1,2,3)           -179.9977         calculate D2E/DX2 analytically  !
 ! D4    D(7,1,2,10)            -0.0051         calculate D2E/DX2 analytically  !
 ! D5    D(2,1,6,5)              0.0025         calculate D2E/DX2 analytically  !
 ! D6    D(2,1,6,9)            179.9949         calculate D2E/DX2 analytically  !
 ! D7    D(7,1,6,5)           -179.9968         calculate D2E/DX2 analytically  !
 ! D8    D(7,1,6,9)             -0.0044         calculate D2E/DX2 analytically  !
 ! D9    D(2,1,7,8)           -179.9978         calculate D2E/DX2 analytically  !
 ! D10   D(2,1,7,14)             0.0052         calculate D2E/DX2 analytically  !
 ! D11   D(6,1,7,8)              0.0015         calculate D2E/DX2 analytically  !
 ! D12   D(6,1,7,14)          -179.9955         calculate D2E/DX2 analytically  !
 ! D13   D(1,2,3,4)             -0.0062         calculate D2E/DX2 analytically  !
 ! D14   D(1,2,3,16)           179.9979         calculate D2E/DX2 analytically  !
 ! D15   D(10,2,3,4)          -179.9988         calculate D2E/DX2 analytically  !
 ! D16   D(10,2,3,16)            0.0053         calculate D2E/DX2 analytically  !
 ! D17   D(1,2,10,11)          150.0011         calculate D2E/DX2 analytically  !
 ! D18   D(3,2,10,11)          -30.0063         calculate D2E/DX2 analytically  !
 ! D19   D(2,3,4,5)              0.004          calculate D2E/DX2 analytically  !
 ! D20   D(2,3,4,12)          -179.9988         calculate D2E/DX2 analytically  !
 ! D21   D(16,3,4,5)           180.0            calculate D2E/DX2 analytically  !
 ! D22   D(16,3,4,12)           -0.0029         calculate D2E/DX2 analytically  !
 ! D23   D(3,4,5,6)              0.0015         calculate D2E/DX2 analytically  !
 ! D24   D(3,4,5,15)           179.9966         calculate D2E/DX2 analytically  !
 ! D25   D(12,4,5,6)          -179.9956         calculate D2E/DX2 analytically  !
 ! D26   D(12,4,5,15)           -0.0005         calculate D2E/DX2 analytically  !
 ! D27   D(3,4,12,13)            0.0048         calculate D2E/DX2 analytically  !
 ! D28   D(3,4,12,17)         -179.9987         calculate D2E/DX2 analytically  !
 ! D29   D(5,4,12,13)         -179.998          calculate D2E/DX2 analytically  !
 ! D30   D(5,4,12,17)           -0.0016         calculate D2E/DX2 analytically  !
 ! D31   D(4,5,6,1)             -0.0047         calculate D2E/DX2 analytically  !
 ! D32   D(4,5,6,9)           -179.9971         calculate D2E/DX2 analytically  !
 ! D33   D(15,5,6,1)          -179.9998         calculate D2E/DX2 analytically  !
 ! D34   D(15,5,6,9)             0.0078         calculate D2E/DX2 analytically  !
 ! D35   D(2,10,11,18)        -179.9975         calculate D2E/DX2 analytically  !
 ! D36   D(2,10,11,19)          60.0053         calculate D2E/DX2 analytically  !
 ! D37   D(2,10,11,20)         -60.0            calculate D2E/DX2 analytically  !
 --------------------------------------------------------------------------------
 Trust Radius=3.00D-01 FncErr=1.00D-07 GrdErr=1.00D-06
 Number of steps in this run=     98 maximum allowed number of steps=    120.
 GradGradGradGradGradGradGradGradGradGradGradGradGradGradGradGradGradGrad

 Leave Link  103 at Wed Aug 25 17:57:45 2021, MaxMem= 24159191040 cpu:         0.6
 (Enter /public/home/users/caep010/software/Gaussian09/g09/l202.exe)
                          Input orientation:                          
 ---------------------------------------------------------------------
 Center     Atomic      Atomic             Coordinates (Angstroms)
 Number     Number       Type             X           Y           Z
 ---------------------------------------------------------------------
      1          6           0        5.530000    2.252400    7.585500
      2          6           0        5.290100    1.693200    6.326600
      3          6           0        4.979500    2.500500    5.285400
      4          6           0        4.899900    3.888700    5.473300
      5          6           0        5.132900    4.432100    6.696300
      6          6           0        5.445700    3.639700    7.752300
      7          7           0        5.838000    1.467000    8.623600
      8          1           0        6.008900    1.870400    9.522500
      9          1           0        5.627800    4.075200    8.712500
     10          8           0        5.372500    0.277800    6.140300
     11          6           0        4.474400   -0.119100    5.100700
     12          7           0        4.562200    4.760800    4.339200
     13          8           0        4.349100    4.270000    3.223200
     14          1           0        5.897400    0.476300    8.500700
     15          1           0        5.069400    5.492100    6.827700
     16          1           0        4.794600    2.080000    4.319000
     17          8           0        4.490900    5.985800    4.500300
     18          1           0        4.536000   -1.178200    4.961300
     19          1           0        4.740900    0.376500    4.190600
     20          1           0        3.474300    0.147300    5.372300
 ---------------------------------------------------------------------
                    Distance matrix (angstroms):
                    1          2          3          4          5
     1  C    0.000000
     2  C    1.398244   0.000000
     3  C    2.378038   1.353626   0.000000
     4  C    2.745158   2.387592   1.403119   0.000000
     5  C    2.387354   2.768206   2.396925   1.358419   0.000000
     6  C    1.399832   2.417787   2.756939   2.356637   1.356789
     7  N    1.337673   2.372250   3.598434   4.082775   3.606032
     8  H    2.031561   3.280526   4.405645   4.658265   3.913705
     9  H    2.145296   3.388286   3.826877   3.325212   2.106506
    10  O    2.452031   1.429984   2.413648   3.702275   4.198184
    11  C    3.593402   2.335086   2.674237   4.047511   4.867544
    12  N    4.215112   3.726898   2.485637   1.469960   2.447379
    13  O    4.949232   4.142037   2.789481   2.347705   3.564133
    14  H    2.031528   2.564443   3.908718   4.669543   4.414598
    15  H    3.358879   3.838157   3.366963   2.105712   1.069999
    16  H    3.352694   2.103709   1.070017   2.148230   3.361306
    17  O    4.953429   4.732917   3.605888   2.347730   2.765604
    18  H    4.432096   3.267667   3.719485   5.105687   5.902710
    19  H    3.958159   2.568621   2.401436   3.742479   4.783313
    20  H    3.681793   2.568584   2.794768   4.005073   4.781573
                    6          7          8          9         10
     6  C    0.000000
     7  N    2.373539   0.000000
     8  H    2.565390   0.999980   0.000000
     9  H    1.069955   2.618166   2.379597   0.000000
    10  O    3.729112   2.792430   3.792184   4.593652   0.000000
    11  C    4.701381   4.097065   5.085776   5.653988   1.429993
    12  N    3.699553   5.552735   6.108515   4.553164   4.898759
    13  O    4.702399   6.264020   6.942204   5.639631   5.049206
    14  H    3.281956   1.000060   1.732057   3.615194   2.426193
    15  H    2.104251   4.474085   4.611000   2.423198   5.268141
    16  H    3.826767   4.471469   5.347417   4.896722   2.626600
    17  O    4.122054   6.263851   6.668083   4.762936   6.004006
    18  H    5.641755   4.701567   5.680488   6.546888   2.051758
    19  H    4.881693   4.695137   5.680556   5.908854   2.051826
    20  H    4.663440   4.230796   5.159208   5.587745   2.051833
                   11         12         13         14         15
    11  C    0.000000
    12  N    4.939738   0.000000
    13  O    4.775448   1.237640   0.000000
    14  H    3.733555   6.120276   6.681422   0.000000
    15  H    5.901027   2.642855   3.873600   5.351893   0.000000
    16  H    2.355764   2.690930   2.489046   4.612444   4.243998
    17  O    6.134375   1.237603   2.143609   6.952412   2.448508
    18  H    1.070009   5.971551   5.721784   4.137407   6.947004
    19  H    1.070011   4.390456   4.030969   4.463677   5.764683
    20  H    1.070017   4.851310   4.730810   3.970710   5.764497
                   16         17         18         19         20
    16  H    0.000000
    17  O    3.921782   0.000000
    18  H    3.330959   7.178959   0.000000
    19  H    1.709176   5.623403   1.747299   0.000000
    20  H    2.566703   5.990154   1.747306   1.747347   0.000000
 Stoichiometry    C7H8N2O3
 Framework group  C1[X(C7H8N2O3)]
 Deg. of freedom    54
 Full point group                 C1      NOp   1
 Largest Abelian subgroup         C1      NOp   1
 Largest concise Abelian subgroup C1      NOp   1
                         Standard orientation:                         
 ---------------------------------------------------------------------
 Center     Atomic      Atomic             Coordinates (Angstroms)
 Number     Number       Type             X           Y           Z
 ---------------------------------------------------------------------
      1          6           0       -1.487554   -1.116535   -0.023658
      2          6           0       -1.230938    0.253155   -0.138486
      3          6           0        0.048383    0.695460   -0.136069
      4          6           0        1.106545   -0.218470   -0.018733
      5          6           0        0.857377   -1.549169    0.092875
      6          6           0       -0.417983   -2.012131    0.092336
      7          7           0       -2.746690   -1.568136   -0.024619
      8          1           0       -2.926463   -2.548372    0.057721
      9          1           0       -0.606149   -3.061698    0.180689
     10          8           0       -2.312886    1.180515   -0.257844
     11          6           0       -1.933182    2.432606    0.319196
     12          7           0        2.493940    0.267237   -0.016630
     13          8           0        2.725564    1.478772   -0.118049
     14          1           0       -3.508321   -0.925384   -0.107735
     15          1           0        1.672328   -2.236818    0.181726
     16          1           0        0.252741    1.742130   -0.223578
     17          8           0        3.430416   -0.535268    0.086619
     18          1           0       -2.742762    3.126532    0.229939
     19          1           0       -1.076202    2.816515   -0.193758
     20          1           0       -1.696560    2.291730    1.353168
 ---------------------------------------------------------------------
 Rotational constants (GHZ):      1.5737224      0.6817494      0.4805165
 Leave Link  202 at Wed Aug 25 17:57:45 2021, MaxMem= 24159191040 cpu:         1.2
 (Enter /public/home/users/caep010/software/Gaussian09/g09/l301.exe)
 Standard basis: GTBas3 (6D, 7F)
 Ernie: Thresh=  0.10000D-02 Tol=  0.10000D-05 Strict=F.
 There are   412 symmetry adapted cartesian basis functions of A   symmetry.
 There are   376 symmetry adapted basis functions of A   symmetry.
   376 basis functions,   584 primitive gaussians,   412 cartesian basis functions
    44 alpha electrons       44 beta electrons
       nuclear repulsion energy       695.2408647456 Hartrees.
 IExCor=  402 DFT=T Ex+Corr=B3LYP ExCW=0 ScaHFX=  0.200000
 ScaDFX=  0.800000  0.720000  1.000000  0.810000 ScalE2=  1.000000  1.000000
 IRadAn=      0 IRanWt=     -1 IRanGd=            0 ICorTp=0 IEmpDi=  4
 NAtoms=   20 NActive=   20 NUniq=   20 SFac= 1.00D+00 NAtFMM=   60 NAOKFM=F Big=F
 Integral buffers will be    131072 words long.
 Raffenetti 2 integral format.
 Two-electron integral symmetry is turned on.
 Leave Link  301 at Wed Aug 25 17:57:45 2021, MaxMem= 24159191040 cpu:         2.2
 (Enter /public/home/users/caep010/software/Gaussian09/g09/l302.exe)
 NPDir=0 NMtPBC=     1 NCelOv=     1 NCel=       1 NClECP=     1 NCelD=      1
         NCelK=      1 NCelE2=     1 NClLst=     1 CellRange=     0.0.
 One-electron integrals computed using PRISM.
 NBasis=   376 RedAO= T EigKep=  8.85D-05  NBF=   376
 NBsUse=   376 1.00D-06 EigRej= -1.00D+00 NBFU=   376
 Precomputing XC quadrature grid using
 IXCGrd= 4 IRadAn=           0 IRanWt=          -1 IRanGd=           0 AccXCQ= 0.00D+00.
 Generated NRdTot=       0 NPtTot=           0 NUsed=           0 NTot=          32
 NSgBfM=   411   411   411   411   411 MxSgAt=    20 MxSgA2=    20.
 Leave Link  302 at Wed Aug 25 17:57:45 2021, MaxMem= 24159191040 cpu:        17.3
 (Enter /public/home/users/caep010/software/Gaussian09/g09/l303.exe)
 DipDrv:  MaxL=1.
 Leave Link  303 at Wed Aug 25 17:57:45 2021, MaxMem= 24159191040 cpu:         1.2
 (Enter /public/home/users/caep010/software/Gaussian09/g09/l401.exe)
 ExpMin= 1.61D-01 ExpMax= 5.48D+03 ExpMxC= 8.25D+02 IAcc=1 IRadAn=         1 AccDes= 0.00D+00
 Harris functional with IExCor=  402 and IRadAn=       1 diagonalized for initial guess.
 HarFok:  IExCor=  402 AccDes= 0.00D+00 IRadAn=         1 IDoV= 1 UseB2=F ITyADJ=14
 ICtDFT=  3500011 ScaDFX=  1.000000  1.000000  1.000000  1.000000
 FoFCou: FMM=F IPFlag=           0 FMFlag=      100000 FMFlg1=           0
         NFxFlg=           0 DoJE=T BraDBF=F KetDBF=T FulRan=T
         wScrn=  0.000000 ICntrl=     500 IOpCl=  0 I1Cent=   200000004 NGrid=           0
         NMat0=    1 NMatS0=      1 NMatT0=    0 NMatD0=    1 NMtDS0=    0 NMtDT0=    0
 Petite list used in FoFCou.
 Harris En= -606.705758161807    
 JPrj=0 DoOrth=F DoCkMO=F.
 Leave Link  401 at Wed Aug 25 17:57:46 2021, MaxMem= 24159191040 cpu:        18.3
 (Enter /public/home/users/caep010/software/Gaussian09/g09/l502.exe)
 Closed shell SCF:
 Using DIIS extrapolation, IDIIS=  1040.
 Integral symmetry usage will be decided dynamically.
 Keep R1 ints in memory in canonical form, NReq=2547505368.
 IVT=      543950 IEndB=      543950 NGot= 24159191040 MDV= 21646907965
 LenX= 21646907965 LenY= 21646737780
 Requested convergence on RMS density matrix=1.00D-08 within 128 cycles.
 Requested convergence on MAX density matrix=1.00D-06.
 Requested convergence on             energy=1.00D-06.
 No special actions if energy rises.
 FoFCou: FMM=F IPFlag=           0 FMFlag=           0 FMFlg1=           0
         NFxFlg=           0 DoJE=F BraDBF=F KetDBF=F FulRan=T
         wScrn=  0.000000 ICntrl=     600 IOpCl=  0 I1Cent=           0 NGrid=           0
         NMat0=    1 NMatS0=  70876 NMatT0=    0 NMatD0=    1 NMtDS0=    0 NMtDT0=    0
 Symmetry not used in FoFCou.
 Integral accuracy reduced to 1.0D-05 until final iterations.

 Cycle   1  Pass 0  IDiag  1:
 E= -606.308042512309    
 DIIS: error= 2.63D-02 at cycle   1 NSaved=   1.
 NSaved= 1 IEnMin= 1 EnMin= -606.308042512309     IErMin= 1 ErrMin= 2.63D-02
 ErrMax= 2.63D-02  0.00D+00 EMaxC= 1.00D-01 BMatC= 4.34D-01 BMatP= 4.34D-01
 IDIUse=3 WtCom= 7.37D-01 WtEn= 2.63D-01
 Coeff-Com:  0.100D+01
 Coeff-En:   0.100D+01
 Coeff:      0.100D+01
 Gap=     0.096 Goal=   None    Shift=    0.000
 GapD=    0.096 DampG=0.500 DampE=0.500 DampFc=0.2500 IDamp=-1.
 Damping current iteration by 2.50D-01
 RMSDP=3.56D-03 MaxDP=2.52D-01              OVMax= 3.54D-01

 Cycle   2  Pass 0  IDiag  1:
 E= -606.437472864662     Delta-E=       -0.129430352353 Rises=F Damp=T
 DIIS: error= 1.01D-02 at cycle   2 NSaved=   2.
 NSaved= 2 IEnMin= 2 EnMin= -606.437472864662     IErMin= 2 ErrMin= 1.01D-02
 ErrMax= 1.01D-02  0.00D+00 EMaxC= 1.00D-01 BMatC= 8.35D-02 BMatP= 4.34D-01
 IDIUse=3 WtCom= 8.99D-01 WtEn= 1.01D-01
 Coeff-Com: -0.558D+00 0.156D+01
 Coeff-En:   0.000D+00 0.100D+01
 Coeff:     -0.502D+00 0.150D+01
 Gap=     0.167 Goal=   None    Shift=    0.000
 RMSDP=1.24D-03 MaxDP=5.05D-02 DE=-1.29D-01 OVMax= 2.25D-01

 Cycle   3  Pass 0  IDiag  1:
 E= -606.640288100133     Delta-E=       -0.202815235471 Rises=F Damp=F
 DIIS: error= 7.19D-03 at cycle   3 NSaved=   3.
 NSaved= 3 IEnMin= 3 EnMin= -606.640288100133     IErMin= 3 ErrMin= 7.19D-03
 ErrMax= 7.19D-03  0.00D+00 EMaxC= 1.00D-01 BMatC= 2.26D-02 BMatP= 8.35D-02
 IDIUse=3 WtCom= 9.28D-01 WtEn= 7.19D-02
 Coeff-Com: -0.295D+00 0.735D+00 0.560D+00
 Coeff-En:   0.000D+00 0.000D+00 0.100D+01
 Coeff:     -0.274D+00 0.682D+00 0.592D+00
 Gap=     0.150 Goal=   None    Shift=    0.000
 RMSDP=5.84D-04 MaxDP=3.28D-02 DE=-2.03D-01 OVMax= 6.29D-02

 Cycle   4  Pass 0  IDiag  1:
 E= -606.654397368964     Delta-E=       -0.014109268832 Rises=F Damp=F
 DIIS: error= 3.46D-03 at cycle   4 NSaved=   4.
 NSaved= 4 IEnMin= 4 EnMin= -606.654397368964     IErMin= 4 ErrMin= 3.46D-03
 ErrMax= 3.46D-03  0.00D+00 EMaxC= 1.00D-01 BMatC= 7.39D-03 BMatP= 2.26D-02
 IDIUse=3 WtCom= 9.65D-01 WtEn= 3.46D-02
 Coeff-Com: -0.781D-01 0.205D+00 0.366D+00 0.507D+00
 Coeff-En:   0.000D+00 0.000D+00 0.268D+00 0.732D+00
 Coeff:     -0.754D-01 0.198D+00 0.363D+00 0.515D+00
 Gap=     0.152 Goal=   None    Shift=    0.000
 RMSDP=2.77D-04 MaxDP=1.84D-02 DE=-1.41D-02 OVMax= 3.39D-02

 Cycle   5  Pass 0  IDiag  1:
 E= -606.659967672587     Delta-E=       -0.005570303623 Rises=F Damp=F
 DIIS: error= 1.95D-03 at cycle   5 NSaved=   5.
 NSaved= 5 IEnMin= 5 EnMin= -606.659967672587     IErMin= 5 ErrMin= 1.95D-03
 ErrMax= 1.95D-03  0.00D+00 EMaxC= 1.00D-01 BMatC= 1.63D-03 BMatP= 7.39D-03
 IDIUse=3 WtCom= 9.80D-01 WtEn= 1.95D-02
 Coeff-Com: -0.985D-02 0.344D-01 0.179D+00 0.368D+00 0.429D+00
 Coeff-En:   0.000D+00 0.000D+00 0.000D+00 0.171D+00 0.829D+00
 Coeff:     -0.966D-02 0.337D-01 0.175D+00 0.364D+00 0.437D+00
 Gap=     0.151 Goal=   None    Shift=    0.000
 RMSDP=1.31D-04 MaxDP=1.02D-02 DE=-5.57D-03 OVMax= 2.26D-02

 Cycle   6  Pass 0  IDiag  1:
 E= -606.661133851490     Delta-E=       -0.001166178903 Rises=F Damp=F
 DIIS: error= 9.82D-04 at cycle   6 NSaved=   6.
 NSaved= 6 IEnMin= 6 EnMin= -606.661133851490     IErMin= 6 ErrMin= 9.82D-04
 ErrMax= 9.82D-04  0.00D+00 EMaxC= 1.00D-01 BMatC= 2.96D-04 BMatP= 1.63D-03
 IDIUse=3 WtCom= 9.90D-01 WtEn= 9.82D-03
 Coeff-Com:  0.621D-03 0.422D-02 0.886D-01 0.209D+00 0.325D+00 0.373D+00
 Coeff-En:   0.000D+00 0.000D+00 0.000D+00 0.000D+00 0.145D+00 0.855D+00
 Coeff:      0.615D-03 0.417D-02 0.877D-01 0.207D+00 0.323D+00 0.378D+00
 Gap=     0.151 Goal=   None    Shift=    0.000
 RMSDP=5.23D-05 MaxDP=4.74D-03 DE=-1.17D-03 OVMax= 8.90D-03

 Cycle   7  Pass 0  IDiag  1:
 E= -606.661351361726     Delta-E=       -0.000217510236 Rises=F Damp=F
 DIIS: error= 1.83D-04 at cycle   7 NSaved=   7.
 NSaved= 7 IEnMin= 7 EnMin= -606.661351361726     IErMin= 7 ErrMin= 1.83D-04
 ErrMax= 1.83D-04  0.00D+00 EMaxC= 1.00D-01 BMatC= 1.97D-05 BMatP= 2.96D-04
 IDIUse=3 WtCom= 9.98D-01 WtEn= 1.83D-03
 Coeff-Com:  0.184D-02-0.238D-02 0.272D-01 0.730D-01 0.138D+00 0.244D+00
 Coeff-Com:  0.518D+00
 Coeff-En:   0.000D+00 0.000D+00 0.000D+00 0.000D+00 0.000D+00 0.628D-01
 Coeff-En:   0.937D+00
 Coeff:      0.184D-02-0.237D-02 0.272D-01 0.729D-01 0.138D+00 0.244D+00
 Coeff:      0.519D+00
 Gap=     0.152 Goal=   None    Shift=    0.000
 RMSDP=1.47D-05 MaxDP=8.72D-04 DE=-2.18D-04 OVMax= 2.41D-03

 Cycle   8  Pass 0  IDiag  1:
 E= -606.661368088783     Delta-E=       -0.000016727056 Rises=F Damp=F
 DIIS: error= 6.23D-05 at cycle   8 NSaved=   8.
 NSaved= 8 IEnMin= 8 EnMin= -606.661368088783     IErMin= 8 ErrMin= 6.23D-05
 ErrMax= 6.23D-05  0.00D+00 EMaxC= 1.00D-01 BMatC= 2.09D-06 BMatP= 1.97D-05
 IDIUse=1 WtCom= 1.00D+00 WtEn= 0.00D+00
 Coeff-Com:  0.130D-02-0.250D-02 0.821D-02 0.261D-01 0.547D-01 0.113D+00
 Coeff-Com:  0.324D+00 0.476D+00
 Coeff:      0.130D-02-0.250D-02 0.821D-02 0.261D-01 0.547D-01 0.113D+00
 Coeff:      0.324D+00 0.476D+00
 Gap=     0.152 Goal=   None    Shift=    0.000
 RMSDP=5.77D-06 MaxDP=2.54D-04 DE=-1.67D-05 OVMax= 8.76D-04

 Initial convergence to 1.0D-05 achieved.  Increase integral accuracy.
 Cycle   9  Pass 1  IDiag  1:
 E= -606.661354852674     Delta-E=        0.000013236109 Rises=F Damp=F
 DIIS: error= 1.82D-05 at cycle   1 NSaved=   1.
 NSaved= 1 IEnMin= 1 EnMin= -606.661354852674     IErMin= 1 ErrMin= 1.82D-05
 ErrMax= 1.82D-05  0.00D+00 EMaxC= 1.00D-01 BMatC= 2.39D-07 BMatP= 2.39D-07
 IDIUse=1 WtCom= 1.00D+00 WtEn= 0.00D+00
 Coeff-Com:  0.100D+01
 Coeff:      0.100D+01
 Gap=     0.152 Goal=   None    Shift=    0.000
 RMSDP=5.77D-06 MaxDP=2.54D-04 DE= 1.32D-05 OVMax= 2.27D-04

 Cycle  10  Pass 1  IDiag  1:
 E= -606.661354980786     Delta-E=       -0.000000128113 Rises=F Damp=F
 DIIS: error= 1.43D-05 at cycle   2 NSaved=   2.
 NSaved= 2 IEnMin= 2 EnMin= -606.661354980786     IErMin= 2 ErrMin= 1.43D-05
 ErrMax= 1.43D-05  0.00D+00 EMaxC= 1.00D-01 BMatC= 9.72D-08 BMatP= 2.39D-07
 IDIUse=1 WtCom= 1.00D+00 WtEn= 0.00D+00
 Coeff-Com:  0.343D+00 0.657D+00
 Coeff:      0.343D+00 0.657D+00
 Gap=     0.152 Goal=   None    Shift=    0.000
 RMSDP=1.76D-06 MaxDP=1.07D-04 DE=-1.28D-07 OVMax= 2.31D-04

 Cycle  11  Pass 1  IDiag  1:
 E= -606.661355021835     Delta-E=       -0.000000041049 Rises=F Damp=F
 DIIS: error= 1.03D-05 at cycle   3 NSaved=   3.
 NSaved= 3 IEnMin= 3 EnMin= -606.661355021835     IErMin= 3 ErrMin= 1.03D-05
 ErrMax= 1.03D-05  0.00D+00 EMaxC= 1.00D-01 BMatC= 4.97D-08 BMatP= 9.72D-08
 IDIUse=1 WtCom= 1.00D+00 WtEn= 0.00D+00
 Coeff-Com:  0.228D-02 0.414D+00 0.583D+00
 Coeff:      0.228D-02 0.414D+00 0.583D+00
 Gap=     0.152 Goal=   None    Shift=    0.000
 RMSDP=7.90D-07 MaxDP=4.94D-05 DE=-4.10D-08 OVMax= 1.13D-04

 Cycle  12  Pass 1  IDiag  1:
 E= -606.661355060960     Delta-E=       -0.000000039125 Rises=F Damp=F
 DIIS: error= 2.85D-06 at cycle   4 NSaved=   4.
 NSaved= 4 IEnMin= 4 EnMin= -606.661355060960     IErMin= 4 ErrMin= 2.85D-06
 ErrMax= 2.85D-06  0.00D+00 EMaxC= 1.00D-01 BMatC= 4.66D-09 BMatP= 4.97D-08
 IDIUse=1 WtCom= 1.00D+00 WtEn= 0.00D+00
 Coeff-Com: -0.118D-01 0.237D+00 0.376D+00 0.398D+00
 Coeff:     -0.118D-01 0.237D+00 0.376D+00 0.398D+00
 Gap=     0.152 Goal=   None    Shift=    0.000
 RMSDP=2.01D-07 MaxDP=1.75D-05 DE=-3.91D-08 OVMax= 3.38D-05

 Cycle  13  Pass 1  IDiag  1:
 E= -606.661355064240     Delta-E=       -0.000000003280 Rises=F Damp=F
 DIIS: error= 1.50D-06 at cycle   5 NSaved=   5.
 NSaved= 5 IEnMin= 5 EnMin= -606.661355064240     IErMin= 5 ErrMin= 1.50D-06
 ErrMax= 1.50D-06  0.00D+00 EMaxC= 1.00D-01 BMatC= 7.15D-10 BMatP= 4.66D-09
 IDIUse=1 WtCom= 1.00D+00 WtEn= 0.00D+00
 Coeff-Com: -0.903D-02 0.125D+00 0.209D+00 0.287D+00 0.389D+00
 Coeff:     -0.903D-02 0.125D+00 0.209D+00 0.287D+00 0.389D+00
 Gap=     0.152 Goal=   None    Shift=    0.000
 RMSDP=8.30D-08 MaxDP=7.33D-06 DE=-3.28D-09 OVMax= 1.51D-05

 Cycle  14  Pass 1  IDiag  1:
 E= -606.661355064718     Delta-E=       -0.000000000478 Rises=F Damp=F
 DIIS: error= 4.71D-07 at cycle   6 NSaved=   6.
 NSaved= 6 IEnMin= 6 EnMin= -606.661355064718     IErMin= 6 ErrMin= 4.71D-07
 ErrMax= 4.71D-07  0.00D+00 EMaxC= 1.00D-01 BMatC= 8.16D-11 BMatP= 7.15D-10
 IDIUse=1 WtCom= 1.00D+00 WtEn= 0.00D+00
 Coeff-Com: -0.432D-02 0.500D-01 0.867D-01 0.134D+00 0.275D+00 0.459D+00
 Coeff:     -0.432D-02 0.500D-01 0.867D-01 0.134D+00 0.275D+00 0.459D+00
 Gap=     0.152 Goal=   None    Shift=    0.000
 RMSDP=2.30D-08 MaxDP=2.07D-06 DE=-4.78D-10 OVMax= 3.88D-06

 Cycle  15  Pass 1  IDiag  1:
 E= -606.661355064832     Delta-E=       -0.000000000114 Rises=F Damp=F
 DIIS: error= 6.08D-08 at cycle   7 NSaved=   7.
 NSaved= 7 IEnMin= 7 EnMin= -606.661355064832     IErMin= 7 ErrMin= 6.08D-08
 ErrMax= 6.08D-08  0.00D+00 EMaxC= 1.00D-01 BMatC= 3.33D-12 BMatP= 8.16D-11
 IDIUse=1 WtCom= 1.00D+00 WtEn= 0.00D+00
 Coeff-Com: -0.702D-03 0.498D-02 0.962D-02 0.178D-01 0.686D-01 0.216D+00
 Coeff-Com:  0.684D+00
 Coeff:     -0.702D-03 0.498D-02 0.962D-02 0.178D-01 0.686D-01 0.216D+00
 Coeff:      0.684D+00
 Gap=     0.152 Goal=   None    Shift=    0.000
 RMSDP=5.19D-09 MaxDP=2.50D-07 DE=-1.14D-10 OVMax= 4.80D-07

 SCF Done:  E(RB3LYP) =  -606.661355065     A.U. after   15 cycles
            NFock= 15  Conv=0.52D-08     -V/T= 2.0062
 KE= 6.028942946100D+02 PE=-2.808318588798D+03 EE= 9.035220743773D+02
 Leave Link  502 at Wed Aug 25 17:58:58 2021, MaxMem= 24159191040 cpu:       387.6
 (Enter /public/home/users/caep010/software/Gaussian09/g09/l801.exe)
 DoSCS=F DFT=T ScalE2(SS,OS)=  1.000000  1.000000
 Range of M.O.s used for correlation:     1   376
 NBasis=   376 NAE=    44 NBE=    44 NFC=     0 NFV=     0
 NROrb=    376 NOA=    44 NOB=    44 NVA=   332 NVB=   332

 **** Warning!!: The largest alpha MO coefficient is  0.38107704D+02

 Leave Link  801 at Wed Aug 25 17:58:58 2021, MaxMem= 24159191040 cpu:         0.6
 (Enter /public/home/users/caep010/software/Gaussian09/g09/l1101.exe)
 Using compressed storage, NAtomX=    20.
 Will process     21 centers per pass.
 Leave Link 1101 at Wed Aug 25 17:58:59 2021, MaxMem= 24159191040 cpu:        22.2
 (Enter /public/home/users/caep010/software/Gaussian09/g09/l1102.exe)
 Symmetrizing basis deriv contribution to polar:
 IMax=3 JMax=2 DiffMx= 0.00D+00
 Leave Link 1102 at Wed Aug 25 17:58:59 2021, MaxMem= 24159191040 cpu:         1.3
 (Enter /public/home/users/caep010/software/Gaussian09/g09/l1110.exe)
 Forming Gx(P) for the SCF density, NAtomX=    20.
 Integral derivatives from FoFJK, PRISM(SPDF).
 Do as many integral derivatives as possible in FoFJK.
 G2DrvN: MDV=   24159190776.
 G2DrvN: will do    21 centers at a time, making    1 passes.
 Calling FoFCou, ICntrl=  3107 FMM=F I1Cent=   0 AccDes= 0.00D+00.
 FoFJK:  IHMeth= 1 ICntrl=    3107 DoSepK=F KAlg= 0 I1Cent=   0 FoldK=F
 IRaf=         0 NMat=   1 IRICut=       1 DoRegI=T DoRafI=F ISym2E= 0.
 FoFCou: FMM=F IPFlag=           0 FMFlag=      100000 FMFlg1=           0
         NFxFlg=           0 DoJE=F BraDBF=F KetDBF=F FulRan=T
         wScrn=  0.000000 ICntrl=    3107 IOpCl=  0 I1Cent=           0 NGrid=           0
         NMat0=    1 NMatS0=      1 NMatT0=    0 NMatD0=    1 NMtDS0=    0 NMtDT0=    0
 Symmetry not used in FoFCou.
 End of G2Drv F.D. properties file   721 does not exist.
 End of G2Drv F.D. properties file   722 does not exist.
 End of G2Drv F.D. properties file   788 does not exist.
 Leave Link 1110 at Wed Aug 25 17:59:24 2021, MaxMem= 24159191040 cpu:       788.2
 (Enter /public/home/users/caep010/software/Gaussian09/g09/l1002.exe)
 Minotr:  Closed shell wavefunction.
          IDoAtm=11111111111111111111
          Direct CPHF calculation.
          Differentiating once with respect to nuclear coordinates.
          Requested convergence is 1.0D-08 RMS, and 1.0D-07 maximum.
          Secondary convergence is 1.0D-12 RMS, and 1.0D-12 maximum.
          NewPWx=T KeepS1=F KeepF1=F KeepIn=T MapXYZ=F SortEE=F KeepMc=T.
          MDV=   24159190460 using IRadAn=       2.
 Generate precomputed XC quadrature information.
 Keep R1 ints in memory in canonical form, NReq=2546968657.
 FoFCou: FMM=F IPFlag=           0 FMFlag=           0 FMFlg1=           0
         NFxFlg=           0 DoJE=F BraDBF=F KetDBF=F FulRan=T
         wScrn=  0.000000 ICntrl=     600 IOpCl=  0 I1Cent=           0 NGrid=           0
         NMat0=    1 NMatS0=  70876 NMatT0=    0 NMatD0=    1 NMtDS0=    0 NMtDT0=    0
 Symmetry not used in FoFCou.
          Solving linear equations simultaneously, MaxMat=       0.
          There are    63 degrees of freedom in the 1st order CPHF.  IDoFFX=6 NUNeed=     0.
     57 vectors produced by pass  0 Test12= 2.32D-14 1.59D-09 XBig12= 2.56D-01 2.19D-01.
 AX will form    57 AO Fock derivatives at one time.
     57 vectors produced by pass  1 Test12= 2.32D-14 1.59D-09 XBig12= 4.71D-02 7.04D-02.
     57 vectors produced by pass  2 Test12= 2.32D-14 1.59D-09 XBig12= 6.34D-04 3.74D-03.
     57 vectors produced by pass  3 Test12= 2.32D-14 1.59D-09 XBig12= 3.37D-06 2.85D-04.
     57 vectors produced by pass  4 Test12= 2.32D-14 1.59D-09 XBig12= 1.11D-08 1.32D-05.
     54 vectors produced by pass  5 Test12= 2.32D-14 1.59D-09 XBig12= 1.47D-11 5.17D-07.
     22 vectors produced by pass  6 Test12= 2.32D-14 1.59D-09 XBig12= 1.79D-14 2.24D-08.
 InvSVY:  IOpt=1 It=  1 EMax= 5.00D-16
 Solved reduced A of dimension   361 with    63 vectors.
 End of Minotr F.D. properties file   721 does not exist.
 End of Minotr F.D. properties file   722 does not exist.
 End of Minotr F.D. properties file   788 does not exist.
 Leave Link 1002 at Wed Aug 25 18:00:08 2021, MaxMem= 24159191040 cpu:      1373.8
 (Enter /public/home/users/caep010/software/Gaussian09/g09/l601.exe)
 Copying SCF densities to generalized density rwf, IOpCl= 0 IROHF=0.

 **********************************************************************

            Population analysis using the SCF density.

 **********************************************************************

 Orbital symmetries:
       Occupied  (A) (A) (A) (A) (A) (A) (A) (A) (A) (A) (A) (A)
                 (A) (A) (A) (A) (A) (A) (A) (A) (A) (A) (A) (A)
                 (A) (A) (A) (A) (A) (A) (A) (A) (A) (A) (A) (A)
                 (A) (A) (A) (A) (A) (A) (A) (A)
       Virtual   (A) (A) (A) (A) (A) (A) (A) (A) (A) (A) (A) (A)
                 (A) (A) (A) (A) (A) (A) (A) (A) (A) (A) (A) (A)
                 (A) (A) (A) (A) (A) (A) (A) (A) (A) (A) (A) (A)
                 (A) (A) (A) (A) (A) (A) (A) (A) (A) (A) (A) (A)
                 (A) (A) (A) (A) (A) (A) (A) (A) (A) (A) (A) (A)
                 (A) (A) (A) (A) (A) (A) (A) (A) (A) (A) (A) (A)
                 (A) (A) (A) (A) (A) (A) (A) (A) (A) (A) (A) (A)
                 (A) (A) (A) (A) (A) (A) (A) (A) (A) (A) (A) (A)
                 (A) (A) (A) (A) (A) (A) (A) (A) (A) (A) (A) (A)
                 (A) (A) (A) (A) (A) (A) (A) (A) (A) (A) (A) (A)
                 (A) (A) (A) (A) (A) (A) (A) (A) (A) (A) (A) (A)
                 (A) (A) (A) (A) (A) (A) (A) (A) (A) (A) (A) (A)
                 (A) (A) (A) (A) (A) (A) (A) (A) (A) (A) (A) (A)
                 (A) (A) (A) (A) (A) (A) (A) (A) (A) (A) (A) (A)
                 (A) (A) (A) (A) (A) (A) (A) (A) (A) (A) (A) (A)
                 (A) (A) (A) (A) (A) (A) (A) (A) (A) (A) (A) (A)
                 (A) (A) (A) (A) (A) (A) (A) (A) (A) (A) (A) (A)
                 (A) (A) (A) (A) (A) (A) (A) (A) (A) (A) (A) (A)
                 (A) (A) (A) (A) (A) (A) (A) (A) (A) (A) (A) (A)
                 (A) (A) (A) (A) (A) (A) (A) (A) (A) (A) (A) (A)
                 (A) (A) (A) (A) (A) (A) (A) (A) (A) (A) (A) (A)
                 (A) (A) (A) (A) (A) (A) (A) (A) (A) (A) (A) (A)
                 (A) (A) (A) (A) (A) (A) (A) (A) (A) (A) (A) (A)
                 (A) (A) (A) (A) (A) (A) (A) (A) (A) (A) (A) (A)
                 (A) (A) (A) (A) (A) (A) (A) (A) (A) (A) (A) (A)
                 (A) (A) (A) (A) (A) (A) (A) (A) (A) (A) (A) (A)
                 (A) (A) (A) (A) (A) (A) (A) (A) (A) (A) (A) (A)
                 (A) (A) (A) (A) (A) (A) (A) (A)
 The electronic state is 1-A.
 Alpha  occ. eigenvalues --  -19.18113 -19.14563 -19.14535 -14.54155 -14.36281
 Alpha  occ. eigenvalues --  -10.25150 -10.25046 -10.23699 -10.22874 -10.20145
 Alpha  occ. eigenvalues --  -10.19710 -10.19538  -1.19391  -1.05944  -1.01329
 Alpha  occ. eigenvalues --   -0.95569  -0.87734  -0.78544  -0.77287  -0.71855
 Alpha  occ. eigenvalues --   -0.68411  -0.63438  -0.59424  -0.56087  -0.55254
 Alpha  occ. eigenvalues --   -0.52556  -0.50589  -0.49792  -0.48828  -0.47981
 Alpha  occ. eigenvalues --   -0.47277  -0.45568  -0.43074  -0.42232  -0.41327
 Alpha  occ. eigenvalues --   -0.37601  -0.35979  -0.33950  -0.32340  -0.29015
 Alpha  occ. eigenvalues --   -0.28329  -0.26140  -0.25841  -0.21717
 Alpha virt. eigenvalues --   -0.06542  -0.00859   0.02984   0.06082   0.07994
 Alpha virt. eigenvalues --    0.10021   0.12654   0.13165   0.14650   0.15691
 Alpha virt. eigenvalues --    0.17230   0.17687   0.18369   0.21530   0.23902
 Alpha virt. eigenvalues --    0.26161   0.27925   0.29849   0.33069   0.33351
 Alpha virt. eigenvalues --    0.35045   0.37792   0.38968   0.39901   0.43150
 Alpha virt. eigenvalues --    0.45277   0.45624   0.46984   0.47671   0.49153
 Alpha virt. eigenvalues --    0.50075   0.50700   0.52118   0.52453   0.53716
 Alpha virt. eigenvalues --    0.55746   0.57356   0.59986   0.60333   0.61234
 Alpha virt. eigenvalues --    0.61533   0.64217   0.65599   0.67339   0.67899
 Alpha virt. eigenvalues --    0.68992   0.70964   0.71749   0.72330   0.73029
 Alpha virt. eigenvalues --    0.73275   0.75693   0.76481   0.77782   0.78701
 Alpha virt. eigenvalues --    0.78998   0.79667   0.81197   0.81557   0.82553
 Alpha virt. eigenvalues --    0.82908   0.85285   0.86323   0.88084   0.89849
 Alpha virt. eigenvalues --    0.90243   0.91608   0.92335   0.93284   0.93852
 Alpha virt. eigenvalues --    0.95589   0.96098   0.96267   0.98725   0.99985
 Alpha virt. eigenvalues --    1.02163   1.03413   1.03893   1.06806   1.07544
 Alpha virt. eigenvalues --    1.12050   1.13331   1.16859   1.17783   1.19713
 Alpha virt. eigenvalues --    1.21899   1.22505   1.24230   1.25487   1.28830
 Alpha virt. eigenvalues --    1.30959   1.33356   1.33974   1.35493   1.37092
 Alpha virt. eigenvalues --    1.38236   1.39813   1.40656   1.42120   1.42755
 Alpha virt. eigenvalues --    1.44731   1.45135   1.46068   1.49096   1.50871
 Alpha virt. eigenvalues --    1.52990   1.54551   1.56600   1.58010   1.60187
 Alpha virt. eigenvalues --    1.62382   1.62847   1.65825   1.68470   1.68960
 Alpha virt. eigenvalues --    1.70654   1.71435   1.72798   1.75019   1.76878
 Alpha virt. eigenvalues --    1.78935   1.81097   1.83089   1.85181   1.88789
 Alpha virt. eigenvalues --    1.88930   1.89436   1.94241   1.96708   1.97394
 Alpha virt. eigenvalues --    2.01355   2.04955   2.07212   2.14061   2.15742
 Alpha virt. eigenvalues --    2.19568   2.20793   2.23321   2.23772   2.25768
 Alpha virt. eigenvalues --    2.25885   2.31007   2.32853   2.33361   2.36439
 Alpha virt. eigenvalues --    2.42889   2.43367   2.46021   2.50863   2.55187
 Alpha virt. eigenvalues --    2.56621   2.71673   2.72591   2.74783   2.78456
 Alpha virt. eigenvalues --    2.79361   2.84569   2.85585   2.85749   2.86959
 Alpha virt. eigenvalues --    2.89714   2.93352   2.94384   2.95675   2.97851
 Alpha virt. eigenvalues --    2.99410   3.01538   3.03427   3.04404   3.07904
 Alpha virt. eigenvalues --    3.09191   3.09660   3.10709   3.12398   3.13468
 Alpha virt. eigenvalues --    3.14234   3.14970   3.17083   3.20318   3.22665
 Alpha virt. eigenvalues --    3.26313   3.27649   3.28889   3.31469   3.37129
 Alpha virt. eigenvalues --    3.37630   3.39824   3.40087   3.42135   3.44376
 Alpha virt. eigenvalues --    3.45561   3.45713   3.47345   3.48776   3.50359
 Alpha virt. eigenvalues --    3.53611   3.54747   3.60544   3.60995   3.61666
 Alpha virt. eigenvalues --    3.65307   3.67089   3.69315   3.69863   3.73322
 Alpha virt. eigenvalues --    3.74062   3.77172   3.79492   3.80379   3.83564
 Alpha virt. eigenvalues --    3.85686   3.90681   3.92681   3.96207   3.98347
 Alpha virt. eigenvalues --    4.00623   4.05929   4.06198   4.07260   4.08008
 Alpha virt. eigenvalues --    4.08536   4.13038   4.14531   4.16462   4.18036
 Alpha virt. eigenvalues --    4.19427   4.21920   4.23703   4.26300   4.28648
 Alpha virt. eigenvalues --    4.29596   4.31440   4.32487   4.33698   4.35944
 Alpha virt. eigenvalues --    4.36978   4.37957   4.40715   4.41055   4.41742
 Alpha virt. eigenvalues --    4.43949   4.45674   4.46593   4.47803   4.50941
 Alpha virt. eigenvalues --    4.51153   4.52584   4.54204   4.55416   4.55809
 Alpha virt. eigenvalues --    4.56817   4.58347   4.59697   4.61124   4.62264
 Alpha virt. eigenvalues --    4.64262   4.65806   4.66421   4.69061   4.70259
 Alpha virt. eigenvalues --    4.73655   4.75960   4.76538   4.78303   4.80762
 Alpha virt. eigenvalues --    4.84530   4.85635   4.90550   4.91420   4.92536
 Alpha virt. eigenvalues --    4.98484   4.99396   5.01966   5.05990   5.06380
 Alpha virt. eigenvalues --    5.07936   5.10404   5.10694   5.14211   5.16282
 Alpha virt. eigenvalues --    5.17321   5.20624   5.25755   5.27125   5.33610
 Alpha virt. eigenvalues --    5.34079   5.38660   5.39376   5.42024   5.46466
 Alpha virt. eigenvalues --    5.54263   5.56562   5.62765   5.63299   5.66804
 Alpha virt. eigenvalues --    5.68351   5.73240   5.79840   5.83337   5.86383
 Alpha virt. eigenvalues --    5.87727   5.92318   5.95854   5.98042   6.01848
 Alpha virt. eigenvalues --    6.03918   6.08465   6.18525   6.24063   6.26327
 Alpha virt. eigenvalues --    6.34639   6.36369   6.53799   6.72276   6.93929
 Alpha virt. eigenvalues --    7.02501   7.08617   8.94668   9.68425  10.60712
 Alpha virt. eigenvalues --   10.69543  11.22598  11.31085  11.32372  11.61305
 Alpha virt. eigenvalues --   11.81863  12.85668  12.97955  13.20566  13.49853
 Alpha virt. eigenvalues --   14.57361  16.69218
          Condensed to atoms (all electrons):
               1          2          3          4          5          6
     1  C    4.522810   0.463823  -0.002058  -0.050348   0.000335   0.515190
     2  C    0.463823   4.613595   0.415347  -0.016813  -0.044256   0.001870
     3  C   -0.002058   0.415347   5.338488   0.368814  -0.043229  -0.076215
     4  C   -0.050348  -0.016813   0.368814   4.946601   0.431714  -0.001890
     5  C    0.000335  -0.044256  -0.043229   0.431714   4.952494   0.519596
     6  C    0.515190   0.001870  -0.076215  -0.001890   0.519596   4.966197
     7  N    0.399156  -0.045721   0.004396   0.000600   0.002403  -0.048985
     8  H   -0.029993   0.003835   0.000009  -0.000059   0.000021  -0.005771
     9  H   -0.039602   0.003081   0.001430   0.000914  -0.023196   0.359619
    10  O   -0.045069   0.421268  -0.049588   0.003674   0.000084   0.001660
    11  C    0.001453  -0.107973   0.002736   0.001615   0.000034  -0.000072
    12  N    0.000110   0.001045  -0.021964   0.356613  -0.021176   0.002023
    13  O    0.000021   0.001217   0.000301  -0.121814   0.010185  -0.000007
    14  H   -0.032272  -0.010124   0.000541  -0.000087  -0.000015   0.004745
    15  H    0.003051   0.001289   0.004842  -0.029006   0.345080  -0.033198
    16  H    0.004404  -0.034481   0.334195  -0.030171   0.004480   0.000969
    17  O    0.000008   0.000033   0.008721  -0.128152   0.005508   0.001184
    18  H    0.000048   0.004583  -0.000211  -0.000029  -0.000000   0.000005
    19  H   -0.001270  -0.019868   0.008032   0.000767  -0.000007  -0.000003
    20  H    0.002099   0.004002   0.003953  -0.000180  -0.000002  -0.000070
               7          8          9         10         11         12
     1  C    0.399156  -0.029993  -0.039602  -0.045069   0.001453   0.000110
     2  C   -0.045721   0.003835   0.003081   0.421268  -0.107973   0.001045
     3  C    0.004396   0.000009   0.001430  -0.049588   0.002736  -0.021964
     4  C    0.000600  -0.000059   0.000914   0.003674   0.001615   0.356613
     5  C    0.002403   0.000021  -0.023196   0.000084   0.000034  -0.021176
     6  C   -0.048985  -0.005771   0.359619   0.001660  -0.000072   0.002023
     7  N    6.581654   0.357075  -0.008982  -0.003680  -0.000097   0.000000
     8  H    0.357075   0.433120   0.005507   0.000139   0.000001  -0.000000
     9  H   -0.008982   0.005507   0.609446  -0.000014   0.000004  -0.000046
    10  O   -0.003680   0.000139  -0.000014   7.698998   0.367001  -0.000014
    11  C   -0.000097   0.000001   0.000004   0.367001   4.842501  -0.000032
    12  N    0.000000  -0.000000  -0.000046  -0.000014  -0.000032   5.254206
    13  O   -0.000000   0.000000   0.000001  -0.000001   0.000024   0.537311
    14  H    0.354070  -0.027114  -0.000207   0.016816  -0.000642   0.000000
    15  H   -0.000074  -0.000012  -0.006082   0.000001  -0.000000  -0.011294
    16  H   -0.000062   0.000005   0.000027  -0.009282  -0.000256  -0.008677
    17  O   -0.000000   0.000000  -0.000001  -0.000000  -0.000000   0.549555
    18  H   -0.000018  -0.000000  -0.000000  -0.018100   0.381205  -0.000000
    19  H    0.000038   0.000000  -0.000000  -0.029044   0.383565   0.000010
    20  H   -0.000028   0.000001   0.000000  -0.032346   0.376849  -0.000003
              13         14         15         16         17         18
     1  C    0.000021  -0.032272   0.003051   0.004404   0.000008   0.000048
     2  C    0.001217  -0.010124   0.001289  -0.034481   0.000033   0.004583
     3  C    0.000301   0.000541   0.004842   0.334195   0.008721  -0.000211
     4  C   -0.121814  -0.000087  -0.029006  -0.030171  -0.128152  -0.000029
     5  C    0.010185  -0.000015   0.345080   0.004480   0.005508  -0.000000
     6  C   -0.000007   0.004745  -0.033198   0.000969   0.001184   0.000005
     7  N   -0.000000   0.354070  -0.000074  -0.000062  -0.000000  -0.000018
     8  H    0.000000  -0.027114  -0.000012   0.000005   0.000000  -0.000000
     9  H    0.000001  -0.000207  -0.006082   0.000027  -0.000001  -0.000000
    10  O   -0.000001   0.016816   0.000001  -0.009282  -0.000000  -0.018100
    11  C    0.000024  -0.000642  -0.000000  -0.000256  -0.000000   0.381205
    12  N    0.537311   0.000000  -0.011294  -0.008677   0.549555  -0.000000
    13  O    8.057753   0.000000   0.000448   0.026093  -0.125046  -0.000000
    14  H    0.000000   0.420713   0.000004  -0.000001  -0.000000  -0.000023
    15  H    0.000448   0.000004   0.569778  -0.000208   0.021828  -0.000000
    16  H    0.026093  -0.000001  -0.000208   0.576260   0.000453  -0.000197
    17  O   -0.125046  -0.000000   0.021828   0.000453   8.045141  -0.000000
    18  H   -0.000000  -0.000023  -0.000000  -0.000197  -0.000000   0.566922
    19  H   -0.000214   0.000072   0.000000  -0.001776  -0.000000  -0.032190
    20  H    0.000004  -0.000021  -0.000000   0.002079   0.000000  -0.033981
              19         20
     1  C   -0.001270   0.002099
     2  C   -0.019868   0.004002
     3  C    0.008032   0.003953
     4  C    0.000767  -0.000180
     5  C   -0.000007  -0.000002
     6  C   -0.000003  -0.000070
     7  N    0.000038  -0.000028
     8  H    0.000000   0.000001
     9  H   -0.000000   0.000000
    10  O   -0.029044  -0.032346
    11  C    0.383565   0.376849
    12  N    0.000010  -0.000003
    13  O   -0.000214   0.000004
    14  H    0.000072  -0.000021
    15  H    0.000000  -0.000000
    16  H   -0.001776   0.002079
    17  O   -0.000000   0.000000
    18  H   -0.032190  -0.033981
    19  H    0.599590  -0.052050
    20  H   -0.052050   0.599425
 Mulliken charges:
               1
     1  C    0.288105
     2  C    0.344247
     3  C   -0.298542
     4  C    0.267236
     5  C   -0.140052
     6  C   -0.206845
     7  N   -0.591745
     8  H    0.263235
     9  H    0.098102
    10  O   -0.322504
    11  C   -0.247918
    12  N    0.362335
    13  O   -0.386275
    14  H    0.273546
    15  H    0.133552
    16  H    0.136145
    17  O   -0.379231
    18  H    0.131987
    19  H    0.144348
    20  H    0.130271
 Sum of Mulliken charges =  -0.00000
 Mulliken charges with hydrogens summed into heavy atoms:
               1
     1  C    0.288105
     2  C    0.344247
     3  C   -0.162396
     4  C    0.267236
     5  C   -0.006500
     6  C   -0.108744
     7  N   -0.054964
    10  O   -0.322504
    11  C    0.158689
    12  N    0.362335
    13  O   -0.386275
    17  O   -0.379231
 APT charges:
               1
     1  C   -0.156536
     2  C   -0.214603
     3  C   -0.486536
     4  C   -0.265053
     5  C   -0.450167
     6  C   -0.382742
     7  N   -0.994103
     8  H    0.817121
     9  H    0.584429
    10  O   -0.040973
    11  C   -0.972893
    12  N   -1.281921
    13  O    0.401011
    14  H    0.641093
    15  H    0.543402
    16  H    0.385080
    17  O    0.692561
    18  H    0.759161
    19  H    0.169358
    20  H    0.252314
 Sum of APT charges =  -0.00000
 APT charges with hydrogens summed into heavy atoms:
               1
     1  C   -0.156536
     2  C   -0.214603
     3  C   -0.101457
     4  C   -0.265053
     5  C    0.093235
     6  C    0.201686
     7  N    0.464111
    10  O   -0.040973
    11  C    0.207939
    12  N   -1.281921
    13  O    0.401011
    17  O    0.692561
 Electronic spatial extent (au):  <R**2>=           2190.7638
 Charge=             -0.0000 electrons
 Dipole moment (field-independent basis, Debye):
    X=             -6.6617    Y=             -1.7117    Z=              0.6491  Tot=              6.9086
 Quadrupole moment (field-independent basis, Debye-Ang):
   XX=            -76.1204   YY=            -57.3271   ZZ=            -69.0636
   XY=              0.6606   XZ=             -1.4107   YZ=              0.8624
 Traceless Quadrupole moment (field-independent basis, Debye-Ang):
   XX=             -8.6167   YY=             10.1766   ZZ=             -1.5599
   XY=              0.6606   XZ=             -1.4107   YZ=              0.8624
 Octapole moment (field-independent basis, Debye-Ang**2):
  XXX=            -86.4042  YYY=             -6.9988  ZZZ=             -0.1795  XYY=            -29.4843
  XXY=            -19.4220  XXZ=              2.0995  XZZ=              7.5888  YZZ=              5.7902
  YYZ=              3.6375  XYZ=             -1.5561
 Hexadecapole moment (field-independent basis, Debye-Ang**3):
 XXXX=          -1788.0623 YYYY=           -772.8103 ZZZZ=            -78.2234 XXXY=             50.9567
 XXXZ=             -4.6406 YYYX=              5.6766 YYYZ=             -4.1019 ZZZX=              0.3108
 ZZZY=              0.4625 XXYY=           -387.8510 XXZZ=           -298.7194 YYZZ=           -167.8302
 XXYZ=              7.4130 YYXZ=             -5.1323 ZZXY=             -0.3501
 N-N= 6.952408647456D+02 E-N=-2.808318608819D+03  KE= 6.028942946100D+02
  Exact polarizability:   0.000   0.000   0.000   0.000   0.000   0.000
 Approx polarizability: 263.678  17.452 207.074   4.102  -8.868  77.485
 No NMR shielding tensors so no spin-rotation constants.
 Leave Link  601 at Wed Aug 25 18:00:08 2021, MaxMem= 24159191040 cpu:        15.7
 (Enter /public/home/users/caep010/software/Gaussian09/g09/l701.exe)
 Compute integral second derivatives.
 ... and contract with generalized density number  0.
 Leave Link  701 at Wed Aug 25 18:00:09 2021, MaxMem= 24159191040 cpu:        21.7
 (Enter /public/home/users/caep010/software/Gaussian09/g09/l702.exe)
 L702 exits ... SP integral derivatives will be done elsewhere.
 Leave Link  702 at Wed Aug 25 18:00:09 2021, MaxMem= 24159191040 cpu:         0.7
 (Enter /public/home/users/caep010/software/Gaussian09/g09/l703.exe)
 Compute integral second derivatives, UseDBF=F ICtDFT=           0.
 Integral derivatives from FoFJK, PRISM(SPDF).
 Calling FoFJK, ICntrl=    100147 FMM=F ISym2X=0 I1Cent= 0 IOpClX= 0 NMat=1 NMatS=1 NMatT=0.
 FoFJK:  IHMeth= 1 ICntrl=  100147 DoSepK=F KAlg= 0 I1Cent=   0 FoldK=F
 IRaf=         0 NMat=   1 IRICut=       1 DoRegI=T DoRafI=F ISym2E= 0.
 FoFCou: FMM=F IPFlag=           0 FMFlag=      100000 FMFlg1=         800
         NFxFlg=           0 DoJE=F BraDBF=F KetDBF=F FulRan=T
         wScrn=  0.000000 ICntrl=  100147 IOpCl=  0 I1Cent=           0 NGrid=           0
         NMat0=    1 NMatS0=      1 NMatT0=    0 NMatD0=    1 NMtDS0=    0 NMtDT0=    0
 Symmetry not used in FoFCou.
 Leave Link  703 at Wed Aug 25 18:00:55 2021, MaxMem= 24159191040 cpu:      1436.9
 (Enter /public/home/users/caep010/software/Gaussian09/g09/l716.exe)
 Dipole        =-2.62089729D+00-6.73416225D-01 2.55368964D-01
 Polarizability= 0.00000000D+00 0.00000000D+00 0.00000000D+00
                 0.00000000D+00 0.00000000D+00 0.00000000D+00
 ***** Axes restored to original set *****
 -------------------------------------------------------------------
 Center     Atomic                   Forces (Hartrees/Bohr)
 Number     Number              X              Y              Z
 -------------------------------------------------------------------
      1        6           0.002771779    0.002120063    0.007735008
      2        6           0.003508566   -0.035960705   -0.008314165
      3        6          -0.004987248    0.024529049   -0.015703597
      4        6          -0.006284065   -0.007757173   -0.032852285
      5        6          -0.000781253    0.026198010    0.005967311
      6        6           0.002208531   -0.014271737    0.001934586
      7        7           0.004318835   -0.013652720    0.013416363
      8        1           0.001057374   -0.001799013    0.003617550
      9        1           0.001958329    0.002130800    0.010053714
     10        8          -0.006073393    0.032246524    0.010625987
     11        6           0.012471504   -0.002264536    0.011682598
     12        7          -0.005806772    0.014014230   -0.019341021
     13        8           0.004449368   -0.013634726    0.014288911
     14        1           0.000274025   -0.004059362    0.000849163
     15        1          -0.001381836    0.009581097   -0.001343355
     16        1          -0.001287812    0.007129132   -0.006482320
     17        8           0.004787145   -0.011528086    0.016164066
     18        1           0.005060327   -0.014950655    0.001817138
     19        1           0.001414763   -0.002203665   -0.016176501
     20        1          -0.017678166    0.004133475    0.002060848
 -------------------------------------------------------------------
 Cartesian Forces:  Max     0.035960705 RMS     0.012196688
 FormGI is forming the generalized inverse of G from B-inverse, IUseBI=4.
 Leave Link  716 at Wed Aug 25 18:00:55 2021, MaxMem= 24159191040 cpu:         1.3
 (Enter /public/home/users/caep010/software/Gaussian09/g09/l103.exe)

 GradGradGradGradGradGradGradGradGradGradGradGradGradGradGradGradGradGrad
 Berny optimization.
 Red2BG is reusing G-inverse.
 Internal  Forces:  Max     0.064988860 RMS     0.013117232
 Search for a local minimum.
 Step number   1 out of a maximum of   98
 All quantities printed in internal units (Hartrees-Bohrs-Radians)
 RMS Force = .13117D-01 SwitMx=.10000D-02 MixMth= 1
 Mixed Optimization -- RFO/linear search
 Second derivative matrix not updated -- analytic derivatives used.
 ITU=  0
     Eigenvalues ---   -0.02204  -0.00159   0.00666   0.00681   0.01148
     Eigenvalues ---    0.01619   0.01692   0.01722   0.01897   0.02289
     Eigenvalues ---    0.02583   0.02722   0.02930   0.03277   0.08791
     Eigenvalues ---    0.08832   0.10750   0.10792   0.10833   0.11266
     Eigenvalues ---    0.12106   0.12768   0.13099   0.16544   0.16905
     Eigenvalues ---    0.17551   0.19073   0.19273   0.21009   0.21821
     Eigenvalues ---    0.24028   0.24371   0.26595   0.28764   0.34426
     Eigenvalues ---    0.35303   0.38218   0.38549   0.38768   0.38961
     Eigenvalues ---    0.39223   0.39883   0.40057   0.43085   0.45592
     Eigenvalues ---    0.46427   0.49680   0.50245   0.52945   0.54346
     Eigenvalues ---    0.57441   0.58985   0.73910   0.90947
 Eigenvalue     1 is  -2.20D-02 should be greater than     0.000000 Eigenvector:
                          D18       D17       D14       D36       D37
   1                    0.72516   0.65104   0.08625   0.07944   0.07249
                          D35       D21       A6        D1        A22
   1                    0.05852  -0.05673   0.05023  -0.04721   0.04614
 Eigenvalue     2 is  -1.59D-03 should be greater than     0.000000 Eigenvector:
                          D11       D9        D10       D12       D4
   1                    0.57169   0.52278  -0.46115  -0.41224   0.07164
                          D3        D7        D8        D2        D15
   1                    0.06210  -0.06124  -0.05203   0.02306  -0.01452
 RFO step:  Lambda=-3.28906671D-02 EMin=-2.20410959D-02
 Linear search not attempted -- first point.
 Maximum step size (   0.300) exceeded in Quadratic search.
    -- Step size scaled by   0.911
 Iteration  1 RMS(Cart)=  0.14110574 RMS(Int)=  0.04426968
 Iteration  2 RMS(Cart)=  0.10080130 RMS(Int)=  0.01312693
 Iteration  3 RMS(Cart)=  0.02882334 RMS(Int)=  0.00511690
 Iteration  4 RMS(Cart)=  0.00093114 RMS(Int)=  0.00508370
 Iteration  5 RMS(Cart)=  0.00000071 RMS(Int)=  0.00508370
 ITry= 1 IFail=0 DXMaxC= 1.06D+00 DCOld= 1.00D+10 DXMaxT= 3.00D-01 DXLimC= 3.00D+00 Rises=F
 Variable       Old X    -DE/DX   Delta X   Delta X   Delta X     New X
                                 (Linear)    (Quad)   (Total)
    R1        2.64230   0.01510   0.00000   0.03500   0.03493   2.67723
    R2        2.64530   0.00833   0.00000   0.00041   0.00039   2.64569
    R3        2.52784   0.02664   0.00000   0.03735   0.03735   2.56519
    R4        2.55798   0.03359   0.00000   0.04155   0.04152   2.59950
    R5        2.70228  -0.01837   0.00000  -0.12988  -0.12988   2.57240
    R6        2.65151  -0.00417   0.00000  -0.00186  -0.00184   2.64967
    R7        2.02204   0.00328   0.00000   0.01274   0.01274   2.03478
    R8        2.56704   0.02721   0.00000   0.04246   0.04252   2.60955
    R9        2.77782  -0.01598   0.00000  -0.03070  -0.03070   2.74712
   R10        2.56396   0.02808   0.00000   0.04695   0.04699   2.61095
   R11        2.02201   0.00941   0.00000   0.01730   0.01730   2.03931
   R12        2.02192   0.01022   0.00000   0.02290   0.02290   2.04482
   R13        1.88969   0.00271   0.00000   0.00441   0.00441   1.89410
   R14        1.88984   0.00393   0.00000   0.00501   0.00501   1.89485
   R15        2.70230   0.00389   0.00000  -0.03006  -0.03006   2.67223
   R16        2.02202   0.01485   0.00000   0.03040   0.03040   2.05242
   R17        2.02203   0.01309   0.00000   0.04841   0.04841   2.07043
   R18        2.02204   0.01807   0.00000   0.03900   0.03900   2.06104
   R19        2.33880  -0.00825   0.00000  -0.01249  -0.01249   2.32631
   R20        2.33873  -0.00958   0.00000  -0.01566  -0.01566   2.32307
    A1        2.08668  -0.00289   0.00000  -0.01138  -0.01156   2.07512
    A2        2.09833  -0.00638   0.00000  -0.02586  -0.02583   2.07250
    A3        2.09818   0.00927   0.00000   0.03724   0.03727   2.13546
    A4        2.08678   0.00317   0.00000   0.01486   0.01457   2.10135
    A5        2.09817  -0.04226   0.00000  -0.10883  -0.10885   1.98932
    A6        2.09824   0.03909   0.00000   0.09398   0.09387   2.19211
    A7        2.09447  -0.00257   0.00000  -0.01571  -0.01584   2.07863
    A8        2.09437   0.01050   0.00000   0.03865   0.03860   2.13297
    A9        2.09434  -0.00793   0.00000  -0.02295  -0.02300   2.07134
   A10        2.10204   0.00479   0.00000   0.01791   0.01794   2.11998
   A11        2.09057  -0.00580   0.00000  -0.01913  -0.01915   2.07142
   A12        2.09057   0.00101   0.00000   0.00122   0.00120   2.09177
   A13        2.10208  -0.00619   0.00000  -0.01918  -0.01914   2.08294
   A14        2.09055   0.00043   0.00000  -0.00402  -0.00407   2.08649
   A15        2.09055   0.00576   0.00000   0.02320   0.02316   2.11372
   A16        2.09433   0.00369   0.00000   0.01350   0.01347   2.10779
   A17        2.09447  -0.00409   0.00000  -0.01370  -0.01371   2.08077
   A18        2.09439   0.00040   0.00000   0.00020   0.00020   2.09459
   A19        2.09451   0.00318   0.00000   0.01374  -0.01219   2.08232
   A20        2.09434  -0.00035   0.00000  -0.00317  -0.02915   2.06519
   A21        2.09434  -0.00283   0.00000  -0.01059  -0.03908   2.05526
   A22        1.91054   0.06499   0.00000   0.11955   0.11955   2.03009
   A23        1.91058  -0.01313   0.00000  -0.04446  -0.04447   1.86611
   A24        1.91067   0.01252   0.00000   0.00894   0.00872   1.91939
   A25        1.91068   0.00516   0.00000   0.02717   0.02709   1.93777
   A26        1.91060  -0.00445   0.00000  -0.00434  -0.00451   1.90609
   A27        1.91060   0.00093   0.00000   0.01024   0.01039   1.92099
   A28        1.91067  -0.00103   0.00000   0.00245   0.00217   1.91284
   A29        2.09436  -0.01477   0.00000  -0.03200  -0.03200   2.06236
   A30        2.09445  -0.01371   0.00000  -0.02762  -0.02762   2.06683
   A31        2.09437   0.02848   0.00000   0.05962   0.05962   2.15399
    D1        0.00005   0.00053   0.00000  -0.03721  -0.03705  -0.03700
    D2        3.14152  -0.00103   0.00000  -0.00616  -0.00777   3.13374
    D3       -3.14155   0.00043   0.00000  -0.05342  -0.05281   3.08883
    D4       -0.00009  -0.00113   0.00000  -0.02237  -0.02353  -0.02362
    D5        0.00004  -0.00019   0.00000   0.01918   0.01859   0.01863
    D6        3.14150  -0.00026   0.00000   0.00942   0.00915  -3.13253
    D7       -3.14154  -0.00009   0.00000   0.03538   0.03495  -3.10659
    D8       -0.00008  -0.00016   0.00000   0.02562   0.02551   0.02543
    D9       -3.14155  -0.00000   0.00000  -0.23912  -0.23397   2.90766
   D10        0.00009  -0.00017   0.00000   0.20017   0.19504   0.19513
   D11        0.00003  -0.00010   0.00000  -0.25543  -0.25030  -0.25027
   D12       -3.14151  -0.00027   0.00000   0.18386   0.17871  -2.96281
   D13       -0.00011  -0.00050   0.00000   0.03084   0.03104   0.03094
   D14        3.14156  -0.00094   0.00000   0.05381   0.05474  -3.08689
   D15       -3.14157   0.00107   0.00000  -0.00020  -0.00184   3.13978
   D16        0.00009   0.00063   0.00000   0.02277   0.02185   0.02195
   D17        2.61801  -0.00080   0.00000   0.44898   0.44908   3.06710
   D18       -0.52371  -0.00237   0.00000   0.48023   0.48013  -0.04358
   D19        0.00007   0.00012   0.00000  -0.00649  -0.00666  -0.00659
   D20       -3.14157   0.00011   0.00000  -0.00098  -0.00106   3.14056
   D21        3.14159   0.00056   0.00000  -0.02946  -0.02951   3.11209
   D22       -0.00005   0.00055   0.00000  -0.02395  -0.02390  -0.02395
   D23        0.00003   0.00023   0.00000  -0.01192  -0.01164  -0.01162
   D24        3.14153   0.00013   0.00000  -0.00197  -0.00193   3.13960
   D25       -3.14152   0.00024   0.00000  -0.01743  -0.01731   3.12436
   D26       -0.00001   0.00014   0.00000  -0.00749  -0.00760  -0.00761
   D27        0.00008   0.00005   0.00000  -0.00082  -0.00084  -0.00075
   D28       -3.14157   0.00005   0.00000  -0.00015  -0.00016   3.14145
   D29       -3.14156   0.00003   0.00000   0.00466   0.00467  -3.13688
   D30       -0.00003   0.00004   0.00000   0.00533   0.00535   0.00532
   D31       -0.00008  -0.00019   0.00000   0.00526   0.00528   0.00520
   D32       -3.14154  -0.00012   0.00000   0.01502   0.01480  -3.12675
   D33       -3.14159  -0.00009   0.00000  -0.00468  -0.00458   3.13701
   D34        0.00014  -0.00002   0.00000   0.00508   0.00493   0.00506
   D35       -3.14155   0.00347   0.00000   0.04240   0.04266  -3.09889
   D36        1.04729   0.00929   0.00000   0.06946   0.06954   1.11683
   D37       -1.04720  -0.00027   0.00000   0.04435   0.04400  -1.00320
         Item               Value     Threshold  Converged?
 Maximum Force            0.064989     0.000450     NO 
 RMS     Force            0.013117     0.000300     NO 
 Maximum Displacement     1.055513     0.001800     NO 
 RMS     Displacement     0.246101     0.001200     NO 
 Predicted change in Energy=-2.505667D-02
 Lowest energy point so far.  Saving SCF results.
 GradGradGradGradGradGradGradGradGradGradGradGradGradGradGradGradGradGrad

 Leave Link  103 at Wed Aug 25 18:00:55 2021, MaxMem= 24159191040 cpu:         4.5
 (Enter /public/home/users/caep010/software/Gaussian09/g09/l202.exe)
                          Input orientation:                          
 ---------------------------------------------------------------------
 Center     Atomic      Atomic             Coordinates (Angstroms)
 Number     Number       Type             X           Y           Z
 ---------------------------------------------------------------------
      1          6           0        5.455597    2.273076    7.596565
      2          6           0        5.089310    1.735163    6.338150
      3          6           0        4.767936    2.568415    5.291884
      4          6           0        4.844202    3.956163    5.477199
      5          6           0        5.226578    4.501940    6.686681
      6          6           0        5.527980    3.663581    7.742751
      7          7           0        5.705855    1.420752    8.622993
      8          1           0        6.156263    1.766353    9.449023
      9          1           0        5.815454    4.079892    8.699266
     10          8           0        5.059704    0.374620    6.305510
     11          6           0        4.609895   -0.213906    5.100958
     12          7           0        4.503829    4.828354    4.365122
     13          8           0        4.162249    4.308827    3.302646
     14          1           0        5.790699    0.442619    8.419306
     15          1           0        5.276498    5.574535    6.794492
     16          1           0        4.438103    2.191739    4.338608
     17          8           0        4.572223    6.044232    4.532972
     18          1           0        4.605834   -1.288787    5.256567
     19          1           0        5.299453    0.029653    4.285124
     20          1           0        3.606838    0.131278    4.847483
 ---------------------------------------------------------------------
                    Distance matrix (angstroms):
                    1          2          3          4          5
     1  C    0.000000
     2  C    1.416730   0.000000
     3  C    2.423150   1.375595   0.000000
     4  C    2.774582   2.394610   1.402143   0.000000
     5  C    2.418300   2.792019   2.427825   1.380917   0.000000
     6  C    1.400041   2.425722   2.789947   2.384509   1.381656
     7  N    1.357438   2.387360   3.645972   4.131196   3.670522
     8  H    2.044334   3.288905   4.455622   4.721458   3.997285
     9  H    2.147099   3.405864   3.871965   3.367545   2.139018
    10  O    2.329740   1.361256   2.434194   3.682389   4.148241
    11  C    3.623306   2.357828   2.793338   4.193559   5.013384
    12  N    4.228183   3.715301   2.456820   1.453714   2.453273
    13  O    4.924913   4.086254   2.711634   2.306102   3.552714
    14  H    2.034642   2.548299   3.917374   4.679407   4.449530
    15  H    3.402210   3.870926   3.399004   2.131025   1.079155
    16  H    3.414117   2.151907   1.076759   2.138807   3.387059
    17  O    4.938378   4.700439   3.563083   2.307719   2.728609
    18  H    4.345636   3.247745   3.860768   5.254998   5.996922
    19  H    4.002871   2.677283   2.782335   4.128654   5.076824
    20  H    3.944954   2.644288   2.735924   4.069074   5.010878
                    6          7          8          9         10
     6  C    0.000000
     7  N    2.415936   0.000000
     8  H    2.627847   1.002314   0.000000
     9  H    1.082072   2.662491   2.455759   0.000000
    10  O    3.619697   2.623477   3.608468   4.475519   0.000000
    11  C    4.780884   4.034596   5.021788   5.730436   1.414085
    12  N    3.716713   5.584450   6.160555   4.589702   4.889769
    13  O    4.689999   6.247382   6.943934   5.648805   5.029970
    14  H    3.301719   1.002712   1.716458   3.648116   2.237658
    15  H    2.148065   4.558692   4.724698   2.480442   5.227353
    16  H    3.865532   4.534046   5.408269   4.947480   2.749002
    17  O    4.108972   6.276142   6.706489   4.770981   5.960204
    18  H    5.617598   4.459201   5.414278   6.491385   2.018218
    19  H    5.021239   4.573558   5.515081   6.012932   2.063600
    20  H    4.954849   4.508114   5.508831   5.941867   2.072650
                   11         12         13         14         15
    11  C    0.000000
    12  N    5.096772   0.000000
    13  O    4.887680   1.231032   0.000000
    14  H    3.582842   6.109592   6.616617   0.000000
    15  H    6.067822   2.656246   3.877700   5.407494   0.000000
    16  H    2.529391   2.637567   2.373051   4.641232   4.263517
    17  O    6.283973   1.229314   2.166429   6.925774   2.414765
    18  H    1.086094   6.182595   5.945406   3.795338   7.065422
    19  H    1.095626   4.864868   4.535397   4.183698   6.086310
    20  H    1.090654   4.806224   4.488532   4.198107   6.017280
                   16         17         18         19         20
    16  H    0.000000
    17  O    3.859724   0.000000
    18  H    3.603449   7.368710   0.000000
    19  H    2.327961   6.063453   1.778509   0.000000
    20  H    2.279355   5.999493   1.783796   1.786484   0.000000
 Stoichiometry    C7H8N2O3
 Framework group  C1[X(C7H8N2O3)]
 Deg. of freedom    54
 Full point group                 C1      NOp   1
 RotChk:  IX=0 Diff= 6.33D-02
 Largest Abelian subgroup         C1      NOp   1
 Largest concise Abelian subgroup C1      NOp   1
                         Standard orientation:                         
 ---------------------------------------------------------------------
 Center     Atomic      Atomic             Coordinates (Angstroms)
 Number     Number       Type             X           Y           Z
 ---------------------------------------------------------------------
      1          6           0       -1.449444   -1.143417    0.005476
      2          6           0       -1.197446    0.250327   -0.027694
      3          6           0        0.093721    0.724691   -0.016322
      4          6           0        1.156221   -0.190214   -0.009379
      5          6           0        0.933873   -1.553108   -0.005946
      6          6           0       -0.363779   -2.027410    0.004569
      7          7           0       -2.736075   -1.573170    0.055782
      8          1           0       -2.938295   -2.538444   -0.123068
      9          1           0       -0.550361   -3.093143    0.021262
     10          8           0       -2.322915    1.016033   -0.033413
     11          6           0       -2.129358    2.415451    0.028239
     12          7           0        2.517070    0.320920    0.001307
     13          8           0        2.679432    1.541197    0.002999
     14          1           0       -3.467223   -0.905636   -0.103125
     15          1           0        1.774748   -2.229490   -0.002468
     16          1           0        0.318182    1.777487    0.009098
     17          8           0        3.444910   -0.485485    0.007515
     18          1           0       -3.115335    2.869872    0.059075
     19          1           0       -1.601436    2.760070   -0.867827
     20          1           0       -1.561391    2.693162    0.916954
 ---------------------------------------------------------------------
 Rotational constants (GHZ):      1.6002351      0.6739044      0.4757407
 Leave Link  202 at Wed Aug 25 18:00:55 2021, MaxMem= 24159191040 cpu:         0.5
 (Enter /public/home/users/caep010/software/Gaussian09/g09/l301.exe)
 Standard basis: GTBas3 (6D, 7F)
 Ernie: Thresh=  0.10000D-02 Tol=  0.10000D-05 Strict=F.
 There are   412 symmetry adapted cartesian basis functions of A   symmetry.
 There are   376 symmetry adapted basis functions of A   symmetry.
   376 basis functions,   584 primitive gaussians,   412 cartesian basis functions
    44 alpha electrons       44 beta electrons
       nuclear repulsion energy       694.6361106047 Hartrees.
 IExCor=  402 DFT=T Ex+Corr=B3LYP ExCW=0 ScaHFX=  0.200000
 ScaDFX=  0.800000  0.720000  1.000000  0.810000 ScalE2=  1.000000  1.000000
 IRadAn=      0 IRanWt=     -1 IRanGd=            0 ICorTp=0 IEmpDi=  4
 NAtoms=   20 NActive=   20 NUniq=   20 SFac= 1.00D+00 NAtFMM=   60 NAOKFM=F Big=F
 Integral buffers will be    131072 words long.
 Raffenetti 2 integral format.
 Two-electron integral symmetry is turned on.
 Leave Link  301 at Wed Aug 25 18:00:55 2021, MaxMem= 24159191040 cpu:         1.6
[...]
 3,-0.00848988,-0.00170070,-0.00761139,0.00209430,0.00012417,0.01548067
 ,0.00581059,0.28392680,0.07766678,0.61805592,-0.00480986,-0.00595185,0
 .00645273,0.00173167,0.00105903,-0.00190241,0.00133969,-0.00127200,0.0
 0066247,0.00007276,0.00136137,-0.00054154,-0.00034135,-0.00018456,-0.0
 0003840,-0.00016923,0.00061579,0.00089070,-0.14652881,-0.07775454,-0.2
 1395227,0.14801689,0.01436931,0.01267953,0.01900906,0.00079029,-0.0052
 4692,0.00378849,-0.00033001,0.00161701,0.00032535,0.00025715,-0.000711
 77,0.00060905,0.00000206,0.00002911,-0.00069448,0.00044248,0.00109746,
 0.00200396,-0.07046220,-0.11694189,-0.10429749,0.07814875,0.11150498,-
 0.01565769,-0.00685815,-0.02731205,-0.00110222,0.00333374,0.00161726,-
 0.00069159,0.00008211,-0.00195119,0.00045640,-0.00154504,0.00177788,0.
 00063344,0.00063688,-0.00157693,0.00191077,-0.00387173,0.00252727,-0.1
 7876464,-0.10157111,-0.26065509,0.19703582,0.10601656,0.28993052,0.002
 61649,0.00010946,-0.00277715,0.00541779,-0.00034301,-0.00116122,-0.000
 01182,0.00010935,0.00015374,0.00588210,0.00111523,-0.00211973,-0.00128
 260,-0.00308072,-0.00517316,-0.05539824,-0.03061647,-0.07460349,-0.002
 28018,0.00057297,0.00198657,-0.00006033,-0.00044527,-0.00065145,0.0493
 0568,-0.00935395,-0.00845277,-0.02912148,0.00017569,-0.00461608,0.0017
 1003,0.00007809,-0.00122347,0.00046573,0.00062504,-0.00193067,0.002744
 60,0.00592438,0.01087782,0.01857620,-0.03038650,-0.09921908,-0.0940020
 7,-0.00046480,0.00261993,-0.00093082,0.00072286,-0.00088354,0.00080129
 ,0.03272610,0.10221817,-0.00156154,0.00179705,-0.00203040,-0.00128324,
 0.00022270,0.00160686,0.00014235,0.00025813,0.00034197,-0.00197859,0.0
 0432695,-0.00047232,-0.00594617,-0.01102097,-0.01807059,-0.07509449,-0
 .09447001,-0.26898716,0.00127829,0.00038851,0.00117072,0.00002450,-0.0
 0094979,0.00043869,0.08312768,0.10081013,0.28637792,0.00457022,-0.0153
 4170,-0.00402535,-0.04664324,-0.01038457,-0.01768839,0.00620421,0.0094
 6253,0.00054401,0.00623288,-0.00176692,-0.00344922,-0.00087416,-0.0001
 1973,0.00111328,0.00262829,0.00082690,-0.00328259,-0.00256879,-0.00055
 886,0.00071864,0.00027688,-0.00028189,-0.00000340,-0.00001025,-0.00060
 334,-0.00006289,0.09869606,-0.00565908,-0.05356824,-0.01102845,0.00020
 922,-0.28644687,0.01998183,0.00011459,-0.03976763,0.00441687,-0.000211
 40,-0.00257947,0.00011531,0.00197867,-0.00709333,0.00716431,-0.0007029
 1,0.01177083,-0.00302563,0.00242655,0.00852085,-0.00354246,-0.00042644
 ,0.00046439,0.00117282,-0.00011511,-0.00080633,-0.00028153,0.03871628,
 0.48992335,-0.00505121,-0.04484786,-0.00702689,-0.01854883,-0.01530767
 ,-0.10152010,0.00137118,0.03347398,0.00778057,-0.00350813,-0.00414090,
 -0.00373426,0.00072532,0.00013106,0.00118921,-0.00319594,0.00131884,-0
 .00665025,-0.00076388,-0.00365842,0.00061990,0.00082721,-0.00204037,0.
 00010808,-0.00014503,-0.00192065,-0.00012607,0.09074649,0.09810919,0.3
 6569102,0.00242655,0.00217613,-0.00068796,-0.00534884,-0.00671744,-0.0
 0099732,-0.00020644,0.00184845,0.00133007,0.00039119,0.00056530,-0.000
 62160,0.00027412,0.00057233,-0.00041614,0.00088658,-0.00062016,-0.0002
 1445,-0.00016911,-0.00093515,0.00035585,0.00012550,-0.00004348,-0.0001
 4959,-0.00025089,0.00009800,0.00016482,-0.07209500,-0.01768551,-0.0399
 6155,0.55840498,0.00111220,-0.00284937,0.00387059,-0.01299130,-0.03846
 269,-0.04151813,-0.00012698,-0.00007499,-0.00056523,-0.00043820,0.0008
 2698,-0.00151287,-0.00019873,0.00103011,-0.00075971,-0.00044294,-0.001
 23424,-0.00126578,0.00049732,0.00013332,0.00166661,-0.00008281,0.00046
 828,-0.00013151,0.00001339,-0.00029845,0.00005417,-0.00803738,-0.10273
 320,-0.02487177,-0.01643248,0.59593189,-0.00013003,0.00711873,0.000960
 66,-0.00043143,-0.01967319,-0.00517371,0.00148942,0.00637983,0.0039068
 6,-0.00057587,0.00169926,-0.00152181,-0.00026814,0.00184230,-0.0006936
 7,-0.00026207,-0.00158916,0.00020618,-0.00027523,-0.00157273,0.0013953
 0,0.00011453,0.00004441,-0.00015797,0.00019976,0.00031647,0.00021821,-
 0.04063811,-0.05786928,-0.19167580,-0.02458717,-0.05712324,0.48526946,
 -0.00204633,0.00184851,-0.00292893,0.00588769,-0.00018794,0.00182460,-
 0.00119342,0.00705564,0.00170125,-0.08343405,0.00240362,-0.01058711,-0
 .00580136,0.00719192,-0.01186174,0.00623666,-0.00417621,-0.00249638,-0
 .00071239,-0.00212365,0.00320790,0.00034458,-0.00029111,-0.00068472,0.
 00147825,0.00023452,-0.00057848,0.00140533,-0.00239652,-0.00127038,0.0
 0019593,0.00053643,0.00127850,0.28744464,0.00045452,-0.00977599,0.0051
 8441,-0.00351877,-0.00728537,-0.00991780,0.00921389,-0.03091697,0.0330
 0911,0.00122254,-0.11665317,0.00770342,0.00585777,0.01595838,0.0171152
 9,-0.00296993,0.00753983,-0.00926690,0.00103238,0.00594078,-0.00775549
 ,-0.00065196,0.00053336,0.00121486,-0.00048925,0.00103631,-0.00143240,
 0.00077676,0.00107977,0.00258566,-0.00018962,-0.00035412,-0.00061216,0
 .05920897,0.84855362,-0.00165964,0.00678219,-0.01167986,0.00259722,0.0
 0027831,0.01264220,0.00150317,0.02628085,0.00056769,-0.01055753,0.0112
 7894,-0.11588760,-0.01173406,0.02176384,-0.04280587,-0.00260215,-0.013
 75188,-0.00014493,-0.00137345,-0.00819109,0.01021336,0.00094871,-0.000
 65323,-0.00158367,-0.00050203,0.00079181,-0.00012449,-0.00165714,-0.00
 788882,-0.00281022,0.00132238,0.00182942,0.00406309,0.14907622,0.13076
 023,0.71204923,0.00043323,-0.00152273,0.00111037,-0.00072635,-0.000581
 64,-0.00127645,0.00088759,-0.00248516,-0.00010549,0.01165097,-0.001787
 44,-0.02639729,0.00402501,0.00207713,0.00020223,-0.00124502,0.00128891
 ,-0.00056508,0.00022316,0.00120054,-0.00136717,-0.00012224,0.00008919,
 0.00028631,-0.00069081,0.00016585,-0.00002173,0.00014024,0.00107334,0.
 00059672,-0.00029968,-0.00024617,-0.00061886,-0.11562069,-0.04457214,-
 0.11171066,0.07893387,0.00037784,-0.00021102,0.00163151,-0.00041007,0.
 00257495,-0.00136662,0.00138817,-0.00939234,0.00533775,0.00190718,0.01
 927608,0.00636005,0.00036330,-0.00316459,0.00183140,0.00055840,0.00170
 445,0.00152948,0.00029267,0.00071442,-0.00025120,-0.00006802,-0.000006
 08,0.00018191,0.00009870,-0.00025582,0.00030844,0.00014267,0.00042380,
 0.00039556,-0.00012088,-0.00000658,-0.00041457,-0.04111061,-0.18869409
 ,-0.12283949,0.06464637,0.23146080,0.00039079,-0.00486760,0.00371520,-
 0.00142872,-0.00210220,-0.00436010,-0.00048485,-0.00718729,0.00010267,
 -0.02681074,-0.00581109,-0.06672982,0.00039439,0.00744011,0.00439967,-
 0.00053392,0.00393289,-0.00305766,0.00070731,0.00395498,-0.00428407,-0
 .00036770,0.00018577,0.00077492,-0.00003725,0.00051133,-0.00077109,0.0
 0069073,0.00347953,0.00187902,-0.00061323,-0.00081832,-0.00210074,-0.1
 1204194,-0.13408267,-0.43131052,0.15321989,0.19009793,0.50936526,-0.00
 367247,-0.00183115,0.00975899,-0.00051072,0.00410081,-0.00219603,-0.00
 012375,-0.00136805,0.00112362,-0.00050813,0.00138578,-0.00155733,0.002
 20968,-0.00083105,0.00068250,0.00174240,0.00202647,-0.00159345,-0.0262
 9484,0.08747673,-0.00872782,0.00059587,-0.02225366,-0.00275651,-0.0005
 7921,0.00012999,0.00028784,-0.00106068,-0.00206607,0.00060409,-0.00035
 569,-0.00084829,0.00015927,0.00026788,-0.00110177,0.00154537,-0.000227
 66,-0.00015018,-0.00069655,0.02836565,0.00564581,-0.02487134,-0.000845
 80,-0.00156312,0.00082942,-0.00228390,0.00014810,-0.00160118,0.0006413
 7,-0.00043099,0.00122920,-0.00138968,-0.00015801,-0.00134483,0.0004558
 3,0.00175400,0.00225495,0.00259938,0.05670013,-0.41314199,-0.09694591,
 0.00398256,-0.00385665,0.00111077,0.00014496,0.00015106,-0.00012525,-0
 .00096280,-0.00114111,-0.00164884,0.00012011,0.00038745,-0.00013673,0.
 00030361,-0.00107979,0.00141079,-0.00018878,-0.00009560,-0.00063683,-0
 .06558158,0.44171994,-0.00202858,0.03055732,0.01073741,-0.00022945,0.0
 0485859,-0.00011123,0.00057333,-0.00080140,0.00035816,-0.00013165,0.00
 026769,-0.00043142,0.00009551,0.00089243,0.00145235,-0.00204207,0.0026
 7605,-0.00523873,-0.00976161,-0.11015160,-0.08366580,0.00971190,-0.023
 37409,-0.00397596,0.00022053,0.00008755,0.00003663,-0.00012618,-0.0012
 3728,-0.00043885,0.00032214,-0.00203824,-0.00095152,0.00011308,-0.0001
 1329,0.00033141,-0.00007750,-0.00015759,-0.00022894,0.00324885,0.09793
 113,0.08157626,0.00682906,0.00045284,-0.00311193,-0.00085486,0.0001624
 7,-0.00016660,0.00300631,-0.00042152,-0.00271554,0.00410706,-0.0088268
 0,-0.00058598,-0.03857504,-0.01884254,-0.00764666,0.00247025,0.0070045
 7,0.00120754,0.00007579,0.00038709,0.00016130,0.00004908,-0.00001030,-
 0.00005575,-0.00351362,0.00000410,0.00137253,-0.00015085,0.00004248,0.
 00015328,-0.00022638,-0.00001597,0.00003015,-0.00452246,-0.00119570,0.
 00185064,0.00058898,0.00044029,0.00021210,-0.00021419,-0.00000781,-0.0
 0005462,0.02962047,0.00048604,0.00046650,0.00234487,0.00015577,0.00017
 908,0.00043050,-0.00064368,0.00118465,-0.00183612,-0.00066848,-0.00944
 579,-0.00070719,-0.01941108,-0.34403766,-0.03155077,-0.00152875,-0.011
 45564,-0.00358865,-0.00004796,-0.00065005,-0.00029431,-0.00000864,-0.0
 0002199,-0.00003726,0.00009588,0.00087684,-0.00014894,0.00002153,0.000
 32993,0.00002754,-0.00003049,-0.00006681,-0.00012132,0.00008236,-0.003
 13855,0.00004531,-0.00006770,0.00035056,-0.00020144,0.00001894,-0.0000
 4948,0.00018668,0.02029880,0.36542775,-0.00314940,0.00222084,-0.002869
 93,-0.00012157,0.00037024,-0.00124381,-0.00269411,-0.00107988,-0.00481
 693,-0.00148443,-0.02738660,0.00251853,-0.00750313,-0.02962729,-0.0567
 1020,0.00203438,0.02423399,0.00590186,0.00009493,0.00112893,0.00046191
 ,-0.00001587,0.00003468,0.00009545,0.00139344,-0.00050705,0.00065248,0
 .00012137,-0.00000732,0.00018522,0.00004910,-0.00003260,-0.00007625,0.
 00172971,-0.00410947,0.00098906,0.00025559,0.00144102,0.00120724,0.000
 01366,0.00021361,-0.00033131,0.00994887,0.03123164,0.05497959,0.005919
 13,0.00051503,-0.00207023,0.00319830,-0.00249263,-0.00530058,-0.058711
 17,-0.02938167,-0.07940631,0.00297878,-0.00136437,-0.00211934,0.002659
 89,-0.00018606,-0.00023404,0.00019157,0.00024900,-0.00004865,-0.000404
 46,-0.00021672,-0.00004372,-0.00039349,0.00008289,0.00009009,-0.000509
 73,0.00001955,0.00013626,-0.00341228,-0.00040736,0.00119347,-0.0001854
 0,-0.00027532,0.00001290,-0.00406412,-0.00003314,0.00057862,-0.0004423
 0,0.00132165,-0.00047136,0.00018714,0.00007186,-0.00011542,0.00134200,
 -0.00002987,-0.00040746,0.05175572,0.00053657,-0.00260642,0.00271669,0
 .00523856,0.01200449,0.01694027,-0.02930111,-0.09019056,-0.09191919,-0
 .00874860,-0.00567422,-0.02804518,-0.00010449,-0.00624404,0.00047224,0
 .00021570,-0.00079149,0.00078583,0.00037200,0.00057869,0.00081697,0.00
 001616,-0.00022252,0.00023367,0.00000170,0.00008616,-0.00005649,-0.000
 65827,0.00024133,-0.00254058,0.00043272,-0.00199107,0.00148011,-0.0014
 8371,-0.00005806,-0.00520814,0.00112865,0.00091016,0.00358595,0.000055
 42,0.00009516,0.00006799,-0.00054098,-0.00029309,-0.00157397,0.0325667
 4,0.09504153,-0.00217020,0.00271928,-0.00083300,-0.00601670,-0.0088611
 3,-0.01440365,-0.07939242,-0.09278480,-0.28800285,-0.00143471,-0.00288
 150,-0.00080541,-0.00022892,0.00011347,0.00187710,0.00002251,0.0010664
 3,0.00014314,-0.00021401,-0.00051691,-0.00064701,0.00016886,0.00017563
 ,-0.00020825,0.00012677,-0.00001833,-0.00009513,0.00123106,-0.00162543
 ,0.00036102,-0.00004491,-0.00082130,-0.00030922,0.00074573,-0.00063135
 ,-0.00161461,-0.00047270,0.00410649,-0.00226249,-0.00011924,-0.0001186
 2,-0.00004069,-0.00035730,0.00009983,0.00026230,0.08774192,0.10126935,
 0.30533691,0.00038335,0.00032025,0.00022524,-0.00026035,0.00009158,0.0
 0016241,0.00285568,-0.00008506,-0.00222933,0.01903165,0.00694981,-0.00
 142567,0.00003278,0.00070682,-0.00276536,-0.00014739,0.00010453,0.0008
 0457,-0.00004080,0.00014189,-0.00017286,-0.00008535,0.00000729,0.00006
 666,-0.00008451,-0.00002881,0.00000535,-0.00071201,0.00069840,0.000292
 49,-0.00005637,-0.00013090,-0.00032640,-0.08577262,-0.02310843,-0.0172
 1824,0.02233750,-0.02972924,-0.01228516,0.00000804,0.00004513,-0.00001
 110,-0.00004820,0.00126522,-0.00028431,0.00047090,0.00036750,-0.000173
 19,0.04206411,-0.00094087,0.00350508,-0.00521955,0.00155556,0.00100655
 ,0.00445077,0.00152536,0.00450099,0.00498049,0.00406706,-0.06535189,0.
 02174067,-0.00351523,-0.00173078,-0.01112031,0.00068291,-0.00410594,0.
 00236497,-0.00059128,-0.00330148,0.00504865,0.00043797,-0.00039100,-0.
 00074538,0.00010889,-0.00010387,0.00032344,-0.00016566,-0.00300605,-0.
 00028749,0.00033909,0.00073700,0.00105736,-0.02692700,-0.52286671,-0.0
 4210303,-0.02029439,-0.05568279,-0.05772971,0.00062780,0.00067500,-0.0
 0009160,0.00106289,0.00035791,0.00342978,-0.00020077,0.00160672,-0.000
 62529,0.04236102,0.64433279,0.00029103,0.00077991,0.00153940,-0.000037
 55,0.00022488,-0.00037033,-0.00238642,-0.00054492,-0.00421791,-0.00112
 492,0.03142719,0.01235778,-0.00233964,0.00252888,-0.00692950,0.0007840
 7,0.00075660,0.00195661,0.00010026,0.00095514,-0.00099086,-0.00007534,
 -0.00000460,0.00013620,-0.00000722,-0.00008925,-0.00010040,0.00038673,
 0.00254787,0.00024123,-0.00036855,-0.00051347,-0.00114438,-0.01682554,
 -0.02986707,-0.13156200,-0.01322392,-0.08836675,-0.00696980,-0.0001188
 4,-0.00007334,-0.00004052,-0.00027001,0.00407797,-0.00127576,-0.000131
 23,0.00108528,-0.00001295,0.03524593,0.07498112,0.13704188,0.00030730,
 -0.00057823,0.00001433,0.00011270,-0.00015055,-0.00159469,0.00024962,0
 .00021712,-0.00040620,0.00018125,-0.00013442,0.00009946,-0.00000333,0.
 00002393,0.00004633,-0.00005629,0.00006970,-0.00015788,-0.00002542,0.0
 0002259,0.00002702,-0.00001881,0.00000459,0.00000201,-0.00004359,-0.00
 004393,0.00000604,-0.00014690,-0.01292220,-0.00109401,-0.05080173,0.01
 386523,-0.00119107,-0.00001668,-0.00002762,-0.00011929,0.00004713,0.00
 004008,0.00004067,0.00006532,-0.00002226,-0.00005819,-0.00002078,0.000
 00505,0.00002155,-0.00038361,0.00005971,0.00034915,-0.00000228,-0.0000
 0540,0.00002872,0.04795717,0.00012354,-0.00103119,0.00054830,-0.000551
 34,0.00249192,-0.00195565,-0.00001220,0.00021589,-0.00002122,0.0000038
 7,0.00000600,0.00001669,-0.00000015,-0.00012540,0.00001129,-0.00008474
 ,0.00009487,-0.00027267,0.00001221,0.00023693,-0.00031449,-0.00002455,
 0.00000843,0.00001783,-0.00001168,-0.00008265,-0.00002449,-0.00211657,
 -0.01921959,-0.00574944,0.01000067,-0.30845076,0.05120583,-0.00007400,
 0.00023832,-0.00026496,0.00003930,-0.00008171,0.00013747,-0.00002331,-
 0.00014187,0.00005827,-0.00000211,0.00000241,-0.00000987,-0.00004940,0
 .00004258,-0.00019124,0.00001960,-0.00019470,0.00008380,-0.00845971,0.
 33786090,-0.00003332,-0.00189910,0.00035770,-0.00154171,-0.00061538,-0
 .00464111,-0.00040234,0.00075608,-0.00099361,0.00008164,-0.00045103,0.
 00047249,0.00005789,0.00007270,0.00015401,-0.00015465,0.00025649,-0.00
 053054,0.00010165,0.00013335,0.00005244,-0.00001633,0.00004526,-0.0000
 1281,-0.00000343,-0.00015004,-0.00002288,-0.00181386,-0.04216595,-0.00
 285883,-0.00094679,0.06431388,-0.05821805,-0.00012250,-0.00010250,-0.0
 0036606,0.00004401,0.00014059,0.00016445,-0.00011888,-0.00009638,-0.00
 007039,0.00002379,0.00001297,0.00004392,0.00035704,0.00018979,0.000686
 68,0.00002804,-0.00001190,0.00008183,0.00541917,-0.04833741,0.06796982
 ,-0.00032831,0.00018699,0.00007248,0.00091869,0.00063254,-0.00005340,0
 .00013403,-0.00044088,0.00119845,-0.00021567,0.00015847,-0.00040934,-0
 .00005096,-0.00007148,0.00006868,-0.00006978,-0.00000514,-0.00005421,-
 0.00000980,-0.00002382,-0.00017470,-0.00001168,-0.00001818,0.00000502,
 0.00002828,0.00000434,-0.00001646,0.01204156,0.00323504,-0.01051862,-0
 .16326953,-0.04284164,0.11958745,0.00008816,0.00019610,0.00024524,-0.0
 0001443,-0.00016990,-0.00013650,0.00007142,-0.00003634,0.00002960,0.00
 000725,-0.00002249,-0.00005050,-0.00019341,0.00025069,-0.00047350,-0.0
 0001744,-0.00012430,-0.00005363,0.00177322,0.00129689,-0.00240741,0.16
 737606,-0.00071054,-0.00039380,-0.00094190,0.00169299,0.00473169,-0.00
 076649,0.00039555,0.00039511,0.00099511,-0.00067158,-0.00070263,0.0000
 1000,0.00015263,0.00008058,0.00061870,-0.00023011,0.00053074,-0.000273
 70,0.00001258,-0.00027758,0.00029075,0.00002303,-0.00005882,-0.0000027
 7,0.00005414,0.00000135,-0.00000593,0.00952714,0.00137558,-0.01870994,
 -0.04478740,-0.06925676,0.04914835,0.00000059,-0.00003030,-0.00018624,
 -0.00002721,0.00009204,0.00007433,0.00016135,-0.00001561,0.00013675,0.
 00009459,-0.00001094,-0.00001236,0.00123258,-0.00129466,-0.00062461,0.
 00001769,0.00000474,0.00000249,-0.02109820,-0.00542803,0.02146418,0.04
 649935,0.06738827,-0.00058480,-0.00123387,-0.00074628,0.00065772,0.007
 39778,0.00127152,-0.00035027,-0.00025373,0.00023525,0.00002387,-0.0006
 2166,0.00013262,0.00017201,-0.00034117,0.00048645,-0.00015648,0.000646
 65,-0.00009714,-0.00013235,0.00011679,0.00002799,0.00006497,-0.0001058
 3,0.00001480,0.00004203,-0.00004473,-0.00003934,0.01175553,-0.00610533
 ,-0.03847449,0.11560166,0.04448666,-0.17203879,-0.00016813,0.00011585,
 -0.00061036,0.00006787,0.00007040,0.00029862,0.00039284,-0.00006889,0.
 00036258,0.00002388,0.00002169,0.00002221,0.00032903,-0.00024758,0.000
 39783,0.00003444,-0.00020722,0.00015998,0.00434830,0.00221716,-0.00210
 946,-0.12789527,-0.04525281,0.20311328,-0.00026154,-0.00079038,-0.0004
 5353,0.00083000,0.00362983,0.00031576,-0.00021384,0.00023641,-0.000845
 93,0.00005821,-0.00047375,0.00046626,-0.00000487,-0.00010384,0.0002479
 4,0.00003933,0.00034634,-0.00003084,0.00011094,0.00002232,0.00008537,-
 0.00001176,-0.00005790,0.00003104,-0.00001283,-0.00002716,-0.00000207,
 -0.00452151,-0.00590198,-0.01245266,-0.26943980,0.06708454,-0.05356760
 ,-0.00016500,-0.00010459,-0.00053337,0.00012151,0.00018157,0.00025202,
 0.00003393,0.00003543,0.00032144,0.00003013,0.00002956,0.00004818,-0.0
 0000347,-0.00040497,0.00071181,0.00004332,-0.00000365,0.00012608,0.000
 82571,-0.00008632,0.00144799,-0.01825767,0.00766084,-0.00422688,0.2907
 9922,0.00010074,-0.00036362,-0.00121612,-0.00165977,0.00464637,0.00020
 597,0.00021647,0.00034888,0.00105975,0.00052975,-0.00069581,-0.0003625
 8,0.00021705,0.00007932,0.00057221,0.00006669,0.00049421,-0.00034927,-
 0.00008702,-0.00035503,0.00030332,0.00005782,-0.00006136,-0.00003951,-
 0.00004923,0.00000509,0.00002630,-0.01847610,0.00223203,-0.01031788,0.
 07140983,-0.07373598,0.01881973,-0.00009542,-0.00002724,-0.00013483,0.
 00006407,0.00008338,0.00003685,0.00007183,-0.00000274,0.00024464,-0.00
 008639,-0.00000563,0.00004168,-0.00142198,-0.00124070,0.00015004,-0.00
 001428,0.00000843,0.00000826,0.02913451,-0.00644234,0.00644441,-0.0087
 0627,0.00286903,-0.00059017,-0.07127230,0.07216371,0.00015834,-0.00087
 463,-0.00089866,-0.00007617,0.00643004,0.00131181,0.00062165,-0.000506
 94,0.00060004,-0.00000459,-0.00038890,-0.00011801,0.00011225,-0.000316
 68,0.00039073,0.00009977,0.00047990,-0.00016582,0.00000779,-0.00008385
 ,-0.00018590,0.00000746,-0.00011836,0.00001284,-0.00006937,-0.00003071
 ,-0.00000363,-0.03456071,-0.00221024,-0.02273951,-0.04953675,0.0157508
 3,-0.06195786,-0.00011116,0.00020227,-0.00035585,0.00005387,-0.0000363
 2,0.00016818,0.00006761,0.00000730,0.00067056,-0.00001969,0.00000701,0
 .00000444,-0.00009097,-0.00005300,0.00017028,0.00002648,-0.00023578,0.
 00009949,-0.00578142,0.00284479,-0.00015961,0.02103662,-0.00596393,0.0
 0759272,0.06805901,-0.01490281,0.07556376\\-0.00004417,0.00007589,-0.0
 0008633,0.00005009,0.00000283,-0.00006100,0.00000351,0.00000661,0.0000
 0871,0.00000715,0.00001360,0.00003318,-0.00000182,-0.00002839,-0.00002
 253,0.00000164,0.00001317,0.00000285,0.00000596,-0.00007772,0.00009672
 ,0.00001547,0.00002401,0.00000116,-0.00000398,0.00000001,-0.00000890,-
 0.00000543,0.00001447,0.00003096,-0.00000845,-0.00004038,-0.00002419,0
 .00000363,-0.00002154,0.00002841,-0.00000841,0.00000763,-0.00001938,0.
 00000021,-0.00001306,-0.00001841,0.00000069,-0.00000730,0.00000493,-0.
 00002131,0.00001386,0.00002076,-0.00000792,0.00001657,-0.00001642,0.00
 000294,0.00001504,-0.00001063,-0.00001208,-0.00001758,0.00002890,0.000
 02228,0.00000227,0.00001120\\\@
 Job cpu time:       0 days 18 hours 52 minutes  3.0 seconds.
 File lengths (MBytes):  RWF=  95508 Int=      0 D2E=      0 Chk=    110 Scr=      1
 Normal termination of Gaussian 09 at Wed Aug 25 23:08:16 2021.
