 Entering Gaussian System, Link 0=g09
 Input=G4.MNPYDO29.gjf
 Output=G4.MNPYDO29.log
 Initial command:
 /public/home/users/caep010/software/Gaussian09/g09/l1.exe "/public/home/users/caep010/.cache/gau_scr/Gau-59629.inp" -scrdir="/public/home/users/caep010/.cache/gau_scr/"
 Entering Link 1 = /public/home/users/caep010/software/Gaussian09/g09/l1.exe PID=     59630.
  
 Copyright (c) 1988,1990,1992,1993,1995,1998,2003,2009,2015,
            Gaussian, Inc.  All Rights Reserved.
  
 This is part of the Gaussian(R) 09 program.  It is based on
 the Gaussian(R) 03 system (copyright 2003, Gaussian, Inc.),
 the Gaussian(R) 98 system (copyright 1998, Gaussian, Inc.),
 the Gaussian(R) 94 system (copyright 1995, Gaussian, Inc.),
 the Gaussian 92(TM) system (copyright 1992, Gaussian, Inc.),
 the Gaussian 90(TM) system (copyright 1990, Gaussian, Inc.),
 the Gaussian 88(TM) system (copyright 1988, Gaussian, Inc.),
 the Gaussian 86(TM) system (copyright 1986, Carnegie Mellon
 University), and the Gaussian 82(TM) system (copyright 1983,
 Carnegie Mellon University). Gaussian is a federally registered
 trademark of Gaussian, Inc.
  
 This software contains proprietary and confidential information,
 including trade secrets, belonging to Gaussian, Inc.
  
 This software is provided under written license and may be
 used, copied, transmitted, or stored only in accord with that
 written license.
  
 The following legend is applicable only to US Government
 contracts under FAR:
  
                    RESTRICTED RIGHTS LEGEND
  
 Use, reproduction and disclosure by the US Government is
 subject to restrictions as set forth in subparagraphs (a)
 and (c) of the Commercial Computer Software - Restricted
 Rights clause in FAR 52.227-19.
  
 Gaussian, Inc.
 340 Quinnipiac St., Bldg. 40, Wallingford CT 06492
  
  
 ---------------------------------------------------------------
 Warning -- This program may not be used in any manner that
 competes with the business of Gaussian, Inc. or will provide
 assistance to any competitor of Gaussian, Inc.  The licensee
 of this program is prohibited from giving any competitor of
 Gaussian, Inc. access to this program.  By using this program,
 the user acknowledges that Gaussian, Inc. is engaged in the
 business of creating and licensing software in the field of
 computational chemistry and represents and warrants to the
 licensee that it is not a competitor of Gaussian, Inc. and that
 it will not use this program in any manner prohibited above.
 ---------------------------------------------------------------
  

 Cite this work as:
 Gaussian 09, Revision E.01,
 M. J. Frisch, G. W. Trucks, H. B. Schlegel, G. E. Scuseria, 
 M. A. Robb, J. R. Cheeseman, G. Scalmani, V. Barone, B. Mennucci, 
 G. A. Petersson, H. Nakatsuji, M. Caricato, X. Li, H. P. Hratchian, 
 A. F. Izmaylov, J. Bloino, G. Zheng, J. L. Sonnenberg, M. Hada, 
 M. Ehara, K. Toyota, R. Fukuda, J. Hasegawa, M. Ishida, T. Nakajima, 
 Y. Honda, O. Kitao, H. Nakai, T. Vreven, J. A. Montgomery, Jr., 
 J. E. Peralta, F. Ogliaro, M. Bearpark, J. J. Heyd, E. Brothers, 
 K. N. Kudin, V. N. Staroverov, T. Keith, R. Kobayashi, J. Normand, 
 K. Raghavachari, A. Rendell, J. C. Burant, S. S. Iyengar, J. Tomasi, 
 M. Cossi, N. Rega, J. M. Millam, M. Klene, J. E. Knox, J. B. Cross, 
 V. Bakken, C. Adamo, J. Jaramillo, R. Gomperts, R. E. Stratmann, 
 O. Yazyev, A. J. Austin, R. Cammi, C. Pomelli, J. W. Ochterski, 
 R. L. Martin, K. Morokuma, V. G. Zakrzewski, G. A. Voth, 
 P. Salvador, J. J. Dannenberg, S. Dapprich, A. D. Daniels, 
 O. Farkas, J. B. Foresman, J. V. Ortiz, J. Cioslowski, 
 and D. J. Fox, Gaussian, Inc., Wallingford CT, 2013.
 
 ******************************************
 Gaussian 09:  ES64L-G09RevE.01 30-Nov-2015
                26-Aug-2021 
 ******************************************
 %nproc=32
 Will use up to   32 processors via shared memory.
 %mem=180GB
 ----------------
 #P G4 OPT=calcfc
 ----------------
 1/10=4,14=-1,18=20,19=15,26=3,38=1/1,3;
 2/9=110,12=2,17=6,18=5,40=1/2;
 3/5=35,7=104,11=2,16=1,25=1,30=1,71=2,74=-5,140=1/1,2,3;
 4//1;
 5/5=2,38=5/2;
 8/6=4,10=90,11=11/1;
 11/6=1,8=1,9=11,15=111,16=1/1,2,10;
 10/6=1,13=1/2;
 6/7=2,8=2,9=2,10=2,28=1/1;
 7/10=1,18=20,25=1/1,2,3,16;
 1/10=4,14=-1,18=20,19=15,26=3/3(2);
 2/9=110/2;
 99//99;
 2/9=110/2;
 3/5=35,7=104,11=2,16=1,25=1,30=1,71=1,74=-5/1,2,3;
 4/5=5,16=3,69=1/1;
 5/5=2,38=5/2;
 7//1,2,3,16;
 1/14=-1,18=20,19=15,26=3/3(-5);
 2/9=110/2;
 6/7=2,8=2,9=2,10=2,19=2,28=1/1;
 99/9=1/99;
 Leave Link    1 at Thu Aug 26 14:20:12 2021, MaxMem= 24159191040 cpu:         4.3
 (Enter /public/home/users/caep010/software/Gaussian09/g09/l101.exe)
 --------
 MNPYDO29
 --------
 Symbolic Z-matrix:
 Charge =  0 Multiplicity = 1
 N                     2.9564    0.3423    2.3735 
 C                     3.4731    1.074     1.356 
 H                     4.1913    0.73      0.876 
 C                     2.9716    2.3102    1.0077 
 C                     1.8806    2.7735    1.7368 
 C                     1.3684    2.0376    2.7906 
 H                     0.6451    2.3634    3.2751 
 C                     1.9256    0.8285    3.1228 
 H                     1.603     0.3464    3.8499 
 O                     3.4733   -0.7848    2.6649 
 C                     3.727     3.0803   -0.0246 
 H                     4.4845    2.5658   -0.3149 
 H                     3.1552    3.2556   -0.7748 
 H                     4.0271    3.9094    0.3508 
 N                     1.2156    3.9714    1.4106 
 O                     1.4861    4.5455    0.3606 
 O                     0.3812    4.4039    2.1996 
 
 NAtoms=     17 NQM=       17 NQMF=       0 NMMI=      0 NMMIF=      0
                NMic=       0 NMicF=      0.
                    Isotopes and Nuclear Properties:
 (Nuclear quadrupole moments (NQMom) in fm**2, nuclear magnetic moments (NMagM)
  in nuclear magnetons)

  Atom         1           2           3           4           5           6           7           8           9          10
 IAtWgt=          14          12           1          12          12          12           1          12           1          16
 AtmWgt=  14.0030740  12.0000000   1.0078250  12.0000000  12.0000000  12.0000000   1.0078250  12.0000000   1.0078250  15.9949146
 NucSpn=           2           0           1           0           0           0           1           0           1           0
 AtZEff=   0.0000000   0.0000000   0.0000000   0.0000000   0.0000000   0.0000000   0.0000000   0.0000000   0.0000000   0.0000000
 NQMom=    2.0440000   0.0000000   0.0000000   0.0000000   0.0000000   0.0000000   0.0000000   0.0000000   0.0000000   0.0000000
 NMagM=    0.4037610   0.0000000   2.7928460   0.0000000   0.0000000   0.0000000   2.7928460   0.0000000   2.7928460   0.0000000
 AtZNuc=   7.0000000   6.0000000   1.0000000   6.0000000   6.0000000   6.0000000   1.0000000   6.0000000   1.0000000   8.0000000

  Atom        11          12          13          14          15          16          17
 IAtWgt=          12           1           1           1          14          16          16
 AtmWgt=  12.0000000   1.0078250   1.0078250   1.0078250  14.0030740  15.9949146  15.9949146
 NucSpn=           0           1           1           1           2           0           0
 AtZEff=   0.0000000   0.0000000   0.0000000   0.0000000   0.0000000   0.0000000   0.0000000
 NQMom=    0.0000000   0.0000000   0.0000000   0.0000000   2.0440000   0.0000000   0.0000000
 NMagM=    0.0000000   2.7928460   2.7928460   2.7928460   0.4037610   0.0000000   0.0000000
 AtZNuc=   6.0000000   1.0000000   1.0000000   1.0000000   7.0000000   8.0000000   8.0000000
 Leave Link  101 at Thu Aug 26 14:20:12 2021, MaxMem= 24159191040 cpu:         9.9
 (Enter /public/home/users/caep010/software/Gaussian09/g09/l103.exe)

 GradGradGradGradGradGradGradGradGradGradGradGradGradGradGradGradGradGrad
 Berny optimization.
 Initialization pass.
                           ----------------------------
                           !    Initial Parameters    !
                           ! (Angstroms and Degrees)  !
 --------------------------                            --------------------------
 ! Name  Definition              Value          Derivative Info.                !
 --------------------------------------------------------------------------------
 ! R1    R(1,2)                  1.3556         calculate D2E/DX2 analytically  !
 ! R2    R(1,8)                  1.364          calculate D2E/DX2 analytically  !
 ! R3    R(1,10)                 1.2738         calculate D2E/DX2 analytically  !
 ! R4    R(2,3)                  0.9298         calculate D2E/DX2 analytically  !
 ! R5    R(2,4)                  1.3788         calculate D2E/DX2 analytically  !
 ! R6    R(4,5)                  1.3916         calculate D2E/DX2 analytically  !
 ! R7    R(4,11)                 1.4931         calculate D2E/DX2 analytically  !
 ! R8    R(5,6)                  1.3836         calculate D2E/DX2 analytically  !
 ! R9    R(5,15)                 1.4084         calculate D2E/DX2 analytically  !
 ! R10   R(6,7)                  0.9295         calculate D2E/DX2 analytically  !
 ! R11   R(6,8)                  1.3721         calculate D2E/DX2 analytically  !
 ! R12   R(8,9)                  0.9301         calculate D2E/DX2 analytically  !
 ! R13   R(11,12)                0.9606         calculate D2E/DX2 analytically  !
 ! R14   R(11,13)                0.9594         calculate D2E/DX2 analytically  !
 ! R15   R(11,14)                0.9583         calculate D2E/DX2 analytically  !
 ! R16   R(15,16)                1.2269         calculate D2E/DX2 analytically  !
 ! R17   R(15,17)                1.2271         calculate D2E/DX2 analytically  !
 ! A1    A(2,1,8)              120.5302         calculate D2E/DX2 analytically  !
 ! A2    A(2,1,10)             119.6466         calculate D2E/DX2 analytically  !
 ! A3    A(8,1,10)             119.7639         calculate D2E/DX2 analytically  !
 ! A4    A(1,2,3)              118.829          calculate D2E/DX2 analytically  !
 ! A5    A(1,2,4)              122.3383         calculate D2E/DX2 analytically  !
 ! A6    A(3,2,4)              118.8327         calculate D2E/DX2 analytically  !
 ! A7    A(2,4,5)              116.8279         calculate D2E/DX2 analytically  !
 ! A8    A(2,4,11)             116.9412         calculate D2E/DX2 analytically  !
 ! A9    A(5,4,11)             125.9565         calculate D2E/DX2 analytically  !
 ! A10   A(4,5,6)              120.8102         calculate D2E/DX2 analytically  !
 ! A11   A(4,5,15)             122.1405         calculate D2E/DX2 analytically  !
 ! A12   A(6,5,15)             116.9995         calculate D2E/DX2 analytically  !
 ! A13   A(5,6,7)              119.9085         calculate D2E/DX2 analytically  !
 ! A14   A(5,6,8)              120.1813         calculate D2E/DX2 analytically  !
 ! A15   A(7,6,8)              119.9102         calculate D2E/DX2 analytically  !
 ! A16   A(1,8,6)              119.2092         calculate D2E/DX2 analytically  !
 ! A17   A(1,8,9)              120.4503         calculate D2E/DX2 analytically  !
 ! A18   A(6,8,9)              120.3405         calculate D2E/DX2 analytically  !
 ! A19   A(4,11,12)            109.3686         calculate D2E/DX2 analytically  !
 ! A20   A(4,11,13)            109.4709         calculate D2E/DX2 analytically  !
 ! A21   A(4,11,14)            109.5011         calculate D2E/DX2 analytically  !
 ! A22   A(12,11,13)           109.3615         calculate D2E/DX2 analytically  !
 ! A23   A(12,11,14)           109.5612         calculate D2E/DX2 analytically  !
 ! A24   A(13,11,14)           109.5639         calculate D2E/DX2 analytically  !
 ! A25   A(5,15,16)            119.4793         calculate D2E/DX2 analytically  !
 ! A26   A(5,15,17)            118.1587         calculate D2E/DX2 analytically  !
 ! A27   A(16,15,17)           122.3618         calculate D2E/DX2 analytically  !
 ! D1    D(8,1,2,3)            178.285          calculate D2E/DX2 analytically  !
 ! D2    D(8,1,2,4)             -1.7076         calculate D2E/DX2 analytically  !
 ! D3    D(10,1,2,3)             1.0915         calculate D2E/DX2 analytically  !
 ! D4    D(10,1,2,4)          -178.9011         calculate D2E/DX2 analytically  !
 ! D5    D(2,1,8,6)              3.4602         calculate D2E/DX2 analytically  !
 ! D6    D(2,1,8,9)           -176.6057         calculate D2E/DX2 analytically  !
 ! D7    D(10,1,8,6)          -179.3496         calculate D2E/DX2 analytically  !
 ! D8    D(10,1,8,9)             0.5845         calculate D2E/DX2 analytically  !
 ! D9    D(1,2,4,5)             -1.2042         calculate D2E/DX2 analytically  !
 ! D10   D(1,2,4,11)           173.141          calculate D2E/DX2 analytically  !
 ! D11   D(3,2,4,5)            178.8032         calculate D2E/DX2 analytically  !
 ! D12   D(3,2,4,11)            -6.8516         calculate D2E/DX2 analytically  !
 ! D13   D(2,4,5,6)              2.3489         calculate D2E/DX2 analytically  !
 ! D14   D(2,4,5,15)          -175.0091         calculate D2E/DX2 analytically  !
 ! D15   D(11,4,5,6)          -171.4213         calculate D2E/DX2 analytically  !
 ! D16   D(11,4,5,15)           11.2207         calculate D2E/DX2 analytically  !
 ! D17   D(2,4,11,12)            0.7387         calculate D2E/DX2 analytically  !
 ! D18   D(2,4,11,13)          120.5415         calculate D2E/DX2 analytically  !
 ! D19   D(2,4,11,14)         -119.3268         calculate D2E/DX2 analytically  !
 ! D20   D(5,4,11,12)          174.5026         calculate D2E/DX2 analytically  !
 ! D21   D(5,4,11,13)          -65.6946         calculate D2E/DX2 analytically  !
 ! D22   D(5,4,11,14)           54.437          calculate D2E/DX2 analytically  !
 ! D23   D(4,5,6,7)            179.3271         calculate D2E/DX2 analytically  !
 ! D24   D(4,5,6,8)             -0.6432         calculate D2E/DX2 analytically  !
 ! D25   D(15,5,6,7)            -3.1835         calculate D2E/DX2 analytically  !
 ! D26   D(15,5,6,8)           176.8462         calculate D2E/DX2 analytically  !
 ! D27   D(4,5,15,16)            9.3825         calculate D2E/DX2 analytically  !
 ! D28   D(4,5,15,17)         -170.484          calculate D2E/DX2 analytically  !
 ! D29   D(6,5,15,16)         -168.0709         calculate D2E/DX2 analytically  !
 ! D30   D(6,5,15,17)           12.0626         calculate D2E/DX2 analytically  !
 ! D31   D(5,6,8,1)             -2.291          calculate D2E/DX2 analytically  !
 ! D32   D(5,6,8,9)            177.7748         calculate D2E/DX2 analytically  !
 ! D33   D(7,6,8,1)            177.7387         calculate D2E/DX2 analytically  !
 ! D34   D(7,6,8,9)             -2.1955         calculate D2E/DX2 analytically  !
 --------------------------------------------------------------------------------
 Trust Radius=3.00D-01 FncErr=1.00D-07 GrdErr=1.00D-06
 Number of steps in this run=     88 maximum allowed number of steps=    102.
 GradGradGradGradGradGradGradGradGradGradGradGradGradGradGradGradGradGrad

 Leave Link  103 at Thu Aug 26 14:20:12 2021, MaxMem= 24159191040 cpu:         0.5
 (Enter /public/home/users/caep010/software/Gaussian09/g09/l202.exe)
                          Input orientation:                          
 ---------------------------------------------------------------------
 Center     Atomic      Atomic             Coordinates (Angstroms)
 Number     Number       Type             X           Y           Z
 ---------------------------------------------------------------------
      1          7           0        2.956400    0.342300    2.373500
      2          6           0        3.473100    1.074000    1.356000
      3          1           0        4.191300    0.730000    0.876000
      4          6           0        2.971600    2.310200    1.007700
      5          6           0        1.880600    2.773500    1.736800
      6          6           0        1.368400    2.037600    2.790600
      7          1           0        0.645100    2.363400    3.275100
      8          6           0        1.925600    0.828500    3.122800
      9          1           0        1.603000    0.346400    3.849900
     10          8           0        3.473300   -0.784800    2.664900
     11          6           0        3.727000    3.080300   -0.024600
     12          1           0        4.484500    2.565800   -0.314900
     13          1           0        3.155200    3.255600   -0.774800
     14          1           0        4.027100    3.909400    0.350800
     15          7           0        1.215600    3.971400    1.410600
     16          8           0        1.486100    4.545500    0.360600
     17          8           0        0.381200    4.403900    2.199600
 ---------------------------------------------------------------------
                    Distance matrix (angstroms):
                    1          2          3          4          5
     1  N    0.000000
     2  C    1.355607   0.000000
     3  H    1.979342   0.929810   0.000000
     4  C    2.395469   1.378770   2.000511   0.000000
     5  C    2.733764   2.359950   3.202531   1.391587   0.000000
     6  C    2.360034   2.723300   3.652982   2.413150   1.383616
     7  H    3.199974   3.652818   4.582490   3.249082   2.015195
     8  C    1.363961   2.361484   3.192367   2.786252   2.388733
     9  H    2.002864   3.200971   3.961127   3.715868   3.230026
    10  O    1.273756   2.273402   2.451593   3.546412   4.007438
    11  C    3.720397   2.448624   2.559407   1.493093   2.570185
    12  H    3.808745   2.457703   2.207798   2.025702   3.321582
    13  H    4.294023   3.066064   3.190188   2.026030   2.857474
    14  H    4.238150   3.058895   3.226667   2.025596   2.796199
    15  N    4.138590   3.673447   4.432523   2.450602   1.408402
    16  O    4.886762   4.121929   4.705506   2.760800   2.278056
    17  O    4.812327   4.621660   5.455852   3.537567   2.262872
                    6          7          8          9         10
     6  C    0.000000
     7  H    0.929542   0.000000
     8  C    1.372134   2.004693   0.000000
     9  H    2.009306   2.305701   0.930143   0.000000
    10  O    3.523116   4.275772   2.282057   2.486335   0.000000
    11  C    3.817796   4.571660   4.268697   5.195896   4.715588
    12  H    4.430937   5.260234   4.624280   5.529407   4.596548
    13  H    4.169923   4.847506   4.753316   5.679843   5.315784
    14  H    4.065089   4.730705   4.646744   5.551120   5.262819
    15  N    2.380616   2.527349   3.648774   4.386444   5.412201
    16  O    3.494040   3.736730   4.651774   5.460890   6.137659
    17  O    2.631201   2.321634   4.002618   4.547482   6.058069
                   11         12         13         14         15
    11  C    0.000000
    12  H    0.960620   0.000000
    13  H    0.959419   1.566643   0.000000
    14  H    0.958328   1.567684   1.566729   0.000000
    15  N    3.026712   3.954588   3.008387   3.005254   0.000000
    16  O    2.704963   3.655942   2.395594   2.619427   1.226891
    17  O    4.230054   5.151543   4.226195   4.117667   1.227111
                   16         17
    16  O    0.000000
    17  O    2.150064   0.000000
 Stoichiometry    C6H6N2O3
 Framework group  C1[X(C6H6N2O3)]
 Deg. of freedom    45
 Full point group                 C1      NOp   1
 Largest Abelian subgroup         C1      NOp   1
 Largest concise Abelian subgroup C1      NOp   1
                         Standard orientation:                         
 ---------------------------------------------------------------------
 Center     Atomic      Atomic             Coordinates (Angstroms)
 Number     Number       Type             X           Y           Z
 ---------------------------------------------------------------------
      1          7           0        2.145583   -0.145861   -0.042693
      2          6           0        1.408276    0.991661   -0.033142
      3          1           0        1.847481    1.810852   -0.057083
      4          6           0        0.030289    0.977048    0.010961
      5          6           0       -0.584588   -0.271296    0.019756
      6          6           0        0.168313   -1.432040    0.034147
      7          1           0       -0.255479   -2.259215    0.049361
      8          6           0        1.538810   -1.365455    0.026635
      9          1           0        2.047235   -2.143275    0.067432
     10          8           0        3.417059   -0.072416   -0.062879
     11          6           0       -0.655263    2.293178    0.175728
     12          1           0        0.002533    2.991994    0.217583
     13          1           0       -1.235823    2.447232   -0.572404
     14          1           0       -1.168995    2.287234    0.984700
     15          7           0       -1.984073   -0.417640   -0.040412
     16          8           0       -2.683991    0.562041   -0.276210
     17          8           0       -2.458386   -1.533236    0.150043
 ---------------------------------------------------------------------
 Rotational constants (GHZ):      2.3363255      0.8504440      0.6288573
 Leave Link  202 at Thu Aug 26 14:20:12 2021, MaxMem= 24159191040 cpu:         0.5
 (Enter /public/home/users/caep010/software/Gaussian09/g09/l301.exe)
 Standard basis: GTBas3 (6D, 7F)
 Ernie: Thresh=  0.10000D-02 Tol=  0.10000D-05 Strict=F.
 There are   371 symmetry adapted cartesian basis functions of A   symmetry.
 There are   338 symmetry adapted basis functions of A   symmetry.
   338 basis functions,   526 primitive gaussians,   371 cartesian basis functions
    40 alpha electrons       40 beta electrons
       nuclear repulsion energy       612.5101184988 Hartrees.
 IExCor=  402 DFT=T Ex+Corr=B3LYP ExCW=0 ScaHFX=  0.200000
 ScaDFX=  0.800000  0.720000  1.000000  0.810000 ScalE2=  1.000000  1.000000
 IRadAn=      0 IRanWt=     -1 IRanGd=            0 ICorTp=0 IEmpDi=  4
 NAtoms=   17 NActive=   17 NUniq=   17 SFac= 1.00D+00 NAtFMM=   60 NAOKFM=F Big=F
 Integral buffers will be    131072 words long.
 Raffenetti 2 integral format.
 Two-electron integral symmetry is turned on.
 Leave Link  301 at Thu Aug 26 14:20:13 2021, MaxMem= 24159191040 cpu:         2.6
 (Enter /public/home/users/caep010/software/Gaussian09/g09/l302.exe)
 NPDir=0 NMtPBC=     1 NCelOv=     1 NCel=       1 NClECP=     1 NCelD=      1
         NCelK=      1 NCelE2=     1 NClLst=     1 CellRange=     0.0.
 One-electron integrals computed using PRISM.
 NBasis=   338 RedAO= T EigKep=  1.15D-04  NBF=   338
 NBsUse=   338 1.00D-06 EigRej= -1.00D+00 NBFU=   338
 Precomputing XC quadrature grid using
 IXCGrd= 4 IRadAn=           0 IRanWt=          -1 IRanGd=           0 AccXCQ= 0.00D+00.
 Generated NRdTot=       0 NPtTot=           0 NUsed=           0 NTot=          32
 NSgBfM=   370   370   370   370   370 MxSgAt=    17 MxSgA2=    17.
 Leave Link  302 at Thu Aug 26 14:20:13 2021, MaxMem= 24159191040 cpu:        25.6
 (Enter /public/home/users/caep010/software/Gaussian09/g09/l303.exe)
 DipDrv:  MaxL=1.
 Leave Link  303 at Thu Aug 26 14:20:14 2021, MaxMem= 24159191040 cpu:         1.3
 (Enter /public/home/users/caep010/software/Gaussian09/g09/l401.exe)
 ExpMin= 1.61D-01 ExpMax= 5.48D+03 ExpMxC= 8.25D+02 IAcc=1 IRadAn=         1 AccDes= 0.00D+00
 Harris functional with IExCor=  402 and IRadAn=       1 diagonalized for initial guess.
 HarFok:  IExCor=  402 AccDes= 0.00D+00 IRadAn=         1 IDoV= 1 UseB2=F ITyADJ=14
 ICtDFT=  3500011 ScaDFX=  1.000000  1.000000  1.000000  1.000000
 FoFCou: FMM=F IPFlag=           0 FMFlag=      100000 FMFlg1=           0
         NFxFlg=           0 DoJE=T BraDBF=F KetDBF=T FulRan=T
         wScrn=  0.000000 ICntrl=     500 IOpCl=  0 I1Cent=   200000004 NGrid=           0
         NMat0=    1 NMatS0=      1 NMatT0=    0 NMatD0=    1 NMtDS0=    0 NMtDT0=    0
 Petite list used in FoFCou.
 Harris En= -567.307134312039    
 JPrj=0 DoOrth=F DoCkMO=F.
 Leave Link  401 at Thu Aug 26 14:20:14 2021, MaxMem= 24159191040 cpu:        17.4
 (Enter /public/home/users/caep010/software/Gaussian09/g09/l502.exe)
 Closed shell SCF:
 Using DIIS extrapolation, IDIIS=  1040.
 Integral symmetry usage will be decided dynamically.
 Keep R1 ints in memory in canonical form, NReq=1667343251.
 IVT=      446027 IEndB=      446027 NGot= 24159191040 MDV= 22517587028
 LenX= 22517587028 LenY= 22517448946
 Requested convergence on RMS density matrix=1.00D-08 within 128 cycles.
 Requested convergence on MAX density matrix=1.00D-06.
 Requested convergence on             energy=1.00D-06.
 No special actions if energy rises.
 FoFCou: FMM=F IPFlag=           0 FMFlag=           0 FMFlg1=           0
         NFxFlg=           0 DoJE=F BraDBF=F KetDBF=F FulRan=T
         wScrn=  0.000000 ICntrl=     600 IOpCl=  0 I1Cent=           0 NGrid=           0
         NMat0=    1 NMatS0=  57291 NMatT0=    0 NMatD0=    1 NMtDS0=    0 NMtDT0=    0
 Symmetry not used in FoFCou.
 Integral accuracy reduced to 1.0D-05 until final iterations.

 Cycle   1  Pass 0  IDiag  1:
 E= -566.801715665598    
 DIIS: error= 2.43D-02 at cycle   1 NSaved=   1.
 NSaved= 1 IEnMin= 1 EnMin= -566.801715665598     IErMin= 1 ErrMin= 2.43D-02
 ErrMax= 2.43D-02  0.00D+00 EMaxC= 1.00D-01 BMatC= 5.00D-01 BMatP= 5.00D-01
 IDIUse=3 WtCom= 7.57D-01 WtEn= 2.43D-01
 Coeff-Com:  0.100D+01
 Coeff-En:   0.100D+01
 Coeff:      0.100D+01
 Gap=     0.079 Goal=   None    Shift=    0.000
 GapD=    0.079 DampG=0.500 DampE=0.500 DampFc=0.2500 IDamp=-1.
 Damping current iteration by 2.50D-01
 RMSDP=4.43D-03 MaxDP=2.36D-01              OVMax= 3.27D-01

 Cycle   2  Pass 0  IDiag  1:
 E= -566.940788865893     Delta-E=       -0.139073200295 Rises=F Damp=T
 DIIS: error= 1.04D-02 at cycle   2 NSaved=   2.
 NSaved= 2 IEnMin= 2 EnMin= -566.940788865893     IErMin= 2 ErrMin= 1.04D-02
 ErrMax= 1.04D-02  0.00D+00 EMaxC= 1.00D-01 BMatC= 9.18D-02 BMatP= 5.00D-01
 IDIUse=3 WtCom= 8.96D-01 WtEn= 1.04D-01
 Coeff-Com: -0.481D+00 0.148D+01
 Coeff-En:   0.000D+00 0.100D+01
 Coeff:     -0.431D+00 0.143D+01
 Gap=     0.205 Goal=   None    Shift=    0.000
 RMSDP=1.54D-03 MaxDP=8.41D-02 DE=-1.39D-01 OVMax= 3.17D-01

 Cycle   3  Pass 0  IDiag  1:
 E= -567.124488864647     Delta-E=       -0.183699998754 Rises=F Damp=F
 DIIS: error= 1.34D-02 at cycle   3 NSaved=   3.
 NSaved= 3 IEnMin= 3 EnMin= -567.124488864647     IErMin= 2 ErrMin= 1.04D-02
 ErrMax= 1.34D-02  0.00D+00 EMaxC= 1.00D-01 BMatC= 7.20D-02 BMatP= 9.18D-02
 IDIUse=3 WtCom= 8.66D-01 WtEn= 1.34D-01
 Coeff-Com: -0.334D+00 0.900D+00 0.435D+00
 Coeff-En:   0.000D+00 0.000D+00 0.100D+01
 Coeff:     -0.289D+00 0.779D+00 0.510D+00
 Gap=     0.129 Goal=   None    Shift=    0.000
 RMSDP=1.53D-03 MaxDP=1.24D-01 DE=-1.84D-01 OVMax= 2.87D-01

 Cycle   4  Pass 0  IDiag  1:
 E= -567.148098590684     Delta-E=       -0.023609726037 Rises=F Damp=F
 DIIS: error= 1.20D-02 at cycle   4 NSaved=   4.
 NSaved= 4 IEnMin= 4 EnMin= -567.148098590684     IErMin= 2 ErrMin= 1.04D-02
 ErrMax= 1.20D-02  0.00D+00 EMaxC= 1.00D-01 BMatC= 4.79D-02 BMatP= 7.20D-02
 IDIUse=3 WtCom= 8.80D-01 WtEn= 1.20D-01
 Coeff-Com: -0.126D+00 0.348D+00 0.405D+00 0.372D+00
 Coeff-En:   0.000D+00 0.000D+00 0.426D+00 0.574D+00
 Coeff:     -0.111D+00 0.306D+00 0.408D+00 0.397D+00
 Gap=     0.145 Goal=   None    Shift=    0.000
 RMSDP=8.81D-04 MaxDP=7.25D-02 DE=-2.36D-02 OVMax= 1.71D-01

 Cycle   5  Pass 0  IDiag  1:
 E= -567.193271596668     Delta-E=       -0.045173005984 Rises=F Damp=F
 DIIS: error= 1.74D-03 at cycle   5 NSaved=   5.
 NSaved= 5 IEnMin= 5 EnMin= -567.193271596668     IErMin= 5 ErrMin= 1.74D-03
 ErrMax= 1.74D-03  0.00D+00 EMaxC= 1.00D-01 BMatC= 1.97D-03 BMatP= 4.79D-02
 IDIUse=3 WtCom= 9.83D-01 WtEn= 1.74D-02
 Coeff-Com: -0.523D-02 0.282D-01 0.141D+00 0.232D+00 0.604D+00
 Coeff-En:   0.000D+00 0.000D+00 0.000D+00 0.223D-01 0.978D+00
 Coeff:     -0.514D-02 0.277D-01 0.139D+00 0.229D+00 0.610D+00
 Gap=     0.138 Goal=   None    Shift=    0.000
 RMSDP=1.88D-04 MaxDP=1.07D-02 DE=-4.52D-02 OVMax= 3.03D-02

 Cycle   6  Pass 0  IDiag  1:
 E= -567.195076842846     Delta-E=       -0.001805246178 Rises=F Damp=F
 DIIS: error= 4.58D-04 at cycle   6 NSaved=   6.
 NSaved= 6 IEnMin= 6 EnMin= -567.195076842846     IErMin= 6 ErrMin= 4.58D-04
 ErrMax= 4.58D-04  0.00D+00 EMaxC= 1.00D-01 BMatC= 1.48D-04 BMatP= 1.97D-03
 IDIUse=3 WtCom= 9.95D-01 WtEn= 4.58D-03
 Coeff-Com:  0.337D-02-0.739D-02 0.269D-01 0.661D-01 0.294D+00 0.617D+00
 Coeff-En:   0.000D+00 0.000D+00 0.000D+00 0.000D+00 0.000D+00 0.100D+01
 Coeff:      0.335D-02-0.736D-02 0.268D-01 0.658D-01 0.293D+00 0.618D+00
 Gap=     0.140 Goal=   None    Shift=    0.000
 RMSDP=4.93D-05 MaxDP=3.05D-03 DE=-1.81D-03 OVMax= 5.53D-03

 Cycle   7  Pass 0  IDiag  1:
 E= -567.195179852000     Delta-E=       -0.000103009155 Rises=F Damp=F
 DIIS: error= 1.66D-04 at cycle   7 NSaved=   7.
 NSaved= 7 IEnMin= 7 EnMin= -567.195179852000     IErMin= 7 ErrMin= 1.66D-04
 ErrMax= 1.66D-04  0.00D+00 EMaxC= 1.00D-01 BMatC= 2.45D-05 BMatP= 1.48D-04
 IDIUse=3 WtCom= 9.98D-01 WtEn= 1.66D-03
 Coeff-Com:  0.565D-03-0.317D-02 0.196D-02 0.138D-01 0.111D+00 0.357D+00
 Coeff-Com:  0.518D+00
 Coeff-En:   0.000D+00 0.000D+00 0.000D+00 0.000D+00 0.000D+00 0.615D-01
 Coeff-En:   0.938D+00
 Coeff:      0.564D-03-0.316D-02 0.196D-02 0.137D-01 0.111D+00 0.357D+00
 Coeff:      0.519D+00
 Gap=     0.140 Goal=   None    Shift=    0.000
 RMSDP=1.73D-05 MaxDP=1.37D-03 DE=-1.03D-04 OVMax= 2.55D-03

 Cycle   8  Pass 0  IDiag  1:
 E= -567.195193202728     Delta-E=       -0.000013350728 Rises=F Damp=F
 DIIS: error= 1.19D-04 at cycle   8 NSaved=   8.
 NSaved= 8 IEnMin= 8 EnMin= -567.195193202728     IErMin= 8 ErrMin= 1.19D-04
 ErrMax= 1.19D-04  0.00D+00 EMaxC= 1.00D-01 BMatC= 8.42D-06 BMatP= 2.45D-05
 IDIUse=3 WtCom= 9.99D-01 WtEn= 1.19D-03
 Coeff-Com: -0.228D-03-0.111D-02-0.158D-02 0.276D-02 0.517D-01 0.201D+00
 Coeff-Com:  0.392D+00 0.355D+00
 Coeff-En:   0.000D+00 0.000D+00 0.000D+00 0.000D+00 0.000D+00 0.000D+00
 Coeff-En:   0.260D+00 0.740D+00
 Coeff:     -0.228D-03-0.111D-02-0.158D-02 0.275D-02 0.517D-01 0.201D+00
 Coeff:      0.392D+00 0.356D+00
 Gap=     0.140 Goal=   None    Shift=    0.000
 RMSDP=9.48D-06 MaxDP=7.60D-04 DE=-1.34D-05 OVMax= 1.58D-03

 Initial convergence to 1.0D-05 achieved.  Increase integral accuracy.
 Cycle   9  Pass 1  IDiag  1:
 E= -567.195154462109     Delta-E=        0.000038740620 Rises=F Damp=F
 DIIS: error= 3.54D-05 at cycle   1 NSaved=   1.
 NSaved= 1 IEnMin= 1 EnMin= -567.195154462109     IErMin= 1 ErrMin= 3.54D-05
 ErrMax= 3.54D-05  0.00D+00 EMaxC= 1.00D-01 BMatC= 7.69D-07 BMatP= 7.69D-07
 IDIUse=1 WtCom= 1.00D+00 WtEn= 0.00D+00
 Coeff-Com:  0.100D+01
 Coeff:      0.100D+01
 Gap=     0.140 Goal=   None    Shift=    0.000
 RMSDP=9.48D-06 MaxDP=7.60D-04 DE= 3.87D-05 OVMax= 1.18D-03

 Cycle  10  Pass 1  IDiag  1:
 E= -567.195151649451     Delta-E=        0.000002812658 Rises=F Damp=F
 DIIS: error= 9.23D-05 at cycle   2 NSaved=   2.
 NSaved= 2 IEnMin= 1 EnMin= -567.195154462109     IErMin= 1 ErrMin= 3.54D-05
 ErrMax= 9.23D-05  0.00D+00 EMaxC= 1.00D-01 BMatC= 4.45D-06 BMatP= 7.69D-07
 IDIUse=1 WtCom= 1.00D+00 WtEn= 0.00D+00
 Coeff-Com:  0.720D+00 0.280D+00
 Coeff:      0.720D+00 0.280D+00
 Gap=     0.140 Goal=   None    Shift=    0.000
 RMSDP=5.98D-06 MaxDP=5.24D-04 DE= 2.81D-06 OVMax= 1.05D-03

 Cycle  11  Pass 1  IDiag  1:
 E= -567.195154988091     Delta-E=       -0.000003338640 Rises=F Damp=F
 DIIS: error= 1.11D-05 at cycle   3 NSaved=   3.
 NSaved= 3 IEnMin= 3 EnMin= -567.195154988091     IErMin= 3 ErrMin= 1.11D-05
 ErrMax= 1.11D-05  0.00D+00 EMaxC= 1.00D-01 BMatC= 1.07D-07 BMatP= 7.69D-07
 IDIUse=1 WtCom= 1.00D+00 WtEn= 0.00D+00
 Coeff-Com:  0.252D+00 0.157D+00 0.592D+00
 Coeff:      0.252D+00 0.157D+00 0.592D+00
 Gap=     0.140 Goal=   None    Shift=    0.000
 RMSDP=1.20D-06 MaxDP=9.53D-05 DE=-3.34D-06 OVMax= 1.71D-04

 Cycle  12  Pass 1  IDiag  1:
 E= -567.195155051866     Delta-E=       -0.000000063776 Rises=F Damp=F
 DIIS: error= 6.02D-06 at cycle   4 NSaved=   4.
 NSaved= 4 IEnMin= 4 EnMin= -567.195155051866     IErMin= 4 ErrMin= 6.02D-06
 ErrMax= 6.02D-06  0.00D+00 EMaxC= 1.00D-01 BMatC= 3.27D-08 BMatP= 1.07D-07
 IDIUse=1 WtCom= 1.00D+00 WtEn= 0.00D+00
 Coeff-Com:  0.153D-01 0.458D-01 0.407D+00 0.532D+00
 Coeff:      0.153D-01 0.458D-01 0.407D+00 0.532D+00
 Gap=     0.140 Goal=   None    Shift=    0.000
 RMSDP=4.80D-07 MaxDP=3.23D-05 DE=-6.38D-08 OVMax= 4.05D-05

 Cycle  13  Pass 1  IDiag  1:
 E= -567.195155075768     Delta-E=       -0.000000023902 Rises=F Damp=F
 DIIS: error= 1.90D-06 at cycle   5 NSaved=   5.
 NSaved= 5 IEnMin= 5 EnMin= -567.195155075768     IErMin= 5 ErrMin= 1.90D-06
 ErrMax= 1.90D-06  0.00D+00 EMaxC= 1.00D-01 BMatC= 2.41D-09 BMatP= 3.27D-08
 IDIUse=1 WtCom= 1.00D+00 WtEn= 0.00D+00
 Coeff-Com: -0.797D-02 0.168D-01 0.209D+00 0.324D+00 0.459D+00
 Coeff:     -0.797D-02 0.168D-01 0.209D+00 0.324D+00 0.459D+00
 Gap=     0.140 Goal=   None    Shift=    0.000
 RMSDP=1.44D-07 MaxDP=8.72D-06 DE=-2.39D-08 OVMax= 1.45D-05

 Cycle  14  Pass 1  IDiag  1:
 E= -567.195155077652     Delta-E=       -0.000000001884 Rises=F Damp=F
 DIIS: error= 6.02D-07 at cycle   6 NSaved=   6.
 NSaved= 6 IEnMin= 6 EnMin= -567.195155077652     IErMin= 6 ErrMin= 6.02D-07
 ErrMax= 6.02D-07  0.00D+00 EMaxC= 1.00D-01 BMatC= 1.69D-10 BMatP= 2.41D-09
 IDIUse=1 WtCom= 1.00D+00 WtEn= 0.00D+00
 Coeff-Com: -0.559D-02 0.684D-02 0.972D-01 0.155D+00 0.274D+00 0.472D+00
 Coeff:     -0.559D-02 0.684D-02 0.972D-01 0.155D+00 0.274D+00 0.472D+00
 Gap=     0.140 Goal=   None    Shift=    0.000
 RMSDP=5.71D-08 MaxDP=4.75D-06 DE=-1.88D-09 OVMax= 9.21D-06

 Cycle  15  Pass 1  IDiag  1:
 E= -567.195155077749     Delta-E=       -0.000000000097 Rises=F Damp=F
 DIIS: error= 3.59D-07 at cycle   7 NSaved=   7.
 NSaved= 7 IEnMin= 7 EnMin= -567.195155077749     IErMin= 7 ErrMin= 3.59D-07
 ErrMax= 3.59D-07  0.00D+00 EMaxC= 1.00D-01 BMatC= 4.23D-11 BMatP= 1.69D-10
 IDIUse=1 WtCom= 1.00D+00 WtEn= 0.00D+00
 Coeff-Com: -0.313D-02 0.252D-02 0.417D-01 0.684D-01 0.134D+00 0.343D+00
 Coeff-Com:  0.413D+00
 Coeff:     -0.313D-02 0.252D-02 0.417D-01 0.684D-01 0.134D+00 0.343D+00
 Coeff:      0.413D+00
 Gap=     0.140 Goal=   None    Shift=    0.000
 RMSDP=2.54D-08 MaxDP=2.08D-06 DE=-9.69D-11 OVMax= 5.00D-06

 Cycle  16  Pass 1  IDiag  1:
 E= -567.195155077787     Delta-E=       -0.000000000038 Rises=F Damp=F
 DIIS: error= 9.08D-08 at cycle   8 NSaved=   8.
 NSaved= 8 IEnMin= 8 EnMin= -567.195155077787     IErMin= 8 ErrMin= 9.08D-08
 ErrMax= 9.08D-08  0.00D+00 EMaxC= 1.00D-01 BMatC= 4.53D-12 BMatP= 4.23D-11
 IDIUse=1 WtCom= 1.00D+00 WtEn= 0.00D+00
 Coeff-Com: -0.101D-02 0.507D-03 0.110D-01 0.193D-01 0.415D-01 0.147D+00
 Coeff-Com:  0.278D+00 0.504D+00
 Coeff:     -0.101D-02 0.507D-03 0.110D-01 0.193D-01 0.415D-01 0.147D+00
 Coeff:      0.278D+00 0.504D+00
 Gap=     0.140 Goal=   None    Shift=    0.000
 RMSDP=8.78D-09 MaxDP=5.20D-07 DE=-3.75D-11 OVMax= 1.64D-06

 SCF Done:  E(RB3LYP) =  -567.195155078     A.U. after   16 cycles
            NFock= 16  Conv=0.88D-08     -V/T= 2.0035
 KE= 5.652173573256D+02 PE=-2.551254171286D+03 EE= 8.063315403841D+02
 Leave Link  502 at Thu Aug 26 14:21:08 2021, MaxMem= 24159191040 cpu:       310.9
 (Enter /public/home/users/caep010/software/Gaussian09/g09/l801.exe)
 DoSCS=F DFT=T ScalE2(SS,OS)=  1.000000  1.000000
 Range of M.O.s used for correlation:     1   338
 NBasis=   338 NAE=    40 NBE=    40 NFC=     0 NFV=     0
 NROrb=    338 NOA=    40 NOB=    40 NVA=   298 NVB=   298

 **** Warning!!: The largest alpha MO coefficient is  0.52207058D+02

 Leave Link  801 at Thu Aug 26 14:21:08 2021, MaxMem= 24159191040 cpu:         0.6
 (Enter /public/home/users/caep010/software/Gaussian09/g09/l1101.exe)
 Using compressed storage, NAtomX=    17.
 Will process     18 centers per pass.
 Leave Link 1101 at Thu Aug 26 14:21:09 2021, MaxMem= 24159191040 cpu:        20.2
 (Enter /public/home/users/caep010/software/Gaussian09/g09/l1102.exe)
 Symmetrizing basis deriv contribution to polar:
 IMax=3 JMax=2 DiffMx= 0.00D+00
 Leave Link 1102 at Thu Aug 26 14:21:09 2021, MaxMem= 24159191040 cpu:         1.1
 (Enter /public/home/users/caep010/software/Gaussian09/g09/l1110.exe)
 Forming Gx(P) for the SCF density, NAtomX=    17.
 Integral derivatives from FoFJK, PRISM(SPDF).
 Do as many integral derivatives as possible in FoFJK.
 G2DrvN: MDV=   24159190800.
 G2DrvN: will do    18 centers at a time, making    1 passes.
 Calling FoFCou, ICntrl=  3107 FMM=F I1Cent=   0 AccDes= 0.00D+00.
 FoFJK:  IHMeth= 1 ICntrl=    3107 DoSepK=F KAlg= 0 I1Cent=   0 FoldK=F
 IRaf=         0 NMat=   1 IRICut=       1 DoRegI=T DoRafI=F ISym2E= 0.
 FoFCou: FMM=F IPFlag=           0 FMFlag=      100000 FMFlg1=           0
         NFxFlg=           0 DoJE=F BraDBF=F KetDBF=F FulRan=T
         wScrn=  0.000000 ICntrl=    3107 IOpCl=  0 I1Cent=           0 NGrid=           0
         NMat0=    1 NMatS0=      1 NMatT0=    0 NMatD0=    1 NMtDS0=    0 NMtDT0=    0
 Symmetry not used in FoFCou.
 End of G2Drv F.D. properties file   721 does not exist.
 End of G2Drv F.D. properties file   722 does not exist.
 End of G2Drv F.D. properties file   788 does not exist.
 Leave Link 1110 at Thu Aug 26 14:21:28 2021, MaxMem= 24159191040 cpu:       601.3
 (Enter /public/home/users/caep010/software/Gaussian09/g09/l1002.exe)
 Minotr:  Closed shell wavefunction.
          IDoAtm=11111111111111111
          Direct CPHF calculation.
          Differentiating once with respect to nuclear coordinates.
          Requested convergence is 1.0D-08 RMS, and 1.0D-07 maximum.
          Secondary convergence is 1.0D-12 RMS, and 1.0D-12 maximum.
          NewPWx=T KeepS1=F KeepF1=F KeepIn=T MapXYZ=F SortEE=F KeepMc=T.
          MDV=   24159190528 using IRadAn=       2.
 Generate precomputed XC quadrature information.
 Keep R1 ints in memory in canonical form, NReq=1666903482.
 FoFCou: FMM=F IPFlag=           0 FMFlag=           0 FMFlg1=           0
         NFxFlg=           0 DoJE=F BraDBF=F KetDBF=F FulRan=T
         wScrn=  0.000000 ICntrl=     600 IOpCl=  0 I1Cent=           0 NGrid=           0
         NMat0=    1 NMatS0=  57291 NMatT0=    0 NMatD0=    1 NMtDS0=    0 NMtDT0=    0
 Symmetry not used in FoFCou.
          Solving linear equations simultaneously, MaxMat=       0.
          There are    54 degrees of freedom in the 1st order CPHF.  IDoFFX=6 NUNeed=     0.
     48 vectors produced by pass  0 Test12= 2.21D-14 1.85D-09 XBig12= 2.47D-01 2.19D-01.
 AX will form    48 AO Fock derivatives at one time.
     48 vectors produced by pass  1 Test12= 2.21D-14 1.85D-09 XBig12= 7.99D-02 9.36D-02.
     48 vectors produced by pass  2 Test12= 2.21D-14 1.85D-09 XBig12= 2.41D-03 9.20D-03.
     48 vectors produced by pass  3 Test12= 2.21D-14 1.85D-09 XBig12= 3.02D-05 7.05D-04.
     48 vectors produced by pass  4 Test12= 2.21D-14 1.85D-09 XBig12= 1.04D-07 5.60D-05.
     48 vectors produced by pass  5 Test12= 2.21D-14 1.85D-09 XBig12= 2.16D-10 1.96D-06.
     20 vectors produced by pass  6 Test12= 2.21D-14 1.85D-09 XBig12= 4.03D-13 7.28D-08.
      1 vectors produced by pass  7 Test12= 2.21D-14 1.85D-09 XBig12= 8.57D-16 2.22D-09.
 InvSVY:  IOpt=1 It=  1 EMax= 4.55D-16
 Solved reduced A of dimension   309 with    54 vectors.
 End of Minotr F.D. properties file   721 does not exist.
 End of Minotr F.D. properties file   722 does not exist.
 End of Minotr F.D. properties file   788 does not exist.
 Leave Link 1002 at Thu Aug 26 14:22:00 2021, MaxMem= 24159191040 cpu:       905.8
 (Enter /public/home/users/caep010/software/Gaussian09/g09/l601.exe)
 Copying SCF densities to generalized density rwf, IOpCl= 0 IROHF=0.

 **********************************************************************

            Population analysis using the SCF density.

 **********************************************************************

 Orbital symmetries:
       Occupied  (A) (A) (A) (A) (A) (A) (A) (A) (A) (A) (A) (A)
                 (A) (A) (A) (A) (A) (A) (A) (A) (A) (A) (A) (A)
                 (A) (A) (A) (A) (A) (A) (A) (A) (A) (A) (A) (A)
                 (A) (A) (A) (A)
       Virtual   (A) (A) (A) (A) (A) (A) (A) (A) (A) (A) (A) (A)
                 (A) (A) (A) (A) (A) (A) (A) (A) (A) (A) (A) (A)
                 (A) (A) (A) (A) (A) (A) (A) (A) (A) (A) (A) (A)
                 (A) (A) (A) (A) (A) (A) (A) (A) (A) (A) (A) (A)
                 (A) (A) (A) (A) (A) (A) (A) (A) (A) (A) (A) (A)
                 (A) (A) (A) (A) (A) (A) (A) (A) (A) (A) (A) (A)
                 (A) (A) (A) (A) (A) (A) (A) (A) (A) (A) (A) (A)
                 (A) (A) (A) (A) (A) (A) (A) (A) (A) (A) (A) (A)
                 (A) (A) (A) (A) (A) (A) (A) (A) (A) (A) (A) (A)
                 (A) (A) (A) (A) (A) (A) (A) (A) (A) (A) (A) (A)
                 (A) (A) (A) (A) (A) (A) (A) (A) (A) (A) (A) (A)
                 (A) (A) (A) (A) (A) (A) (A) (A) (A) (A) (A) (A)
                 (A) (A) (A) (A) (A) (A) (A) (A) (A) (A) (A) (A)
                 (A) (A) (A) (A) (A) (A) (A) (A) (A) (A) (A) (A)
                 (A) (A) (A) (A) (A) (A) (A) (A) (A) (A) (A) (A)
                 (A) (A) (A) (A) (A) (A) (A) (A) (A) (A) (A) (A)
                 (A) (A) (A) (A) (A) (A) (A) (A) (A) (A) (A) (A)
                 (A) (A) (A) (A) (A) (A) (A) (A) (A) (A) (A) (A)
                 (A) (A) (A) (A) (A) (A) (A) (A) (A) (A) (A) (A)
                 (A) (A) (A) (A) (A) (A) (A) (A) (A) (A) (A) (A)
                 (A) (A) (A) (A) (A) (A) (A) (A) (A) (A) (A) (A)
                 (A) (A) (A) (A) (A) (A) (A) (A) (A) (A) (A) (A)
                 (A) (A) (A) (A) (A) (A) (A) (A) (A) (A) (A) (A)
                 (A) (A) (A) (A) (A) (A) (A) (A) (A) (A) (A) (A)
                 (A) (A) (A) (A) (A) (A) (A) (A) (A) (A)
 The electronic state is 1-A.
 Alpha  occ. eigenvalues --  -19.17202 -19.17020 -19.14038 -14.56816 -14.50575
 Alpha  occ. eigenvalues --  -10.25872 -10.24881 -10.24269 -10.23912 -10.22470
 Alpha  occ. eigenvalues --  -10.17034  -1.23365  -1.13646  -1.05257  -0.93871
 Alpha  occ. eigenvalues --   -0.86277  -0.84589  -0.78318  -0.73718  -0.68832
 Alpha  occ. eigenvalues --   -0.65156  -0.57437  -0.57037  -0.54441  -0.52910
 Alpha  occ. eigenvalues --   -0.51298  -0.50929  -0.50158  -0.48022  -0.46906
 Alpha  occ. eigenvalues --   -0.45771  -0.42574  -0.41725  -0.36555  -0.31496
 Alpha  occ. eigenvalues --   -0.31236  -0.30375  -0.29085  -0.27177  -0.24486
 Alpha virt. eigenvalues --   -0.10454  -0.04914  -0.02601   0.10215   0.11000
 Alpha virt. eigenvalues --    0.12609   0.14510   0.15676   0.17759   0.19244
 Alpha virt. eigenvalues --    0.20049   0.20970   0.22189   0.22956   0.25195
 Alpha virt. eigenvalues --    0.25970   0.28947   0.32294   0.34167   0.37687
 Alpha virt. eigenvalues --    0.37888   0.41058   0.43347   0.43997   0.44976
 Alpha virt. eigenvalues --    0.46550   0.46958   0.49395   0.50046   0.51004
 Alpha virt. eigenvalues --    0.51938   0.54122   0.56664   0.58305   0.59017
 Alpha virt. eigenvalues --    0.62002   0.64221   0.64970   0.65135   0.65719
 Alpha virt. eigenvalues --    0.68650   0.70423   0.71395   0.72927   0.74139
 Alpha virt. eigenvalues --    0.76228   0.77474   0.78508   0.80138   0.81405
 Alpha virt. eigenvalues --    0.81846   0.82497   0.83311   0.84727   0.86062
 Alpha virt. eigenvalues --    0.87110   0.88405   0.89933   0.92325   0.93210
 Alpha virt. eigenvalues --    0.94699   0.95383   0.95746   0.95934   0.96373
 Alpha virt. eigenvalues --    0.97624   0.99910   1.01812   1.02784   1.04223
 Alpha virt. eigenvalues --    1.05394   1.09380   1.11954   1.12745   1.14274
 Alpha virt. eigenvalues --    1.15749   1.16755   1.20427   1.21356   1.24987
 Alpha virt. eigenvalues --    1.27175   1.27660   1.31953   1.34104   1.34442
 Alpha virt. eigenvalues --    1.35694   1.36801   1.39077   1.41895   1.43391
 Alpha virt. eigenvalues --    1.43865   1.45248   1.46502   1.48590   1.49219
 Alpha virt. eigenvalues --    1.55561   1.56560   1.57566   1.58849   1.61062
 Alpha virt. eigenvalues --    1.61402   1.65579   1.66076   1.69166   1.69934
 Alpha virt. eigenvalues --    1.71028   1.74515   1.78717   1.82651   1.85703
 Alpha virt. eigenvalues --    1.86505   1.88728   1.89080   1.92431   1.95307
 Alpha virt. eigenvalues --    2.00698   2.04511   2.05814   2.07776   2.11687
 Alpha virt. eigenvalues --    2.15686   2.18733   2.23864   2.26791   2.28722
 Alpha virt. eigenvalues --    2.30234   2.32425   2.34770   2.38239   2.44996
 Alpha virt. eigenvalues --    2.51660   2.57374   2.61669   2.64572   2.68791
 Alpha virt. eigenvalues --    2.72885   2.77938   2.81708   2.87162   2.90022
 Alpha virt. eigenvalues --    2.93550   2.95206   3.00233   3.00852   3.03290
 Alpha virt. eigenvalues --    3.04624   3.06627   3.08713   3.09406   3.13159
 Alpha virt. eigenvalues --    3.13597   3.15029   3.18667   3.19361   3.21967
 Alpha virt. eigenvalues --    3.23941   3.26485   3.27402   3.29035   3.34019
 Alpha virt. eigenvalues --    3.35923   3.36562   3.39529   3.40226   3.44724
 Alpha virt. eigenvalues --    3.46393   3.47304   3.49310   3.50216   3.53441
 Alpha virt. eigenvalues --    3.55775   3.61012   3.62344   3.63320   3.64928
 Alpha virt. eigenvalues --    3.66182   3.67624   3.68770   3.71288   3.74510
 Alpha virt. eigenvalues --    3.76847   3.80072   3.81829   3.84938   3.86902
 Alpha virt. eigenvalues --    3.87982   3.90108   3.91408   3.93949   3.97388
 Alpha virt. eigenvalues --    4.01364   4.04608   4.06830   4.08580   4.09353
 Alpha virt. eigenvalues --    4.12381   4.16190   4.17022   4.18639   4.19262
 Alpha virt. eigenvalues --    4.23242   4.24681   4.26634   4.28089   4.30526
 Alpha virt. eigenvalues --    4.32001   4.33760   4.36350   4.38016   4.39720
 Alpha virt. eigenvalues --    4.41343   4.42462   4.44007   4.45432   4.45728
 Alpha virt. eigenvalues --    4.46358   4.48314   4.51098   4.52310   4.53996
 Alpha virt. eigenvalues --    4.56276   4.57577   4.59936   4.61231   4.62013
 Alpha virt. eigenvalues --    4.63443   4.64220   4.69036   4.69805   4.73367
 Alpha virt. eigenvalues --    4.76119   4.78214   4.84926   4.89120   4.91357
 Alpha virt. eigenvalues --    4.94429   4.95984   4.96993   4.98212   5.02344
 Alpha virt. eigenvalues --    5.04347   5.04686   5.06613   5.06948   5.09085
 Alpha virt. eigenvalues --    5.10649   5.12092   5.13028   5.16229   5.16886
 Alpha virt. eigenvalues --    5.19794   5.21804   5.29842   5.36320   5.36628
 Alpha virt. eigenvalues --    5.40953   5.42677   5.48807   5.51556   5.54265
 Alpha virt. eigenvalues --    5.57401   5.62004   5.62594   5.64566   5.72428
 Alpha virt. eigenvalues --    5.81242   5.85571   5.95976   5.99427   6.02861
 Alpha virt. eigenvalues --    6.10351   6.11081   6.11926   6.23167   6.26084
 Alpha virt. eigenvalues --    6.27218   6.34867   6.37280   6.67051   6.69670
 Alpha virt. eigenvalues --    6.79654   6.87648   6.98243   7.15052   8.25772
 Alpha virt. eigenvalues --    9.93725  10.43918  11.01721  11.31691  11.33933
 Alpha virt. eigenvalues --   11.52628  11.89110  12.21746  12.99329  13.08347
 Alpha virt. eigenvalues --   13.26209  18.28246  22.22383
          Condensed to atoms (all electrons):
               1          2          3          4          5          6
     1  N    5.552640   0.454138  -0.020490   0.021080  -0.059663   0.023509
     2  C    0.454138   4.880451   0.324726   0.464278  -0.012157  -0.065885
     3  H   -0.020490   0.324726   0.559466  -0.005769   0.004115   0.001230
     4  C    0.021080   0.464278  -0.005769   4.750481   0.423152   0.010893
     5  C   -0.059663  -0.012157   0.004115   0.423152   4.988776   0.384919
     6  C    0.023509  -0.065885   0.001230   0.010893   0.384919   4.995281
     7  H    0.002816   0.000184   0.000064   0.007178  -0.018296   0.328614
     8  C    0.469503  -0.045328   0.003187  -0.046790  -0.016201   0.470617
     9  H   -0.016518   0.001558  -0.000427   0.002111  -0.000531  -0.005913
    10  O    0.424752  -0.032365   0.005788   0.004081   0.001759   0.002957
    11  C    0.003614  -0.033214  -0.010900   0.392587  -0.044237   0.007851
    12  H    0.000047  -0.008333   0.006163  -0.023796   0.004359  -0.000202
    13  H   -0.000084   0.001117   0.000193  -0.002728  -0.006425  -0.000407
    14  H   -0.000063  -0.000508  -0.000015  -0.009130  -0.004989   0.000097
    15  N    0.000009   0.002143  -0.000050  -0.039435   0.356015  -0.028606
    16  O   -0.000005  -0.000112   0.000004  -0.025014  -0.088264   0.008247
    17  O   -0.000005  -0.000056   0.000001   0.003204  -0.125880   0.001052
               7          8          9         10         11         12
     1  N    0.002816   0.469503  -0.016518   0.424752   0.003614   0.000047
     2  C    0.000184  -0.045328   0.001558  -0.032365  -0.033214  -0.008333
     3  H    0.000064   0.003187  -0.000427   0.005788  -0.010900   0.006163
     4  C    0.007178  -0.046790   0.002111   0.004081   0.392587  -0.023796
     5  C   -0.018296  -0.016201  -0.000531   0.001759  -0.044237   0.004359
     6  C    0.328614   0.470617  -0.005913   0.002957   0.007851  -0.000202
     7  H    0.559716  -0.019344  -0.001229  -0.000121  -0.000183   0.000002
     8  C   -0.019344   4.808265   0.335686  -0.034111   0.000311   0.000005
     9  H   -0.001229   0.335686   0.534233   0.004599   0.000031   0.000000
    10  O   -0.000121  -0.034111   0.004599   8.119268  -0.000137  -0.000003
    11  C   -0.000183   0.000311   0.000031  -0.000137   4.949557   0.366884
    12  H    0.000002   0.000005   0.000000  -0.000003   0.366884   0.614092
    13  H   -0.000005   0.000016  -0.000000   0.000002   0.373424  -0.035303
    14  H    0.000003   0.000001  -0.000001   0.000002   0.387695  -0.038699
    15  N   -0.017465   0.002039  -0.000073   0.000001  -0.017197   0.000339
    16  O    0.000653   0.000030   0.000001  -0.000000   0.001673   0.001509
    17  O    0.033815   0.000963  -0.000022  -0.000000   0.000271   0.000005
              13         14         15         16         17
     1  N   -0.000084  -0.000063   0.000009  -0.000005  -0.000005
     2  C    0.001117  -0.000508   0.002143  -0.000112  -0.000056
     3  H    0.000193  -0.000015  -0.000050   0.000004   0.000001
     4  C   -0.002728  -0.009130  -0.039435  -0.025014   0.003204
     5  C   -0.006425  -0.004989   0.356015  -0.088264  -0.125880
     6  C   -0.000407   0.000097  -0.028606   0.008247   0.001052
     7  H   -0.000005   0.000003  -0.017465   0.000653   0.033815
     8  C    0.000016   0.000001   0.002039   0.000030   0.000963
     9  H   -0.000000  -0.000001  -0.000073   0.000001  -0.000022
    10  O    0.000002   0.000002   0.000001  -0.000000  -0.000000
    11  C    0.373424   0.387695  -0.017197   0.001673   0.000271
    12  H   -0.035303  -0.038699   0.000339   0.001509   0.000005
    13  H    0.536882  -0.033594   0.002426   0.011027   0.000086
    14  H   -0.033594   0.551490   0.001595   0.003041  -0.000065
    15  N    0.002426   0.001595   5.298933   0.514336   0.537504
    16  O    0.011027   0.003041   0.514336   8.058225  -0.093140
    17  O    0.000086  -0.000065   0.537504  -0.093140   8.013430
 Mulliken charges:
               1
     1  N    0.144719
     2  C    0.069365
     3  H    0.132715
     4  C    0.073618
     5  C    0.213545
     6  C   -0.134256
     7  H    0.123596
     8  C    0.071151
     9  H    0.146496
    10  O   -0.496472
    11  C   -0.378033
    12  H    0.112931
    13  H    0.153372
    14  H    0.143141
    15  N    0.387486
    16  O   -0.392212
    17  O   -0.371163
 Sum of Mulliken charges =  -0.00000
 Mulliken charges with hydrogens summed into heavy atoms:
               1
     1  N    0.144719
     2  C    0.202080
     4  C    0.073618
     5  C    0.213545
     6  C   -0.010660
     8  C    0.217647
    10  O   -0.496472
    11  C    0.031411
    15  N    0.387486
    16  O   -0.392212
    17  O   -0.371163
 APT charges:
               1
     1  N   -0.793864
     2  C   -0.017319
     3  H    0.453623
     4  C   -0.505953
     5  C   -0.255083
     6  C   -0.444502
     7  H    0.403520
     8  C   -0.004591
     9  H    0.550190
    10  O    0.474163
    11  C   -0.755490
    12  H    0.408185
    13  H    0.358947
    14  H    0.345181
    15  N   -1.136065
    16  O    0.422500
    17  O    0.496559
 Sum of APT charges =  -0.00000
 APT charges with hydrogens summed into heavy atoms:
               1
     1  N   -0.793864
     2  C    0.436303
     4  C   -0.505953
     5  C   -0.255083
     6  C   -0.040982
     8  C    0.545599
    10  O    0.474163
    11  C    0.356822
    15  N   -1.136065
    16  O    0.422500
    17  O    0.496559
 Electronic spatial extent (au):  <R**2>=           1669.2206
 Charge=             -0.0000 electrons
 Dipole moment (field-independent basis, Debye):
    X=              0.8555    Y=              0.9017    Z=              0.3036  Tot=              1.2795
 Quadrupole moment (field-independent basis, Debye-Ang):
   XX=            -84.7746   YY=            -53.9553   ZZ=            -59.9840
   XY=             -3.2513   XZ=             -0.2238   YZ=              0.7902
 Traceless Quadrupole moment (field-independent basis, Debye-Ang):
   XX=            -18.5366   YY=             12.2826   ZZ=              6.2540
   XY=             -3.2513   XZ=             -0.2238   YZ=              0.7902
 Octapole moment (field-independent basis, Debye-Ang**2):
  XXX=            -28.3269  YYY=              1.4055  ZZZ=             -0.5255  XYY=             12.2913
  XXY=              4.3348  XXZ=              2.7471  XZZ=             -4.7128  YZZ=             -0.0270
  YYZ=             -0.1445  XYZ=             -2.3578
 Hexadecapole moment (field-independent basis, Debye-Ang**3):
 XXXX=          -1633.0797 YYYY=           -560.8676 ZZZZ=            -61.6280 XXXY=             -8.9212
 XXXZ=              0.1011 YYYX=            -15.2317 YYYZ=             -0.4811 ZZZX=              0.1413
 ZZZY=             -0.3347 XXYY=           -322.2104 XXZZ=           -223.5534 YYZZ=           -111.4150
 XXYZ=              3.4006 YYXZ=              1.7931 ZZXY=              1.3703
 N-N= 6.125101184988D+02 E-N=-2.551254160129D+03  KE= 5.652173573256D+02
  Exact polarizability:   0.000   0.000   0.000   0.000   0.000   0.000
 Approx polarizability: 299.210   1.377 173.518  -1.630  -8.420  67.057
 No NMR shielding tensors so no spin-rotation constants.
 Leave Link  601 at Thu Aug 26 14:22:01 2021, MaxMem= 24159191040 cpu:        15.0
 (Enter /public/home/users/caep010/software/Gaussian09/g09/l701.exe)
 Compute integral second derivatives.
 ... and contract with generalized density number  0.
 Leave Link  701 at Thu Aug 26 14:22:01 2021, MaxMem= 24159191040 cpu:        17.4
 (Enter /public/home/users/caep010/software/Gaussian09/g09/l702.exe)
 L702 exits ... SP integral derivatives will be done elsewhere.
 Leave Link  702 at Thu Aug 26 14:22:02 2021, MaxMem= 24159191040 cpu:         0.8
 (Enter /public/home/users/caep010/software/Gaussian09/g09/l703.exe)
 Compute integral second derivatives, UseDBF=F ICtDFT=           0.
 Integral derivatives from FoFJK, PRISM(SPDF).
 Calling FoFJK, ICntrl=    100147 FMM=F ISym2X=0 I1Cent= 0 IOpClX= 0 NMat=1 NMatS=1 NMatT=0.
 FoFJK:  IHMeth= 1 ICntrl=  100147 DoSepK=F KAlg= 0 I1Cent=   0 FoldK=F
 IRaf=         0 NMat=   1 IRICut=       1 DoRegI=T DoRafI=F ISym2E= 0.
 FoFCou: FMM=F IPFlag=           0 FMFlag=      100000 FMFlg1=         800
         NFxFlg=           0 DoJE=F BraDBF=F KetDBF=F FulRan=T
         wScrn=  0.000000 ICntrl=  100147 IOpCl=  0 I1Cent=           0 NGrid=           0
         NMat0=    1 NMatS0=      1 NMatT0=    0 NMatD0=    1 NMtDS0=    0 NMtDT0=    0
 Symmetry not used in FoFCou.
 Leave Link  703 at Thu Aug 26 14:22:39 2021, MaxMem= 24159191040 cpu:      1197.7
 (Enter /public/home/users/caep010/software/Gaussian09/g09/l716.exe)
 Dipole        = 3.36565613D-01 3.54745419D-01 1.19465058D-01
 Polarizability= 0.00000000D+00 0.00000000D+00 0.00000000D+00
                 0.00000000D+00 0.00000000D+00 0.00000000D+00
 ***** Axes restored to original set *****
 -------------------------------------------------------------------
 Center     Atomic                   Forces (Hartrees/Bohr)
 Number     Number              X              Y              Z
 -------------------------------------------------------------------
      1        7           0.012319430   -0.027849908    0.014623296
      2        6          -0.126950204    0.073673708    0.073033525
      3        1           0.128185790   -0.070746303   -0.076880874
      4        6           0.005361950   -0.004496632    0.007387425
      5        6           0.002920089   -0.011378898   -0.001222425
      6        6           0.126404308   -0.062995030   -0.079613557
      7        1          -0.128994182    0.058806449    0.086925103
      8        6           0.044889760    0.099892149   -0.128673728
      9        1          -0.048980849   -0.095354172    0.124954087
     10        8          -0.004329908    0.006015174   -0.002662852
     11        6          -0.061872007   -0.067577013    0.074056419
     12        1           0.100534862   -0.068130740   -0.037012501
     13        1          -0.074379302    0.027820362   -0.099678285
     14        1           0.038591768    0.114247742    0.048424151
     15        7          -0.013345275    0.030255463   -0.003481738
     16        8           0.004855064   -0.000350206   -0.007390793
     17        8          -0.005211294   -0.001832147    0.007212748
 -------------------------------------------------------------------
 Cartesian Forces:  Max     0.128994182 RMS     0.067105271
 FormGI is forming the generalized inverse of G from B-inverse, IUseBI=4.
 Leave Link  716 at Thu Aug 26 14:22:40 2021, MaxMem= 24159191040 cpu:         1.1
 (Enter /public/home/users/caep010/software/Gaussian09/g09/l103.exe)

 GradGradGradGradGradGradGradGradGradGradGradGradGradGradGradGradGradGrad
 Berny optimization.
 Red2BG is reusing G-inverse.
 Internal  Forces:  Max     0.166291357 RMS     0.041428574
 Search for a local minimum.
 Step number   1 out of a maximum of   88
 All quantities printed in internal units (Hartrees-Bohrs-Radians)
 RMS Force = .41429D-01 SwitMx=.10000D-02 MixMth= 1
 Mixed Optimization -- RFO/linear search
 Second derivative matrix not updated -- analytic derivatives used.
 ITU=  0
     Eigenvalues ---    0.00195   0.00351   0.01339   0.01593   0.01851
     Eigenvalues ---    0.02096   0.02206   0.02245   0.02582   0.02935
     Eigenvalues ---    0.04513   0.06108   0.06319   0.10849   0.11674
     Eigenvalues ---    0.11966   0.12377   0.13615   0.15421   0.16725
     Eigenvalues ---    0.19243   0.19475   0.20965   0.21938   0.23570
     Eigenvalues ---    0.25159   0.29262   0.32774   0.34536   0.37661
     Eigenvalues ---    0.43308   0.44247   0.46133   0.50831   0.53461
     Eigenvalues ---    0.59563   0.60664   0.63028   0.71602   0.72674
     Eigenvalues ---    0.72789   0.79043   0.85756   0.85789   0.86026
 RFO step:  Lambda=-1.45092324D-01 EMin= 1.95408615D-03
 Linear search not attempted -- first point.
 Maximum step size (   0.300) exceeded in Quadratic search.
    -- Step size scaled by   0.742
 Iteration  1 RMS(Cart)=  0.03830376 RMS(Int)=  0.00049010
 Iteration  2 RMS(Cart)=  0.00062293 RMS(Int)=  0.00001188
 Iteration  3 RMS(Cart)=  0.00000060 RMS(Int)=  0.00001186
 ITry= 1 IFail=0 DXMaxC= 1.20D-01 DCOld= 1.00D+10 DXMaxT= 3.00D-01 DXLimC= 3.00D+00 Rises=F
 Variable       Old X    -DE/DX   Delta X   Delta X   Delta X     New X
                                 (Linear)    (Quad)   (Total)
    R1        2.56173   0.00985   0.00000   0.01513   0.01513   2.57686
    R2        2.57751   0.00339   0.00000   0.00705   0.00705   2.58456
    R3        2.40705  -0.00769   0.00000  -0.01240  -0.01240   2.39465
    R4        1.75709   0.16488   0.00000   0.12240   0.12240   1.87948
    R5        2.60550   0.01084   0.00000   0.00865   0.00865   2.61415
    R6        2.62972   0.01523   0.00000   0.01701   0.01701   2.64673
    R7        2.82154   0.01456   0.00000   0.01868   0.01868   2.84022
    R8        2.61465   0.01293   0.00000   0.01313   0.01313   2.62778
    R9        2.66149   0.03119   0.00000   0.04361   0.04361   2.70511
   R10        1.75658   0.16629   0.00000   0.12308   0.12308   1.87966
   R11        2.59296   0.00495   0.00000   0.00168   0.00168   2.59464
   R12        1.75772   0.16409   0.00000   0.12175   0.12175   1.87946
   R13        1.81531   0.12695   0.00000   0.10953   0.10953   1.92484
   R14        1.81304   0.12736   0.00000   0.10929   0.10929   1.92233
   R15        1.81098   0.12990   0.00000   0.11097   0.11097   1.92195
   R16        2.31849   0.00723   0.00000   0.00251   0.00251   2.32100
   R17        2.31890   0.00754   0.00000   0.00225   0.00225   2.32115
    A1        2.10365  -0.00556   0.00000  -0.01476  -0.01476   2.08889
    A2        2.08823   0.00307   0.00000   0.00752   0.00751   2.09573
    A3        2.09028   0.00256   0.00000   0.00754   0.00753   2.09781
    A4        2.07396  -0.01334   0.00000  -0.03594  -0.03595   2.03801
    A5        2.13521   0.00437   0.00000   0.01015   0.01015   2.14536
    A6        2.07402   0.00897   0.00000   0.02580   0.02579   2.09981
    A7        2.03903  -0.00097   0.00000  -0.00171  -0.00172   2.03731
    A8        2.04101   0.00144   0.00000   0.00448   0.00448   2.04549
    A9        2.19835  -0.00034   0.00000  -0.00220  -0.00220   2.19615
   A10        2.10854  -0.00552   0.00000  -0.00723  -0.00724   2.10129
   A11        2.13175   0.00513   0.00000   0.00668   0.00668   2.13844
   A12        2.04203   0.00042   0.00000   0.00067   0.00067   2.04270
   A13        2.09280  -0.00110   0.00000  -0.00346  -0.00346   2.08934
   A14        2.09756   0.00172   0.00000   0.00291   0.00291   2.10047
   A15        2.09283  -0.00063   0.00000   0.00055   0.00055   2.09338
   A16        2.08059   0.00604   0.00000   0.01102   0.01102   2.09161
   A17        2.10225  -0.01474   0.00000  -0.03811  -0.03811   2.06414
   A18        2.10034   0.00869   0.00000   0.02710   0.02709   2.12743
   A19        1.90884  -0.00130   0.00000   0.00042   0.00040   1.90924
   A20        1.91063   0.00411   0.00000   0.01161   0.01159   1.92222
   A21        1.91115   0.00104   0.00000   0.00505   0.00505   1.91620
   A22        1.90872   0.00026   0.00000  -0.00062  -0.00065   1.90807
   A23        1.91220   0.00018   0.00000  -0.00236  -0.00237   1.90984
   A24        1.91225  -0.00428   0.00000  -0.01407  -0.01408   1.89817
   A25        2.08531  -0.00408   0.00000  -0.00906  -0.00907   2.07624
   A26        2.06226  -0.00365   0.00000  -0.00586  -0.00586   2.05640
   A27        2.13562   0.00773   0.00000   0.01493   0.01492   2.15054
    D1        3.11166   0.00081   0.00000   0.00330   0.00327   3.11493
    D2       -0.02980   0.00042   0.00000   0.00164   0.00162  -0.02818
    D3        0.01905  -0.00100   0.00000  -0.00394  -0.00396   0.01509
    D4       -3.12241  -0.00139   0.00000  -0.00561  -0.00561  -3.12802
    D5        0.06039  -0.00141   0.00000  -0.00609  -0.00609   0.05430
    D6       -3.08235  -0.00121   0.00000  -0.00516  -0.00516  -3.08751
    D7       -3.13024   0.00042   0.00000   0.00116   0.00115  -3.12909
    D8        0.01020   0.00062   0.00000   0.00209   0.00208   0.01228
    D9       -0.02102   0.00082   0.00000   0.00375   0.00374  -0.01728
   D10        3.02188   0.00207   0.00000   0.00944   0.00945   3.03133
   D11        3.12070   0.00044   0.00000   0.00208   0.00204   3.12275
   D12       -0.11958   0.00169   0.00000   0.00777   0.00775  -0.11183
   D13        0.04100  -0.00098   0.00000  -0.00433  -0.00433   0.03666
   D14       -3.05449  -0.00170   0.00000  -0.00730  -0.00729  -3.06177
   D15       -2.99187  -0.00247   0.00000  -0.01103  -0.01103  -3.00289
   D16        0.19584  -0.00319   0.00000  -0.01400  -0.01398   0.18186
   D17        0.01289  -0.00163   0.00000  -0.00655  -0.00656   0.00633
   D18        2.10385   0.00039   0.00000   0.00000   0.00000   2.10385
   D19       -2.08265  -0.00169   0.00000  -0.00700  -0.00700  -2.08965
   D20        3.04564  -0.00028   0.00000  -0.00018  -0.00019   3.04546
   D21       -1.14659   0.00175   0.00000   0.00636   0.00638  -1.14021
   D22        0.95011  -0.00033   0.00000  -0.00064  -0.00063   0.94948
   D23        3.12985  -0.00000   0.00000   0.00036   0.00038   3.13023
   D24       -0.01123  -0.00023   0.00000  -0.00033  -0.00030  -0.01153
   D25       -0.05556   0.00081   0.00000   0.00334   0.00335  -0.05221
   D26        3.08655   0.00059   0.00000   0.00265   0.00266   3.08921
   D27        0.16375   0.00046   0.00000   0.00033   0.00033   0.16409
   D28       -2.97551  -0.00105   0.00000  -0.00341  -0.00340  -2.97891
   D29       -2.93339  -0.00008   0.00000  -0.00232  -0.00232  -2.93572
   D30        0.21053  -0.00159   0.00000  -0.00606  -0.00606   0.20447
   D31       -0.03999   0.00121   0.00000   0.00512   0.00515  -0.03484
   D32        3.10276   0.00102   0.00000   0.00424   0.00423   3.10698
   D33        3.10213   0.00099   0.00000   0.00443   0.00446   3.10659
   D34       -0.03832   0.00080   0.00000   0.00355   0.00354  -0.03478
         Item               Value     Threshold  Converged?
 Maximum Force            0.166291     0.000450     NO 
 RMS     Force            0.041429     0.000300     NO 
 Maximum Displacement     0.119571     0.001800     NO 
 RMS     Displacement     0.038395     0.001200     NO 
 Predicted change in Energy=-7.432056D-02
 Lowest energy point so far.  Saving SCF results.
 GradGradGradGradGradGradGradGradGradGradGradGradGradGradGradGradGradGrad

 Leave Link  103 at Thu Aug 26 14:22:40 2021, MaxMem= 24159191040 cpu:         3.1
 (Enter /public/home/users/caep010/software/Gaussian09/g09/l202.exe)
                          Input orientation:                          
 ---------------------------------------------------------------------
 Center     Atomic      Atomic             Coordinates (Angstroms)
 Number     Number       Type             X           Y           Z
 ---------------------------------------------------------------------
      1          7           0        2.960770    0.329183    2.383718
      2          6           0        3.477107    1.071676    1.363156
      3          1           0        4.246701    0.680441    0.869346
      4          6           0        2.976080    2.310851    1.006693
      5          6           0        1.876806    2.779720    1.737039
      6          6           0        1.364147    2.034402    2.793140
      7          1           0        0.589239    2.381639    3.311134
      8          6           0        1.921809    0.823848    3.122941
      9          1           0        1.592332    0.285485    3.891560
     10          8           0        3.471588   -0.793622    2.673820
     11          6           0        3.731075    3.082102   -0.039300
     12          1           0        4.536852    2.538757   -0.344264
     13          1           0        3.129798    3.269788   -0.838074
     14          1           0        4.047245    3.968060    0.347367
     15          7           0        1.200769    3.999087    1.412610
     16          8           0        1.479266    4.572285    0.362657
     17          8           0        0.363514    4.419301    2.207057
 ---------------------------------------------------------------------
                    Distance matrix (angstroms):
                    1          2          3          4          5
     1  N    0.000000
     2  C    1.363616   0.000000
     3  H    2.017505   0.994579   0.000000
     4  C    2.413180   1.383347   2.071613   0.000000
     5  C    2.756502   2.370268   3.282723   1.400588   0.000000
     6  C    2.371624   2.726957   3.720660   2.422012   1.390563
     7  H    3.270602   3.721614   4.715235   3.318504   2.072214
     8  C    1.367692   2.361613   3.241046   2.793057   2.397536
     9  H    2.036693   3.250124   4.041713   3.786730   3.308186
    10  O    1.267196   2.279739   2.455563   3.558454   4.023638
    11  C    3.747393   2.464386   2.619062   1.502980   2.585562
    12  H    3.848135   2.488105   2.238387   2.076785   3.386109
    13  H    4.365281   3.130133   3.296585   2.084792   2.905403
    14  H    4.309127   3.121846   3.334768   2.080492   2.837983
    15  N    4.184357   3.708625   4.537207   2.483272   1.431480
    16  O    4.927825   4.152907   4.802279   2.787350   2.293525
    17  O    4.848300   4.649003   5.554069   3.565380   2.280174
                    6          7          8          9         10
     6  C    0.000000
     7  H    0.994674   0.000000
     8  C    1.373024   2.058610   0.000000
     9  H    2.077813   2.395194   0.994569   0.000000
    10  O    3.528918   4.335481   2.284674   2.485753   0.000000
    11  C    3.837022   4.646202   4.286364   5.277021   4.738100
    12  H    4.490404   5.382404   4.669140   5.629355   4.620430
    13  H    4.222489   4.945622   4.809522   5.799941   5.381591
    14  H    4.113375   4.822702   4.701846   5.670032   5.330796
    15  N    2.406770   2.567976   3.677944   4.482115   5.451360
    16  O    3.515871   3.779497   4.676087   5.553611   6.172826
    17  O    2.651887   2.328520   4.024227   4.629901   6.087081
                   11         12         13         14         15
    11  C    0.000000
    12  H    1.018579   0.000000
    13  H    1.017252   1.660740   0.000000
    14  H    1.017052   1.661618   1.653651   0.000000
    15  N    3.057998   4.043343   3.052640   3.039429   0.000000
    16  O    2.729992   3.739493   2.421262   2.638150   1.228218
    17  O    4.263178   5.240461   4.271596   4.151137   1.228300
                   16         17
    16  O    0.000000
    17  O    2.161045   0.000000
 Stoichiometry    C6H6N2O3
 Framework group  C1[X(C6H6N2O3)]
 Deg. of freedom    45
 Full point group                 C1      NOp   1
 RotChk:  IX=0 Diff= 1.78D-03
 Largest Abelian subgroup         C1      NOp   1
 Largest concise Abelian subgroup C1      NOp   1
                         Standard orientation:                         
 ---------------------------------------------------------------------
 Center     Atomic      Atomic             Coordinates (Angstroms)
 Number     Number       Type             X           Y           Z
 ---------------------------------------------------------------------
      1          7           0        2.165543   -0.149825   -0.039572
      2          6           0        1.418842    0.991120   -0.028164
      3          1           0        1.916088    1.852163   -0.051354
      4          6           0        0.036083    0.984293    0.011592
      5          6           0       -0.587731   -0.269681    0.018901
      6          6           0        0.172789   -1.433780    0.031101
      7          1           0       -0.280838   -2.318864    0.046023
      8          6           0        1.544143   -1.366623    0.022455
      9          1           0        2.110477   -2.183335    0.060053
     10          8           0        3.430658   -0.080649   -0.061609
     11          6           0       -0.653250    2.310811    0.166885
     12          1           0        0.044773    3.051000    0.215751
     13          1           0       -1.268835    2.480381   -0.625014
     14          1           0       -1.208481    2.312684    1.019005
     15          7           0       -2.009946   -0.422111   -0.037727
     16          8           0       -2.704923    0.563603   -0.269876
     17          8           0       -2.474188   -1.543868    0.148986
 ---------------------------------------------------------------------
 Rotational constants (GHZ):      2.3031497      0.8384265      0.6199083
 Leave Link  202 at Thu Aug 26 14:22:40 2021, MaxMem= 24159191040 cpu:         0.2
 (Enter /public/home/users/caep010/software/Gaussian09/g09/l301.exe)
 Standard basis: GTBas3 (6D, 7F)
 Ernie: Thresh=  0.10000D-02 Tol=  0.10000D-05 Strict=F.
 There are   371 symmetry adapted cartesian basis functions of A   symmetry.
 There are   338 symmetry adapted basis functions of A   symmetry.
   338 basis functions,   526 primitive gaussians,   371 cartesian basis functions
    40 alpha electrons       40 beta electrons
       nuclear repulsion energy       607.3818400251 Hartrees.
 IExCor=  402 DFT=T Ex+Corr=B3LYP ExCW=0 ScaHFX=  0.200000
 ScaDFX=  0.800000  0.720000  1.000000  0.810000 ScalE2=  1.000000  1.000000
 IRadAn=      0 IRanWt=     -1 IRanGd=            0 ICorTp=0 IEmpDi=  4
 NAtoms=   17 NActive=   17 NUniq=   17 SFac= 1.00D+00 NAtFMM=   60 NAOKFM=F Big=F
 Integral buffers will be    131072 words long.
 Raffenetti 2 integral format.
 Two-electron integral symmetry is turned on.
 Leave Link  301 at Thu Aug 26 14:22:40 2021, MaxMem= 24159191040 cpu:         1.6
 (Enter /public/home/users/caep010/software/Gaussian09/g09/l302.exe)
 NPDir=0 NMtPBC=     1 NCelOv=     1 NCel=       1 NClECP=     1 NCelD=      1
         NCelK=      1 NCelE2=     1 NClLst=     1 CellRange=     0.0.
 One-electron integrals computed using PRISM.
 NBasis=   338 RedAO= T EigKep=  1.20D-04  NBF=   338
 NBsUse=   338 1.00D-06 EigRej= -1.00D+00 NBFU=   338
 Precomputing XC quadrature grid using
 IXCGrd= 4 IRadAn=           0 IRanWt=          -1 IRanGd=           0 AccXCQ= 0.00D+00.
 Generated NRdTot=       0 NPtTot=           0 NUsed=           0 NTot=          32
 NSgBfM=   370   370   370   370   370 MxSgAt=    17 MxSgA2=    17.
 Leave Link  302 at Thu Aug 26 14:22:41 2021, MaxMem= 24159191040 cpu:        16.7
 (Enter /public/home/users/caep010/software/Gaussian09/g09/l303.exe)
 DipDrv:  MaxL=1.
 Leave Link  303 at Thu Aug 26 14:22:41 2021, MaxMem= 24159191040 cpu:         1.0
 (Enter /public/home/users/caep010/software/Gaussian09/g09/l401.exe)
 Initial guess from the checkpoint file:  "/public/home/users/caep010/.cache/gau_scr/Gau-59630.chk"
 B after Tr=     0.000000    0.000000    0.000000
         Rot=    1.000000    0.000154   -0.000038    0.000462 Ang=   0.06 deg.
 Guess basis will be translated and rotated to current coordinates.
 JPrj=2 DoOrth=T DoCkMO=T.
 Generating alternative initial guess.
 ExpMin= 1.61D-01 ExpMax= 5.48D+03 ExpMxC= 8.25D+02 IAcc=1 IRadAn=         1 AccDes= 0.00D+00
 Harris functional with IExCor=  402 and IRadAn=       1 diagonalized for initial guess.
 HarFok:  IExCor=  402 AccDes= 0.00D+00 IRadAn=         1 IDoV= 1 UseB2=F ITyADJ=14
 ICtDFT=  3500011 ScaDFX=  1.000000  1.000000  1.000000  1.000000
 FoFCou: FMM=F IPFlag=           0 FMFlag=      100000 FMFlg1=           0
         NFxFlg=           0 DoJE=T BraDBF=F KetDBF=T FulRan=T
         wScrn=  0.000000 ICntrl=     500 IOpCl=  0 I1Cent=   200000004 NGrid=           0
         NMat0=    1 NMatS0=      1 NMatT0=    0 NMatD0=    1 NMtDS0=    0 NMtDT0=    0
 Petite list used in FoFCou.
 Harris En= -567.344219503644    
 Leave Link  401 at Thu Aug 26 14:22:41 2021, MaxMem= 24159191040 cpu:        20.9
 (Enter /public/home/users/caep010/software/Gaussian09/g09/l502.exe)
 Closed shell SCF:
 Using DIIS extrapolation, IDIIS=  1040.
 Integral symmetry usage will be decided dynamically.
 Keep R1 ints in memory in canonical form, NReq=1667343251.
 IVT=      446027 IEndB=      446027 NGot= 24159191040 MDV= 22517587028
 LenX= 22517587028 LenY= 22517448946
 Requested convergence on RMS density matrix=1.00D-08 within 128 cycles.
 Requested convergence on MAX density matrix=1.00D-06.
 Requested convergence on             energy=1.00D-06.
 No special actions if energy rises.
 FoFCou: FMM=F IPFlag=           0 FMFlag=           0 FMFlg1=           0
         NFxFlg=           0 DoJE=F BraDBF=F KetDBF=F FulRan=T
         wScrn=  0.000000 ICntrl=     600 IOpCl=  0 I1Cent=           0 NGrid=           0
         NMat0=    1 NMatS0=  57291 NMatT0=    0 NMatD0=    1 NMtDS0=    0 NMtDT0=    0
 Symmetry not used in FoFCou.
 Integral accuracy reduced to 1.0D-05 until final iterations.

 Cycle   1  Pass 0  IDiag  1:
 E= -567.268007946033    
 DIIS: error= 3.44D-03 at cycle   1 NSaved=   1.
 NSaved= 1 IEnMin= 1 EnMin= -567.268007946033     IErMin= 1 ErrMin= 3.44D-03
 ErrMax= 3.44D-03  0.00D+00 EMaxC= 1.00D-01 BMatC= 5.30D-03 BMatP= 5.30D-03
 IDIUse=3 WtCom= 9.66D-01 WtEn= 3.44D-02
 Coeff-Com:  0.100D+01
 Coeff-En:   0.100D+01
 Coeff:      0.100D+01
 Gap=     0.993 Goal=   None    Shift=    0.000
 GapD=    0.993 DampG=2.000 DampE=1.000 DampFc=2.0000 IDamp=-1.
 RMSDP=5.08D-04 MaxDP=1.77D-02              OVMax= 1.68D-02

 Cycle   2  Pass 0  IDiag  1:
 E= -567.271775558432     Delta-E=       -0.003767612399 Rises=F Damp=F
 DIIS: error= 1.73D-03 at cycle   2 NSaved=   2.
 NSaved= 2 IEnMin= 2 EnMin= -567.271775558432     IErMin= 2 ErrMin= 1.73D-03
 ErrMax= 1.73D-03  0.00D+00 EMaxC= 1.00D-01 BMatC= 1.16D-03 BMatP= 5.30D-03
 IDIUse=3 WtCom= 9.83D-01 WtEn= 1.73D-02
 Coeff-Com:  0.251D+00 0.749D+00
 Coeff-En:   0.000D+00 0.100D+01
 Coeff:      0.247D+00 0.753D+00
 Gap=     0.138 Goal=   None    Shift=    0.000
 RMSDP=2.04D-04 MaxDP=1.34D-02 DE=-3.77D-03 OVMax= 3.03D-02

 Cycle   3  Pass 0  IDiag  1:
 E= -567.271598454599     Delta-E=        0.000177103833 Rises=F Damp=F
 DIIS: error= 2.10D-03 at cycle   3 NSaved=   3.
 NSaved= 3 IEnMin= 2 EnMin= -567.271775558432     IErMin= 2 ErrMin= 1.73D-03
 ErrMax= 2.10D-03  0.00D+00 EMaxC= 1.00D-01 BMatC= 1.44D-03 BMatP= 1.16D-03
 IDIUse=3 WtCom= 1.79D-01 WtEn= 8.21D-01
 Coeff-Com:  0.639D-01 0.517D+00 0.419D+00
 Coeff-En:   0.000D+00 0.531D+00 0.469D+00
 Coeff:      0.114D-01 0.529D+00 0.460D+00
 Gap=     0.143 Goal=   None    Shift=    0.000
 RMSDP=1.74D-04 MaxDP=1.47D-02 DE= 1.77D-04 OVMax= 3.21D-02

 Cycle   4  Pass 0  IDiag  1:
 E= -567.272526580997     Delta-E=       -0.000928126398 Rises=F Damp=F
 DIIS: error= 1.28D-03 at cycle   4 NSaved=   4.
 NSaved= 4 IEnMin= 4 EnMin= -567.272526580997     IErMin= 4 ErrMin= 1.28D-03
 ErrMax= 1.28D-03  0.00D+00 EMaxC= 1.00D-01 BMatC= 4.23D-04 BMatP= 1.16D-03
 IDIUse=3 WtCom= 9.87D-01 WtEn= 1.28D-02
 EnCoef did     4 forward-backward iterations
 Coeff-Com:  0.110D-01 0.297D+00 0.338D+00 0.354D+00
 Coeff-En:   0.000D+00 0.776D-02 0.260D+00 0.732D+00
 Coeff:      0.109D-01 0.293D+00 0.337D+00 0.359D+00
 Gap=     0.140 Goal=   None    Shift=    0.000
 RMSDP=7.22D-05 MaxDP=5.96D-03 DE=-9.28D-04 OVMax= 1.37D-02

 Cycle   5  Pass 0  IDiag  1:
 E= -567.272914263638     Delta-E=       -0.000387682640 Rises=F Damp=F
 DIIS: error= 1.21D-04 at cycle   5 NSaved=   5.
 NSaved= 5 IEnMin= 5 EnMin= -567.272914263638     IErMin= 5 ErrMin= 1.21D-04
 ErrMax= 1.21D-04  0.00D+00 EMaxC= 1.00D-01 BMatC= 7.20D-06 BMatP= 4.23D-04
 IDIUse=3 WtCom= 9.99D-01 WtEn= 1.21D-03
 Coeff-Com: -0.400D-03 0.952D-01 0.119D+00 0.176D+00 0.611D+00
 Coeff-En:   0.000D+00 0.000D+00 0.000D+00 0.000D+00 0.100D+01
 Coeff:     -0.400D-03 0.951D-01 0.119D+00 0.175D+00 0.611D+00
 Gap=     0.141 Goal=   None    Shift=    0.000
 RMSDP=1.04D-05 MaxDP=6.41D-04 DE=-3.88D-04 OVMax= 1.75D-03

 Cycle   6  Pass 0  IDiag  1:
 E= -567.272920084134     Delta-E=       -0.000005820497 Rises=F Damp=F
 DIIS: error= 3.85D-05 at cycle   6 NSaved=   6.
 NSaved= 6 IEnMin= 6 EnMin= -567.272920084134     IErMin= 6 ErrMin= 3.85D-05
 ErrMax= 3.85D-05  0.00D+00 EMaxC= 1.00D-01 BMatC= 1.19D-06 BMatP= 7.20D-06
 IDIUse=1 WtCom= 1.00D+00 WtEn= 0.00D+00
 Coeff-Com: -0.148D-02 0.253D-01 0.351D-01 0.639D-01 0.361D+00 0.516D+00
 Coeff:     -0.148D-02 0.253D-01 0.351D-01 0.639D-01 0.361D+00 0.516D+00
 Gap=     0.141 Goal=   None    Shift=    0.000
 RMSDP=3.58D-06 MaxDP=2.23D-04 DE=-5.82D-06 OVMax= 4.00D-04

 Initial convergence to 1.0D-05 achieved.  Increase integral accuracy.
 Cycle   7  Pass 1  IDiag  1:
 E= -567.272858164752     Delta-E=        0.000061919382 Rises=F Damp=F
 DIIS: error= 2.05D-05 at cycle   1 NSaved=   1.
 NSaved= 1 IEnMin= 1 EnMin= -567.272858164752     IErMin= 1 ErrMin= 2.05D-05
 ErrMax= 2.05D-05  0.00D+00 EMaxC= 1.00D-01 BMatC= 3.15D-07 BMatP= 3.15D-07
 IDIUse=1 WtCom= 1.00D+00 WtEn= 0.00D+00
 Coeff-Com:  0.100D+01
 Coeff:      0.100D+01
 Gap=     0.141 Goal=   None    Shift=    0.000
 RMSDP=3.58D-06 MaxDP=2.23D-04 DE= 6.19D-05 OVMax= 7.01D-04

 Cycle   8  Pass 1  IDiag  1:
[...]
 5,-0.4578497534\H,0,3.0034723581,3.2324951534,-0.9247834739\H,0,4.0539
 927205,4.028030746,0.2210744992\N,0,1.2234466649,4.0642306005,1.459850
 3683\O,0,1.6765434653,4.7635002751,0.5584489783\O,0,0.2501567202,4.365
 632936,2.1432374011\\Version=ES64L-G09RevE.01\State=1-A\HF=-564.219501
 1\RMSD=4.042e-09\Dipole=0.2631946,0.0161078,-0.2525228\Quadrupole=3.97
 62664,-11.637195,7.6609286,9.0786009,-5.3328327,3.2558107\PG=C01 [X(C6
 H6N2O3)]\\@


 SATCHEL PAIGE'S GUIDE TO LONGEVITY

    1.  AVOID FRIED MEATS, WHICH ANGRY UP THE BLOOD.

    2.  IF YOUR STOMACH DISPUTES YOU, LIE DOWN AND PACIFY IT WITH COOL
        THOUGHTS.

    3.  KEEP THE JUICES FLOWING BY JANGLING AROUND GENTLY AS YOU MOVE.

    4.  GO VERY LIGHT ON THE VICES, SUCH AS CARRYING ON IN SOCIETY.
        THE SOCIAL RUMBLE AIN'T RESTFUL.

    5.  AVOID RUNNING AT ALL TIMES.

    6.  DON'T LOOK BACK.  SOMETHING MAY BE GAINING ON YOU.
 Diagonal vibrational polarizability:
        0.0000000       0.0000000       0.0000000

 Temperature=              298.150000 Pressure=                      1.000000
 E(ZPE)=                     0.121675 E(Thermal)=                    0.130762
 E(CCSD(T))=              -565.727603 E(Empiric)=                   -0.201463
 DE(Plus)=                  -0.040685 DE(2DF)=                      -0.403114
 E(Delta-G3XP)=             -0.710116 DE(HF)=                       -0.055989
 G4(0 K)=                 -567.017294 G4 Energy=                  -567.008207
 G4 Enthalpy=             -567.007263 G4 Free Energy=             -567.052224
 1\1\GINC-B1228\Mixed\G4\G4\C6H6N2O3\ROOT\26-Aug-2021\0\\#P Geom=AllChe
 ck Guess=TCheck SCRF=Check HF/GFHFB2 SCF=Tight\\MNPYDO29\\0,1\N,0,2.99
 27529478,0.3371906956,2.4261559345\C,0,3.5167993117,1.1022969973,1.414
 4771455\H,0,4.3759855028,0.6457930763,0.9440600221\C,0,3.0033720745,2.
 3298799596,1.03259898\C,0,1.8783334475,2.7904376355,1.7439955567\C,0,1
 .3406304465,2.017773648,2.7734650643\H,0,0.4770675601,2.3847599265,3.3
 10226634\C,0,1.8952756177,0.809712423,3.1039442851\H,0,1.5423515157,0.
 1519196951,3.8842345364\O,0,3.5073509265,-0.772960053,2.725420218\C,0,
 3.6924206451,3.0484032496,-0.0979563961\H,0,4.5351480751,2.4539030355,
 -0.4578497534\H,0,3.0034723581,3.2324951534,-0.9247834739\H,0,4.053992
 7205,4.028030746,0.2210744992\N,0,1.2234466649,4.0642306005,1.45985036
 83\O,0,1.6765434653,4.7635002751,0.5584489783\O,0,0.2501567202,4.36563
 2936,2.1432374011\\Version=ES64L-G09RevE.01\State=1-A\MP2/GTBas1=-565.
 6345392\MP4/GTBas1=-565.7472459\CCSD(T)/G3Bas1=-565.727603\MP2/GTBas2=
 -565.6727891\MP4/GTBas2=-565.7879304\MP2/GTBas3=-566.0155027\MP4/GTBas
 3=-566.1503599\HF/GTLargeXP=-564.1656541\MP2/GTLargeXP=-566.7638685\HF
 /GFHFB1=-564.2107125\HF/GFHFB2=-564.2195011\G4=-567.0172939\FreqCoord=
 5.6554834547,0.6371980692,4.5847702719,6.6457875634,2.083039442,2.6729
 744263,8.2694141618,1.2203720527,1.7840148948,5.6755506959,4.402835046
 1,1.9513292772,3.549535802,5.273162922,3.2956739792,2.5334243894,3.813
 0395928,5.2410894106,0.9015270355,4.5065431537,6.255421776,3.581551863
 8,1.530134726,5.8656046306,2.9146219653,0.2870866179,7.3401395097,6.62
 7932703,-1.4606828118,5.150297809,6.9776637867,5.7606472843,-0.1851107
 615,8.5701878339,4.6372046937,-0.865210644,5.6757402044,6.1085305658,-
 1.747587498,7.6609359865,7.6118749649,0.4177702584,2.3119791349,7.6802
 827759,2.7587173911,3.1682079993,9.0017109539,1.0553156281,0.472727691
 4,8.2498506457,4.0501317257\PG=C01 [X(C6H6N2O3)]\NImag=0\\0.52091547,-
 0.17163802,0.66149849,-0.17265422,-0.16142153,0.47285628,-0.15575639,-
 0.02359431,0.08919420,0.53004310,0.01610230,-0.14088397,0.03007603,-0.
 22339578,0.60887953,0.06162692,0.06646016,-0.17896009,-0.21859852,-0.1
 3317046,0.41510865,-0.01099386,0.00764677,0.00886563,-0.23341891,0.103
 69191,0.11151610,0.24362387,-0.01792545,0.00760787,0.01425265,0.110277
 34,-0.10305690,-0.05253887,-0.11189931,0.10535377,0.02662595,-0.009185
 01,-0.01355158,0.10693842,-0.04650076,-0.09889118,-0.12397775,0.045755
 68,0.10541473,0.04612565,-0.00620018,-0.04069209,-0.13807739,0.0789495
 8,0.01602722,-0.00394231,0.01870072,-0.00643474,0.47115275,-0.03746676
 ,-0.03510643,0.05666235,0.11669344,-0.28250718,0.04702509,0.00229767,-
 0.00607158,0.00433361,-0.13206364,0.55303020,-0.01897950,0.02800447,-0
 .00501499,-0.01018121,0.08161809,-0.10811938,0.00495399,-0.01069797,0.
 00609207,-0.17542718,-0.13819887,0.43648021,-0.03417465,-0.01322562,0.
 03289919,-0.01287339,0.05683407,-0.01831384,0.00287359,0.00185888,0.00
 156275,-0.20346714,0.03181341,0.10352564,0.46923911,-0.01579990,0.0074
 3550,0.00355333,0.02926837,-0.01479664,-0.00946674,0.00259188,-0.00235
 596,0.00341781,0.06306088,-0.11749127,-0.02233186,-0.09553316,0.470646
 04,0.03468917,0.00119312,-0.04092717,0.00082675,-0.03473500,0.03356348
 ,0.00105350,0.00409019,0.00218138,0.08183248,0.00630732,-0.14580369,-0
 .24002043,-0.14548132,0.45609756,-0.02202327,0.03609187,-0.00453374,-0
 .00242667,-0.00133942,0.00082393,0.00019791,-0.00034941,-0.00038166,-0
 .01467398,-0.00971000,0.02762109,-0.13284295,-0.04963710,0.09785962,0.
 53106381,0.06508883,-0.01127898,-0.05157095,0.00037886,-0.03933744,0.0
 2520478,-0.00040258,-0.00040766,0.00031649,-0.03528629,0.04661279,0.00
 560168,-0.01347830,-0.14964007,0.07203716,-0.19073366,0.60665518,-0.02
 467342,-0.02498927,0.04034162,-0.00036987,0.02677971,-0.02079998,-0.00
 034503,0.00026761,-0.00035342,0.04538058,-0.01784146,-0.02110531,0.072
 75115,0.10518134,-0.20342222,-0.22901363,-0.15147977,0.45185583,0.0047
 9392,0.00331747,0.00258514,0.00044982,-0.00023782,-0.00047940,-0.00019
 798,-0.00008273,-0.00016384,0.00142628,-0.00077786,0.00269897,-0.00516
 860,0.00448656,0.00667661,-0.23768358,0.08095845,0.12544470,0.24670270
 ,0.00357363,-0.00189963,0.00507464,-0.00027172,-0.00080340,0.00063103,
 -0.00006987,-0.00006333,-0.00019705,-0.00038904,-0.00145656,0.00399427
 ,-0.01295314,0.01118576,0.00793502,0.08190851,-0.08287384,-0.04496475,
 -0.09164105,0.08357973,0.00240653,0.00531074,0.00423265,-0.00045595,0.
 00059920,-0.00025142,-0.00017270,-0.00018536,-0.00015237,0.00242810,0.
 00435092,-0.00146612,0.01878827,-0.00804872,-0.00611884,0.12478522,-0.
 04409612,-0.12327101,-0.13718907,0.04514360,0.12202986,-0.18633182,0.0
 4488230,0.06951203,-0.01473949,-0.03446983,0.04500206,0.00232208,0.000
 77132,0.00117713,-0.02794698,0.02790700,0.00495062,0.03557680,0.008432
 22,-0.03028015,-0.13919810,0.08952163,0.01551145,-0.00529925,0.0208809
 4,-0.00769944,0.43716915,0.00631445,-0.12898228,0.03066972,-0.01067843
 ,0.04620472,-0.01657640,-0.00121762,-0.00178877,0.00526832,0.02934527,
 -0.02913393,-0.00764140,-0.02149705,-0.03783357,0.05218156,0.12595759,
 -0.31786586,0.06745117,0.00193992,-0.00420857,0.00261753,-0.14005468,0
 .66736878,0.09629674,-0.00468522,-0.16149645,0.02848083,0.00523373,-0.
 02149702,0.00255792,0.00344537,-0.00054700,0.00395303,-0.00632334,-0.0
 0063556,-0.00949381,0.02474822,0.00045212,-0.00979487,0.10085356,-0.11
 551733,0.00545418,-0.01474534,0.00736051,-0.19389658,-0.25205968,0.472
 28670,-0.01141985,-0.01727670,0.02624355,-0.00169063,0.00499248,0.0020
 5947,-0.00024852,-0.00073583,0.00108765,-0.00063128,0.00033293,-0.0001
 5404,0.00142062,0.00435311,0.00242365,0.00802274,0.00765057,-0.0110482
 0,-0.00108723,-0.00161643,-0.00172391,-0.07702247,-0.04963675,0.075136
 65,0.08051575,0.00846898,0.00824026,-0.01062236,0.00302483,-0.00027778
 ,0.00043363,0.00031477,0.00058515,-0.00043062,0.00015213,-0.00027732,-
 0.00032675,0.00498868,-0.00087490,0.00114672,-0.01002566,-0.00932503,0
 .01689193,-0.00138533,-0.00020934,-0.00149610,-0.05716274,-0.16280947,
 0.14277903,0.05425689,0.16495705,0.00836404,0.01297625,-0.01255594,0.0
 0342616,-0.00136983,0.00215009,0.00035803,0.00053242,-0.00031740,-0.00
 002816,-0.00049256,-0.00017925,0.00198187,0.00172990,0.00434441,0.0012
 2669,0.00068853,0.00016289,-0.00188470,-0.00128400,-0.00157323,0.08036
 381,0.13588186,-0.20067881,-0.08989327,-0.14793045,0.20867525,-0.15009
 046,0.13335304,-0.01686014,0.02419505,-0.00567254,-0.00235599,-0.00002
 431,-0.00137917,-0.00295880,-0.00413119,0.00432777,0.00674247,0.002340
 18,0.00629662,-0.00678471,0.00074292,-0.00763642,0.01016342,-0.0006708
 2,0.00072553,-0.00084538,-0.02767180,0.06332379,-0.00273224,0.00150246
 ,-0.00187989,-0.00384581,0.15253482,0.13397827,-0.36219977,0.08188443,
 0.01120412,-0.05907584,0.04279128,-0.00034227,0.00090706,-0.00330122,-
 0.00263328,0.00872892,0.00086733,0.00650681,-0.01094816,0.00143793,-0.
 00135664,0.00540119,0.00168907,-0.00010418,-0.00083737,-0.00004766,0.0
 4569103,-0.03687411,-0.00424161,-0.00265690,0.00050348,-0.00077388,-0.
 18833695,0.45129821,-0.01729547,0.08245700,-0.10885962,-0.01407443,0.0
 5826014,-0.01022977,-0.00367908,-0.00235038,0.00070650,0.01157657,-0.0
 0551324,-0.00027977,-0.00693027,0.00162965,0.00493013,0.00580171,0.007
 44643,-0.00444367,-0.00026930,-0.00080787,-0.00023554,0.00951289,-0.02
 040406,0.02277325,-0.00330613,-0.00148596,-0.00005505,0.02028805,-0.11
 857020,0.09572168,0.00250891,0.00644538,0.00432297,0.00913819,0.001917
 27,-0.00424679,-0.00137212,0.00042266,-0.00342388,-0.10766447,-0.02586
 898,0.05122427,-0.00832717,-0.01255036,0.01884681,-0.00121901,0.004214
 09,0.00226225,0.00001656,-0.00051602,0.00078257,-0.00022109,-0.0001855
 3,-0.00038912,-0.00023367,-0.00028625,-0.00028756,-0.00008982,0.000098
 38,-0.00130670,0.54881030,0.00739330,0.00061886,0.00120006,-0.01172212
 ,-0.01974456,0.02859103,-0.00250233,-0.00060100,-0.00061230,-0.0171774
 5,-0.10593354,0.03974087,-0.00152156,0.01458722,-0.00684037,0.00505857
 ,-0.00180663,-0.00029699,0.00052686,0.00083914,-0.00073265,-0.00145786
 ,-0.00043799,0.00109422,-0.00028610,-0.00004712,-0.00023559,-0.0011809
 8,-0.00058419,0.00048794,-0.03913295,0.55704004,0.00366403,0.00207112,
 0.00730961,0.00522401,0.01608897,-0.01000462,-0.00139096,-0.00329462,-
 0.00122284,0.04519108,0.04771115,-0.14593193,0.01118702,0.00326814,-0.
 00979825,0.00167700,0.00047584,0.00257462,0.00005852,0.00022322,0.0002
 7089,0.00049350,-0.00007146,-0.00118884,-0.00028750,-0.00023555,-0.000
 33703,-0.00041805,-0.00068497,-0.00058172,0.02244490,0.02658550,0.5046
 2905,0.00000100,-0.00006087,-0.00020151,0.00011081,0.00162000,-0.00141
 108,0.00074009,-0.00057913,0.00015381,-0.01320988,0.00754424,0.0050429
 6,0.00103390,-0.00177972,0.00179517,-0.00042986,0.00093158,0.00007115,
 -0.00007908,-0.00018513,0.00010051,0.00032863,-0.00014020,-0.00019936,
 0.00007725,-0.00002889,-0.00002335,0.00016956,-0.00031478,0.00002126,-
 0.20563345,0.11101988,0.06593464,0.22161990,-0.00024993,0.00019345,-0.
 00008864,-0.00170103,0.00014161,0.00132159,0.00006229,-0.00017412,0.00
 038916,-0.01458520,0.00776509,0.00659518,-0.00041980,-0.00158489,0.002
 62661,-0.00056149,0.00040348,0.00047986,-0.00011507,-0.00019722,0.0001
 6618,-0.00018716,0.00010551,0.00010177,0.00001109,0.00000180,0.0000092
 4,0.00001463,0.00014421,-0.00014535,0.11460669,-0.13039892,-0.04900995
 ,-0.12374212,0.14080615,-0.00007001,-0.00026227,-0.00001801,0.00089584
 ,-0.00172270,0.00017482,-0.00029222,0.00097755,0.00005707,0.02040592,-
 0.01369339,-0.01119574,0.00085093,0.00387235,-0.00182583,0.00110779,-0
 .00088847,-0.00004471,0.00005188,0.00023045,-0.00031714,-0.00016671,0.
 00005866,0.00011688,-0.00005119,0.00004595,0.00004484,-0.00020753,0.00
 015661,0.00003567,0.06344639,-0.04572218,-0.07607333,-0.07540423,0.047
 39724,0.08189427,-0.00005797,-0.00089140,-0.00106427,-0.00096493,-0.00
 092180,0.00129871,0.00014814,-0.00020215,0.00009826,0.01249574,-0.0017
 3102,0.01236150,-0.00069394,0.00145515,0.00031388,-0.00012775,-0.00066
 121,-0.00045740,-0.00001144,0.00002602,-0.00003660,-0.00024641,0.00001
 557,0.00032360,0.00003236,0.00003511,0.00000607,-0.00003586,0.00012731
 ,0.00028074,-0.15614008,0.02841650,-0.13018041,-0.01395474,0.00190441,
 -0.01741452,0.16861340,-0.00109969,-0.00130131,-0.00033126,-0.00123591
 ,0.00032341,0.00129437,0.00030145,0.00032633,0.00053194,0.00870958,-0.
 00643567,0.01512311,0.00098166,-0.00048382,-0.00097130,-0.00015513,-0.
 00026156,-0.00002458,-0.00002916,0.00003066,-0.00004007,0.00024205,-0.
 00002006,-0.00012499,0.00003917,0.00003929,0.00008591,0.00010952,-0.00
 015552,0.00022351,0.03048663,-0.04628453,0.03391512,0.01023826,-0.0031
 1031,0.01348758,-0.03047198,0.05355292,0.00021493,0.00105643,0.0008514
 1,0.00175313,-0.00046431,-0.00166713,-0.00019161,-0.00001609,-0.000240
 14,-0.01404855,0.00481324,-0.01920364,0.00030658,0.00019760,0.00128116
 ,0.00041287,0.00088036,-0.00003686,0.00002884,0.00007498,-0.00003032,0
 .00021169,-0.00019866,-0.00022369,-0.00001195,-0.00005617,-0.00002586,
 0.00016327,-0.00018730,-0.00024591,-0.12981098,0.03399947,-0.19882942,
 0.00757623,-0.00185985,0.00987896,0.14072735,-0.04032808,0.21595175,0.
 00093479,0.00002592,-0.00021802,-0.00099461,-0.00008149,0.00093975,0.0
 0018824,-0.00009965,0.00010121,-0.00501175,-0.01194309,-0.00583435,-0.
 00023928,0.00106519,0.00040793,0.00039246,-0.00022738,0.00064544,0.000
 00670,-0.00005614,0.00005391,-0.00045962,0.00010191,0.00023370,0.00000
 107,0.00003563,-0.00002045,-0.00031958,0.00017661,0.00001712,-0.072579
 62,-0.08088235,-0.02325564,0.00949758,0.02258845,0.00720595,-0.0077391
 8,-0.01808885,-0.00683922,0.07649946,0.00038559,-0.00005130,0.00110833
 ,-0.00169833,0.00062650,0.00054411,-0.00042912,-0.00017293,-0.00029621
 ,-0.00574295,-0.01507316,0.00004072,0.00205939,-0.00022398,-0.00010140
 ,-0.00010426,-0.00019321,0.00043693,0.00000318,-0.00001762,0.00004888,
 0.00007942,0.00004529,-0.00019346,-0.00006632,-0.00002225,-0.00002342,
 -0.00007497,-0.00009495,0.00005729,-0.08131902,-0.26164242,-0.07609502
 ,-0.00562734,-0.01290933,-0.00454284,0.00235375,0.00355995,0.00120141,
 0.08822248,0.28613691,-0.00160257,-0.00014195,-0.00139226,0.00182699,0
 .00053273,-0.00193866,0.00026965,0.00041204,0.00021873,0.00902218,0.02
 560542,0.00694026,0.00005362,-0.00079275,0.00056501,-0.00066218,0.0001
 0872,-0.00062543,-0.00001440,-0.00006242,-0.00000033,0.00020434,0.0000
 6708,-0.00007531,0.00006549,0.00002899,0.00006697,0.00032165,0.0002212
 7,-0.00002242,-0.02475385,-0.07468442,-0.06702598,-0.00398258,-0.00742
 198,-0.00377473,-0.00859824,-0.02242788,-0.00767126,0.02609595,0.07841
 325,0.07546960,-0.00591539,0.00400576,0.00134197,-0.00188040,0.0015188
 9,0.00747177,0.00024814,0.00099269,0.00012565,-0.01435299,0.02657974,-
 0.00860983,-0.10150780,0.01464518,0.00989917,0.01222598,0.00208628,-0.
 01398225,-0.00374590,-0.00330230,0.00155135,0.00454202,-0.00558377,0.0
 0617493,0.00123171,-0.00067640,0.00049381,0.00231723,-0.00509863,0.000
 68549,-0.00086386,-0.00116164,-0.00273177,0.00061096,-0.00037750,-0.00
 024639,-0.00007612,0.00045813,0.00086674,-0.00149229,-0.00046150,0.001
 37799,0.62599608,0.00511930,-0.00855017,0.00026261,0.00298628,0.007163
 31,-0.00255824,-0.00010698,0.00073034,0.00038052,0.02088130,-0.0144428
 4,-0.01162397,0.01411401,-0.11258502,0.00995614,0.00519185,-0.04058323
 ,0.02242016,-0.00024606,0.00089004,-0.00355647,-0.00739648,0.00907815,
 0.00537029,0.00023897,0.00034505,0.00041446,-0.00497038,0.00953831,-0.
 00262212,-0.00057927,-0.00431079,0.00024066,0.00057860,-0.00187324,0.0
 0081141,-0.00149156,0.00230879,0.00239483,-0.00397212,0.00054500,0.001
 24366,-0.07005251,0.57088066,0.00057157,0.00128190,-0.00282907,0.00645
 235,-0.00121495,0.00235000,0.00088910,-0.00062735,0.00075777,-0.004658
 66,-0.01684074,0.01235331,0.01026881,0.00946537,-0.09559443,-0.0161371
 3,0.02526114,-0.00419481,-0.00057059,-0.00075319,-0.00350973,0.0074329
 2,0.00371067,-0.00234227,-0.00014217,0.00125399,0.00051726,0.00059605,
 -0.00250370,0.00039438,-0.00313734,0.00077878,-0.00238761,-0.00091080,
 0.00168706,-0.00028164,0.00259063,-0.00109413,-0.00344542,0.00344813,-
 0.00027508,-0.00026162,-0.30877197,-0.16816267,0.63633668,0.00016454,-
 0.00052592,0.00074690,0.00017051,-0.00047660,-0.00049013,0.00007982,-0
 .00009535,-0.00008189,-0.00296251,-0.00069092,0.00274194,0.02062010,-0
 .00010378,-0.00087392,-0.00047164,0.00347665,0.00085948,0.00039745,0.0
 0123823,-0.00062267,0.00102461,-0.00054140,-0.00160237,-0.00032205,0.0
 0004906,-0.00025458,0.00006937,0.00039360,-0.00033789,-0.00631764,0.00
 466591,0.00098051,-0.00041246,0.00233837,0.00014810,-0.00080157,-0.000
 16916,-0.00050917,0.00070139,0.00228744,0.00030555,-0.15397659,-0.0600
 1381,0.11115607,0.17248393,-0.00223983,0.00262537,0.00063319,-0.000587
 21,-0.00092082,0.00067372,0.00003470,-0.00016121,0.00002338,-0.0042329
 0,0.00144306,0.00253431,-0.00742869,-0.03957579,0.04791336,0.00666742,
 -0.00136757,-0.00300912,0.00006626,0.00071329,-0.00010006,0.00064224,-
 0.00289348,0.00063225,0.00035521,-0.00072518,-0.00021273,0.00183334,-0
 .00301805,0.00041477,0.00227600,-0.00223776,-0.00172772,0.00065933,0.0
 0045223,0.00014054,0.00190344,-0.00179869,-0.00087399,0.00252080,-0.00
 032115,-0.00081776,-0.07260338,-0.26574949,0.19685268,0.08383857,0.276
 80627,0.00193627,-0.00093754,-0.00054298,-0.00041329,0.00057425,-0.000
 74435,-0.00017217,0.00014262,-0.00002281,0.00520349,-0.00071552,-0.004
 76975,0.00421573,0.04119359,-0.01289485,-0.00135753,-0.00008301,0.0044
 0215,0.00019050,-0.00117659,0.00129648,-0.00242376,0.00171827,-0.00010
 385,-0.00046732,0.00006802,-0.00018153,-0.00133773,0.00173413,0.000020
 70,0.00263550,-0.00391624,-0.00141850,0.00131674,-0.00139988,0.0012899
 1,0.00005100,0.00020717,0.00281013,-0.00185431,0.00021237,-0.00016372,
 0.11990071,0.18530932,-0.31695945,-0.19008384,-0.24922620,0.37624594,0
 .00131937,-0.00235548,0.00051241,-0.00128466,0.00096879,-0.00087017,-0
 .00022385,0.00032454,-0.00044827,0.00487146,0.00275607,-0.00267733,-0.
 03380938,0.03974887,0.02133446,-0.00154900,-0.00588109,0.00680017,0.00
 015044,0.00264797,-0.00215073,-0.00182625,0.00253693,-0.00050322,-0.00
 014827,0.00011909,0.00001739,-0.00083777,0.00266752,-0.00098456,0.0001
 8803,-0.00005566,0.00140911,-0.00047021,0.00041338,-0.00025999,-0.0004
 3966,-0.00031656,-0.00085016,0.00061423,0.00013254,0.00007041,-0.36336
 078,0.09971885,0.19092305,-0.03044727,-0.01370529,0.06266001,0.4272535
 7,-0.00000505,0.00203405,-0.00134262,0.00105157,-0.00193454,-0.0006600
 8,0.00002866,-0.00065706,0.00010626,-0.00148852,-0.00365058,0.00670080
 ,0.04690042,-0.01546046,-0.01869576,0.00309697,-0.00413156,0.00100816,
 0.00332056,-0.00467174,0.00006617,0.00167861,0.00004564,-0.00188481,0.
 00004460,-0.00010368,0.00000389,0.00114706,-0.00273341,0.00092245,-0.0
 0002871,0.00094421,0.00053958,-0.00013370,0.00023449,-0.00034650,0.000
 13388,-0.00028987,-0.00063389,0.00061406,-0.00019136,-0.00028401,0.109
 03096,-0.15338486,-0.04881976,-0.03567091,0.03672897,0.02629521,-0.129
 72044,0.14722177,-0.00112094,0.00081159,0.00055659,-0.00092541,-0.0005
 8486,-0.00024343,-0.00024241,-0.00016552,-0.00012949,0.00026871,0.0028
 1003,0.00183927,0.01636680,-0.01213593,0.01297003,0.00056483,0.0092436
 4,-0.00552236,-0.00261804,0.00068398,0.00173566,0.00009419,-0.00267320
 ,0.00131668,0.00006922,-0.00006428,-0.00005761,0.00007147,-0.00047152,
 0.00037117,0.00139056,0.00056287,0.00001590,0.00012041,-0.00084823,0.0
 0003870,-0.00030028,0.00047357,0.00084624,-0.00112712,-0.00053586,-0.0
 0030883,0.18445265,-0.04028057,-0.22090335,0.07791792,0.00614937,-0.04
 826351,-0.27498259,0.03702491,0.25573833\\0.00002132,-0.00001274,-0.00
 000516,-0.00005381,0.00002789,0.00002339,0.00003710,-0.00001969,-0.000
 01613,0.00001197,0.00000403,-0.00000865,-0.00004653,0.00007060,-0.0000
 1823,0.00003403,-0.00002584,-0.00000965,-0.00002979,0.00001110,0.00002
 021,0.00001190,0.00004347,-0.00004537,-0.00000531,-0.00003769,0.000031
 30,0.00000165,0.00000376,-0.00000523,0.00001350,-0.00000512,0.00000127
 ,-0.00000094,-0.00000162,-0.00000384,-0.00000318,0.00000286,0.00000276
 ,-0.00000600,-0.00000082,0.00000071,0.00003923,-0.00007612,0.00002527,
 -0.00002338,0.00001155,0.00000926,-0.00000176,0.00000436,-0.00000190\\
 \@
 Job cpu time:       0 days 16 hours 32 minutes 36.2 seconds.
 File lengths (MBytes):  RWF=  57931 Int=      0 D2E=      0 Chk=     93 Scr=      1
 Normal termination of Gaussian 09 at Thu Aug 26 17:24:35 2021.
