 Entering Gaussian System, Link 0=g09
 Input=G4.MIYDII.gjf
 Output=G4.MIYDII.log
 Initial command:
 /public/home/users/caep010/software/Gaussian09/g09/l1.exe "/public/home/users/caep010/.cache/gau_scr/Gau-67657.inp" -scrdir="/public/home/users/caep010/.cache/gau_scr/"
 Entering Link 1 = /public/home/users/caep010/software/Gaussian09/g09/l1.exe PID=     67658.
  
 Copyright (c) 1988,1990,1992,1993,1995,1998,2003,2009,2015,
            Gaussian, Inc.  All Rights Reserved.
  
 This is part of the Gaussian(R) 09 program.  It is based on
 the Gaussian(R) 03 system (copyright 2003, Gaussian, Inc.),
 the Gaussian(R) 98 system (copyright 1998, Gaussian, Inc.),
 the Gaussian(R) 94 system (copyright 1995, Gaussian, Inc.),
 the Gaussian 92(TM) system (copyright 1992, Gaussian, Inc.),
 the Gaussian 90(TM) system (copyright 1990, Gaussian, Inc.),
 the Gaussian 88(TM) system (copyright 1988, Gaussian, Inc.),
 the Gaussian 86(TM) system (copyright 1986, Carnegie Mellon
 University), and the Gaussian 82(TM) system (copyright 1983,
 Carnegie Mellon University). Gaussian is a federally registered
 trademark of Gaussian, Inc.
  
 This software contains proprietary and confidential information,
 including trade secrets, belonging to Gaussian, Inc.
  
 This software is provided under written license and may be
 used, copied, transmitted, or stored only in accord with that
 written license.
  
 The following legend is applicable only to US Government
 contracts under FAR:
  
                    RESTRICTED RIGHTS LEGEND
  
 Use, reproduction and disclosure by the US Government is
 subject to restrictions as set forth in subparagraphs (a)
 and (c) of the Commercial Computer Software - Restricted
 Rights clause in FAR 52.227-19.
  
 Gaussian, Inc.
 340 Quinnipiac St., Bldg. 40, Wallingford CT 06492
  
  
 ---------------------------------------------------------------
 Warning -- This program may not be used in any manner that
 competes with the business of Gaussian, Inc. or will provide
 assistance to any competitor of Gaussian, Inc.  The licensee
 of this program is prohibited from giving any competitor of
 Gaussian, Inc. access to this program.  By using this program,
 the user acknowledges that Gaussian, Inc. is engaged in the
 business of creating and licensing software in the field of
 computational chemistry and represents and warrants to the
 licensee that it is not a competitor of Gaussian, Inc. and that
 it will not use this program in any manner prohibited above.
 ---------------------------------------------------------------
  

 Cite this work as:
 Gaussian 09, Revision E.01,
 M. J. Frisch, G. W. Trucks, H. B. Schlegel, G. E. Scuseria, 
 M. A. Robb, J. R. Cheeseman, G. Scalmani, V. Barone, B. Mennucci, 
 G. A. Petersson, H. Nakatsuji, M. Caricato, X. Li, H. P. Hratchian, 
 A. F. Izmaylov, J. Bloino, G. Zheng, J. L. Sonnenberg, M. Hada, 
 M. Ehara, K. Toyota, R. Fukuda, J. Hasegawa, M. Ishida, T. Nakajima, 
 Y. Honda, O. Kitao, H. Nakai, T. Vreven, J. A. Montgomery, Jr., 
 J. E. Peralta, F. Ogliaro, M. Bearpark, J. J. Heyd, E. Brothers, 
 K. N. Kudin, V. N. Staroverov, T. Keith, R. Kobayashi, J. Normand, 
 K. Raghavachari, A. Rendell, J. C. Burant, S. S. Iyengar, J. Tomasi, 
 M. Cossi, N. Rega, J. M. Millam, M. Klene, J. E. Knox, J. B. Cross, 
 V. Bakken, C. Adamo, J. Jaramillo, R. Gomperts, R. E. Stratmann, 
 O. Yazyev, A. J. Austin, R. Cammi, C. Pomelli, J. W. Ochterski, 
 R. L. Martin, K. Morokuma, V. G. Zakrzewski, G. A. Voth, 
 P. Salvador, J. J. Dannenberg, S. Dapprich, A. D. Daniels, 
 O. Farkas, J. B. Foresman, J. V. Ortiz, J. Cioslowski, 
 and D. J. Fox, Gaussian, Inc., Wallingford CT, 2013.
 
 ******************************************
 Gaussian 09:  ES64L-G09RevE.01 30-Nov-2015
                26-Aug-2021 
 ******************************************
 %nproc=32
 Will use up to   32 processors via shared memory.
 %mem=180GB
 ----------------
 #P G4 OPT=calcfc
 ----------------
 1/10=4,14=-1,18=20,19=15,26=3,38=1/1,3;
 2/9=110,12=2,17=6,18=5,40=1/2;
 3/5=35,7=104,11=2,16=1,25=1,30=1,71=2,74=-5,140=1/1,2,3;
 4//1;
 5/5=2,38=5/2;
 8/6=4,10=90,11=11/1;
 11/6=1,8=1,9=11,15=111,16=1/1,2,10;
 10/6=1,13=1/2;
 6/7=2,8=2,9=2,10=2,28=1/1;
 7/10=1,18=20,25=1/1,2,3,16;
 1/10=4,14=-1,18=20,19=15,26=3/3(2);
 2/9=110/2;
 99//99;
 2/9=110/2;
 3/5=35,7=104,11=2,16=1,25=1,30=1,71=1,74=-5/1,2,3;
 4/5=5,16=3,69=1/1;
 5/5=2,38=5/2;
 7//1,2,3,16;
 1/14=-1,18=20,19=15,26=3/3(-5);
 2/9=110/2;
 6/7=2,8=2,9=2,10=2,19=2,28=1/1;
 99/9=1/99;
 Leave Link    1 at Thu Aug 26 09:20:09 2021, MaxMem= 24159191040 cpu:         3.6
 (Enter /public/home/users/caep010/software/Gaussian09/g09/l101.exe)
 ------
 MIYDII
 ------
 Symbolic Z-matrix:
 Charge =  0 Multiplicity = 1
 O                     5.4113    13.4478   10.1176 
 H                     5.4406    14.2231   9.8524 
 C                     5.7079    12.6449   9.1387 
 O                     6.0498    12.9959   8.0353 
 C                     5.5669    11.1821   9.5576 
 N                     5.9424    10.3935   8.3889 
 H                     6.3018    10.82     7.7345 
 H                     4.6192    11.0135   9.7393 
 C                     6.3436    10.8748   10.8274 
 H                     7.2927    10.8657   10.6277 
 H                     6.181     11.574    11.4795 
 C                     5.9396    9.5343    11.4163 
 H                     6.3199    9.4475    12.3047 
 H                     4.9744    9.4993    11.4995 
 C                     6.4057    8.3842    10.5612 
 N                     5.7316    8.2453    9.2638 
 H                     5.2466    7.5434    9.1603 
 H                     7.3569    8.4863    10.4031 
 H                     6.2808    7.5617    11.0619 
 C                     5.7846    9.0804    8.232 
 N                     5.6737    8.4438    7.0403 
 N                     5.5934    9.1387    5.8812 
 O                     5.3359    8.4699    4.8958 
 O                     5.8202    10.3514   5.801 
 
 Add atom     22 valence  3 ND=      2 dihedral      21     22     23     24
 NAtoms=     24 NQM=       24 NQMF=       0 NMMI=      0 NMMIF=      0
                NMic=       0 NMicF=      0.
                    Isotopes and Nuclear Properties:
 (Nuclear quadrupole moments (NQMom) in fm**2, nuclear magnetic moments (NMagM)
  in nuclear magnetons)

  Atom         1           2           3           4           5           6           7           8           9          10
 IAtWgt=          16           1          12          16          12          14           1           1          12           1
 AtmWgt=  15.9949146   1.0078250  12.0000000  15.9949146  12.0000000  14.0030740   1.0078250   1.0078250  12.0000000   1.0078250
 NucSpn=           0           1           0           0           0           2           1           1           0           1
 AtZEff=   0.0000000   0.0000000   0.0000000   0.0000000   0.0000000   0.0000000   0.0000000   0.0000000   0.0000000   0.0000000
 NQMom=    0.0000000   0.0000000   0.0000000   0.0000000   0.0000000   2.0440000   0.0000000   0.0000000   0.0000000   0.0000000
 NMagM=    0.0000000   2.7928460   0.0000000   0.0000000   0.0000000   0.4037610   2.7928460   2.7928460   0.0000000   2.7928460
 AtZNuc=   8.0000000   1.0000000   6.0000000   8.0000000   6.0000000   7.0000000   1.0000000   1.0000000   6.0000000   1.0000000

  Atom        11          12          13          14          15          16          17          18          19          20
 IAtWgt=           1          12           1           1          12          14           1           1           1          12
 AtmWgt=   1.0078250  12.0000000   1.0078250   1.0078250  12.0000000  14.0030740   1.0078250   1.0078250   1.0078250  12.0000000
 NucSpn=           1           0           1           1           0           2           1           1           1           0
 AtZEff=   0.0000000   0.0000000   0.0000000   0.0000000   0.0000000   0.0000000   0.0000000   0.0000000   0.0000000   0.0000000
 NQMom=    0.0000000   0.0000000   0.0000000   0.0000000   0.0000000   2.0440000   0.0000000   0.0000000   0.0000000   0.0000000
 NMagM=    2.7928460   0.0000000   2.7928460   2.7928460   0.0000000   0.4037610   2.7928460   2.7928460   2.7928460   0.0000000
 AtZNuc=   1.0000000   6.0000000   1.0000000   1.0000000   6.0000000   7.0000000   1.0000000   1.0000000   1.0000000   6.0000000

  Atom        21          22          23          24
 IAtWgt=          14          14          16          16
 AtmWgt=  14.0030740  14.0030740  15.9949146  15.9949146
 NucSpn=           2           2           0           0
 AtZEff=   0.0000000   0.0000000   0.0000000   0.0000000
 NQMom=    2.0440000   2.0440000   0.0000000   0.0000000
 NMagM=    0.4037610   0.4037610   0.0000000   0.0000000
 AtZNuc=   7.0000000   7.0000000   8.0000000   8.0000000
 Leave Link  101 at Thu Aug 26 09:20:09 2021, MaxMem= 24159191040 cpu:        10.4
 (Enter /public/home/users/caep010/software/Gaussian09/g09/l103.exe)

 GradGradGradGradGradGradGradGradGradGradGradGradGradGradGradGradGradGrad
 Berny optimization.
 Initialization pass.
                           ----------------------------
                           !    Initial Parameters    !
                           ! (Angstroms and Degrees)  !
 --------------------------                            --------------------------
 ! Name  Definition              Value          Derivative Info.                !
 --------------------------------------------------------------------------------
 ! R1    R(1,2)                  0.8199         calculate D2E/DX2 analytically  !
 ! R2    R(1,3)                  1.3003         calculate D2E/DX2 analytically  !
 ! R3    R(3,4)                  1.2073         calculate D2E/DX2 analytically  !
 ! R4    R(3,5)                  1.5281         calculate D2E/DX2 analytically  !
 ! R5    R(5,6)                  1.459          calculate D2E/DX2 analytically  !
 ! R6    R(5,8)                  0.9796         calculate D2E/DX2 analytically  !
 ! R7    R(5,9)                  1.5199         calculate D2E/DX2 analytically  !
 ! R8    R(6,7)                  0.8598         calculate D2E/DX2 analytically  !
 ! R9    R(6,20)                 1.3318         calculate D2E/DX2 analytically  !
 ! R10   R(9,10)                 0.9699         calculate D2E/DX2 analytically  !
 ! R11   R(9,11)                 0.9698         calculate D2E/DX2 analytically  !
 ! R12   R(9,12)                 1.5189         calculate D2E/DX2 analytically  !
 ! R13   R(12,13)                0.9703         calculate D2E/DX2 analytically  !
 ! R14   R(12,14)                0.9694         calculate D2E/DX2 analytically  !
 ! R15   R(12,15)                1.507          calculate D2E/DX2 analytically  !
 ! R16   R(15,16)                1.4687         calculate D2E/DX2 analytically  !
 ! R17   R(15,18)                0.9696         calculate D2E/DX2 analytically  !
 ! R18   R(15,19)                0.971          calculate D2E/DX2 analytically  !
 ! R19   R(16,17)                0.8594         calculate D2E/DX2 analytically  !
 ! R20   R(16,20)                1.3285         calculate D2E/DX2 analytically  !
 ! R21   R(20,21)                1.3556         calculate D2E/DX2 analytically  !
 ! R22   R(21,22)                1.3538         calculate D2E/DX2 analytically  !
 ! R23   R(22,23)                1.2184         calculate D2E/DX2 analytically  !
 ! R24   R(22,24)                1.2363         calculate D2E/DX2 analytically  !
 ! A1    A(2,1,3)              109.4029         calculate D2E/DX2 analytically  !
 ! A2    A(1,3,4)              124.9666         calculate D2E/DX2 analytically  !
 ! A3    A(1,3,5)              111.3247         calculate D2E/DX2 analytically  !
 ! A4    A(4,3,5)              123.7086         calculate D2E/DX2 analytically  !
 ! A5    A(3,5,6)              105.9065         calculate D2E/DX2 analytically  !
 ! A6    A(3,5,8)              107.7505         calculate D2E/DX2 analytically  !
 ! A7    A(3,5,9)              112.0497         calculate D2E/DX2 analytically  !
 ! A8    A(6,5,8)              107.7304         calculate D2E/DX2 analytically  !
 ! A9    A(6,5,9)              115.3667         calculate D2E/DX2 analytically  !
 ! A10   A(8,5,9)              107.7356         calculate D2E/DX2 analytically  !
 ! A11   A(5,6,7)              116.6866         calculate D2E/DX2 analytically  !
 ! A12   A(5,6,20)             126.6391         calculate D2E/DX2 analytically  !
 ! A13   A(7,6,20)             116.6743         calculate D2E/DX2 analytically  !
 ! A14   A(5,9,10)             109.2647         calculate D2E/DX2 analytically  !
 ! A15   A(5,9,11)             109.2874         calculate D2E/DX2 analytically  !
 ! A16   A(5,9,12)             111.4962         calculate D2E/DX2 analytically  !
 ! A17   A(10,9,11)            108.0149         calculate D2E/DX2 analytically  !
 ! A18   A(10,9,12)            109.3796         calculate D2E/DX2 analytically  !
 ! A19   A(11,9,12)            109.3292         calculate D2E/DX2 analytically  !
 ! A20   A(9,12,13)            109.2511         calculate D2E/DX2 analytically  !
 ! A21   A(9,12,14)            109.2671         calculate D2E/DX2 analytically  !
 ! A22   A(9,12,15)            111.794          calculate D2E/DX2 analytically  !
 ! A23   A(13,12,14)           107.9651         calculate D2E/DX2 analytically  !
 ! A24   A(13,12,15)           109.2708         calculate D2E/DX2 analytically  !
 ! A25   A(14,12,15)           109.2131         calculate D2E/DX2 analytically  !
 ! A26   A(12,15,16)           115.5601         calculate D2E/DX2 analytically  !
 ! A27   A(12,15,18)           108.3945         calculate D2E/DX2 analytically  !
 ! A28   A(12,15,19)           108.3051         calculate D2E/DX2 analytically  !
 ! A29   A(16,15,18)           108.4323         calculate D2E/DX2 analytically  !
 ! A30   A(16,15,19)           108.444          calculate D2E/DX2 analytically  !
 ! A31   A(18,15,19)           107.4252         calculate D2E/DX2 analytically  !
 ! A32   A(15,16,17)           116.2733         calculate D2E/DX2 analytically  !
 ! A33   A(15,16,20)           127.4707         calculate D2E/DX2 analytically  !
 ! A34   A(17,16,20)           116.256          calculate D2E/DX2 analytically  !
 ! A35   A(6,20,16)            122.2091         calculate D2E/DX2 analytically  !
 ! A36   A(6,20,21)            125.1876         calculate D2E/DX2 analytically  !
 ! A37   A(16,20,21)           112.6007         calculate D2E/DX2 analytically  !
 ! A38   A(20,21,22)           121.0945         calculate D2E/DX2 analytically  !
 ! A39   A(21,22,23)           115.0371         calculate D2E/DX2 analytically  !
 ! A40   A(21,22,24)           123.2391         calculate D2E/DX2 analytically  !
 ! A41   A(23,22,24)           121.6488         calculate D2E/DX2 analytically  !
 ! D1    D(2,1,3,4)              4.0423         calculate D2E/DX2 analytically  !
 ! D2    D(2,1,3,5)           -175.8355         calculate D2E/DX2 analytically  !
 ! D3    D(1,3,5,6)           -179.2172         calculate D2E/DX2 analytically  !
 ! D4    D(1,3,5,8)             65.7132         calculate D2E/DX2 analytically  !
 ! D5    D(1,3,5,9)            -52.6299         calculate D2E/DX2 analytically  !
 ! D6    D(4,3,5,6)              0.9033         calculate D2E/DX2 analytically  !
 ! D7    D(4,3,5,8)           -114.1663         calculate D2E/DX2 analytically  !
 ! D8    D(4,3,5,9)            127.4906         calculate D2E/DX2 analytically  !
 ! D9    D(3,5,6,7)             10.4134         calculate D2E/DX2 analytically  !
 ! D10   D(3,5,6,20)          -169.548          calculate D2E/DX2 analytically  !
 ! D11   D(8,5,6,7)            125.4967         calculate D2E/DX2 analytically  !
 ! D12   D(8,5,6,20)           -54.4647         calculate D2E/DX2 analytically  !
 ! D13   D(9,5,6,7)           -114.1367         calculate D2E/DX2 analytically  !
 ! D14   D(9,5,6,20)            65.902          calculate D2E/DX2 analytically  !
 ! D15   D(3,5,9,10)           -72.6026         calculate D2E/DX2 analytically  !
 ! D16   D(3,5,9,11)            45.3926         calculate D2E/DX2 analytically  !
 ! D17   D(3,5,9,12)           166.3709         calculate D2E/DX2 analytically  !
 ! D18   D(6,5,9,10)            48.6816         calculate D2E/DX2 analytically  !
 ! D19   D(6,5,9,11)           166.6768         calculate D2E/DX2 analytically  !
 ! D20   D(6,5,9,12)           -72.3448         calculate D2E/DX2 analytically  !
 ! D21   D(8,5,9,10)           169.0454         calculate D2E/DX2 analytically  !
 ! D22   D(8,5,9,11)           -72.9593         calculate D2E/DX2 analytically  !
 ! D23   D(8,5,9,12)            48.019          calculate D2E/DX2 analytically  !
 ! D24   D(5,6,20,16)          -25.9017         calculate D2E/DX2 analytically  !
 ! D25   D(5,6,20,21)          154.7293         calculate D2E/DX2 analytically  !
 ! D26   D(7,6,20,16)          154.137          calculate D2E/DX2 analytically  !
 ! D27   D(7,6,20,21)          -25.2321         calculate D2E/DX2 analytically  !
 ! D28   D(5,9,12,13)         -169.086          calculate D2E/DX2 analytically  !
 ! D29   D(5,9,12,14)          -51.1707         calculate D2E/DX2 analytically  !
 ! D30   D(5,9,12,15)           69.8408         calculate D2E/DX2 analytically  !
 ! D31   D(10,9,12,13)          69.9546         calculate D2E/DX2 analytically  !
 ! D32   D(10,9,12,14)        -172.1301         calculate D2E/DX2 analytically  !
 ! D33   D(10,9,12,15)         -51.1185         calculate D2E/DX2 analytically  !
 ! D34   D(11,9,12,13)         -48.1321         calculate D2E/DX2 analytically  !
 ! D35   D(11,9,12,14)          69.7832         calculate D2E/DX2 analytically  !
 ! D36   D(11,9,12,15)        -169.2052         calculate D2E/DX2 analytically  !
 ! D37   D(9,12,15,16)         -69.2229         calculate D2E/DX2 analytically  !
 ! D38   D(9,12,15,18)          52.6747         calculate D2E/DX2 analytically  !
 ! D39   D(9,12,15,19)         168.9329         calculate D2E/DX2 analytically  !
 ! D40   D(13,12,15,16)        169.7154         calculate D2E/DX2 analytically  !
 ! D41   D(13,12,15,18)        -68.387          calculate D2E/DX2 analytically  !
 ! D42   D(13,12,15,19)         47.8712         calculate D2E/DX2 analytically  !
 ! D43   D(14,12,15,16)         51.82           calculate D2E/DX2 analytically  !
 ! D44   D(14,12,15,18)        173.7176         calculate D2E/DX2 analytically  !
 ! D45   D(14,12,15,19)        -70.0242         calculate D2E/DX2 analytically  !
 ! D46   D(12,15,16,17)       -113.7723         calculate D2E/DX2 analytically  !
 ! D47   D(12,15,16,20)         66.1786         calculate D2E/DX2 analytically  !
 ! D48   D(18,15,16,17)        124.3504         calculate D2E/DX2 analytically  !
 ! D49   D(18,15,16,20)        -55.6987         calculate D2E/DX2 analytically  !
 ! D50   D(19,15,16,17)          7.9975         calculate D2E/DX2 analytically  !
 ! D51   D(19,15,16,20)       -172.0516         calculate D2E/DX2 analytically  !
 ! D52   D(15,16,20,6)         -30.9418         calculate D2E/DX2 analytically  !
 ! D53   D(15,16,20,21)        148.4997         calculate D2E/DX2 analytically  !
 ! D54   D(17,16,20,6)         149.0091         calculate D2E/DX2 analytically  !
 ! D55   D(17,16,20,21)        -31.5494         calculate D2E/DX2 analytically  !
 ! D56   D(6,20,21,22)          -6.1704         calculate D2E/DX2 analytically  !
 ! D57   D(16,20,21,22)        174.4078         calculate D2E/DX2 analytically  !
 ! D58   D(20,21,22,23)       -171.5494         calculate D2E/DX2 analytically  !
 ! D59   D(20,21,22,24)         11.5582         calculate D2E/DX2 analytically  !
 ! D60   D(21,22,23,24)       -176.9468         calculate D2E/DX2 analytically  !
 --------------------------------------------------------------------------------
 Trust Radius=3.00D-01 FncErr=1.00D-07 GrdErr=1.00D-06
 Number of steps in this run=    135 maximum allowed number of steps=    144.
 GradGradGradGradGradGradGradGradGradGradGradGradGradGradGradGradGradGrad

 Leave Link  103 at Thu Aug 26 09:20:10 2021, MaxMem= 24159191040 cpu:         4.6
 (Enter /public/home/users/caep010/software/Gaussian09/g09/l202.exe)
                          Input orientation:                          
 ---------------------------------------------------------------------
 Center     Atomic      Atomic             Coordinates (Angstroms)
 Number     Number       Type             X           Y           Z
 ---------------------------------------------------------------------
      1          8           0        5.411300   13.447800   10.117600
      2          1           0        5.440600   14.223100    9.852400
      3          6           0        5.707900   12.644900    9.138700
      4          8           0        6.049800   12.995900    8.035300
      5          6           0        5.566900   11.182100    9.557600
      6          7           0        5.942400   10.393500    8.388900
      7          1           0        6.301800   10.820000    7.734500
      8          1           0        4.619200   11.013500    9.739300
      9          6           0        6.343600   10.874800   10.827400
     10          1           0        7.292700   10.865700   10.627700
     11          1           0        6.181000   11.574000   11.479500
     12          6           0        5.939600    9.534300   11.416300
     13          1           0        6.319900    9.447500   12.304700
     14          1           0        4.974400    9.499300   11.499500
     15          6           0        6.405700    8.384200   10.561200
     16          7           0        5.731600    8.245300    9.263800
     17          1           0        5.246600    7.543400    9.160300
     18          1           0        7.356900    8.486300   10.403100
     19          1           0        6.280800    7.561700   11.061900
     20          6           0        5.784600    9.080400    8.232000
     21          7           0        5.673700    8.443800    7.040300
     22          7           0        5.593400    9.138700    5.881200
     23          8           0        5.335900    8.469900    4.895800
     24          8           0        5.820200   10.351400    5.801000
 ---------------------------------------------------------------------
                    Distance matrix (angstroms):
                    1          2          3          4          5
     1  O    0.000000
     2  H    0.819927   0.000000
     3  C    1.300333   1.752579   0.000000
     4  O    2.224381   2.275741   1.207306   0.000000
     5  C    2.339061   3.057865   1.528117   2.416704   0.000000
     6  N    3.549538   4.130311   2.384532   2.628508   1.459024
     7  H    3.657525   4.099787   2.377973   2.211001   1.998722
     8  H    2.587731   3.314969   2.051208   2.979957   0.979580
     9  C    2.827247   3.602381   2.527662   3.518694   1.519897
    10  H    3.235291   3.911969   2.809673   3.578141   2.055142
    11  H    2.440970   3.195838   2.617250   3.728475   2.055336
    12  C    4.157067   4.967860   3.862251   4.840039   2.511756
    13  H    4.648802   5.439972   4.541087   5.558046   3.335027
    14  H    4.206089   5.024397   4.000775   5.038192   2.637015
    15  C    5.179349   5.960417   4.545767   5.270162   3.088534
    16  N    5.281815   6.013753   4.401442   4.917180   2.956051
    17  H    5.983769   6.718261   5.122359   5.624990   3.674313
    18  H    5.336980   6.073413   4.648856   5.258467   3.344594
    19  H    6.024442   6.822249   5.464964   6.224484   3.984955
    20  C    4.771690   5.402906   3.678811   3.929397   2.494344
    21  N    5.880361   6.431372   4.696136   4.674729   3.721088
    22  N    6.045543   6.453286   4.787260   4.441446   4.206198
    23  O    7.214733   7.594614   5.964160   5.554349   5.398312
    24  O    5.328032   5.616761   4.051295   3.469610   3.855680
                    6          7          8          9         10
     6  N    0.000000
     7  H    0.859831   0.000000
     8  H    1.989683   2.624463   0.000000
     9  C    2.517716   3.093668   2.043711   0.000000
    10  H    2.656785   3.058525   2.821117   0.969925   0.000000
    11  H    3.316974   3.822059   2.404511   0.969822   1.569436
    12  C    3.146964   3.916614   2.596886   1.518868   2.055577
    13  H    4.046098   4.771877   3.453406   2.054303   2.402074
    14  H    3.378232   4.204933   2.348888   2.053881   2.828710
    15  C    2.995133   3.732847   3.283340   2.505555   2.636102
    16  N    2.329088   3.048437   3.021004   3.119881   3.341220
    17  H    3.033524   3.725917   3.573579   3.883408   4.168629
    18  H    3.113715   3.698759   3.784491   2.629019   2.390839
    19  H    3.908777   4.657097   4.052790   3.321982   3.482655
    20  C    1.331822   1.881810   2.714219   3.204443   3.346796
    21  N    2.385844   2.553967   3.872974   4.549797   4.621277
    22  N    2.825754   2.600639   4.398736   5.295445   5.329110
    23  O    4.033587   3.809744   5.517522   6.479420   6.513340
    24  O    2.591126   2.046936   4.170250   5.080609   5.072454
                   11         12         13         14         15
    11  H    0.000000
    12  C    2.054907   0.000000
    13  H    2.285224   0.970266   0.000000
    14  H    2.400138   0.969411   1.568885   0.000000
    15  C    3.326949   1.507042   2.043957   2.042664   0.000000
    16  N    4.023870   2.517547   3.322417   2.672868   1.468656
    17  H    4.743156   3.087631   3.829467   3.061290   2.003242
    18  H    3.474949   2.033130   2.369674   2.811506   0.969640
    19  H    4.035208   2.033019   2.258832   2.377492   0.970982
    20  C    4.113567   3.220220   4.124099   3.392412   2.509110
    21  N    5.455456   4.517662   5.398046   4.635468   3.596681
    22  N    6.133264   5.560008   6.471824   5.663787   4.809522
    23  O    7.327669   6.634329   7.537623   6.693220   5.766158
    24  O    5.819819   5.675694   6.585199   5.823603   5.183839
                   16         17         18         19         20
    16  N    0.000000
    17  H    0.859419   0.000000
    18  H    1.999421   2.624305   0.000000
    19  H    2.000523   2.164714   1.564255   0.000000
    20  C    1.328462   1.874448   2.745680   3.249769   0.000000
    21  N    2.233094   2.342549   3.760770   4.161723   1.355621
    22  N    3.501321   3.663025   4.897258   5.458855   2.359283
    23  O    4.391634   4.364898   5.866435   6.303844   3.421151
    24  O    4.053948   4.415742   5.198016   5.972575   2.743441
                   21         22         23         24
    21  N    0.000000
    22  N    1.353827   0.000000
    23  O    2.171099   1.218447   0.000000
    24  O    2.279532   1.236330   2.143356   0.000000
 Stoichiometry    C6H10N4O4
 Framework group  C1[X(C6H10N4O4)]
 Deg. of freedom    66
 Full point group                 C1      NOp   1
 Largest Abelian subgroup         C1      NOp   1
 Largest concise Abelian subgroup C1      NOp   1
                         Standard orientation:                         
 ---------------------------------------------------------------------
 Center     Atomic      Atomic             Coordinates (Angstroms)
 Number     Number       Type             X           Y           Z
 ---------------------------------------------------------------------
      1          8           0        3.010070   -1.887923   -0.413730
      2          1           0        3.205952   -2.679862   -0.331615
      3          6           0        1.770496   -1.710914   -0.063034
      4          8           0        1.049800   -2.568205    0.387785
      5          6           0        1.327796   -0.267020   -0.296120
      6          7           0       -0.059473   -0.197088    0.150359
      7          1           0       -0.360962   -0.876884    0.581974
      8          1           0        1.338973   -0.103426   -1.261878
      9          6           0        2.272019    0.731222    0.353530
     10          1           0        2.150121    0.707734    1.315478
     11          1           0        3.188115    0.477729    0.161010
     12          6           0        2.024011    2.141989   -0.151630
     13          1           0        2.744879    2.719502    0.145431
     14          1           0        2.023325    2.139139   -1.121036
     15          6           0        0.710755    2.690855    0.343629
     16          7           0       -0.491366    2.061685   -0.218510
     17          1           0       -0.982291    2.558802   -0.718978
     18          1           0        0.683817    2.596122    1.308254
     19          1           0        0.682396    3.640636    0.143830
     20          6           0       -0.906758    0.812093   -0.043066
     21          7           0       -2.257662    0.703117   -0.072914
     22          7           0       -2.862745   -0.506990   -0.024311
     23          8           0       -4.065348   -0.490393   -0.219465
     24          8           0       -2.265212   -1.552719    0.254824
 ---------------------------------------------------------------------
 Rotational constants (GHZ):      0.9459541      0.5353437      0.3512362
 Leave Link  202 at Thu Aug 26 09:20:10 2021, MaxMem= 24159191040 cpu:         0.5
 (Enter /public/home/users/caep010/software/Gaussian09/g09/l301.exe)
 Standard basis: GTBas3 (6D, 7F)
 Ernie: Thresh=  0.10000D-02 Tol=  0.10000D-05 Strict=F.
 There are   484 symmetry adapted cartesian basis functions of A   symmetry.
 There are   442 symmetry adapted basis functions of A   symmetry.
   442 basis functions,   686 primitive gaussians,   484 cartesian basis functions
    53 alpha electrons       53 beta electrons
       nuclear repulsion energy       967.5971817705 Hartrees.
 IExCor=  402 DFT=T Ex+Corr=B3LYP ExCW=0 ScaHFX=  0.200000
 ScaDFX=  0.800000  0.720000  1.000000  0.810000 ScalE2=  1.000000  1.000000
 IRadAn=      0 IRanWt=     -1 IRanGd=            0 ICorTp=0 IEmpDi=  4
 NAtoms=   24 NActive=   24 NUniq=   24 SFac= 1.00D+00 NAtFMM=   60 NAOKFM=F Big=F
 Integral buffers will be    131072 words long.
 Raffenetti 2 integral format.
 Two-electron integral symmetry is turned on.
 Leave Link  301 at Thu Aug 26 09:20:10 2021, MaxMem= 24159191040 cpu:         2.2
 (Enter /public/home/users/caep010/software/Gaussian09/g09/l302.exe)
 NPDir=0 NMtPBC=     1 NCelOv=     1 NCel=       1 NClECP=     1 NCelD=      1
         NCelK=      1 NCelE2=     1 NClLst=     1 CellRange=     0.0.
 One-electron integrals computed using PRISM.
 NBasis=   442 RedAO= T EigKep=  1.90D-04  NBF=   442
 NBsUse=   442 1.00D-06 EigRej= -1.00D+00 NBFU=   442
 Precomputing XC quadrature grid using
 IXCGrd= 4 IRadAn=           0 IRanWt=          -1 IRanGd=           0 AccXCQ= 0.00D+00.
 Generated NRdTot=       0 NPtTot=           0 NUsed=           0 NTot=          32
 NSgBfM=   483   483   483   483   483 MxSgAt=    24 MxSgA2=    24.
 Leave Link  302 at Thu Aug 26 09:20:11 2021, MaxMem= 24159191040 cpu:        20.0
 (Enter /public/home/users/caep010/software/Gaussian09/g09/l303.exe)
 DipDrv:  MaxL=1.
 Leave Link  303 at Thu Aug 26 09:20:11 2021, MaxMem= 24159191040 cpu:         1.2
 (Enter /public/home/users/caep010/software/Gaussian09/g09/l401.exe)
 ExpMin= 1.61D-01 ExpMax= 5.48D+03 ExpMxC= 8.25D+02 IAcc=1 IRadAn=         1 AccDes= 0.00D+00
 Harris functional with IExCor=  402 and IRadAn=       1 diagonalized for initial guess.
 HarFok:  IExCor=  402 AccDes= 0.00D+00 IRadAn=         1 IDoV= 1 UseB2=F ITyADJ=14
 ICtDFT=  3500011 ScaDFX=  1.000000  1.000000  1.000000  1.000000
 FoFCou: FMM=F IPFlag=           0 FMFlag=      100000 FMFlg1=           0
         NFxFlg=           0 DoJE=T BraDBF=F KetDBF=T FulRan=T
         wScrn=  0.000000 ICntrl=     500 IOpCl=  0 I1Cent=   200000004 NGrid=           0
         NMat0=    1 NMatS0=      1 NMatT0=    0 NMatD0=    1 NMtDS0=    0 NMtDT0=    0
 Petite list used in FoFCou.
 Harris En= -754.460356360623    
 JPrj=0 DoOrth=F DoCkMO=F.
 Leave Link  401 at Thu Aug 26 09:20:12 2021, MaxMem= 24159191040 cpu:        24.6
 (Enter /public/home/users/caep010/software/Gaussian09/g09/l502.exe)
 Closed shell SCF:
 Using DIIS extrapolation, IDIIS=  1040.
 Integral symmetry usage will be decided dynamically.
 Keep R1 ints in memory in canonical form, NReq=4850329790.
 IVT=      740314 IEndB=      740314 NGot= 24159191040 MDV= 19365903071
 LenX= 19365903071 LenY= 19365668331
 Requested convergence on RMS density matrix=1.00D-08 within 128 cycles.
 Requested convergence on MAX density matrix=1.00D-06.
 Requested convergence on             energy=1.00D-06.
 No special actions if energy rises.
 FoFCou: FMM=F IPFlag=           0 FMFlag=           0 FMFlg1=           0
         NFxFlg=           0 DoJE=F BraDBF=F KetDBF=F FulRan=T
         wScrn=  0.000000 ICntrl=     600 IOpCl=  0 I1Cent=           0 NGrid=           0
         NMat0=    1 NMatS0=  97903 NMatT0=    0 NMatD0=    1 NMtDS0=    0 NMtDT0=    0
 Symmetry not used in FoFCou.
 Integral accuracy reduced to 1.0D-05 until final iterations.

 Cycle   1  Pass 0  IDiag  1:
 E= -753.848548203359    
 DIIS: error= 2.42D-02 at cycle   1 NSaved=   1.
 NSaved= 1 IEnMin= 1 EnMin= -753.848548203359     IErMin= 1 ErrMin= 2.42D-02
 ErrMax= 2.42D-02  0.00D+00 EMaxC= 1.00D-01 BMatC= 6.51D-01 BMatP= 6.51D-01
 IDIUse=3 WtCom= 7.58D-01 WtEn= 2.42D-01
 Coeff-Com:  0.100D+01
 Coeff-En:   0.100D+01
 Coeff:      0.100D+01
 Gap=     0.140 Goal=   None    Shift=    0.000
 GapD=    0.140 DampG=1.000 DampE=0.500 DampFc=0.5000 IDamp=-1.
 Damping current iteration by 5.00D-01
 RMSDP=3.40D-03 MaxDP=2.52D-01              OVMax= 3.16D-01

 Cycle   2  Pass 0  IDiag  1:
 E= -753.985122001028     Delta-E=       -0.136573797669 Rises=F Damp=T
 DIIS: error= 9.89D-03 at cycle   2 NSaved=   2.
 NSaved= 2 IEnMin= 2 EnMin= -753.985122001028     IErMin= 2 ErrMin= 9.89D-03
 ErrMax= 9.89D-03  0.00D+00 EMaxC= 1.00D-01 BMatC= 9.94D-02 BMatP= 6.51D-01
 IDIUse=3 WtCom= 9.01D-01 WtEn= 9.89D-02
 Coeff-Com:  0.220D+00 0.780D+00
 Coeff-En:   0.345D+00 0.655D+00
 Coeff:      0.233D+00 0.767D+00
 Gap=     0.190 Goal=   None    Shift=    0.000
 RMSDP=9.97D-04 MaxDP=7.75D-02 DE=-1.37D-01 OVMax= 2.25D-01

 Cycle   3  Pass 0  IDiag  1:
 E= -754.296738232477     Delta-E=       -0.311616231450 Rises=F Damp=F
 DIIS: error= 6.54D-03 at cycle   3 NSaved=   3.
 NSaved= 3 IEnMin= 3 EnMin= -754.296738232477     IErMin= 3 ErrMin= 6.54D-03
 ErrMax= 6.54D-03  0.00D+00 EMaxC= 1.00D-01 BMatC= 5.71D-02 BMatP= 9.94D-02
 IDIUse=3 WtCom= 9.35D-01 WtEn= 6.54D-02
 Coeff-Com:  0.696D-01 0.428D+00 0.502D+00
 Coeff-En:   0.000D+00 0.000D+00 0.100D+01
 Coeff:      0.651D-01 0.400D+00 0.535D+00
 Gap=     0.207 Goal=   None    Shift=    0.000
 RMSDP=6.76D-04 MaxDP=5.66D-02 DE=-3.12D-01 OVMax= 8.87D-02

 Cycle   4  Pass 0  IDiag  1:
 E= -754.332017430640     Delta-E=       -0.035279198163 Rises=F Damp=F
 DIIS: error= 3.74D-03 at cycle   4 NSaved=   4.
 NSaved= 4 IEnMin= 4 EnMin= -754.332017430640     IErMin= 4 ErrMin= 3.74D-03
 ErrMax= 3.74D-03  0.00D+00 EMaxC= 1.00D-01 BMatC= 1.38D-02 BMatP= 5.71D-02
 IDIUse=3 WtCom= 9.63D-01 WtEn= 3.74D-02
 Coeff-Com:  0.142D-01 0.128D+00 0.340D+00 0.518D+00
 Coeff-En:   0.000D+00 0.000D+00 0.212D+00 0.788D+00
 Coeff:      0.137D-01 0.123D+00 0.335D+00 0.528D+00
 Gap=     0.197 Goal=   None    Shift=    0.000
 RMSDP=2.76D-04 MaxDP=2.55D-02 DE=-3.53D-02 OVMax= 4.30D-02

 Cycle   5  Pass 0  IDiag  1:
 E= -754.341184771414     Delta-E=       -0.009167340774 Rises=F Damp=F
 DIIS: error= 1.57D-03 at cycle   5 NSaved=   5.
 NSaved= 5 IEnMin= 5 EnMin= -754.341184771414     IErMin= 5 ErrMin= 1.57D-03
 ErrMax= 1.57D-03  0.00D+00 EMaxC= 1.00D-01 BMatC= 1.82D-03 BMatP= 1.38D-02
 IDIUse=3 WtCom= 9.84D-01 WtEn= 1.57D-02
 Coeff-Com:  0.294D-02 0.319D-01 0.158D+00 0.342D+00 0.465D+00
 Coeff-En:   0.000D+00 0.000D+00 0.000D+00 0.910D-01 0.909D+00
 Coeff:      0.289D-02 0.314D-01 0.155D+00 0.338D+00 0.472D+00
 Gap=     0.195 Goal=   None    Shift=    0.000
 RMSDP=1.09D-04 MaxDP=1.18D-02 DE=-9.17D-03 OVMax= 2.17D-02

 Cycle   6  Pass 0  IDiag  1:
 E= -754.342236454955     Delta-E=       -0.001051683541 Rises=F Damp=F
 DIIS: error= 7.90D-04 at cycle   6 NSaved=   6.
 NSaved= 6 IEnMin= 6 EnMin= -754.342236454955     IErMin= 6 ErrMin= 7.90D-04
 ErrMax= 7.90D-04  0.00D+00 EMaxC= 1.00D-01 BMatC= 4.64D-04 BMatP= 1.82D-03
 IDIUse=3 WtCom= 9.92D-01 WtEn= 7.90D-03
 Coeff-Com:  0.428D-04 0.389D-02 0.632D-01 0.170D+00 0.354D+00 0.409D+00
 Coeff-En:   0.000D+00 0.000D+00 0.000D+00 0.000D+00 0.232D+00 0.768D+00
 Coeff:      0.425D-04 0.386D-02 0.627D-01 0.168D+00 0.353D+00 0.412D+00
 Gap=     0.195 Goal=   None    Shift=    0.000
 RMSDP=4.46D-05 MaxDP=4.76D-03 DE=-1.05D-03 OVMax= 9.11D-03

 Cycle   7  Pass 0  IDiag  1:
 E= -754.342579991749     Delta-E=       -0.000343536794 Rises=F Damp=F
 DIIS: error= 1.10D-04 at cycle   7 NSaved=   7.
 NSaved= 7 IEnMin= 7 EnMin= -754.342579991749     IErMin= 7 ErrMin= 1.10D-04
 ErrMax= 1.10D-04  0.00D+00 EMaxC= 1.00D-01 BMatC= 2.20D-05 BMatP= 4.64D-04
 IDIUse=3 WtCom= 9.99D-01 WtEn= 1.10D-03
 Coeff-Com: -0.266D-03-0.161D-03 0.242D-01 0.707D-01 0.173D+00 0.252D+00
 Coeff-Com:  0.481D+00
 Coeff-En:   0.000D+00 0.000D+00 0.000D+00 0.000D+00 0.000D+00 0.000D+00
 Coeff-En:   0.100D+01
 Coeff:     -0.266D-03-0.161D-03 0.242D-01 0.707D-01 0.173D+00 0.252D+00
 Coeff:      0.481D+00
 Gap=     0.194 Goal=   None    Shift=    0.000
 RMSDP=1.01D-05 MaxDP=6.87D-04 DE=-3.44D-04 OVMax= 1.11D-03

 Cycle   8  Pass 0  IDiag  1:
 E= -754.342596259696     Delta-E=       -0.000016267947 Rises=F Damp=F
 DIIS: error= 3.42D-05 at cycle   8 NSaved=   8.
 NSaved= 8 IEnMin= 8 EnMin= -754.342596259696     IErMin= 8 ErrMin= 3.42D-05
 ErrMax= 3.42D-05  0.00D+00 EMaxC= 1.00D-01 BMatC= 1.56D-06 BMatP= 2.20D-05
 IDIUse=1 WtCom= 1.00D+00 WtEn= 0.00D+00
 Coeff-Com: -0.183D-03-0.629D-03 0.584D-02 0.186D-01 0.548D-01 0.919D-01
 Coeff-Com:  0.264D+00 0.566D+00
 Coeff:     -0.183D-03-0.629D-03 0.584D-02 0.186D-01 0.548D-01 0.919D-01
 Coeff:      0.264D+00 0.566D+00
 Gap=     0.194 Goal=   None    Shift=    0.000
 RMSDP=2.49D-06 MaxDP=1.93D-04 DE=-1.63D-05 OVMax= 2.99D-04

 Initial convergence to 1.0D-05 achieved.  Increase integral accuracy.
 Cycle   9  Pass 1  IDiag  1:
 E= -754.342575528571     Delta-E=        0.000020731125 Rises=F Damp=F
 DIIS: error= 1.93D-05 at cycle   1 NSaved=   1.
 NSaved= 1 IEnMin= 1 EnMin= -754.342575528571     IErMin= 1 ErrMin= 1.93D-05
 ErrMax= 1.93D-05  0.00D+00 EMaxC= 1.00D-01 BMatC= 4.10D-07 BMatP= 4.10D-07
 IDIUse=1 WtCom= 1.00D+00 WtEn= 0.00D+00
 Coeff-Com:  0.100D+01
 Coeff:      0.100D+01
 Gap=     0.194 Goal=   None    Shift=    0.000
 RMSDP=2.49D-06 MaxDP=1.93D-04 DE= 2.07D-05 OVMax= 3.00D-04

 Cycle  10  Pass 1  IDiag  1:
 E= -754.342575421339     Delta-E=        0.000000107232 Rises=F Damp=F
 DIIS: error= 1.81D-05 at cycle   2 NSaved=   2.
 NSaved= 2 IEnMin= 1 EnMin= -754.342575528571     IErMin= 2 ErrMin= 1.81D-05
 ErrMax= 1.81D-05  0.00D+00 EMaxC= 1.00D-01 BMatC= 5.98D-07 BMatP= 4.10D-07
 IDIUse=1 WtCom= 1.00D+00 WtEn= 0.00D+00
 Coeff-Com:  0.560D+00 0.440D+00
 Coeff:      0.560D+00 0.440D+00
 Gap=     0.194 Goal=   None    Shift=    0.000
 RMSDP=1.82D-06 MaxDP=1.90D-04 DE= 1.07D-07 OVMax= 3.09D-04

 Cycle  11  Pass 1  IDiag  1:
 E= -754.342575804502     Delta-E=       -0.000000383163 Rises=F Damp=F
 DIIS: error= 7.93D-06 at cycle   3 NSaved=   3.
 NSaved= 3 IEnMin= 3 EnMin= -754.342575804502     IErMin= 3 ErrMin= 7.93D-06
 ErrMax= 7.93D-06  0.00D+00 EMaxC= 1.00D-01 BMatC= 9.49D-08 BMatP= 4.10D-07
 IDIUse=1 WtCom= 1.00D+00 WtEn= 0.00D+00
 Coeff-Com:  0.275D-01 0.281D+00 0.692D+00
 Coeff:      0.275D-01 0.281D+00 0.692D+00
 Gap=     0.194 Goal=   None    Shift=    0.000
 RMSDP=6.35D-07 MaxDP=6.54D-05 DE=-3.83D-07 OVMax= 1.11D-04

 Cycle  12  Pass 1  IDiag  1:
 E= -754.342575867979     Delta-E=       -0.000000063477 Rises=F Damp=F
 DIIS: error= 3.41D-06 at cycle   4 NSaved=   4.
 NSaved= 4 IEnMin= 4 EnMin= -754.342575867979     IErMin= 4 ErrMin= 3.41D-06
 ErrMax= 3.41D-06  0.00D+00 EMaxC= 1.00D-01 BMatC= 9.83D-09 BMatP= 9.49D-08
 IDIUse=1 WtCom= 1.00D+00 WtEn= 0.00D+00
 Coeff-Com: -0.130D-01 0.144D+00 0.415D+00 0.454D+00
 Coeff:     -0.130D-01 0.144D+00 0.415D+00 0.454D+00
 Gap=     0.194 Goal=   None    Shift=    0.000
 RMSDP=2.13D-07 MaxDP=1.61D-05 DE=-6.35D-08 OVMax= 2.65D-05

 Cycle  13  Pass 1  IDiag  1:
 E= -754.342575875266     Delta-E=       -0.000000007287 Rises=F Damp=F
 DIIS: error= 1.05D-06 at cycle   5 NSaved=   5.
 NSaved= 5 IEnMin= 5 EnMin= -754.342575875266     IErMin= 5 ErrMin= 1.05D-06
 ErrMax= 1.05D-06  0.00D+00 EMaxC= 1.00D-01 BMatC= 8.16D-10 BMatP= 9.83D-09
 IDIUse=1 WtCom= 1.00D+00 WtEn= 0.00D+00
 Coeff-Com: -0.100D-01 0.814D-01 0.240D+00 0.298D+00 0.390D+00
 Coeff:     -0.100D-01 0.814D-01 0.240D+00 0.298D+00 0.390D+00
 Gap=     0.194 Goal=   None    Shift=    0.000
 RMSDP=6.82D-08 MaxDP=6.95D-06 DE=-7.29D-09 OVMax= 1.38D-05

 Cycle  14  Pass 1  IDiag  1:
 E= -754.342575875877     Delta-E=       -0.000000000611 Rises=F Damp=F
 DIIS: error= 3.86D-07 at cycle   6 NSaved=   6.
 NSaved= 6 IEnMin= 6 EnMin= -754.342575875877     IErMin= 6 ErrMin= 3.86D-07
 ErrMax= 3.86D-07  0.00D+00 EMaxC= 1.00D-01 BMatC= 1.05D-10 BMatP= 8.16D-10
 IDIUse=1 WtCom= 1.00D+00 WtEn= 0.00D+00
 Coeff-Com: -0.464D-02 0.326D-01 0.982D-01 0.131D+00 0.277D+00 0.466D+00
 Coeff:     -0.464D-02 0.326D-01 0.982D-01 0.131D+00 0.277D+00 0.466D+00
 Gap=     0.194 Goal=   None    Shift=    0.000
 RMSDP=2.36D-08 MaxDP=2.16D-06 DE=-6.11D-10 OVMax= 4.77D-06

 Cycle  15  Pass 1  IDiag  1:
 E= -754.342575875945     Delta-E=       -0.000000000069 Rises=F Damp=F
 DIIS: error= 7.04D-08 at cycle   7 NSaved=   7.
 NSaved= 7 IEnMin= 7 EnMin= -754.342575875945     IErMin= 7 ErrMin= 7.04D-08
 ErrMax= 7.04D-08  0.00D+00 EMaxC= 1.00D-01 BMatC= 7.01D-12 BMatP= 1.05D-10
 IDIUse=1 WtCom= 1.00D+00 WtEn= 0.00D+00
 Coeff-Com: -0.796D-03 0.363D-02 0.119D-01 0.198D-01 0.839D-01 0.251D+00
 Coeff-Com:  0.630D+00
 Coeff:     -0.796D-03 0.363D-02 0.119D-01 0.198D-01 0.839D-01 0.251D+00
 Coeff:      0.630D+00
 Gap=     0.194 Goal=   None    Shift=    0.000
 RMSDP=6.99D-09 MaxDP=5.23D-07 DE=-6.87D-11 OVMax= 9.02D-07

 SCF Done:  E(RB3LYP) =  -754.342575876     A.U. after   15 cycles
            NFock= 15  Conv=0.70D-08     -V/T= 2.0029
 KE= 7.521930868995D+02 PE=-3.701662066237D+03 EE= 1.227529221691D+03
 Leave Link  502 at Thu Aug 26 09:22:31 2021, MaxMem= 24159191040 cpu:       660.3
 (Enter /public/home/users/caep010/software/Gaussian09/g09/l801.exe)
 DoSCS=F DFT=T ScalE2(SS,OS)=  1.000000  1.000000
 Range of M.O.s used for correlation:     1   442
 NBasis=   442 NAE=    53 NBE=    53 NFC=     0 NFV=     0
 NROrb=    442 NOA=    53 NOB=    53 NVA=   389 NVB=   389

 **** Warning!!: The largest alpha MO coefficient is  0.55520832D+02

 Leave Link  801 at Thu Aug 26 09:22:31 2021, MaxMem= 24159191040 cpu:         0.6
 (Enter /public/home/users/caep010/software/Gaussian09/g09/l1101.exe)
 Using compressed storage, NAtomX=    24.
 Will process     25 centers per pass.
 Leave Link 1101 at Thu Aug 26 09:22:32 2021, MaxMem= 24159191040 cpu:        25.7
 (Enter /public/home/users/caep010/software/Gaussian09/g09/l1102.exe)
 Symmetrizing basis deriv contribution to polar:
 IMax=3 JMax=2 DiffMx= 0.00D+00
 Leave Link 1102 at Thu Aug 26 09:22:34 2021, MaxMem= 24159191040 cpu:         6.9
 (Enter /public/home/users/caep010/software/Gaussian09/g09/l1110.exe)
 Forming Gx(P) for the SCF density, NAtomX=    24.
 Integral derivatives from FoFJK, PRISM(SPDF).
 Do as many integral derivatives as possible in FoFJK.
 G2DrvN: MDV=   24159190744.
 G2DrvN: will do    25 centers at a time, making    1 passes.
 Calling FoFCou, ICntrl=  3107 FMM=F I1Cent=   0 AccDes= 0.00D+00.
 FoFJK:  IHMeth= 1 ICntrl=    3107 DoSepK=F KAlg= 0 I1Cent=   0 FoldK=F
 IRaf=         0 NMat=   1 IRICut=       1 DoRegI=T DoRafI=F ISym2E= 0.
 FoFCou: FMM=F IPFlag=           0 FMFlag=      100000 FMFlg1=           0
         NFxFlg=           0 DoJE=F BraDBF=F KetDBF=F FulRan=T
         wScrn=  0.000000 ICntrl=    3107 IOpCl=  0 I1Cent=           0 NGrid=           0
         NMat0=    1 NMatS0=      1 NMatT0=    0 NMatD0=    1 NMtDS0=    0 NMtDT0=    0
 Symmetry not used in FoFCou.
 End of G2Drv F.D. properties file   721 does not exist.
 End of G2Drv F.D. properties file   722 does not exist.
 End of G2Drv F.D. properties file   788 does not exist.
 Leave Link 1110 at Thu Aug 26 09:23:15 2021, MaxMem= 24159191040 cpu:      1303.3
 (Enter /public/home/users/caep010/software/Gaussian09/g09/l1002.exe)
 Minotr:  Closed shell wavefunction.
          IDoAtm=111111111111111111111111
          Direct CPHF calculation.
          Differentiating once with respect to nuclear coordinates.
          Requested convergence is 1.0D-08 RMS, and 1.0D-07 maximum.
          Secondary convergence is 1.0D-12 RMS, and 1.0D-12 maximum.
          NewPWx=T KeepS1=F KeepF1=F KeepIn=T MapXYZ=F SortEE=F KeepMc=T.
          MDV=   24159190354 using IRadAn=       2.
 Generate precomputed XC quadrature information.
 Keep R1 ints in memory in canonical form, NReq=4849598069.
 FoFCou: FMM=F IPFlag=           0 FMFlag=           0 FMFlg1=           0
         NFxFlg=           0 DoJE=F BraDBF=F KetDBF=F FulRan=T
         wScrn=  0.000000 ICntrl=     600 IOpCl=  0 I1Cent=           0 NGrid=           0
         NMat0=    1 NMatS0=  97903 NMatT0=    0 NMatD0=    1 NMtDS0=    0 NMtDT0=    0
 Symmetry not used in FoFCou.
          Solving linear equations simultaneously, MaxMat=       0.
          There are    75 degrees of freedom in the 1st order CPHF.  IDoFFX=6 NUNeed=     0.
     69 vectors produced by pass  0 Test12= 2.75D-14 1.33D-09 XBig12= 2.10D-01 1.05D-01.
 AX will form    69 AO Fock derivatives at one time.
     69 vectors produced by pass  1 Test12= 2.75D-14 1.33D-09 XBig12= 4.32D-02 8.23D-02.
     69 vectors produced by pass  2 Test12= 2.75D-14 1.33D-09 XBig12= 4.33D-04 3.97D-03.
     69 vectors produced by pass  3 Test12= 2.75D-14 1.33D-09 XBig12= 2.27D-06 1.84D-04.
     69 vectors produced by pass  4 Test12= 2.75D-14 1.33D-09 XBig12= 6.35D-09 1.10D-05.
     66 vectors produced by pass  5 Test12= 2.75D-14 1.33D-09 XBig12= 1.06D-11 4.30D-07.
     20 vectors produced by pass  6 Test12= 2.75D-14 1.33D-09 XBig12= 1.30D-14 8.48D-09.
 InvSVY:  IOpt=1 It=  1 EMax= 8.88D-16
 Solved reduced A of dimension   431 with    75 vectors.
 End of Minotr F.D. properties file   721 does not exist.
 End of Minotr F.D. properties file   722 does not exist.
 End of Minotr F.D. properties file   788 does not exist.
 Leave Link 1002 at Thu Aug 26 09:24:39 2021, MaxMem= 24159191040 cpu:      2609.2
 (Enter /public/home/users/caep010/software/Gaussian09/g09/l601.exe)
 Copying SCF densities to generalized density rwf, IOpCl= 0 IROHF=0.

 **********************************************************************

            Population analysis using the SCF density.

 **********************************************************************

 Orbital symmetries:
       Occupied  (A) (A) (A) (A) (A) (A) (A) (A) (A) (A) (A) (A)
                 (A) (A) (A) (A) (A) (A) (A) (A) (A) (A) (A) (A)
                 (A) (A) (A) (A) (A) (A) (A) (A) (A) (A) (A) (A)
                 (A) (A) (A) (A) (A) (A) (A) (A) (A) (A) (A) (A)
                 (A) (A) (A) (A) (A)
       Virtual   (A) (A) (A) (A) (A) (A) (A) (A) (A) (A) (A) (A)
                 (A) (A) (A) (A) (A) (A) (A) (A) (A) (A) (A) (A)
                 (A) (A) (A) (A) (A) (A) (A) (A) (A) (A) (A) (A)
                 (A) (A) (A) (A) (A) (A) (A) (A) (A) (A) (A) (A)
                 (A) (A) (A) (A) (A) (A) (A) (A) (A) (A) (A) (A)
                 (A) (A) (A) (A) (A) (A) (A) (A) (A) (A) (A) (A)
                 (A) (A) (A) (A) (A) (A) (A) (A) (A) (A) (A) (A)
                 (A) (A) (A) (A) (A) (A) (A) (A) (A) (A) (A) (A)
                 (A) (A) (A) (A) (A) (A) (A) (A) (A) (A) (A) (A)
                 (A) (A) (A) (A) (A) (A) (A) (A) (A) (A) (A) (A)
                 (A) (A) (A) (A) (A) (A) (A) (A) (A) (A) (A) (A)
                 (A) (A) (A) (A) (A) (A) (A) (A) (A) (A) (A) (A)
                 (A) (A) (A) (A) (A) (A) (A) (A) (A) (A) (A) (A)
                 (A) (A) (A) (A) (A) (A) (A) (A) (A) (A) (A) (A)
                 (A) (A) (A) (A) (A) (A) (A) (A) (A) (A) (A) (A)
                 (A) (A) (A) (A) (A) (A) (A) (A) (A) (A) (A) (A)
                 (A) (A) (A) (A) (A) (A) (A) (A) (A) (A) (A) (A)
                 (A) (A) (A) (A) (A) (A) (A) (A) (A) (A) (A) (A)
                 (A) (A) (A) (A) (A) (A) (A) (A) (A) (A) (A) (A)
                 (A) (A) (A) (A) (A) (A) (A) (A) (A) (A) (A) (A)
                 (A) (A) (A) (A) (A) (A) (A) (A) (A) (A) (A) (A)
                 (A) (A) (A) (A) (A) (A) (A) (A) (A) (A) (A) (A)
                 (A) (A) (A) (A) (A) (A) (A) (A) (A) (A) (A) (A)
                 (A) (A) (A) (A) (A) (A) (A) (A) (A) (A) (A) (A)
                 (A) (A) (A) (A) (A) (A) (A) (A) (A) (A) (A) (A)
                 (A) (A) (A) (A) (A) (A) (A) (A) (A) (A) (A) (A)
                 (A) (A) (A) (A) (A) (A) (A) (A) (A) (A) (A) (A)
                 (A) (A) (A) (A) (A) (A) (A) (A) (A) (A) (A) (A)
                 (A) (A) (A) (A) (A) (A) (A) (A) (A) (A) (A) (A)
                 (A) (A) (A) (A) (A) (A) (A) (A) (A) (A) (A) (A)
                 (A) (A) (A) (A) (A) (A) (A) (A) (A) (A) (A) (A)
                 (A) (A) (A) (A) (A) (A) (A) (A) (A) (A) (A) (A)
                 (A) (A) (A) (A) (A)
 The electronic state is 1-A.
 Alpha  occ. eigenvalues --  -19.21470 -19.15416 -19.11997 -19.11563 -14.54062
 Alpha  occ. eigenvalues --  -14.36253 -14.36019 -14.32703 -10.33987 -10.31299
 Alpha  occ. eigenvalues --  -10.25407 -10.22672 -10.19092 -10.18773  -1.19446
 Alpha  occ. eigenvalues --   -1.17979  -1.05720  -1.03249  -1.00149  -0.95673
 Alpha  occ. eigenvalues --   -0.90944  -0.85645  -0.79916  -0.75059  -0.70464
 Alpha  occ. eigenvalues --   -0.66557  -0.66088  -0.64085  -0.58178  -0.54710
 Alpha  occ. eigenvalues --   -0.53495  -0.51834  -0.51303  -0.51167  -0.50383
 Alpha  occ. eigenvalues --   -0.49205  -0.47686  -0.47386  -0.46262  -0.44706
 Alpha  occ. eigenvalues --   -0.44282  -0.41475  -0.39886  -0.38300  -0.36714
 Alpha  occ. eigenvalues --   -0.35055  -0.31502  -0.30106  -0.28450  -0.26817
 Alpha  occ. eigenvalues --   -0.26151  -0.24403  -0.22767
 Alpha virt. eigenvalues --   -0.03328  -0.01310   0.04978   0.07640   0.09579
 Alpha virt. eigenvalues --    0.11323   0.11527   0.12773   0.13545   0.14420
 Alpha virt. eigenvalues --    0.15831   0.17315   0.17776   0.19471   0.20148
 Alpha virt. eigenvalues --    0.21622   0.22404   0.23560   0.24024   0.25981
 Alpha virt. eigenvalues --    0.27785   0.29445   0.30781   0.34613   0.35620
 Alpha virt. eigenvalues --    0.37530   0.39971   0.41299   0.41886   0.43250
 Alpha virt. eigenvalues --    0.44495   0.45430   0.46084   0.48473   0.49291
 Alpha virt. eigenvalues --    0.50398   0.51792   0.53386   0.53737   0.54511
 Alpha virt. eigenvalues --    0.56282   0.56855   0.58493   0.59156   0.59854
 Alpha virt. eigenvalues --    0.60922   0.62052   0.64593   0.64822   0.67063
 Alpha virt. eigenvalues --    0.68782   0.68931   0.69904   0.71893   0.73913
 Alpha virt. eigenvalues --    0.74418   0.74957   0.76035   0.76881   0.77094
 Alpha virt. eigenvalues --    0.77344   0.77943   0.78609   0.80072   0.81853
 Alpha virt. eigenvalues --    0.82921   0.83907   0.85457   0.85846   0.87359
 Alpha virt. eigenvalues --    0.87663   0.88554   0.90045   0.90276   0.91956
 Alpha virt. eigenvalues --    0.92478   0.93614   0.94091   0.94732   0.95894
 Alpha virt. eigenvalues --    0.96741   0.98517   0.99699   1.00499   1.01434
 Alpha virt. eigenvalues --    1.02663   1.03099   1.04462   1.06424   1.07366
 Alpha virt. eigenvalues --    1.09063   1.11742   1.12397   1.13462   1.14731
 Alpha virt. eigenvalues --    1.16134   1.18357   1.18795   1.20720   1.21552
 Alpha virt. eigenvalues --    1.24051   1.25381   1.25876   1.27752   1.28465
 Alpha virt. eigenvalues --    1.30131   1.30883   1.33582   1.34435   1.35726
 Alpha virt. eigenvalues --    1.36773   1.38818   1.40754   1.41726   1.43608
 Alpha virt. eigenvalues --    1.44749   1.45075   1.46427   1.48520   1.49540
 Alpha virt. eigenvalues --    1.51167   1.51496   1.53809   1.54776   1.55868
 Alpha virt. eigenvalues --    1.57480   1.58177   1.60211   1.61717   1.62540
 Alpha virt. eigenvalues --    1.65142   1.67527   1.68909   1.71178   1.71663
 Alpha virt. eigenvalues --    1.72881   1.75723   1.76373   1.77526   1.79501
 Alpha virt. eigenvalues --    1.82778   1.84935   1.87150   1.90158   1.90898
 Alpha virt. eigenvalues --    1.92936   1.94656   1.94892   1.96531   2.01133
 Alpha virt. eigenvalues --    2.04890   2.10364   2.13233   2.15342   2.16194
 Alpha virt. eigenvalues --    2.18142   2.21212   2.22130   2.25241   2.30005
 Alpha virt. eigenvalues --    2.32891   2.34301   2.35731   2.36598   2.39978
 Alpha virt. eigenvalues --    2.42959   2.46833   2.49078   2.51021   2.53979
 Alpha virt. eigenvalues --    2.56768   2.60576   2.64098   2.67316   2.69588
 Alpha virt. eigenvalues --    2.69726   2.75004   2.79203   2.81090   2.83926
 Alpha virt. eigenvalues --    2.86154   2.92344   2.93777   2.95855   2.98444
 Alpha virt. eigenvalues --    3.00948   3.01372   3.03146   3.04988   3.05976
 Alpha virt. eigenvalues --    3.06657   3.08063   3.10424   3.10874   3.13054
 Alpha virt. eigenvalues --    3.14080   3.16773   3.17361   3.19880   3.21977
 Alpha virt. eigenvalues --    3.26321   3.27638   3.29446   3.30634   3.33248
 Alpha virt. eigenvalues --    3.35125   3.37426   3.39732   3.40704   3.43440
 Alpha virt. eigenvalues --    3.44619   3.45174   3.47820   3.50971   3.51577
 Alpha virt. eigenvalues --    3.54568   3.55790   3.58821   3.59543   3.60149
 Alpha virt. eigenvalues --    3.62153   3.63226   3.65351   3.67253   3.68724
 Alpha virt. eigenvalues --    3.69439   3.70579   3.72768   3.75327   3.75909
 Alpha virt. eigenvalues --    3.78120   3.80596   3.81603   3.83007   3.85681
 Alpha virt. eigenvalues --    3.89930   3.91968   3.95159   3.97355   3.97892
 Alpha virt. eigenvalues --    3.99600   4.01404   4.03011   4.03820   4.04693
 Alpha virt. eigenvalues --    4.08655   4.08869   4.10000   4.12238   4.13113
 Alpha virt. eigenvalues --    4.14144   4.15929   4.17074   4.18426   4.18831
 Alpha virt. eigenvalues --    4.20375   4.22210   4.24499   4.26501   4.28329
 Alpha virt. eigenvalues --    4.29498   4.29640   4.32029   4.32467   4.33083
 Alpha virt. eigenvalues --    4.34050   4.34490   4.36091   4.37607   4.39534
 Alpha virt. eigenvalues --    4.40577   4.42481   4.43103   4.43219   4.44273
 Alpha virt. eigenvalues --    4.47233   4.48706   4.49731   4.52149   4.52738
 Alpha virt. eigenvalues --    4.53557   4.54288   4.56101   4.57058   4.59140
 Alpha virt. eigenvalues --    4.61005   4.61500   4.63886   4.65654   4.65689
 Alpha virt. eigenvalues --    4.66724   4.67253   4.69476   4.70248   4.73647
 Alpha virt. eigenvalues --    4.75647   4.77591   4.80745   4.81848   4.85136
 Alpha virt. eigenvalues --    4.85243   4.90464   4.91529   4.91802   4.93387
 Alpha virt. eigenvalues --    4.96030   4.97133   4.98447   5.00142   5.02210
 Alpha virt. eigenvalues --    5.04351   5.05301   5.06750   5.07686   5.08253
 Alpha virt. eigenvalues --    5.09422   5.10326   5.11176   5.12503   5.13679
 Alpha virt. eigenvalues --    5.14625   5.15770   5.16243   5.18251   5.19274
 Alpha virt. eigenvalues --    5.20422   5.21240   5.24750   5.28575   5.31600
 Alpha virt. eigenvalues --    5.33872   5.37390   5.38326   5.39345   5.44037
 Alpha virt. eigenvalues --    5.44538   5.46679   5.48995   5.51237   5.53833
 Alpha virt. eigenvalues --    5.57296   5.59822   5.60646   5.62939   5.66822
 Alpha virt. eigenvalues --    5.68007   5.70866   5.79090   5.83864   5.86672
 Alpha virt. eigenvalues --    5.87424   5.95342   6.00929   6.03452   6.10967
 Alpha virt. eigenvalues --    6.11513   6.12505   6.26045   6.27058   6.31615
 Alpha virt. eigenvalues --    6.34994   6.40325   6.45729   6.64546   6.72998
 Alpha virt. eigenvalues --    6.75912   6.84217   6.93499   7.14854   7.23799
 Alpha virt. eigenvalues --    7.45818   8.87979  10.83432  11.08265  11.21919
 Alpha virt. eigenvalues --   11.31990  11.39546  11.46503  11.48387  11.98486
 Alpha virt. eigenvalues --   12.46600  12.63339  13.05998  13.11669  13.20541
 Alpha virt. eigenvalues --   13.24390  17.59262  20.26055  22.12384
          Condensed to atoms (all electrons):
               1          2          3          4          5          6
     1  O    7.604262   0.346937   0.436759  -0.051729  -0.067058  -0.000052
     2  H    0.346937   0.417468  -0.045804   0.008156   0.014263  -0.000180
     3  C    0.436759  -0.045804   4.208864   0.774032   0.280135  -0.025409
     4  O   -0.051729   0.008156   0.774032   7.649631  -0.068987  -0.012261
     5  C   -0.067058   0.014263   0.280135  -0.068987   5.028372   0.350259
     6  N   -0.000052  -0.000180  -0.025409  -0.012261   0.350259   6.245276
     7  H    0.000533  -0.000143   0.000388   0.029924  -0.047616   0.336615
     8  H   -0.000809  -0.000601  -0.005457   0.000880   0.346860  -0.036848
     9  C   -0.003533   0.000097  -0.019014  -0.001564   0.383673  -0.031990
    10  H   -0.000266  -0.000105   0.002608   0.000473  -0.030092  -0.002145
    11  H    0.011514  -0.000448  -0.002252   0.000177  -0.029679   0.004246
    12  C    0.000155   0.000030  -0.000089  -0.000057  -0.016533  -0.003509
    13  H   -0.000003  -0.000001  -0.000121   0.000001   0.003654  -0.000084
    14  H   -0.000010  -0.000001   0.000692  -0.000001  -0.007408  -0.000898
    15  C   -0.000008   0.000001   0.000175  -0.000002  -0.004710  -0.001292
    16  N   -0.000001   0.000000   0.000138  -0.000013  -0.002601  -0.019470
    17  H   -0.000000   0.000000   0.000017   0.000000  -0.000436   0.003868
    18  H   -0.000000  -0.000000   0.000036  -0.000000   0.000058   0.001200
    19  H    0.000000   0.000000  -0.000001  -0.000000   0.000269   0.000328
    20  C   -0.000027   0.000003   0.001986  -0.000202  -0.045987   0.488207
    21  N    0.000000  -0.000000  -0.000250   0.000004   0.001659  -0.020252
    22  N    0.000000  -0.000000   0.000015   0.000067   0.000123   0.000070
    23  O   -0.000000  -0.000000  -0.000000  -0.000000   0.000007  -0.000073
    24  O   -0.000000   0.000000   0.000159  -0.000228   0.000621  -0.026663
               7          8          9         10         11         12
     1  O    0.000533  -0.000809  -0.003533  -0.000266   0.011514   0.000155
     2  H   -0.000143  -0.000601   0.000097  -0.000105  -0.000448   0.000030
     3  C    0.000388  -0.005457  -0.019014   0.002608  -0.002252  -0.000089
     4  O    0.029924   0.000880  -0.001564   0.000473   0.000177  -0.000057
     5  C   -0.047616   0.346860   0.383673  -0.030092  -0.029679  -0.016533
     6  N    0.336615  -0.036848  -0.031990  -0.002145   0.004246  -0.003509
     7  H    0.435612   0.006750  -0.000698   0.001070  -0.000105  -0.000384
     8  H    0.006750   0.628958  -0.064496   0.009747   0.000739  -0.011181
     9  C   -0.000698  -0.064496   4.833008   0.361938   0.367854   0.438042
    10  H    0.001070   0.009747   0.361938   0.630240  -0.042827  -0.042480
    11  H   -0.000105   0.000739   0.367854  -0.042827   0.610504  -0.030595
    12  C   -0.000384  -0.011181   0.438042  -0.042480  -0.030595   4.839363
    13  H    0.000017   0.000198  -0.027413  -0.001044  -0.005334   0.368928
    14  H    0.000008   0.007705  -0.039127   0.008697  -0.001171   0.365546
    15  C   -0.000091  -0.000268  -0.018687  -0.007331   0.004631   0.405507
    16  N    0.002498   0.002580  -0.004652  -0.001036  -0.000022  -0.040836
    17  H   -0.000054   0.000085   0.000026   0.000005   0.000016   0.001987
    18  H    0.000094   0.000344  -0.010139   0.006912   0.000266  -0.055878
    19  H    0.000013   0.000034   0.003860   0.000221  -0.000355  -0.033565
    20  C   -0.036366  -0.001187  -0.001554   0.000851   0.000041  -0.004655
    21  N   -0.004375   0.000431  -0.000128  -0.000016   0.000003  -0.000010
    22  N   -0.000668  -0.000052   0.000010  -0.000002   0.000000   0.000004
    23  O    0.000697   0.000000  -0.000000   0.000000   0.000000  -0.000000
    24  O    0.046499  -0.000046  -0.000003  -0.000001   0.000000  -0.000001
              13         14         15         16         17         18
     1  O   -0.000003  -0.000010  -0.000008  -0.000001  -0.000000  -0.000000
     2  H   -0.000001  -0.000001   0.000001   0.000000   0.000000  -0.000000
     3  C   -0.000121   0.000692   0.000175   0.000138   0.000017   0.000036
     4  O    0.000001  -0.000001  -0.000002  -0.000013   0.000000  -0.000000
     5  C    0.003654  -0.007408  -0.004710  -0.002601  -0.000436   0.000058
     6  N   -0.000084  -0.000898  -0.001292  -0.019470   0.003868   0.001200
     7  H    0.000017   0.000008  -0.000091   0.002498  -0.000054   0.000094
     8  H    0.000198   0.007705  -0.000268   0.002580   0.000085   0.000344
     9  C   -0.027413  -0.039127  -0.018687  -0.004652   0.000026  -0.010139
    10  H   -0.001044   0.008697  -0.007331  -0.001036   0.000005   0.006912
    11  H   -0.005334  -0.001171   0.004631  -0.000022   0.000016   0.000266
    12  C    0.368928   0.365546   0.405507  -0.040836   0.001987  -0.055878
    13  H    0.634073  -0.044520  -0.026626   0.003965  -0.000249   0.000630
    14  H   -0.044520   0.633881  -0.031942  -0.000065   0.000480   0.009165
    15  C   -0.026626  -0.031942   4.710894   0.400649  -0.035018   0.387027
    16  N    0.003965  -0.000065   0.400649   6.211600   0.373831  -0.033457
    17  H   -0.000249   0.000480  -0.035018   0.373831   0.450589   0.004518
    18  H    0.000630   0.009165   0.387027  -0.033457   0.004518   0.612612
    19  H   -0.004042  -0.002004   0.381996  -0.017267  -0.007320  -0.047121
    20  C    0.000183   0.000643  -0.047686   0.440870  -0.028402   0.001640
    21  N    0.000001  -0.000030   0.001853  -0.041977   0.007721   0.000346
    22  N   -0.000000  -0.000001  -0.000036  -0.000261   0.000256  -0.000012
    23  O    0.000000   0.000000   0.000000  -0.000104  -0.000044   0.000000
    24  O    0.000000   0.000000   0.000016   0.000074   0.000052   0.000000
              19         20         21         22         23         24
     1  O    0.000000  -0.000027   0.000000   0.000000  -0.000000  -0.000000
     2  H    0.000000   0.000003  -0.000000  -0.000000  -0.000000   0.000000
     3  C   -0.000001   0.001986  -0.000250   0.000015  -0.000000   0.000159
     4  O   -0.000000  -0.000202   0.000004   0.000067  -0.000000  -0.000228
     5  C    0.000269  -0.045987   0.001659   0.000123   0.000007   0.000621
     6  N    0.000328   0.488207  -0.020252   0.000070  -0.000073  -0.026663
     7  H    0.000013  -0.036366  -0.004375  -0.000668   0.000697   0.046499
     8  H    0.000034  -0.001187   0.000431  -0.000052   0.000000  -0.000046
     9  C    0.003860  -0.001554  -0.000128   0.000010  -0.000000  -0.000003
    10  H    0.000221   0.000851  -0.000016  -0.000002   0.000000  -0.000001
    11  H   -0.000355   0.000041   0.000003   0.000000   0.000000   0.000000
    12  C   -0.033565  -0.004655  -0.000010   0.000004  -0.000000  -0.000001
    13  H   -0.004042   0.000183   0.000001  -0.000000   0.000000   0.000000
    14  H   -0.002004   0.000643  -0.000030  -0.000001   0.000000   0.000000
    15  C    0.381996  -0.047686   0.001853  -0.000036   0.000000   0.000016
    16  N   -0.017267   0.440870  -0.041977  -0.000261  -0.000104   0.000074
    17  H   -0.007320  -0.028402   0.007721   0.000256  -0.000044   0.000052
    18  H   -0.047121   0.001640   0.000346  -0.000012   0.000000   0.000000
    19  H    0.608786   0.003224  -0.000126   0.000000  -0.000000   0.000000
    20  C    0.003224   4.342853   0.467772  -0.067605   0.002260   0.018474
    21  N   -0.000126   0.467772   6.847332   0.397435  -0.121490  -0.134459
    22  N    0.000000  -0.067605   0.397435   4.972009   0.578598   0.548240
    23  O   -0.000000   0.002260  -0.121490   0.578598   8.020299  -0.089977
    24  O    0.000000   0.018474  -0.134459   0.548240  -0.089977   8.077112
 Mulliken charges:
               1
     1  O   -0.276666
     2  H    0.260330
     3  C    0.392394
     4  O   -0.328298
     5  C   -0.088847
     6  N   -0.248942
     7  H    0.229780
     8  H    0.115634
     9  C   -0.165512
    10  H    0.104580
    11  H    0.112797
    12  C   -0.179789
    13  H    0.097786
    14  H    0.100360
    15  C   -0.119053
    16  N   -0.274444
    17  H    0.228072
    18  H    0.121762
    19  H    0.113070
    20  C    0.464664
    21  N   -0.401446
    22  N    0.571811
    23  O   -0.390173
    24  O   -0.439870
 Sum of Mulliken charges =  -0.00000
 Mulliken charges with hydrogens summed into heavy atoms:
               1
     1  O   -0.016336
     3  C    0.392394
     4  O   -0.328298
     5  C    0.026787
     6  N   -0.019162
     9  C    0.051865
    12  C    0.018357
    15  C    0.115779
    16  N   -0.046372
    20  C    0.464664
    21  N   -0.401446
    22  N    0.571811
    23  O   -0.390173
    24  O   -0.439870
 APT charges:
               1
     1  O   -0.425315
     2  H    0.967699
     3  C   -0.548550
     4  O    0.171853
     5  C   -0.447133
     6  N   -0.592261
     7  H    0.333419
     8  H    0.298430
     9  C   -0.649658
    10  H    0.268187
    11  H    0.479600
    12  C   -0.705183
    13  H    0.565747
    14  H    0.272680
    15  C   -0.646429
    16  N   -0.618545
    17  H    0.684881
    18  H    0.298413
    19  H    0.610531
    20  C   -0.179336
    21  N    0.231452
    22  N   -1.303238
    23  O    1.119368
    24  O   -0.186613
 Sum of APT charges =  -0.00000
 APT charges with hydrogens summed into heavy atoms:
               1
     1  O    0.542383
     3  C   -0.548550
     4  O    0.171853
     5  C   -0.148703
     6  N   -0.258841
     9  C    0.098129
    12  C    0.133244
    15  C    0.262515
    16  N    0.066336
    20  C   -0.179336
    21  N    0.231452
    22  N   -1.303238
    23  O    1.119368
    24  O   -0.186613
 Electronic spatial extent (au):  <R**2>=           2956.7581
 Charge=              0.0000 electrons
 Dipole moment (field-independent basis, Debye):
    X=              9.7497    Y=              4.2953    Z=             -0.7490  Tot=             10.6803
 Quadrupole moment (field-independent basis, Debye-Ang):
   XX=            -94.7919   YY=            -72.6598   ZZ=            -75.7309
   XY=             -7.1213   XZ=             -0.5413   YZ=              1.7982
 Traceless Quadrupole moment (field-independent basis, Debye-Ang):
   XX=            -13.7310   YY=              8.4010   ZZ=              5.3300
   XY=             -7.1213   XZ=             -0.5413   YZ=              1.7982
 Octapole moment (field-independent basis, Debye-Ang**2):
  XXX=            116.1266  YYY=             16.3025  ZZZ=             -0.7935  XYY=             34.2853
  XXY=            -15.0129  XXZ=              5.2292  XZZ=             -2.8949  YZZ=             -4.4716
  YYZ=            -11.0877  XYZ=              4.8474
 Hexadecapole moment (field-independent basis, Debye-Ang**3):
 XXXX=          -2440.2233 YYYY=          -1173.9841 ZZZZ=           -117.5288 XXXY=           -118.4595
 XXXZ=            -21.1337 YYYX=            -87.7397 YYYZ=             12.8204 ZZZX=             -1.7133
 ZZZY=             -1.6257 XXYY=           -502.3741 XXZZ=           -367.3472 YYZZ=           -227.0801
 XXYZ=              6.0867 YYXZ=             -2.1109 ZZXY=             -4.3183
 N-N= 9.675971817705D+02 E-N=-3.701662100973D+03  KE= 7.521930868995D+02
  Exact polarizability:   0.000   0.000   0.000   0.000   0.000   0.000
 Approx polarizability: 200.190  12.522 164.570   3.209  -9.913 100.547
 No NMR shielding tensors so no spin-rotation constants.
 Leave Link  601 at Thu Aug 26 09:24:39 2021, MaxMem= 24159191040 cpu:        18.0
 (Enter /public/home/users/caep010/software/Gaussian09/g09/l701.exe)
 Compute integral second derivatives.
 ... and contract with generalized density number  0.
 Leave Link  701 at Thu Aug 26 09:24:40 2021, MaxMem= 24159191040 cpu:        18.1
 (Enter /public/home/users/caep010/software/Gaussian09/g09/l702.exe)
 L702 exits ... SP integral derivatives will be done elsewhere.
 Leave Link  702 at Thu Aug 26 09:24:42 2021, MaxMem= 24159191040 cpu:         1.3
 (Enter /public/home/users/caep010/software/Gaussian09/g09/l703.exe)
 Compute integral second derivatives, UseDBF=F ICtDFT=           0.
 Integral derivatives from FoFJK, PRISM(SPDF).
 Calling FoFJK, ICntrl=    100147 FMM=F ISym2X=0 I1Cent= 0 IOpClX= 0 NMat=1 NMatS=1 NMatT=0.
 FoFJK:  IHMeth= 1 ICntrl=  100147 DoSepK=F KAlg= 0 I1Cent=   0 FoldK=F
 IRaf=         0 NMat=   1 IRICut=       1 DoRegI=T DoRafI=F ISym2E= 0.
 FoFCou: FMM=F IPFlag=           0 FMFlag=      100000 FMFlg1=         800
         NFxFlg=           0 DoJE=F BraDBF=F KetDBF=F FulRan=T
         wScrn=  0.000000 ICntrl=  100147 IOpCl=  0 I1Cent=           0 NGrid=           0
         NMat0=    1 NMatS0=      1 NMatT0=    0 NMatD0=    1 NMtDS0=    0 NMtDT0=    0
 Symmetry not used in FoFCou.
 Leave Link  703 at Thu Aug 26 09:25:54 2021, MaxMem= 24159191040 cpu:      2262.6
 (Enter /public/home/users/caep010/software/Gaussian09/g09/l716.exe)
 Dipole        = 3.83583531D+00 1.68991967D+00-2.94677497D-01
 Polarizability= 0.00000000D+00 0.00000000D+00 0.00000000D+00
                 0.00000000D+00 0.00000000D+00 0.00000000D+00
 ***** Axes restored to original set *****
 -------------------------------------------------------------------
 Center     Atomic                   Forces (Hartrees/Bohr)
 Number     Number              X              Y              Z
 -------------------------------------------------------------------
      1        8          -0.019735403   -0.205072205    0.104822199
      2        1           0.009581622    0.235131608   -0.077184217
      3        6           0.011371269   -0.029882745   -0.034152452
      4        8          -0.001114324    0.003009812    0.007041699
      5        6           0.092842768    0.014741309   -0.029891133
      6        7          -0.073521515   -0.098467477    0.179276618
      7        1           0.081099922    0.112957503   -0.173495376
      8        1          -0.102438836   -0.014745422    0.019887955
      9        6          -0.079287457   -0.072487068   -0.043160758
     10        1           0.114024949    0.000089939   -0.024671404
     11        1          -0.022052877    0.083298095    0.075639362
     12        6           0.057050809    0.020093000   -0.103439028
     13        1           0.047643305   -0.011476681    0.104530348
     14        1          -0.116983363   -0.004666118    0.011610796
     15        6          -0.086752014    0.075427594   -0.044206245
     16        7           0.104947806    0.163363763    0.062891733
     17        1          -0.115419200   -0.181528643   -0.032596998
     18        1           0.115239073    0.011584366   -0.020782543
     19        1          -0.018544630   -0.099159883    0.051782000
     20        6          -0.000494555   -0.003632530   -0.055845130
     21        7           0.003270380   -0.006950047    0.031815108
     22        7           0.000260189    0.007455026   -0.013030618
     23        8          -0.005157947   -0.009879444   -0.005323491
     24        8           0.004170028    0.010796249    0.008481575
 -------------------------------------------------------------------
 Cartesian Forces:  Max     0.235131608 RMS     0.079221499
 FormGI is forming the generalized inverse of G from B-inverse, IUseBI=4.
 Leave Link  716 at Thu Aug 26 09:25:54 2021, MaxMem= 24159191040 cpu:         1.3
 (Enter /public/home/users/caep010/software/Gaussian09/g09/l103.exe)

 GradGradGradGradGradGradGradGradGradGradGradGradGradGradGradGradGradGrad
 Berny optimization.
 Red2BG is reusing G-inverse.
 Internal  Forces:  Max     0.247639876 RMS     0.045160451
 Search for a local minimum.
 Step number   1 out of a maximum of  135
 All quantities printed in internal units (Hartrees-Bohrs-Radians)
 RMS Force = .45160D-01 SwitMx=.10000D-02 MixMth= 1
 Mixed Optimization -- RFO/linear search
 Second derivative matrix not updated -- analytic derivatives used.
 ITU=  0
     Eigenvalues ---    0.00180   0.00202   0.00239   0.00446   0.00554
     Eigenvalues ---    0.00588   0.00748   0.01185   0.01786   0.02031
     Eigenvalues ---    0.02718   0.02757   0.04057   0.04147   0.04206
     Eigenvalues ---    0.04377   0.04663   0.05149   0.05721   0.05947
     Eigenvalues ---    0.06334   0.07067   0.07413   0.07770   0.07970
     Eigenvalues ---    0.09100   0.09194   0.11125   0.12521   0.13067
     Eigenvalues ---    0.14883   0.15761   0.16341   0.18993   0.20630
     Eigenvalues ---    0.21352   0.23201   0.23476   0.25354   0.26830
     Eigenvalues ---    0.28862   0.29328   0.30282   0.31235   0.32390
     Eigenvalues ---    0.34902   0.37475   0.40582   0.42269   0.52127
     Eigenvalues ---    0.55909   0.59391   0.60550   0.64068   0.67488
     Eigenvalues ---    0.67601   0.67699   0.67844   0.67949   0.68016
     Eigenvalues ---    0.79924   0.88412   0.92021   1.18409   1.19159
     Eigenvalues ---    1.39013
 RFO step:  Lambda=-2.17849123D-01 EMin= 1.80198425D-03
 Linear search not attempted -- first point.
 Maximum step size (   0.300) exceeded in Quadratic search.
    -- Step size scaled by   0.672
 Iteration  1 RMS(Cart)=  0.02986075 RMS(Int)=  0.00020343
 Iteration  2 RMS(Cart)=  0.00016957 RMS(Int)=  0.00001235
 Iteration  3 RMS(Cart)=  0.00000005 RMS(Int)=  0.00001235
 ITry= 1 IFail=0 DXMaxC= 1.19D-01 DCOld= 1.00D+10 DXMaxT= 3.00D-01 DXLimC= 3.00D+00 Rises=F
 Variable       Old X    -DE/DX   Delta X   Delta X   Delta X     New X
                                 (Linear)    (Quad)   (Total)
    R1        1.54944   0.24764   0.00000   0.10326   0.10326   1.65269
    R2        2.45727   0.04169   0.00000   0.03592   0.03592   2.49320
    R3        2.28148  -0.00588   0.00000  -0.00513  -0.00513   2.27635
    R4        2.88772   0.00292   0.00000   0.00167   0.00167   2.88939
    R5        2.75716   0.00455   0.00000   0.00142   0.00143   2.75858
    R6        1.85114   0.10533   0.00000   0.08233   0.08233   1.93347
    R7        2.87219   0.01300   0.00000   0.01534   0.01533   2.88752
    R8        1.62485   0.22197   0.00000   0.10645   0.10645   1.73130
    R9        2.51678   0.01849   0.00000   0.01574   0.01575   2.53253
   R10        1.83289   0.11666   0.00000   0.08744   0.08744   1.92033
   R11        1.83270   0.11461   0.00000   0.08555   0.08555   1.91824
   R12        2.87024   0.01344   0.00000   0.01201   0.01201   2.88225
   R13        1.83354   0.11541   0.00000   0.08652   0.08652   1.92006
   R14        1.83192   0.11764   0.00000   0.08793   0.08793   1.91985
   R15        2.84790   0.01805   0.00000   0.01923   0.01922   2.86712
   R16        2.77536  -0.00172   0.00000  -0.00502  -0.00502   2.77034
   R17        1.83235   0.11765   0.00000   0.08823   0.08823   1.92059
   R18        1.83489   0.11308   0.00000   0.08481   0.08481   1.91970
   R19        1.62407   0.21732   0.00000   0.10351   0.10351   1.72757
   R20        2.51043   0.02959   0.00000   0.02880   0.02881   2.53924
   R21        2.56175  -0.02017   0.00000  -0.02174  -0.02174   2.54001
   R22        2.55836   0.01280   0.00000   0.01832   0.01832   2.57668
   R23        2.30253   0.01082   0.00000   0.00409   0.00409   2.30663
   R24        2.33632   0.01081   0.00000   0.00640   0.00640   2.34273
    A1        1.90944   0.00432   0.00000  -0.00546  -0.00546   1.90398
    A2        2.18108  -0.00683   0.00000  -0.00808  -0.00808   2.17300
    A3        1.94298   0.00238   0.00000  -0.00027  -0.00027   1.94271
    A4        2.15912   0.00445   0.00000   0.00835   0.00835   2.16748
    A5        1.84842   0.00070   0.00000   0.00096   0.00095   1.84937
    A6        1.88060  -0.00045   0.00000  -0.00204  -0.00204   1.87857
    A7        1.95564  -0.00236   0.00000  -0.00294  -0.00295   1.95269
    A8        1.88025   0.00013   0.00000   0.00122   0.00122   1.88147
    A9        2.01353   0.00160   0.00000   0.00287   0.00288   2.01641
   A10        1.88034   0.00033   0.00000  -0.00024  -0.00026   1.88009
   A11        2.03656  -0.00148   0.00000  -0.00141  -0.00145   2.03512
   A12        2.21027   0.00133   0.00000   0.00490   0.00489   2.21516
   A13        2.03635   0.00015   0.00000  -0.00349  -0.00353   2.03282
   A14        1.90703  -0.00115   0.00000  -0.00187  -0.00187   1.90516
   A15        1.90742   0.00003   0.00000  -0.00019  -0.00018   1.90724
   A16        1.94598  -0.00132   0.00000  -0.00384  -0.00385   1.94213
   A17        1.88522   0.00031   0.00000  -0.00045  -0.00046   1.88476
   A18        1.90903   0.00213   0.00000   0.00423   0.00423   1.91326
   A19        1.90815   0.00005   0.00000   0.00221   0.00221   1.91036
   A20        1.90679  -0.00079   0.00000   0.00097   0.00097   1.90776
   A21        1.90707   0.00088   0.00000   0.00189   0.00190   1.90897
   A22        1.95117   0.00105   0.00000  -0.00045  -0.00047   1.95071
   A23        1.88435   0.00041   0.00000  -0.00079  -0.00079   1.88355
   A24        1.90713  -0.00060   0.00000  -0.00092  -0.00091   1.90622
   A25        1.90613  -0.00097   0.00000  -0.00072  -0.00072   1.90541
   A26        2.01690   0.00043   0.00000   0.00122   0.00123   2.01814
   A27        1.89184   0.00027   0.00000   0.00079   0.00077   1.89261
   A28        1.89028   0.00485   0.00000   0.00841   0.00841   1.89869
   A29        1.89250   0.00030   0.00000   0.00106   0.00106   1.89356
   A30        1.89271  -0.00639   0.00000  -0.01111  -0.01111   1.88159
   A31        1.87492   0.00058   0.00000  -0.00048  -0.00050   1.87442
   A32        2.02935   0.00283   0.00000   0.00736   0.00734   2.03669
   A33        2.22478  -0.00069   0.00000   0.00203   0.00202   2.22680
   A34        2.02905  -0.00214   0.00000  -0.00939  -0.00941   2.01964
   A35        2.13295  -0.00456   0.00000  -0.01095  -0.01093   2.12203
   A36        2.18494   0.00644   0.00000   0.01404   0.01403   2.19897
   A37        1.96525  -0.00187   0.00000  -0.00307  -0.00308   1.96217
   A38        2.11350  -0.01528   0.00000  -0.01085  -0.01085   2.10265
   A39        2.00778  -0.00073   0.00000  -0.00215  -0.00215   2.00563
   A40        2.15093  -0.01066   0.00000  -0.00947  -0.00947   2.14146
   A41        2.12317   0.01147   0.00000   0.01169   0.01169   2.13487
    D1        0.07055  -0.00105   0.00000  -0.00294  -0.00295   0.06760
    D2       -3.06891  -0.00115   0.00000  -0.00323  -0.00323  -3.07214
    D3       -3.12793  -0.00112   0.00000  -0.00324  -0.00324  -3.13117
    D4        1.14691  -0.00141   0.00000  -0.00416  -0.00416   1.14276
    D5       -0.91856  -0.00015   0.00000  -0.00086  -0.00086  -0.91942
    D6        0.01576  -0.00121   0.00000  -0.00349  -0.00350   0.01227
    D7       -1.99258  -0.00150   0.00000  -0.00442  -0.00441  -1.99699
    D8        2.22513  -0.00024   0.00000  -0.00112  -0.00111   2.22402
    D9        0.18175  -0.00421   0.00000  -0.01046  -0.01047   0.17128
   D10       -2.95917   0.00046   0.00000   0.00360   0.00360  -2.95557
   D11        2.19033  -0.00432   0.00000  -0.01177  -0.01178   2.17855
   D12       -0.95059   0.00034   0.00000   0.00229   0.00229  -0.94829
   D13       -1.99206  -0.00277   0.00000  -0.00932  -0.00933  -2.00139
   D14        1.15021   0.00190   0.00000   0.00474   0.00475   1.15495
   D15       -1.26716  -0.00071   0.00000  -0.00109  -0.00108  -1.26824
   D16        0.79225  -0.00099   0.00000  -0.00282  -0.00282   0.78943
   D17        2.90372  -0.00176   0.00000  -0.00265  -0.00265   2.90107
   D18        0.84965  -0.00044   0.00000   0.00003   0.00002   0.84968
   D19        2.90906  -0.00071   0.00000  -0.00171  -0.00172   2.90734
   D20       -1.26266  -0.00149   0.00000  -0.00154  -0.00155  -1.26420
[...]
 084,0.48263615,0.00028866,-0.00046494,-0.00043071,-0.00006166,0.000046
 00,0.00000905,-0.00009170,-0.00008382,0.00095052,0.00025282,-0.0002233
 1,-0.00095922,-0.00203958,0.00223343,0.00288751,-0.00062598,-0.0211111
 1,0.00916683,0.00372648,-0.00143199,-0.00115899,0.00065020,-0.00074481
 ,-0.00069963,0.00024791,-0.00037566,-0.00133341,0.00002666,0.00044442,
 0.00007680,0.00002466,0.00010450,-0.00019183,0.00169747,-0.00508458,-0
 .00417984,0.00092922,0.00092314,0.00083648,0.00203355,-0.00104442,-0.0
 0036287,-0.10967400,-0.01237266,-0.05794406,0.21615467,0.00042464,-0.0
 0106274,-0.00088421,-0.00003752,0.00013207,0.00007296,-0.00136317,0.00
 129398,0.00145985,0.00064585,-0.00170136,-0.00090570,-0.00197008,0.002
 48072,0.00645916,-0.01887700,-0.04433285,0.04349471,-0.00105378,-0.003
 99813,-0.00671182,0.00083449,0.00069919,-0.00037192,0.00022075,0.00103
 045,0.00080073,0.00002618,-0.00013402,-0.00001208,0.00026856,0.0006715
 2,-0.00051129,-0.02044003,0.00326806,-0.02416351,0.00124727,-0.0038245
 1,-0.00403061,-0.00058785,0.00159404,0.00135442,-0.02305234,-0.1000067
 6,-0.01255238,0.16668595,0.69121322,-0.00032439,0.00084584,0.00104914,
 0.00000199,-0.00000727,-0.00006833,0.00039668,0.00033542,-0.00189435,-
 0.00073737,-0.00042264,0.00196331,0.00131880,-0.00559725,-0.00329074,0
 .01013057,0.01701390,0.01188389,-0.00048904,-0.00406019,-0.00094088,-0
 .00184728,0.00088255,0.00126062,-0.00056168,0.00321683,-0.00090112,-0.
 00007718,-0.00031423,0.00000598,0.00031700,-0.00051145,0.00107801,-0.0
 1622144,-0.00193092,-0.02401307,0.00001169,-0.00527429,-0.00161561,-0.
 00001212,0.00168665,0.00221287,-0.08403918,0.01734032,-0.14090889,0.12
 777306,-0.01760110,0.58758523,-0.00010868,0.00022167,0.00012927,0.0000
 2198,-0.00002333,-0.00001509,0.00023752,-0.00047657,-0.00010052,-0.000
 10196,0.00030081,-0.00005462,-0.00012091,-0.00046222,-0.00095982,0.003
 25658,-0.00012046,0.00155560,0.00191183,-0.00035959,0.00003746,0.00003
 300,-0.00026608,0.00005175,-0.00027879,-0.00006907,0.00022692,0.000073
 80,-0.00002828,0.00001953,0.00006005,-0.00002164,-0.00000295,-0.001096
 68,0.00178404,0.00032931,0.00042535,-0.00016323,0.00002740,0.00007324,
 0.00008350,0.00013088,-0.00820584,-0.01630371,-0.00677176,-0.03785989,
 -0.07216158,-0.03452459,0.04974509,0.00001313,0.00004538,-0.00003187,0
 .00000047,-0.00001061,-0.00000631,-0.00004553,-0.00015753,0.00014855,0
 .00006085,-0.00007450,-0.00011948,-0.00009277,0.00051146,0.00015658,-0
 .00144197,-0.00002211,0.00479922,-0.00038177,-0.00063322,-0.00119191,-
 0.00004458,-0.00002903,0.00000075,0.00003766,0.00009520,0.00026571,-0.
 00001594,-0.00001640,-0.00002122,-0.00002534,0.00007350,-0.00004230,0.
 00027539,0.00063860,0.00009502,0.00003607,0.00001263,0.00017084,-0.000
 07983,-0.00000645,-0.00004081,0.00442286,0.00503670,0.00285854,-0.1010
 0709,-0.38767430,-0.09259304,0.10017581,0.40679054,-0.00002470,0.00006
 216,0.00006489,-0.00000409,-0.00000819,0.00000071,0.00011596,0.0000125
 4,-0.00013363,-0.00006716,0.00017621,0.00014119,0.00031705,-0.00055681
 ,-0.00049285,0.00108533,0.00248926,-0.00716702,-0.00022270,0.00131086,
 0.00114500,-0.00003519,-0.00005933,0.00002322,0.00004018,0.00048302,-0
 .00005298,-0.00001413,-0.00002935,0.00000025,0.00005331,-0.00002940,0.
 00011476,-0.00404996,0.00103432,-0.00363974,0.00021024,-0.00121004,-0.
 00101509,0.00011161,0.00010646,0.00011739,-0.00327287,-0.02478228,-0.0
 0784232,-0.04443627,-0.10636761,-0.08948173,0.04065963,0.09323206,0.09
 532345,-0.00000945,0.00009368,0.00007756,-0.00001078,-0.00000766,-0.00
 000684,0.00005913,-0.00012025,-0.00009540,-0.00000018,0.00010881,0.000
 06301,-0.00013087,-0.00012977,-0.00054102,0.00125316,0.00220060,0.0005
 9723,-0.00012830,-0.00001266,-0.00001025,-0.00008403,-0.00016773,0.000
 16330,0.00030977,-0.00047849,-0.00062673,0.00033467,0.00094383,-0.0002
 1486,0.00030183,-0.00007215,-0.00000964,-0.00676011,0.00001710,0.00420
 973,0.00018926,0.00034698,0.00059560,0.00111927,0.00066979,0.00088628,
 -0.27035795,-0.00316008,0.07125009,-0.02065441,-0.00003804,-0.01157891
 ,-0.00179940,0.00103389,-0.00017174,0.30102837,-0.00005139,0.00011503,
 0.00003871,0.00000495,-0.00001346,-0.00001071,0.00008371,-0.00009682,-
 0.00001683,-0.00005191,0.00005318,0.00006671,0.00028068,-0.00050338,0.
 00005665,-0.00057546,0.00048906,-0.00056722,-0.00016061,-0.00001144,0.
 00025302,-0.00020819,0.00000094,-0.00008097,0.00121362,0.00213680,0.00
 016153,-0.00045232,-0.00029392,0.00022562,-0.00030612,0.00036455,-0.00
 000170,0.02602754,-0.00113507,-0.00981687,-0.00053900,0.00071946,0.000
 38622,0.00129369,-0.00378660,-0.00358854,-0.00467531,-0.05203635,0.002
 45676,-0.00117924,0.00216237,-0.00014239,-0.00063192,-0.00001163,0.000
 07723,0.00430440,0.05111717,-0.00004002,0.00005356,0.00008038,-0.00000
 742,0.00000905,-0.00000571,0.00013770,0.00009820,-0.00011088,-0.000088
 46,-0.00003711,0.00017009,-0.00002949,-0.00028456,-0.00037849,0.001393
 26,0.00074312,0.00070967,0.00003825,0.00001701,-0.00009278,-0.00010475
 ,-0.00000832,-0.00012018,-0.00047699,0.00134843,0.00047265,-0.00050603
 ,-0.00062041,0.00028750,-0.00018494,0.00013200,0.00001637,0.02039668,-
 0.00030550,-0.00562348,-0.00029925,0.00058059,0.00028017,0.00046171,-0
 .00395334,-0.00190756,0.07381435,0.00385351,-0.07013157,-0.03436910,0.
 00054016,-0.00610922,-0.00143855,0.00066686,-0.00033502,-0.06971576,0.
 00214443,0.08136821,-0.00001238,0.00000021,0.00001028,-0.00000493,0.00
 000865,0.00000166,0.00004740,0.00006215,0.00000170,-0.00001677,-0.0000
 0842,0.00005638,-0.00019384,-0.00029422,-0.00020237,0.00075171,0.00059
 298,0.00039801,0.00008644,0.00004117,-0.00003841,0.00003141,-0.0000023
 6,0.00003031,0.00031644,0.00067972,0.00111115,0.00026217,0.00038233,-0
 .00009110,0.00041942,0.00026412,-0.00005521,0.00100595,0.00776474,-0.0
 0331175,0.00022264,-0.00077217,-0.00024162,0.00035821,-0.00005405,-0.0
 0070502,-0.05950671,-0.04532115,0.02665148,0.00069720,0.02009488,-0.01
 762869,0.00157045,0.00041843,0.00016698,-0.00424433,-0.02628100,0.0146
 8069,0.06091873,0.00005869,-0.00015748,0.00011235,-0.00000766,0.000050
 61,0.00002964,0.00009684,0.00031134,-0.00028325,-0.00009553,-0.0001387
 2,0.00017947,-0.00026575,0.00018353,-0.00056505,0.00021169,0.00048224,
 0.00000141,0.00008209,0.00004559,-0.00003331,0.00002720,0.00000937,0.0
 0007122,0.00199958,-0.00213996,-0.00500377,-0.00000385,0.00032094,-0.0
 0006151,-0.00034737,-0.00144955,0.00080715,-0.00565418,-0.02312859,0.0
 1138073,-0.00046840,0.00090001,-0.00008246,0.00050009,0.00093337,0.000
 36551,-0.03892011,-0.24179413,0.11475349,-0.00078701,0.00113357,-0.002
 59571,-0.00003818,0.00170197,0.00006898,-0.00022385,0.00043909,-0.0005
 1704,0.04393106,0.26150548,-0.00001031,0.00005533,0.00016706,-0.000001
 16,0.00002048,0.00001334,0.00016176,0.00004181,-0.00021854,-0.00012434
 ,0.00000685,0.00020790,-0.00005329,-0.00041747,-0.00090333,0.00018908,
 0.00052839,-0.00011653,0.00008178,-0.00004134,0.00013562,0.00001604,0.
 00005902,0.00010852,0.00154436,-0.00292724,-0.00277633,-0.00006094,0.0
 0011623,-0.00007808,-0.00023475,-0.00121649,0.00042890,-0.00408373,-0.
 01930790,0.01041463,-0.00026207,0.00037173,0.00098504,-0.00002507,0.00
 069489,0.00060610,0.02177909,0.10700249,-0.10800110,0.00082687,0.02557
 011,-0.02360215,0.00055048,0.00077221,0.00005573,0.00232218,0.00796420
 ,-0.00379390,-0.01864757,-0.11773070,0.12858133,0.00000449,0.00301252,
 0.00031684,0.00009299,0.00026129,0.00024383,-0.00209026,-0.00143172,0.
 00373272,0.00022490,0.00064273,-0.00028166,-0.00503486,0.01019662,-0.0
 0699105,-0.07023337,-0.06940529,0.01122664,-0.00310040,-0.00692313,0.0
 0161696,0.00019473,0.00388633,0.00254885,0.00066857,0.00051436,-0.0015
 7301,-0.00009443,-0.00046131,-0.00006548,0.00004790,-0.00025805,0.0007
 4859,0.00083060,0.00115377,0.00021442,-0.00010240,-0.00076604,-0.00018
 021,-0.00003255,-0.00024951,0.00024326,-0.00004481,0.01782816,-0.01086
 798,-0.07536357,-0.05470183,0.02314275,-0.00414226,-0.00395337,0.00956
 648,-0.00037897,0.00185150,-0.00435553,-0.00307461,-0.00010319,-0.0042
 4695,0.23532976,-0.00119243,0.00551587,0.00215052,0.00028638,-0.000349
 69,-0.00008747,0.00019135,-0.00886540,-0.00091088,-0.00058556,0.004822
 46,0.00032835,-0.00217007,-0.02898646,-0.02601570,-0.04055353,-0.34017
 298,-0.03459208,-0.00921770,-0.02163626,0.01972961,-0.00451678,0.00522
 823,0.00656960,-0.00191693,0.00505843,-0.00040242,-0.00042175,-0.00064
 070,-0.00068462,0.00026410,-0.00112984,0.00304143,-0.00103289,0.004192
 82,-0.00287894,-0.00033834,-0.00268138,-0.00047239,-0.00002554,-0.0003
 4914,0.00050378,0.01091333,0.00439133,0.01525956,-0.02777539,-0.182774
 94,0.07802430,-0.01230528,-0.02771433,0.03537658,-0.00516799,0.0002822
 1,-0.00350732,-0.00165821,0.00071026,-0.00183130,0.11295029,0.75888815
 ,-0.00011732,-0.00085945,0.00030437,0.00036343,-0.00052061,-0.00017359
 ,0.00220372,-0.00254537,-0.00452682,-0.00040535,0.00410436,-0.00026702
 ,-0.01488163,-0.02855390,-0.00194369,0.01687182,-0.02237016,-0.1477422
 2,0.00507409,0.03310585,0.02579145,0.00141182,-0.00018450,0.00095759,0
 .00012462,-0.00306501,0.00022160,0.00003769,0.00000380,-0.00030269,-0.
 00009410,0.00102680,-0.00062541,0.00047855,-0.00124673,-0.00156018,0.0
 0047824,0.00101953,0.00103145,-0.00027143,0.00008417,-0.00067798,0.007
 09639,0.00982406,-0.04048938,-0.00000826,0.10000272,-0.22489809,0.0030
 8270,-0.00422065,0.01556527,0.00512435,0.00045741,0.00667899,-0.001155
 03,-0.00113330,-0.00081401,-0.01227532,0.02703140,0.74225822,-0.000038
 34,-0.00081640,0.00003463,-0.00004478,-0.00009892,-0.00009438,0.000795
 70,0.00046296,-0.00130321,0.00000288,-0.00022261,0.00026482,0.00529100
 ,-0.00297126,0.00437539,0.02033065,-0.00821254,-0.01179328,-0.00417905
 ,0.00055796,0.00002551,-0.00009259,-0.00071239,-0.00085212,-0.00039161
 ,0.00081407,0.00081553,-0.00011263,0.00008774,-0.00009102,0.00006975,-
 0.00005373,0.00023778,-0.00014285,-0.00003150,-0.00013247,0.00001956,-
 0.00000320,-0.00000752,0.00001803,-0.00003065,-0.00003145,-0.00030568,
 -0.00034057,-0.00126712,0.00856560,0.00388069,0.00644907,-0.00219656,0
 .00022923,0.00086264,0.00025508,0.00002661,0.00066451,0.00016558,0.000
 00943,-0.00000555,-0.06522598,-0.01773001,-0.00634463,0.08087669,0.000
 37908,-0.00181306,-0.00040423,0.00002889,0.00002523,-0.00003710,0.0001
 9312,0.00175278,-0.00135967,0.00002835,-0.00078345,-0.00007376,-0.0052
 2526,-0.00084263,0.00581984,-0.00506146,-0.03288013,-0.04440843,0.0019
 2068,0.00220071,0.00003654,0.00076736,-0.00044711,-0.00061447,0.000669
 71,-0.00118798,-0.00030116,0.00004376,0.00008379,0.00008693,-0.0001446
 5,0.00022939,-0.00064008,0.00004833,-0.00043250,0.00042898,0.00000985,
 0.00041208,0.00000068,0.00003436,0.00009302,-0.00000090,-0.00271512,-0
 .00079668,0.00077397,0.00006191,0.01812477,0.01592324,0.00026358,0.000
 29895,0.00087839,0.00019431,-0.00001390,-0.00050178,0.00031039,-0.0000
 2903,0.00050021,-0.01806201,-0.18306983,-0.09173068,0.05879238,0.34714
 087,0.00000449,-0.00227595,0.00036702,-0.00016236,0.00019629,-0.000139
 21,0.00116254,0.00571466,-0.00316296,-0.00049583,-0.00296116,0.0024721
 2,0.00251629,0.00415582,0.00783052,-0.01917212,-0.04383840,-0.00142799
 ,0.00264580,-0.00086710,-0.01789615,0.00053376,-0.00210276,-0.00183021
 ,0.00077203,-0.00048985,-0.00032657,-0.00000330,0.00016692,0.00035542,
 -0.00005835,-0.00031199,-0.00063434,-0.00129139,0.00082028,-0.00008824
 ,-0.00028511,-0.00074751,-0.00079380,0.00014423,0.00002458,0.00036252,
 0.00305072,0.00288713,0.00827477,0.00903910,-0.00156260,-0.09391611,-0
 .00233734,-0.00509106,-0.00197860,-0.00290140,0.00018665,-0.00229973,-
 0.00100368,0.00031560,-0.00129292,-0.00577592,-0.12560636,-0.29285857,
 0.01192869,0.08977018,0.62281370,-0.00052642,0.00056415,0.00084217,0.0
 0008001,-0.00014154,-0.00008901,0.00089864,0.00010127,-0.00190526,-0.0
 0036461,0.00014363,0.00147909,0.00048512,-0.00109035,-0.00018517,-0.00
 465943,-0.00365315,0.00545828,-0.00082552,-0.00297513,-0.01089556,-0.0
 0010864,-0.00007552,0.00020460,-0.00015220,0.00017434,0.00032095,-0.00
 005194,-0.00004209,-0.00002332,0.00006508,-0.00004686,0.00012837,-0.00
 011264,0.00039052,-0.00028031,-0.00009626,-0.00015918,-0.00010092,-0.0
 0007513,0.00005399,0.00012311,0.00146503,-0.00160684,0.00192050,0.0151
 4622,-0.00084556,-0.00405901,-0.00226371,0.00012439,-0.00035705,-0.000
 63598,0.00011679,-0.00007800,0.00023651,-0.00006469,0.00039949,-0.0153
 5327,0.00994169,0.00027979,-0.08242773,-0.01419519,0.00813622,0.360654
 54,-0.00097153,-0.00007806,0.00185982,0.00005195,-0.00031859,-0.000314
 75,0.00236753,0.00216603,-0.00557109,-0.00084732,-0.00093983,0.0038003
 0,0.00188303,-0.00258113,0.00464602,-0.01173561,-0.02034634,0.00795319
 ,0.00102720,-0.00787610,-0.03033824,0.00022159,-0.00073576,-0.00043507
 ,-0.00019620,0.00036436,0.00022666,-0.00001718,0.00004847,0.00010839,0
 .00013441,-0.00015122,-0.00001350,0.00015609,0.00047219,0.00051579,-0.
 00008094,-0.00024563,-0.00010596,0.00003186,-0.00009510,0.00007825,-0.
 00099633,0.00241913,0.00288673,0.00151812,-0.00156157,-0.01202708,0.00
 055515,0.00040828,-0.00017983,-0.00087796,0.00023473,-0.00101954,-0.00
 047789,-0.00000616,-0.00048694,0.01365736,0.03875003,0.00006318,-0.016
 56511,-0.13528307,0.02073584,0.21100050,0.74560120,-0.00027572,0.00294
 327,0.00001954,0.00012946,-0.00019577,0.00010724,-0.00083587,-0.005749
 22,0.00289374,0.00030762,0.00313906,-0.00191113,0.00047090,-0.00154652
 ,-0.00756562,0.01059893,0.02306747,0.00448152,-0.00400061,-0.00456855,
 0.01561676,-0.00069616,0.00130162,0.00128083,-0.00076140,0.00085979,0.
 00026230,-0.00001061,-0.00021322,-0.00025669,0.00009578,0.00014207,0.0
 0077434,0.00044547,-0.00037162,-0.00068226,0.00023104,0.00018498,0.000
 53037,-0.00017343,0.00005639,-0.00019651,0.00168894,-0.00131749,-0.006
 26456,-0.00966452,-0.00478389,0.01667641,0.00090867,0.00118356,-0.0011
 5543,0.00146958,-0.00008680,0.00145110,0.00019237,-0.00028219,0.000471
 64,-0.00546092,-0.00250999,-0.08990220,0.00475670,0.00005446,-0.118062
 77,0.10395319,0.14405221,0.72208790,0.00029988,-0.00043919,-0.00043443
 ,-0.00005243,0.00009718,0.00004178,-0.00042640,0.00039355,0.00082030,0
 .00016329,-0.00028120,-0.00060157,-0.00114198,0.00102216,0.00009604,-0
 .00043560,0.00093077,-0.00299220,0.00137567,0.00055967,0.00426251,0.00
 008035,-0.00000859,-0.00006539,0.00025511,-0.00031572,-0.00022325,0.00
 003243,0.00002140,0.00003934,-0.00006733,0.00001419,-0.00018082,-0.000
 05005,-0.00009929,0.00011291,-0.00000182,0.00004417,-0.00002633,0.0000
 3130,-0.00000224,-0.00001517,-0.00005499,0.00035955,-0.00004952,-0.001
 88733,-0.00025022,0.00004711,0.00007561,0.00001868,-0.00008188,0.00007
 781,-0.00001992,-0.00003259,-0.00008301,0.00004664,-0.00011831,0.00787
 391,-0.00209508,-0.00034275,0.01837054,0.00104287,-0.01848022,-0.13624
 249,-0.07725716,-0.10544657,0.10463866,0.00043678,-0.00054401,-0.00074
 096,-0.00006290,0.00016770,0.00009723,-0.00075468,0.00034725,0.0015505
 4,0.00031138,-0.00025915,-0.00107872,-0.00001182,0.00150766,-0.0002595
 0,0.00135428,0.00334243,-0.00417444,-0.00126541,0.00136956,0.00839350,
 0.00005223,-0.00019949,-0.00023348,0.00023962,-0.00029032,-0.00000936,
 0.00000896,0.00002695,0.00002641,-0.00006398,0.00001309,-0.00015154,-0
 .00009176,-0.00006997,0.00004235,-0.00002318,0.00005987,-0.00006254,0.
 00002424,0.00002392,0.00001240,-0.00011221,-0.00026420,0.00031131,0.00
 140176,0.00078029,-0.00006021,-0.00024989,-0.00016945,-0.00043577,-0.0
 0001530,-0.00002530,-0.00005910,0.00007163,0.00006524,0.00000570,-0.00
 196576,-0.00242834,0.00452328,0.00127052,0.02656126,0.00497655,-0.0754
 4197,-0.23058857,-0.16462529,0.12288345,0.26740060,0.00044251,-0.00154
 764,-0.00055141,-0.00010111,0.00019590,0.00002483,-0.00021184,0.002463
 71,-0.00000723,0.00009259,-0.00141004,-0.00005476,-0.00021505,0.001339
 84,0.00260506,-0.00254164,-0.00458613,-0.00409090,0.00030204,0.0009983
 2,0.00024252,0.00027428,-0.00057435,-0.00062534,0.00048454,-0.00046595
 ,-0.00008940,0.00001033,0.00009523,0.00012259,-0.00008184,-0.00006502,
 -0.00038440,-0.00041171,0.00018756,0.00009987,-0.00010453,-0.00012538,
 -0.00028706,0.00007748,0.00000082,0.00010070,0.00101614,0.00047676,0.0
 0243177,0.00344114,-0.00037586,-0.00834713,-0.00114234,-0.00049685,0.0
 0011876,-0.00059021,-0.00004423,-0.00048647,-0.00016966,0.00012867,-0.
 00040121,-0.00065661,0.01247881,0.00777063,-0.02396324,-0.01807045,-0.
 10571523,-0.11178628,-0.17453880,-0.39997973,0.15359472,0.22231578,0.4
 9399161,0.00026060,-0.00008755,-0.00043371,-0.00006727,0.00006833,0.00
 004144,-0.00068470,-0.00032158,0.00101677,0.00056347,0.00003532,-0.000
 76648,0.00097464,0.00086313,-0.00056575,0.00488424,0.00338940,-0.00156
 563,-0.00470033,0.00106090,0.00715120,0.00014697,-0.00008843,-0.000318
 45,-0.00011242,0.00005692,0.00011232,0.00003110,0.00001581,0.00000590,
 0.00001236,0.00003401,0.00004331,0.00014993,-0.00021324,0.00008071,0.0
 0002492,0.00011095,0.00007890,0.00001348,0.00000566,-0.00005001,-0.000
 55862,0.00018162,-0.00071993,-0.00218318,0.00104972,0.00251215,0.00069
 017,0.00024133,-0.00045166,0.00026642,-0.00007112,0.00013972,0.0000463
 1,0.00001647,0.00000289,-0.00099611,-0.00584367,-0.00673138,0.02039674
 ,-0.01938523,0.01203317,-0.13513521,-0.12258157,0.00207716,0.00716888,
 -0.04799597,-0.01775971,0.10880763,0.00082629,-0.00015507,-0.00156536,
 -0.00005643,0.00028313,0.00024633,-0.00175365,-0.00131830,0.00439320,0
 .00057622,0.00048504,-0.00312626,-0.00104626,0.00269423,-0.00314075,0.
 00642034,0.01624891,-0.01147685,-0.00108801,0.00109322,0.02129610,-0.0
 0005755,0.00035102,0.00011793,0.00028534,-0.00036100,-0.00019722,0.000
 02725,-0.00002279,-0.00004844,-0.00011845,0.00011368,-0.00009472,0.000
 14005,-0.00054146,-0.00000312,0.00004035,0.00032328,0.00012767,-0.0000
 2304,0.00006855,-0.00006089,-0.00004471,-0.00054143,-0.00171552,0.0002
 6679,0.00248695,0.00786871,0.00029647,0.00090633,-0.00164945,0.0005585
 2,-0.00018671,0.00062709,0.00024701,0.00005102,0.00024972,-0.00767373,
 -0.02704051,-0.02481619,-0.01834271,-0.03934348,0.05590422,-0.12227320
 ,-0.38965727,0.00926568,-0.04666567,-0.06682701,-0.03838068,0.18945877
 ,0.50088968,-0.00002110,-0.00089581,0.00015598,-0.00000984,0.00005398,
 -0.00005356,0.00029679,0.00221696,-0.00093735,-0.00022816,-0.00117336,
 0.00095467,-0.00109037,0.00417688,-0.00069143,0.00303496,-0.00725688,-
 0.02236608,0.00163121,0.00657923,-0.00890828,0.00019423,-0.00019975,-0
 .00058808,0.00069578,-0.00084488,-0.00084982,-0.00002266,0.00005957,0.
 00007789,-0.00023074,0.00002187,-0.00044682,-0.00028910,-0.00003187,0.
 00000076,-0.00004886,-0.00006767,-0.00015814,0.00003817,-0.00000413,0.
 00005640,0.00076999,0.00003136,0.00129535,0.00073135,0.00107977,-0.003
 72804,-0.00036202,-0.00049438,0.00062379,-0.00029615,-0.00011886,-0.00
 012016,-0.00005092,0.00007407,-0.00017771,-0.00087072,-0.00099448,0.00
 620227,0.01547069,0.04386930,-0.00005268,0.00651412,0.03810442,-0.1406
 7679,-0.02992370,-0.07036413,0.01351192,0.00406705,-0.01382121,0.15687
 590\\-0.00001135,-0.00008225,0.00003592,0.00000728,0.00008302,-0.00002
 851,-0.00000134,-0.00001443,0.00000041,0.00000375,0.00000291,-0.000005
 22,0.00001793,-0.00002111,-0.00001530,-0.00002741,0.00002804,-0.000013
 81,0.00001610,-0.00001643,0.00003439,-0.00000390,-0.00000212,0.0000026
 3,-0.00001702,0.00000896,-0.00000055,0.00000468,-0.00000167,-0.0000030
 4,0.00000229,0.00000189,0.00000310,0.00001226,-0.00001462,-0.00000800,
 0.00000060,-0.00000289,0.00000514,-0.00000420,0.00000002,-0.00000149,-
 0.00000913,-0.00000669,0.00000443,-0.00005482,-0.00014982,-0.00000323,
 0.00004784,0.00013090,0.00004203,0.00000706,-0.00000044,-0.00000069,0.
 00000297,-0.00000449,0.00000011,0.00001797,0.00004095,-0.00004821,-0.0
 0001391,0.00001184,0.00002314,0.00000972,0.00000664,0.00000071,0.00000
 055,0.00000340,-0.00000729,-0.00000794,-0.00000161,-0.00001665\\\@
 Job cpu time:       1 days  7 hours 47 minutes 49.3 seconds.
 File lengths (MBytes):  RWF= 196054 Int=      0 D2E=      0 Chk=    153 Scr=      1
 Normal termination of Gaussian 09 at Fri Aug 27 03:40:37 2021.
