 Entering Gaussian System, Link 0=g09
 Input=G4.NMBZAX.gjf
 Output=G4.NMBZAX.log
 Initial command:
 /public/home/users/caep010/software/Gaussian09/g09/l1.exe "/public/home/users/caep010/.cache/gau_scr/Gau-154691.inp" -scrdir="/public/home/users/caep010/.cache/gau_scr/"
 Entering Link 1 = /public/home/users/caep010/software/Gaussian09/g09/l1.exe PID=    154692.
  
 Copyright (c) 1988,1990,1992,1993,1995,1998,2003,2009,2015,
            Gaussian, Inc.  All Rights Reserved.
  
 This is part of the Gaussian(R) 09 program.  It is based on
 the Gaussian(R) 03 system (copyright 2003, Gaussian, Inc.),
 the Gaussian(R) 98 system (copyright 1998, Gaussian, Inc.),
 the Gaussian(R) 94 system (copyright 1995, Gaussian, Inc.),
 the Gaussian 92(TM) system (copyright 1992, Gaussian, Inc.),
 the Gaussian 90(TM) system (copyright 1990, Gaussian, Inc.),
 the Gaussian 88(TM) system (copyright 1988, Gaussian, Inc.),
 the Gaussian 86(TM) system (copyright 1986, Carnegie Mellon
 University), and the Gaussian 82(TM) system (copyright 1983,
 Carnegie Mellon University). Gaussian is a federally registered
 trademark of Gaussian, Inc.
  
 This software contains proprietary and confidential information,
 including trade secrets, belonging to Gaussian, Inc.
  
 This software is provided under written license and may be
 used, copied, transmitted, or stored only in accord with that
 written license.
  
 The following legend is applicable only to US Government
 contracts under FAR:
  
                    RESTRICTED RIGHTS LEGEND
  
 Use, reproduction and disclosure by the US Government is
 subject to restrictions as set forth in subparagraphs (a)
 and (c) of the Commercial Computer Software - Restricted
 Rights clause in FAR 52.227-19.
  
 Gaussian, Inc.
 340 Quinnipiac St., Bldg. 40, Wallingford CT 06492
  
  
 ---------------------------------------------------------------
 Warning -- This program may not be used in any manner that
 competes with the business of Gaussian, Inc. or will provide
 assistance to any competitor of Gaussian, Inc.  The licensee
 of this program is prohibited from giving any competitor of
 Gaussian, Inc. access to this program.  By using this program,
 the user acknowledges that Gaussian, Inc. is engaged in the
 business of creating and licensing software in the field of
 computational chemistry and represents and warrants to the
 licensee that it is not a competitor of Gaussian, Inc. and that
 it will not use this program in any manner prohibited above.
 ---------------------------------------------------------------
  

 Cite this work as:
 Gaussian 09, Revision E.01,
 M. J. Frisch, G. W. Trucks, H. B. Schlegel, G. E. Scuseria, 
 M. A. Robb, J. R. Cheeseman, G. Scalmani, V. Barone, B. Mennucci, 
 G. A. Petersson, H. Nakatsuji, M. Caricato, X. Li, H. P. Hratchian, 
 A. F. Izmaylov, J. Bloino, G. Zheng, J. L. Sonnenberg, M. Hada, 
 M. Ehara, K. Toyota, R. Fukuda, J. Hasegawa, M. Ishida, T. Nakajima, 
 Y. Honda, O. Kitao, H. Nakai, T. Vreven, J. A. Montgomery, Jr., 
 J. E. Peralta, F. Ogliaro, M. Bearpark, J. J. Heyd, E. Brothers, 
 K. N. Kudin, V. N. Staroverov, T. Keith, R. Kobayashi, J. Normand, 
 K. Raghavachari, A. Rendell, J. C. Burant, S. S. Iyengar, J. Tomasi, 
 M. Cossi, N. Rega, J. M. Millam, M. Klene, J. E. Knox, J. B. Cross, 
 V. Bakken, C. Adamo, J. Jaramillo, R. Gomperts, R. E. Stratmann, 
 O. Yazyev, A. J. Austin, R. Cammi, C. Pomelli, J. W. Ochterski, 
 R. L. Martin, K. Morokuma, V. G. Zakrzewski, G. A. Voth, 
 P. Salvador, J. J. Dannenberg, S. Dapprich, A. D. Daniels, 
 O. Farkas, J. B. Foresman, J. V. Ortiz, J. Cioslowski, 
 and D. J. Fox, Gaussian, Inc., Wallingford CT, 2013.
 
 ******************************************
 Gaussian 09:  ES64L-G09RevE.01 30-Nov-2015
                27-Aug-2021 
 ******************************************
 %nproc=32
 Will use up to   32 processors via shared memory.
 %mem=180GB
 ----------------
 #P G4 OPT=calcfc
 ----------------
 1/10=4,14=-1,18=20,19=15,26=3,38=1/1,3;
 2/9=110,12=2,17=6,18=5,40=1/2;
 3/5=35,7=104,11=2,16=1,25=1,30=1,71=2,74=-5,140=1/1,2,3;
 4//1;
 5/5=2,38=5/2;
 8/6=4,10=90,11=11/1;
 11/6=1,8=1,9=11,15=111,16=1/1,2,10;
 10/6=1,13=1/2;
 6/7=2,8=2,9=2,10=2,28=1/1;
 7/10=1,18=20,25=1/1,2,3,16;
 1/10=4,14=-1,18=20,19=15,26=3/3(2);
 2/9=110/2;
 99//99;
 2/9=110/2;
 3/5=35,7=104,11=2,16=1,25=1,30=1,71=1,74=-5/1,2,3;
 4/5=5,16=3,69=1/1;
 5/5=2,38=5/2;
 7//1,2,3,16;
 1/14=-1,18=20,19=15,26=3/3(-5);
 2/9=110/2;
 6/7=2,8=2,9=2,10=2,19=2,28=1/1;
 99/9=1/99;
 Leave Link    1 at Fri Aug 27 07:19:32 2021, MaxMem= 24159191040 cpu:         2.7
 (Enter /public/home/users/caep010/software/Gaussian09/g09/l101.exe)
 ------
 NMBZAX
 ------
 Symbolic Z-matrix:
 Charge =  0 Multiplicity = 1
 C                     2.0334    0.3264    3.1525 
 C                     2.7084    1.5595    3.2294 
 C                     4.0949    1.5914    3.237 
 C                     4.7876    0.3967    3.1613 
 C                     0.5987    0.1517    3.1613 
 C                     4.1583   -0.8221    3.0491 
 H                     4.6913   -1.665     2.9659 
 C                     2.7894   -0.8605    3.0504 
 H                     2.1883    2.4123    3.2773 
 H                     2.3198   -1.7408    2.9797 
 H                     4.5845    2.4618    3.2963 
 N                    -0.3064    1.0847    3.213 
 C                    -1.7434    0.7363    3.2269 
 H                    -2.186     1.1166    2.4136 
 H                    -1.8455   -0.2583    3.2282 
 O                    -0.0599    2.3596    3.2105 
 H                    -2.1707    1.1166    4.0465 
 H                     0.2653   -0.7902    3.1235 
 N                     6.2598    0.433     3.1865 
 O                     6.8773   -0.6176    3.0037 
 O                     6.8104    1.5023    3.4261 
 
 NAtoms=     21 NQM=       21 NQMF=       0 NMMI=      0 NMMIF=      0
                NMic=       0 NMicF=      0.
                    Isotopes and Nuclear Properties:
 (Nuclear quadrupole moments (NQMom) in fm**2, nuclear magnetic moments (NMagM)
  in nuclear magnetons)

  Atom         1           2           3           4           5           6           7           8           9          10
 IAtWgt=          12          12          12          12          12          12           1          12           1           1
 AtmWgt=  12.0000000  12.0000000  12.0000000  12.0000000  12.0000000  12.0000000   1.0078250  12.0000000   1.0078250   1.0078250
 NucSpn=           0           0           0           0           0           0           1           0           1           1
 AtZEff=   0.0000000   0.0000000   0.0000000   0.0000000   0.0000000   0.0000000   0.0000000   0.0000000   0.0000000   0.0000000
 NQMom=    0.0000000   0.0000000   0.0000000   0.0000000   0.0000000   0.0000000   0.0000000   0.0000000   0.0000000   0.0000000
 NMagM=    0.0000000   0.0000000   0.0000000   0.0000000   0.0000000   0.0000000   2.7928460   0.0000000   2.7928460   2.7928460
 AtZNuc=   6.0000000   6.0000000   6.0000000   6.0000000   6.0000000   6.0000000   1.0000000   6.0000000   1.0000000   1.0000000

  Atom        11          12          13          14          15          16          17          18          19          20
 IAtWgt=           1          14          12           1           1          16           1           1          14          16
 AtmWgt=   1.0078250  14.0030740  12.0000000   1.0078250   1.0078250  15.9949146   1.0078250   1.0078250  14.0030740  15.9949146
 NucSpn=           1           2           0           1           1           0           1           1           2           0
 AtZEff=   0.0000000   0.0000000   0.0000000   0.0000000   0.0000000   0.0000000   0.0000000   0.0000000   0.0000000   0.0000000
 NQMom=    0.0000000   2.0440000   0.0000000   0.0000000   0.0000000   0.0000000   0.0000000   0.0000000   2.0440000   0.0000000
 NMagM=    2.7928460   0.4037610   0.0000000   2.7928460   2.7928460   0.0000000   2.7928460   2.7928460   0.4037610   0.0000000
 AtZNuc=   1.0000000   7.0000000   6.0000000   1.0000000   1.0000000   8.0000000   1.0000000   1.0000000   7.0000000   8.0000000

  Atom        21
 IAtWgt=          16
 AtmWgt=  15.9949146
 NucSpn=           0
 AtZEff=   0.0000000
 NQMom=    0.0000000
 NMagM=    0.0000000
 AtZNuc=   8.0000000
 Leave Link  101 at Fri Aug 27 07:19:32 2021, MaxMem= 24159191040 cpu:         9.9
 (Enter /public/home/users/caep010/software/Gaussian09/g09/l103.exe)

 GradGradGradGradGradGradGradGradGradGradGradGradGradGradGradGradGradGrad
 Berny optimization.
 Initialization pass.
                           ----------------------------
                           !    Initial Parameters    !
                           ! (Angstroms and Degrees)  !
 --------------------------                            --------------------------
 ! Name  Definition              Value          Derivative Info.                !
 --------------------------------------------------------------------------------
 ! R1    R(1,2)                  1.4079         calculate D2E/DX2 analytically  !
 ! R2    R(1,5)                  1.4453         calculate D2E/DX2 analytically  !
 ! R3    R(1,8)                  1.4109         calculate D2E/DX2 analytically  !
 ! R4    R(2,3)                  1.3869         calculate D2E/DX2 analytically  !
 ! R5    R(2,9)                  1.0            calculate D2E/DX2 analytically  !
 ! R6    R(3,4)                  1.3831         calculate D2E/DX2 analytically  !
 ! R7    R(3,11)                 1.0004         calculate D2E/DX2 analytically  !
 ! R8    R(4,6)                  1.3763         calculate D2E/DX2 analytically  !
 ! R9    R(4,19)                 1.4729         calculate D2E/DX2 analytically  !
 ! R10   R(5,12)                 1.3009         calculate D2E/DX2 analytically  !
 ! R11   R(5,18)                 0.9999         calculate D2E/DX2 analytically  !
 ! R12   R(6,7)                  1.0007         calculate D2E/DX2 analytically  !
 ! R13   R(6,8)                  1.3694         calculate D2E/DX2 analytically  !
 ! R14   R(8,10)                 1.0002         calculate D2E/DX2 analytically  !
 ! R15   R(12,13)                1.4787         calculate D2E/DX2 analytically  !
 ! R16   R(12,16)                1.2985         calculate D2E/DX2 analytically  !
 ! R17   R(13,14)                1.001          calculate D2E/DX2 analytically  !
 ! R18   R(13,15)                0.9998         calculate D2E/DX2 analytically  !
 ! R19   R(13,17)                0.9995         calculate D2E/DX2 analytically  !
 ! R20   R(19,20)                1.2323         calculate D2E/DX2 analytically  !
 ! R21   R(19,21)                1.2264         calculate D2E/DX2 analytically  !
 ! A1    A(2,1,5)              125.5534         calculate D2E/DX2 analytically  !
 ! A2    A(2,1,8)              118.9374         calculate D2E/DX2 analytically  !
 ! A3    A(5,1,8)              115.5083         calculate D2E/DX2 analytically  !
 ! A4    A(1,2,3)              119.9842         calculate D2E/DX2 analytically  !
 ! A5    A(1,2,9)              120.0117         calculate D2E/DX2 analytically  !
 ! A6    A(3,2,9)              120.004          calculate D2E/DX2 analytically  !
 ! A7    A(2,3,4)              118.7204         calculate D2E/DX2 analytically  !
 ! A8    A(2,3,11)             120.6371         calculate D2E/DX2 analytically  !
 ! A9    A(4,3,11)             120.6425         calculate D2E/DX2 analytically  !
 ! A10   A(3,4,6)              122.7127         calculate D2E/DX2 analytically  !
 ! A11   A(3,4,19)             118.5805         calculate D2E/DX2 analytically  !
 ! A12   A(6,4,19)             118.7031         calculate D2E/DX2 analytically  !
 ! A13   A(1,5,12)             127.1701         calculate D2E/DX2 analytically  !
 ! A14   A(1,5,18)             116.3992         calculate D2E/DX2 analytically  !
 ! A15   A(12,5,18)            116.4308         calculate D2E/DX2 analytically  !
 ! A16   A(4,6,7)              120.6073         calculate D2E/DX2 analytically  !
 ! A17   A(4,6,8)              118.805          calculate D2E/DX2 analytically  !
 ! A18   A(7,6,8)              120.5875         calculate D2E/DX2 analytically  !
 ! A19   A(1,8,6)              120.8032         calculate D2E/DX2 analytically  !
 ! A20   A(1,8,10)             119.5981         calculate D2E/DX2 analytically  !
 ! A21   A(6,8,10)             119.5986         calculate D2E/DX2 analytically  !
 ! A22   A(5,12,13)            120.4987         calculate D2E/DX2 analytically  !
 ! A23   A(5,12,16)            124.8896         calculate D2E/DX2 analytically  !
 ! A24   A(13,12,16)           114.5713         calculate D2E/DX2 analytically  !
 ! A25   A(12,13,14)           109.4231         calculate D2E/DX2 analytically  !
 ! A26   A(12,13,15)           109.4893         calculate D2E/DX2 analytically  !
 ! A27   A(12,13,17)           109.4829         calculate D2E/DX2 analytically  !
 ! A28   A(14,13,15)           109.5021         calculate D2E/DX2 analytically  !
 ! A29   A(14,13,17)           109.4312         calculate D2E/DX2 analytically  !
 ! A30   A(15,13,17)           109.4987         calculate D2E/DX2 analytically  !
 ! A31   A(4,19,20)            118.5113         calculate D2E/DX2 analytically  !
 ! A32   A(4,19,21)            118.2682         calculate D2E/DX2 analytically  !
 ! A33   A(20,19,21)           123.1876         calculate D2E/DX2 analytically  !
 ! D1    D(5,1,2,3)            178.7751         calculate D2E/DX2 analytically  !
 ! D2    D(5,1,2,9)             -1.3067         calculate D2E/DX2 analytically  !
 ! D3    D(8,1,2,3)             -1.5677         calculate D2E/DX2 analytically  !
 ! D4    D(8,1,2,9)            178.3505         calculate D2E/DX2 analytically  !
 ! D5    D(2,1,5,12)             1.5057         calculate D2E/DX2 analytically  !
 ! D6    D(2,1,5,18)          -178.4927         calculate D2E/DX2 analytically  !
 ! D7    D(8,1,5,12)          -178.1619         calculate D2E/DX2 analytically  !
 ! D8    D(8,1,5,18)             1.8397         calculate D2E/DX2 analytically  !
 ! D9    D(2,1,8,6)              1.1284         calculate D2E/DX2 analytically  !
 ! D10   D(2,1,8,10)          -178.978          calculate D2E/DX2 analytically  !
 ! D11   D(5,1,8,6)           -179.1806         calculate D2E/DX2 analytically  !
 ! D12   D(5,1,8,10)             0.713          calculate D2E/DX2 analytically  !
 ! D13   D(1,2,3,4)              0.3166         calculate D2E/DX2 analytically  !
 ! D14   D(1,2,3,11)          -179.6701         calculate D2E/DX2 analytically  !
 ! D15   D(9,2,3,4)           -179.6016         calculate D2E/DX2 analytically  !
 ! D16   D(9,2,3,11)             0.4117         calculate D2E/DX2 analytically  !
 ! D17   D(2,3,4,6)              1.465          calculate D2E/DX2 analytically  !
 ! D18   D(2,3,4,19)          -179.2498         calculate D2E/DX2 analytically  !
 ! D19   D(11,3,4,6)          -178.5484         calculate D2E/DX2 analytically  !
 ! D20   D(11,3,4,19)            0.7368         calculate D2E/DX2 analytically  !
 ! D21   D(3,4,6,7)            177.9477         calculate D2E/DX2 analytically  !
 ! D22   D(3,4,6,8)             -1.9109         calculate D2E/DX2 analytically  !
 ! D23   D(19,4,6,7)            -1.3366         calculate D2E/DX2 analytically  !
 ! D24   D(19,4,6,8)           178.8047         calculate D2E/DX2 analytically  !
 ! D25   D(3,4,19,20)         -173.848          calculate D2E/DX2 analytically  !
 ! D26   D(3,4,19,21)            8.169          calculate D2E/DX2 analytically  !
 ! D27   D(6,4,19,20)            5.4664         calculate D2E/DX2 analytically  !
 ! D28   D(6,4,19,21)         -172.5167         calculate D2E/DX2 analytically  !
 ! D29   D(1,5,12,13)         -179.4269         calculate D2E/DX2 analytically  !
 ! D30   D(1,5,12,16)            3.0138         calculate D2E/DX2 analytically  !
 ! D31   D(18,5,12,13)           0.5715         calculate D2E/DX2 analytically  !
 ! D32   D(18,5,12,16)        -176.9879         calculate D2E/DX2 analytically  !
 ! D33   D(4,6,8,1)              0.5681         calculate D2E/DX2 analytically  !
 ! D34   D(4,6,8,10)          -179.3254         calculate D2E/DX2 analytically  !
 ! D35   D(7,6,8,1)           -179.2905         calculate D2E/DX2 analytically  !
 ! D36   D(7,6,8,10)             0.8159         calculate D2E/DX2 analytically  !
 ! D37   D(5,12,13,14)        -117.8049         calculate D2E/DX2 analytically  !
 ! D38   D(5,12,13,15)           2.2146         calculate D2E/DX2 analytically  !
 ! D39   D(5,12,13,17)         122.2665         calculate D2E/DX2 analytically  !
 ! D40   D(16,12,13,14)         59.9939         calculate D2E/DX2 analytically  !
 ! D41   D(16,12,13,15)       -179.9866         calculate D2E/DX2 analytically  !
 ! D42   D(16,12,13,17)        -59.9347         calculate D2E/DX2 analytically  !
 --------------------------------------------------------------------------------
 Trust Radius=3.00D-01 FncErr=1.00D-07 GrdErr=1.00D-06
 Number of steps in this run=    106 maximum allowed number of steps=    126.
 GradGradGradGradGradGradGradGradGradGradGradGradGradGradGradGradGradGrad

 Leave Link  103 at Fri Aug 27 07:19:33 2021, MaxMem= 24159191040 cpu:         0.5
 (Enter /public/home/users/caep010/software/Gaussian09/g09/l202.exe)
                          Input orientation:                          
 ---------------------------------------------------------------------
 Center     Atomic      Atomic             Coordinates (Angstroms)
 Number     Number       Type             X           Y           Z
 ---------------------------------------------------------------------
      1          6           0        2.033400    0.326400    3.152500
      2          6           0        2.708400    1.559500    3.229400
      3          6           0        4.094900    1.591400    3.237000
      4          6           0        4.787600    0.396700    3.161300
      5          6           0        0.598700    0.151700    3.161300
      6          6           0        4.158300   -0.822100    3.049100
      7          1           0        4.691300   -1.665000    2.965900
      8          6           0        2.789400   -0.860500    3.050400
      9          1           0        2.188300    2.412300    3.277300
     10          1           0        2.319800   -1.740800    2.979700
     11          1           0        4.584500    2.461800    3.296300
     12          7           0       -0.306400    1.084700    3.213000
     13          6           0       -1.743400    0.736300    3.226900
     14          1           0       -2.186000    1.116600    2.413600
     15          1           0       -1.845500   -0.258300    3.228200
     16          8           0       -0.059900    2.359600    3.210500
     17          1           0       -2.170700    1.116600    4.046500
     18          1           0        0.265300   -0.790200    3.123500
     19          7           0        6.259800    0.433000    3.186500
     20          8           0        6.877300   -0.617600    3.003700
     21          8           0        6.810400    1.502300    3.426100
 ---------------------------------------------------------------------
                    Distance matrix (angstroms):
                    1          2          3          4          5
     1  C    0.000000
     2  C    1.407862   0.000000
     3  C    2.420154   1.386888   0.000000
     4  C    2.755111   2.383236   1.383066   0.000000
     5  C    1.445324   2.537198   3.781783   4.196059   0.000000
     6  C    2.417632   2.794054   2.421633   1.376256   3.692103
     7  H    3.326398   3.794565   3.321646   2.073177   4.481959
     8  C    1.410919   2.427963   2.784055   2.363399   2.415784
     9  H    2.095363   1.000033   2.076204   3.291270   2.765971
    10  H    2.094087   3.332468   3.784275   3.269850   2.564512
    11  H    3.329973   2.082876   1.000410   2.079450   4.608838
    12  N    2.460354   3.052003   4.430436   5.140511   1.300910
    13  C    3.799707   4.527272   5.900597   6.540152   2.414848
    14  H    4.355884   4.981650   6.352411   7.050419   3.040500
    15  H    3.923451   4.903305   6.221722   6.665697   2.479252
    16  O    2.918762   2.881667   4.225304   5.230072   2.304560
    17  H    4.370138   4.966833   6.335493   7.051225   3.063362
    18  H    2.091367   3.391319   4.511179   4.675613   0.999880
    19  N    4.227881   3.726028   2.455857   1.472863   5.668141
    20  O    4.937271   4.708549   3.560317   2.328194   6.327518
    21  O    4.927203   4.107112   2.723534   2.320386   6.362347
                    6          7          8          9         10
     6  C    0.000000
     7  H    1.000746   0.000000
     8  C    1.369439   2.066781   0.000000
     9  H    3.793985   4.794409   3.335270   0.000000
    10  H    2.056431   2.372751   1.000225   4.165825   0.000000
    11  H    3.320656   4.141382   3.784247   2.396787   4.784449
    12  N    4.857602   5.709546   3.659811   2.826691   3.864558
    13  C    6.106577   6.873116   4.809075   4.274316   4.765158
    14  H    6.664275   7.439058   5.391572   4.643201   5.365393
    15  H    6.032873   6.691589   4.677238   4.837981   4.428237
    16  O    5.286064   6.231463   4.302695   2.249809   4.746527
    17  H    6.693998   7.482783   5.431734   4.612092   5.428387
    18  H    3.893842   4.514376   2.526137   3.738661   2.268323
    19  N    2.451623   2.628775   3.706122   4.528022   4.504639
    20  O    2.727057   2.424267   4.095376   5.589443   4.693928
    21  O    3.546632   3.838510   4.678933   4.713178   5.557199
                   11         12         13         14         15
    11  H    0.000000
    12  N    5.081756   0.000000
    13  C    6.559305   1.478697   0.000000
    14  H    6.959051   2.042781   1.000989   0.000000
    15  H    6.982011   2.042721   0.999828   1.633972   0.000000
    16  O    4.646317   1.298514   2.338706   2.588513   3.168924
    17  H    6.928571   2.042389   0.999479   1.632972   1.632703
    18  H    5.409330   1.962167   2.525029   3.185705   2.179302
    19  N    2.633385   6.598515   8.009047   8.508597   8.134834
    20  O    3.850357   7.385606   8.729223   9.246571   8.733083
    21  O    2.427369   7.132226   8.590339   9.061409   8.835354
                   16         17         18         19         20
    16  O    0.000000
    17  H    2.588324   0.000000
    18  H    3.167738   3.228299   0.000000
    19  N    6.606888   8.501779   6.118351   0.000000
    20  O    7.551902   9.271526   6.615337   1.232267   0.000000
    21  O    6.926938   9.010761   6.941575   1.226365   2.162608
                   21
    21  O    0.000000
 Stoichiometry    C8H8N2O3
 Framework group  C1[X(C8H8N2O3)]
 Deg. of freedom    57
 Full point group                 C1      NOp   1
 Largest Abelian subgroup         C1      NOp   1
 Largest concise Abelian subgroup C1      NOp   1
                         Standard orientation:                         
 ---------------------------------------------------------------------
 Center     Atomic      Atomic             Coordinates (Angstroms)
 Number     Number       Type             X           Y           Z
 ---------------------------------------------------------------------
      1          6           0        0.859555    0.377452    0.003147
      2          6           0        0.312862   -0.919488   -0.030745
      3          6           0       -1.063286   -1.091723   -0.033686
      4          6           0       -1.873402    0.028993   -0.009568
      5          6           0        2.269279    0.694662    0.035055
      6          6           0       -1.370843    1.310206   -0.012336
      7          1           0       -1.986552    2.099020   -0.025247
      8          6           0       -0.012833    1.486335   -0.000065
      9          1           0        0.916625   -1.716356   -0.053930
     10          1           0        0.365182    2.412340    0.008320
     11          1           0       -1.462235   -2.008946   -0.052682
     12          7           0        3.264185   -0.143160    0.010867
     13          6           0        4.658662    0.345996    0.062903
     14          1           0        5.134823    0.084247   -0.777774
     15          1           0        4.659739    1.341947    0.150854
     16          8           0        3.147767   -1.431391   -0.103349
     17          1           0        5.124821   -0.058828    0.848887
     18          1           0        2.505672    1.665119    0.080786
     19          7           0       -3.334310   -0.157780    0.004165
     20          8           0       -4.055392    0.836991   -0.090466
     21          8           0       -3.773272   -1.293920    0.147232
 ---------------------------------------------------------------------
 Rotational constants (GHZ):      2.8742785      0.3475951      0.3108995
 Leave Link  202 at Fri Aug 27 07:19:33 2021, MaxMem= 24159191040 cpu:         0.5
 (Enter /public/home/users/caep010/software/Gaussian09/g09/l301.exe)
 Standard basis: GTBas3 (6D, 7F)
 Ernie: Thresh=  0.10000D-02 Tol=  0.10000D-05 Strict=F.
 There are   443 symmetry adapted cartesian basis functions of A   symmetry.
 There are   404 symmetry adapted basis functions of A   symmetry.
   404 basis functions,   628 primitive gaussians,   443 cartesian basis functions
    47 alpha electrons       47 beta electrons
       nuclear repulsion energy       745.9874431978 Hartrees.
 IExCor=  402 DFT=T Ex+Corr=B3LYP ExCW=0 ScaHFX=  0.200000
 ScaDFX=  0.800000  0.720000  1.000000  0.810000 ScalE2=  1.000000  1.000000
 IRadAn=      0 IRanWt=     -1 IRanGd=            0 ICorTp=0 IEmpDi=  4
 NAtoms=   21 NActive=   21 NUniq=   21 SFac= 1.00D+00 NAtFMM=   60 NAOKFM=F Big=F
 Integral buffers will be    131072 words long.
 Raffenetti 2 integral format.
 Two-electron integral symmetry is turned on.
 Leave Link  301 at Fri Aug 27 07:19:33 2021, MaxMem= 24159191040 cpu:         1.9
 (Enter /public/home/users/caep010/software/Gaussian09/g09/l302.exe)
 NPDir=0 NMtPBC=     1 NCelOv=     1 NCel=       1 NClECP=     1 NCelD=      1
         NCelK=      1 NCelE2=     1 NClLst=     1 CellRange=     0.0.
 One-electron integrals computed using PRISM.
 NBasis=   404 RedAO= T EigKep=  1.03D-04  NBF=   404
 NBsUse=   404 1.00D-06 EigRej= -1.00D+00 NBFU=   404
 Precomputing XC quadrature grid using
 IXCGrd= 4 IRadAn=           0 IRanWt=          -1 IRanGd=           0 AccXCQ= 0.00D+00.
 Generated NRdTot=       0 NPtTot=           0 NUsed=           0 NTot=          32
 NSgBfM=   441   441   441   441   441 MxSgAt=    21 MxSgA2=    21.
 Leave Link  302 at Fri Aug 27 07:19:33 2021, MaxMem= 24159191040 cpu:        19.3
 (Enter /public/home/users/caep010/software/Gaussian09/g09/l303.exe)
 DipDrv:  MaxL=1.
 Leave Link  303 at Fri Aug 27 07:19:34 2021, MaxMem= 24159191040 cpu:         1.1
 (Enter /public/home/users/caep010/software/Gaussian09/g09/l401.exe)
 ExpMin= 1.61D-01 ExpMax= 5.48D+03 ExpMxC= 8.25D+02 IAcc=1 IRadAn=         1 AccDes= 0.00D+00
 Harris functional with IExCor=  402 and IRadAn=       1 diagonalized for initial guess.
 HarFok:  IExCor=  402 AccDes= 0.00D+00 IRadAn=         1 IDoV= 1 UseB2=F ITyADJ=14
 ICtDFT=  3500011 ScaDFX=  1.000000  1.000000  1.000000  1.000000
 FoFCou: FMM=F IPFlag=           0 FMFlag=      100000 FMFlg1=           0
         NFxFlg=           0 DoJE=T BraDBF=F KetDBF=T FulRan=T
         wScrn=  0.000000 ICntrl=     500 IOpCl=  0 I1Cent=   200000004 NGrid=           0
         NMat0=    1 NMatS0=      1 NMatT0=    0 NMatD0=    1 NMtDS0=    0 NMtDT0=    0
 Petite list used in FoFCou.
 Harris En= -644.772405533898    
 JPrj=0 DoOrth=F DoCkMO=F.
 Leave Link  401 at Fri Aug 27 07:19:34 2021, MaxMem= 24159191040 cpu:        21.3
 (Enter /public/home/users/caep010/software/Gaussian09/g09/l502.exe)
 Closed shell SCF:
 Using DIIS extrapolation, IDIIS=  1040.
 Integral symmetry usage will be decided dynamically.
 Keep R1 ints in memory in canonical form, NReq=3390867604.
 IVT=      624679 IEndB=      624679 NGot= 24159191040 MDV= 20812087407
 LenX= 20812087407 LenY= 20811890715
 Requested convergence on RMS density matrix=1.00D-08 within 128 cycles.
 Requested convergence on MAX density matrix=1.00D-06.
 Requested convergence on             energy=1.00D-06.
 No special actions if energy rises.
 FoFCou: FMM=F IPFlag=           0 FMFlag=           0 FMFlg1=           0
         NFxFlg=           0 DoJE=F BraDBF=F KetDBF=F FulRan=T
         wScrn=  0.000000 ICntrl=     600 IOpCl=  0 I1Cent=           0 NGrid=           0
         NMat0=    1 NMatS0=  81810 NMatT0=    0 NMatD0=    1 NMtDS0=    0 NMtDT0=    0
 Symmetry not used in FoFCou.
 Integral accuracy reduced to 1.0D-05 until final iterations.

 Cycle   1  Pass 0  IDiag  1:
 E= -644.258754173801    
 DIIS: error= 3.68D-02 at cycle   1 NSaved=   1.
 NSaved= 1 IEnMin= 1 EnMin= -644.258754173801     IErMin= 1 ErrMin= 3.68D-02
 ErrMax= 3.68D-02  0.00D+00 EMaxC= 1.00D-01 BMatC= 5.18D-01 BMatP= 5.18D-01
 IDIUse=3 WtCom= 6.32D-01 WtEn= 3.68D-01
 Coeff-Com:  0.100D+01
 Coeff-En:   0.100D+01
 Coeff:      0.100D+01
 Gap=     0.098 Goal=   None    Shift=    0.000
 GapD=    0.098 DampG=0.500 DampE=0.500 DampFc=0.2500 IDamp=-1.
 Damping current iteration by 2.50D-01
 RMSDP=3.46D-03 MaxDP=2.52D-01              OVMax= 3.48D-01

 Cycle   2  Pass 0  IDiag  1:
 E= -644.410259731071     Delta-E=       -0.151505557269 Rises=F Damp=T
 DIIS: error= 1.27D-02 at cycle   2 NSaved=   2.
 NSaved= 2 IEnMin= 2 EnMin= -644.410259731071     IErMin= 2 ErrMin= 1.27D-02
 ErrMax= 1.27D-02  0.00D+00 EMaxC= 1.00D-01 BMatC= 9.38D-02 BMatP= 5.18D-01
 IDIUse=3 WtCom= 8.73D-01 WtEn= 1.27D-01
 Coeff-Com: -0.490D+00 0.149D+01
 Coeff-En:   0.000D+00 0.100D+01
 Coeff:     -0.428D+00 0.143D+01
 Gap=     0.154 Goal=   None    Shift=    0.000
 RMSDP=1.20D-03 MaxDP=6.70D-02 DE=-1.52D-01 OVMax= 1.88D-01

 Cycle   3  Pass 0  IDiag  1:
 E= -644.643526341836     Delta-E=       -0.233266610765 Rises=F Damp=F
 DIIS: error= 7.77D-03 at cycle   3 NSaved=   3.
 NSaved= 3 IEnMin= 3 EnMin= -644.643526341836     IErMin= 3 ErrMin= 7.77D-03
 ErrMax= 7.77D-03  0.00D+00 EMaxC= 1.00D-01 BMatC= 3.81D-02 BMatP= 9.38D-02
 IDIUse=3 WtCom= 9.22D-01 WtEn= 7.77D-02
 Coeff-Com: -0.278D+00 0.755D+00 0.523D+00
 Coeff-En:   0.000D+00 0.000D+00 0.100D+01
 Coeff:     -0.257D+00 0.697D+00 0.560D+00
 Gap=     0.126 Goal=   None    Shift=    0.000
 RMSDP=8.27D-04 MaxDP=7.61D-02 DE=-2.33D-01 OVMax= 1.91D-01

 Cycle   4  Pass 0  IDiag  1:
 E= -644.655967176829     Delta-E=       -0.012440834993 Rises=F Damp=F
 DIIS: error= 7.76D-03 at cycle   4 NSaved=   4.
 NSaved= 4 IEnMin= 4 EnMin= -644.655967176829     IErMin= 4 ErrMin= 7.76D-03
 ErrMax= 7.76D-03  0.00D+00 EMaxC= 1.00D-01 BMatC= 2.61D-02 BMatP= 3.81D-02
 IDIUse=3 WtCom= 9.22D-01 WtEn= 7.76D-02
 Coeff-Com: -0.115D+00 0.318D+00 0.422D+00 0.375D+00
 Coeff-En:   0.000D+00 0.000D+00 0.419D+00 0.581D+00
 Coeff:     -0.106D+00 0.294D+00 0.422D+00 0.391D+00
 Gap=     0.136 Goal=   None    Shift=    0.000
 RMSDP=5.10D-04 MaxDP=5.43D-02 DE=-1.24D-02 OVMax= 1.23D-01

 Cycle   5  Pass 0  IDiag  1:
 E= -644.678363033732     Delta-E=       -0.022395856903 Rises=F Damp=F
 DIIS: error= 2.35D-03 at cycle   5 NSaved=   5.
 NSaved= 5 IEnMin= 5 EnMin= -644.678363033732     IErMin= 5 ErrMin= 2.35D-03
 ErrMax= 2.35D-03  0.00D+00 EMaxC= 1.00D-01 BMatC= 2.53D-03 BMatP= 2.61D-02
 IDIUse=3 WtCom= 9.77D-01 WtEn= 2.35D-02
 Coeff-Com: -0.116D-01 0.450D-01 0.173D+00 0.272D+00 0.521D+00
 Coeff-En:   0.000D+00 0.000D+00 0.000D+00 0.985D-01 0.902D+00
 Coeff:     -0.113D-01 0.439D-01 0.169D+00 0.268D+00 0.530D+00
 Gap=     0.133 Goal=   None    Shift=    0.000
 RMSDP=1.46D-04 MaxDP=1.23D-02 DE=-2.24D-02 OVMax= 2.62D-02

 Cycle   6  Pass 0  IDiag  1:
 E= -644.680410792690     Delta-E=       -0.002047758957 Rises=F Damp=F
 DIIS: error= 8.26D-04 at cycle   6 NSaved=   6.
 NSaved= 6 IEnMin= 6 EnMin= -644.680410792690     IErMin= 6 ErrMin= 8.26D-04
 ErrMax= 8.26D-04  0.00D+00 EMaxC= 1.00D-01 BMatC= 2.74D-04 BMatP= 2.53D-03
 IDIUse=3 WtCom= 9.92D-01 WtEn= 8.26D-03
 Coeff-Com:  0.186D-02 0.101D-02 0.655D-01 0.130D+00 0.334D+00 0.468D+00
 Coeff-En:   0.000D+00 0.000D+00 0.000D+00 0.000D+00 0.775D-01 0.922D+00
 Coeff:      0.185D-02 0.999D-03 0.649D-01 0.129D+00 0.332D+00 0.471D+00
 Gap=     0.133 Goal=   None    Shift=    0.000
 RMSDP=4.67D-05 MaxDP=2.51D-03 DE=-2.05D-03 OVMax= 6.76D-03

 Cycle   7  Pass 0  IDiag  1:
 E= -644.680657540255     Delta-E=       -0.000246747566 Rises=F Damp=F
 DIIS: error= 2.21D-04 at cycle   7 NSaved=   7.
 NSaved= 7 IEnMin= 7 EnMin= -644.680657540255     IErMin= 7 ErrMin= 2.21D-04
 ErrMax= 2.21D-04  0.00D+00 EMaxC= 1.00D-01 BMatC= 2.64D-05 BMatP= 2.74D-04
 IDIUse=3 WtCom= 9.98D-01 WtEn= 2.21D-03
 Coeff-Com:  0.124D-02-0.243D-02 0.166D-01 0.415D-01 0.127D+00 0.286D+00
 Coeff-Com:  0.530D+00
 Coeff-En:   0.000D+00 0.000D+00 0.000D+00 0.000D+00 0.000D+00 0.749D-01
 Coeff-En:   0.925D+00
 Coeff:      0.124D-02-0.243D-02 0.166D-01 0.414D-01 0.126D+00 0.286D+00
 Coeff:      0.531D+00
 Gap=     0.133 Goal=   None    Shift=    0.000
 RMSDP=1.60D-05 MaxDP=1.08D-03 DE=-2.47D-04 OVMax= 2.26D-03

 Cycle   8  Pass 0  IDiag  1:
 E= -644.680680132178     Delta-E=       -0.000022591923 Rises=F Damp=F
 DIIS: error= 1.32D-04 at cycle   8 NSaved=   8.
 NSaved= 8 IEnMin= 8 EnMin= -644.680680132178     IErMin= 8 ErrMin= 1.32D-04
 ErrMax= 1.32D-04  0.00D+00 EMaxC= 1.00D-01 BMatC= 5.70D-06 BMatP= 2.64D-05
 IDIUse=3 WtCom= 9.99D-01 WtEn= 1.32D-03
 Coeff-Com:  0.616D-03-0.183D-02 0.472D-02 0.161D-01 0.553D-01 0.154D+00
 Coeff-Com:  0.371D+00 0.400D+00
 Coeff-En:   0.000D+00 0.000D+00 0.000D+00 0.000D+00 0.000D+00 0.000D+00
 Coeff-En:   0.107D+00 0.893D+00
 Coeff:      0.615D-03-0.183D-02 0.472D-02 0.161D-01 0.552D-01 0.154D+00
 Coeff:      0.370D+00 0.401D+00
 Gap=     0.133 Goal=   None    Shift=    0.000
 RMSDP=7.21D-06 MaxDP=7.02D-04 DE=-2.26D-05 OVMax= 1.42D-03

 Initial convergence to 1.0D-05 achieved.  Increase integral accuracy.
 Cycle   9  Pass 1  IDiag  1:
 E= -644.680648574044     Delta-E=        0.000031558134 Rises=F Damp=F
 DIIS: error= 5.82D-05 at cycle   1 NSaved=   1.
 NSaved= 1 IEnMin= 1 EnMin= -644.680648574044     IErMin= 1 ErrMin= 5.82D-05
 ErrMax= 5.82D-05  0.00D+00 EMaxC= 1.00D-01 BMatC= 1.32D-06 BMatP= 1.32D-06
 IDIUse=1 WtCom= 1.00D+00 WtEn= 0.00D+00
 Coeff-Com:  0.100D+01
 Coeff:      0.100D+01
 Gap=     0.133 Goal=   None    Shift=    0.000
 RMSDP=7.21D-06 MaxDP=7.02D-04 DE= 3.16D-05 OVMax= 1.73D-03

 Cycle  10  Pass 1  IDiag  1:
 E= -644.680641758248     Delta-E=        0.000006815796 Rises=F Damp=F
 DIIS: error= 1.86D-04 at cycle   2 NSaved=   2.
 NSaved= 2 IEnMin= 1 EnMin= -644.680648574044     IErMin= 1 ErrMin= 5.82D-05
 ErrMax= 1.86D-04  0.00D+00 EMaxC= 1.00D-01 BMatC= 9.79D-06 BMatP= 1.32D-06
 IDIUse=3 WtCom= 4.23D-01 WtEn= 5.77D-01
 Coeff-Com:  0.741D+00 0.259D+00
 Coeff-En:   0.822D+00 0.178D+00
 Coeff:      0.788D+00 0.212D+00
 Gap=     0.133 Goal=   None    Shift=    0.000
 RMSDP=5.90D-06 MaxDP=5.68D-04 DE= 6.82D-06 OVMax= 1.20D-03

 Cycle  11  Pass 1  IDiag  1:
 E= -644.680649473298     Delta-E=       -0.000007715050 Rises=F Damp=F
 DIIS: error= 2.26D-05 at cycle   3 NSaved=   3.
 NSaved= 3 IEnMin= 3 EnMin= -644.680649473298     IErMin= 3 ErrMin= 2.26D-05
 ErrMax= 2.26D-05  0.00D+00 EMaxC= 1.00D-01 BMatC= 2.20D-07 BMatP= 1.32D-06
 IDIUse=1 WtCom= 1.00D+00 WtEn= 0.00D+00
 Coeff-Com:  0.233D+00-0.295D-01 0.796D+00
 Coeff:      0.233D+00-0.295D-01 0.796D+00
 Gap=     0.133 Goal=   None    Shift=    0.000
 RMSDP=1.55D-06 MaxDP=8.86D-05 DE=-7.72D-06 OVMax= 2.41D-04

 Cycle  12  Pass 1  IDiag  1:
 E= -644.680649620062     Delta-E=       -0.000000146764 Rises=F Damp=F
 DIIS: error= 1.13D-05 at cycle   4 NSaved=   4.
 NSaved= 4 IEnMin= 4 EnMin= -644.680649620062     IErMin= 4 ErrMin= 1.13D-05
 ErrMax= 1.13D-05  0.00D+00 EMaxC= 1.00D-01 BMatC= 4.95D-08 BMatP= 2.20D-07
 IDIUse=1 WtCom= 1.00D+00 WtEn= 0.00D+00
 Coeff-Com:  0.141D-01-0.759D-01 0.581D+00 0.480D+00
 Coeff:      0.141D-01-0.759D-01 0.581D+00 0.480D+00
 Gap=     0.133 Goal=   None    Shift=    0.000
 RMSDP=6.09D-07 MaxDP=4.32D-05 DE=-1.47D-07 OVMax= 8.98D-05

 Cycle  13  Pass 1  IDiag  1:
 E= -644.680649673332     Delta-E=       -0.000000053270 Rises=F Damp=F
 DIIS: error= 2.08D-06 at cycle   5 NSaved=   5.
 NSaved= 5 IEnMin= 5 EnMin= -644.680649673332     IErMin= 5 ErrMin= 2.08D-06
 ErrMax= 2.08D-06  0.00D+00 EMaxC= 1.00D-01 BMatC= 3.19D-09 BMatP= 4.95D-08
 IDIUse=1 WtCom= 1.00D+00 WtEn= 0.00D+00
 Coeff-Com: -0.104D-01-0.459D-01 0.304D+00 0.295D+00 0.458D+00
 Coeff:     -0.104D-01-0.459D-01 0.304D+00 0.295D+00 0.458D+00
 Gap=     0.133 Goal=   None    Shift=    0.000
 RMSDP=1.54D-07 MaxDP=8.34D-06 DE=-5.33D-08 OVMax= 1.71D-05

 Cycle  14  Pass 1  IDiag  1:
 E= -644.680649675782     Delta-E=       -0.000000002451 Rises=F Damp=F
 DIIS: error= 6.22D-07 at cycle   6 NSaved=   6.
 NSaved= 6 IEnMin= 6 EnMin= -644.680649675782     IErMin= 6 ErrMin= 6.22D-07
 ErrMax= 6.22D-07  0.00D+00 EMaxC= 1.00D-01 BMatC= 2.15D-10 BMatP= 3.19D-09
 IDIUse=1 WtCom= 1.00D+00 WtEn= 0.00D+00
 Coeff-Com: -0.679D-02-0.241D-01 0.155D+00 0.156D+00 0.280D+00 0.440D+00
 Coeff:     -0.679D-02-0.241D-01 0.155D+00 0.156D+00 0.280D+00 0.440D+00
 Gap=     0.133 Goal=   None    Shift=    0.000
 RMSDP=4.80D-08 MaxDP=4.81D-06 DE=-2.45D-09 OVMax= 1.10D-05

 Cycle  15  Pass 1  IDiag  1:
 E= -644.680649675961     Delta-E=       -0.000000000179 Rises=F Damp=F
 DIIS: error= 3.42D-07 at cycle   7 NSaved=   7.
 NSaved= 7 IEnMin= 7 EnMin= -644.680649675961     IErMin= 7 ErrMin= 3.42D-07
 ErrMax= 3.42D-07  0.00D+00 EMaxC= 1.00D-01 BMatC= 4.67D-11 BMatP= 2.15D-10
 IDIUse=1 WtCom= 1.00D+00 WtEn= 0.00D+00
 Coeff-Com: -0.321D-02-0.941D-02 0.587D-01 0.616D-01 0.121D+00 0.326D+00
 Coeff-Com:  0.444D+00
 Coeff:     -0.321D-02-0.941D-02 0.587D-01 0.616D-01 0.121D+00 0.326D+00
 Coeff:      0.444D+00
 Gap=     0.133 Goal=   None    Shift=    0.000
 RMSDP=2.09D-08 MaxDP=2.00D-06 DE=-1.79D-10 OVMax= 4.51D-06

 Cycle  16  Pass 1  IDiag  1:
 E= -644.680649675978     Delta-E=       -0.000000000017 Rises=F Damp=F
 DIIS: error= 1.13D-07 at cycle   8 NSaved=   8.
 NSaved= 8 IEnMin= 8 EnMin= -644.680649675978     IErMin= 8 ErrMin= 1.13D-07
 ErrMax= 1.13D-07  0.00D+00 EMaxC= 1.00D-01 BMatC= 6.29D-12 BMatP= 4.67D-11
 IDIUse=1 WtCom= 1.00D+00 WtEn= 0.00D+00
 Coeff-Com: -0.990D-03-0.227D-02 0.134D-01 0.154D-01 0.332D-01 0.157D+00
 Coeff-Com:  0.301D+00 0.484D+00
 Coeff:     -0.990D-03-0.227D-02 0.134D-01 0.154D-01 0.332D-01 0.157D+00
 Coeff:      0.301D+00 0.484D+00
 Gap=     0.133 Goal=   None    Shift=    0.000
 RMSDP=6.33D-09 MaxDP=6.24D-07 DE=-1.71D-11 OVMax= 1.24D-06

 SCF Done:  E(RB3LYP) =  -644.680649676     A.U. after   16 cycles
            NFock= 16  Conv=0.63D-08     -V/T= 2.0052
 KE= 6.413459121227D+02 PE=-2.997821134330D+03 EE= 9.658071293340D+02
 Leave Link  502 at Fri Aug 27 07:21:19 2021, MaxMem= 24159191040 cpu:       496.0
 (Enter /public/home/users/caep010/software/Gaussian09/g09/l801.exe)
 DoSCS=F DFT=T ScalE2(SS,OS)=  1.000000  1.000000
 Range of M.O.s used for correlation:     1   404
 NBasis=   404 NAE=    47 NBE=    47 NFC=     0 NFV=     0
 NROrb=    404 NOA=    47 NOB=    47 NVA=   357 NVB=   357

 **** Warning!!: The largest alpha MO coefficient is  0.45249721D+02

 Leave Link  801 at Fri Aug 27 07:21:19 2021, MaxMem= 24159191040 cpu:         0.6
 (Enter /public/home/users/caep010/software/Gaussian09/g09/l1101.exe)
 Using compressed storage, NAtomX=    21.
 Will process     22 centers per pass.
 Leave Link 1101 at Fri Aug 27 07:21:20 2021, MaxMem= 24159191040 cpu:        22.5
 (Enter /public/home/users/caep010/software/Gaussian09/g09/l1102.exe)
 Symmetrizing basis deriv contribution to polar:
 IMax=3 JMax=2 DiffMx= 0.00D+00
 Leave Link 1102 at Fri Aug 27 07:21:21 2021, MaxMem= 24159191040 cpu:         2.9
 (Enter /public/home/users/caep010/software/Gaussian09/g09/l1110.exe)
 Forming Gx(P) for the SCF density, NAtomX=    21.
 Integral derivatives from FoFJK, PRISM(SPDF).
 Do as many integral derivatives as possible in FoFJK.
 G2DrvN: MDV=   24159190768.
 G2DrvN: will do    22 centers at a time, making    1 passes.
 Calling FoFCou, ICntrl=  3107 FMM=F I1Cent=   0 AccDes= 0.00D+00.
 FoFJK:  IHMeth= 1 ICntrl=    3107 DoSepK=F KAlg= 0 I1Cent=   0 FoldK=F
 IRaf=         0 NMat=   1 IRICut=       1 DoRegI=T DoRafI=F ISym2E= 0.
 FoFCou: FMM=F IPFlag=           0 FMFlag=      100000 FMFlg1=           0
         NFxFlg=           0 DoJE=F BraDBF=F KetDBF=F FulRan=T
         wScrn=  0.000000 ICntrl=    3107 IOpCl=  0 I1Cent=           0 NGrid=           0
         NMat0=    1 NMatS0=      1 NMatT0=    0 NMatD0=    1 NMtDS0=    0 NMtDT0=    0
 Symmetry not used in FoFCou.
 End of G2Drv F.D. properties file   721 does not exist.
 End of G2Drv F.D. properties file   722 does not exist.
 End of G2Drv F.D. properties file   788 does not exist.
 Leave Link 1110 at Fri Aug 27 07:21:47 2021, MaxMem= 24159191040 cpu:       846.0
 (Enter /public/home/users/caep010/software/Gaussian09/g09/l1002.exe)
 Minotr:  Closed shell wavefunction.
          IDoAtm=111111111111111111111
          Direct CPHF calculation.
          Differentiating once with respect to nuclear coordinates.
          Requested convergence is 1.0D-08 RMS, and 1.0D-07 maximum.
          Secondary convergence is 1.0D-12 RMS, and 1.0D-12 maximum.
          NewPWx=T KeepS1=F KeepF1=F KeepIn=T MapXYZ=F SortEE=F KeepMc=T.
          MDV=   24159190422 using IRadAn=       2.
 Generate precomputed XC quadrature information.
 Keep R1 ints in memory in canonical form, NReq=3390250586.
 FoFCou: FMM=F IPFlag=           0 FMFlag=           0 FMFlg1=           0
         NFxFlg=           0 DoJE=F BraDBF=F KetDBF=F FulRan=T
         wScrn=  0.000000 ICntrl=     600 IOpCl=  0 I1Cent=           0 NGrid=           0
         NMat0=    1 NMatS0=  81810 NMatT0=    0 NMatD0=    1 NMtDS0=    0 NMtDT0=    0
 Symmetry not used in FoFCou.
          Solving linear equations simultaneously, MaxMat=       0.
          There are    66 degrees of freedom in the 1st order CPHF.  IDoFFX=6 NUNeed=     0.
     60 vectors produced by pass  0 Test12= 2.54D-14 1.52D-09 XBig12= 2.25D-01 1.51D-01.
 AX will form    60 AO Fock derivatives at one time.
     60 vectors produced by pass  1 Test12= 2.54D-14 1.52D-09 XBig12= 5.77D-02 8.07D-02.
     60 vectors produced by pass  2 Test12= 2.54D-14 1.52D-09 XBig12= 7.91D-04 4.50D-03.
     60 vectors produced by pass  3 Test12= 2.54D-14 1.52D-09 XBig12= 5.33D-06 3.24D-04.
     60 vectors produced by pass  4 Test12= 2.54D-14 1.52D-09 XBig12= 1.91D-08 1.69D-05.
     57 vectors produced by pass  5 Test12= 2.54D-14 1.52D-09 XBig12= 2.77D-11 7.45D-07.
     26 vectors produced by pass  6 Test12= 2.54D-14 1.52D-09 XBig12= 3.90D-14 3.24D-08.
      1 vectors produced by pass  7 Test12= 2.54D-14 1.52D-09 XBig12= 2.00D-16 1.82D-09.
 InvSVY:  IOpt=1 It=  1 EMax= 5.00D-16
 Solved reduced A of dimension   384 with    66 vectors.
 End of Minotr F.D. properties file   721 does not exist.
 End of Minotr F.D. properties file   722 does not exist.
 End of Minotr F.D. properties file   788 does not exist.
 Leave Link 1002 at Fri Aug 27 07:22:45 2021, MaxMem= 24159191040 cpu:      1661.2
 (Enter /public/home/users/caep010/software/Gaussian09/g09/l601.exe)
 Copying SCF densities to generalized density rwf, IOpCl= 0 IROHF=0.

 **********************************************************************

            Population analysis using the SCF density.

 **********************************************************************

 Orbital symmetries:
       Occupied  (A) (A) (A) (A) (A) (A) (A) (A) (A) (A) (A) (A)
                 (A) (A) (A) (A) (A) (A) (A) (A) (A) (A) (A) (A)
                 (A) (A) (A) (A) (A) (A) (A) (A) (A) (A) (A) (A)
                 (A) (A) (A) (A) (A) (A) (A) (A) (A) (A) (A)
       Virtual   (A) (A) (A) (A) (A) (A) (A) (A) (A) (A) (A) (A)
                 (A) (A) (A) (A) (A) (A) (A) (A) (A) (A) (A) (A)
                 (A) (A) (A) (A) (A) (A) (A) (A) (A) (A) (A) (A)
                 (A) (A) (A) (A) (A) (A) (A) (A) (A) (A) (A) (A)
                 (A) (A) (A) (A) (A) (A) (A) (A) (A) (A) (A) (A)
                 (A) (A) (A) (A) (A) (A) (A) (A) (A) (A) (A) (A)
                 (A) (A) (A) (A) (A) (A) (A) (A) (A) (A) (A) (A)
                 (A) (A) (A) (A) (A) (A) (A) (A) (A) (A) (A) (A)
                 (A) (A) (A) (A) (A) (A) (A) (A) (A) (A) (A) (A)
                 (A) (A) (A) (A) (A) (A) (A) (A) (A) (A) (A) (A)
                 (A) (A) (A) (A) (A) (A) (A) (A) (A) (A) (A) (A)
                 (A) (A) (A) (A) (A) (A) (A) (A) (A) (A) (A) (A)
                 (A) (A) (A) (A) (A) (A) (A) (A) (A) (A) (A) (A)
                 (A) (A) (A) (A) (A) (A) (A) (A) (A) (A) (A) (A)
                 (A) (A) (A) (A) (A) (A) (A) (A) (A) (A) (A) (A)
                 (A) (A) (A) (A) (A) (A) (A) (A) (A) (A) (A) (A)
                 (A) (A) (A) (A) (A) (A) (A) (A) (A) (A) (A) (A)
                 (A) (A) (A) (A) (A) (A) (A) (A) (A) (A) (A) (A)
                 (A) (A) (A) (A) (A) (A) (A) (A) (A) (A) (A) (A)
                 (A) (A) (A) (A) (A) (A) (A) (A) (A) (A) (A) (A)
                 (A) (A) (A) (A) (A) (A) (A) (A) (A) (A) (A) (A)
                 (A) (A) (A) (A) (A) (A) (A) (A) (A) (A) (A) (A)
                 (A) (A) (A) (A) (A) (A) (A) (A) (A) (A) (A) (A)
                 (A) (A) (A) (A) (A) (A) (A) (A) (A) (A) (A) (A)
                 (A) (A) (A) (A) (A) (A) (A) (A) (A) (A) (A) (A)
                 (A) (A) (A) (A) (A) (A) (A) (A) (A) (A) (A) (A)
                 (A) (A) (A) (A) (A) (A) (A) (A) (A) (A) (A) (A)
                 (A) (A) (A) (A) (A) (A) (A) (A) (A) (A) (A) (A)
                 (A) (A) (A) (A) (A) (A) (A) (A) (A) (A) (A) (A)
                 (A) (A) (A) (A) (A) (A) (A) (A) (A)
 The electronic state is 1-A.
 Alpha  occ. eigenvalues --  -19.16463 -19.16352 -19.12976 -14.55702 -14.48230
 Alpha  occ. eigenvalues --  -10.24520 -10.23714 -10.22726 -10.22403 -10.20576
 Alpha  occ. eigenvalues --  -10.20438 -10.20431 -10.19748  -1.21581  -1.10387
 Alpha  occ. eigenvalues --   -1.03987  -0.90037  -0.88144  -0.82262  -0.78387
 Alpha  occ. eigenvalues --   -0.77627  -0.71084  -0.64983  -0.62369  -0.59833
 Alpha  occ. eigenvalues --   -0.55628  -0.55249  -0.52693  -0.52484  -0.51327
 Alpha  occ. eigenvalues --   -0.50498  -0.48245  -0.46761  -0.46073  -0.45818
 Alpha  occ. eigenvalues --   -0.43764  -0.41999  -0.39560  -0.38981  -0.37694
 Alpha  occ. eigenvalues --   -0.30397  -0.30254  -0.30204  -0.28205  -0.27881
 Alpha  occ. eigenvalues --   -0.25878  -0.22771
 Alpha virt. eigenvalues --   -0.09454  -0.04084  -0.02426   0.03878   0.07876
 Alpha virt. eigenvalues --    0.10487   0.11919   0.13218   0.15211   0.15307
 Alpha virt. eigenvalues --    0.17083   0.17260   0.18035   0.20154   0.20737
 Alpha virt. eigenvalues --    0.22833   0.25375   0.27016   0.27800   0.28528
 Alpha virt. eigenvalues --    0.31151   0.32813   0.35598   0.36965   0.38076
 Alpha virt. eigenvalues --    0.40991   0.42412   0.43172   0.45429   0.46280
 Alpha virt. eigenvalues --    0.47261   0.48501   0.49076   0.49759   0.50704
 Alpha virt. eigenvalues --    0.50969   0.51795   0.52955   0.55081   0.55314
 Alpha virt. eigenvalues --    0.57794   0.58358   0.59704   0.60987   0.62504
 Alpha virt. eigenvalues --    0.63870   0.65977   0.66835   0.67379   0.67813
 Alpha virt. eigenvalues --    0.69291   0.70963   0.72015   0.73546   0.74524
 Alpha virt. eigenvalues --    0.75116   0.75577   0.76884   0.78407   0.78777
 Alpha virt. eigenvalues --    0.79626   0.80039   0.82341   0.83823   0.84618
 Alpha virt. eigenvalues --    0.84925   0.86436   0.86986   0.87233   0.88197
 Alpha virt. eigenvalues --    0.88665   0.90146   0.91665   0.92668   0.95201
 Alpha virt. eigenvalues --    0.96479   0.96670   0.97372   0.97752   0.99359
 Alpha virt. eigenvalues --    1.00475   1.01541   1.02938   1.03364   1.05448
 Alpha virt. eigenvalues --    1.06519   1.08138   1.11411   1.13706   1.14377
 Alpha virt. eigenvalues --    1.15736   1.16864   1.18887   1.22964   1.24264
 Alpha virt. eigenvalues --    1.25434   1.25943   1.27835   1.29738   1.30169
 Alpha virt. eigenvalues --    1.31776   1.34723   1.35726   1.38254   1.39223
 Alpha virt. eigenvalues --    1.39624   1.41454   1.42694   1.44143   1.44316
 Alpha virt. eigenvalues --    1.46478   1.47505   1.48445   1.49671   1.52490
 Alpha virt. eigenvalues --    1.53109   1.54097   1.54584   1.54950   1.61790
 Alpha virt. eigenvalues --    1.62084   1.63673   1.64461   1.66129   1.68565
 Alpha virt. eigenvalues --    1.69631   1.70104   1.71405   1.73103   1.77065
 Alpha virt. eigenvalues --    1.78882   1.80753   1.85719   1.88649   1.90364
 Alpha virt. eigenvalues --    1.91211   1.93627   1.96165   1.97869   1.98060
 Alpha virt. eigenvalues --    1.98273   2.02079   2.09422   2.11237   2.11474
 Alpha virt. eigenvalues --    2.15540   2.19582   2.21127   2.21579   2.22059
 Alpha virt. eigenvalues --    2.25362   2.27761   2.28251   2.29266   2.32405
 Alpha virt. eigenvalues --    2.38395   2.40694   2.41514   2.48227   2.50089
 Alpha virt. eigenvalues --    2.58569   2.59713   2.63743   2.67379   2.75129
 Alpha virt. eigenvalues --    2.77427   2.81822   2.84840   2.87765   2.90072
 Alpha virt. eigenvalues --    2.90506   2.91346   2.94849   2.98093   3.00086
 Alpha virt. eigenvalues --    3.00223   3.02884   3.03904   3.04639   3.06614
 Alpha virt. eigenvalues --    3.06911   3.08244   3.09278   3.10329   3.11378
 Alpha virt. eigenvalues --    3.13276   3.15407   3.15788   3.17565   3.18961
 Alpha virt. eigenvalues --    3.19507   3.20815   3.22726   3.25666   3.30501
 Alpha virt. eigenvalues --    3.31772   3.33266   3.34273   3.36124   3.36574
 Alpha virt. eigenvalues --    3.41199   3.42283   3.43356   3.44706   3.45733
 Alpha virt. eigenvalues --    3.45859   3.47792   3.49139   3.51131   3.52565
 Alpha virt. eigenvalues --    3.54436   3.56364   3.57254   3.58664   3.63714
 Alpha virt. eigenvalues --    3.64464   3.65709   3.66648   3.69839   3.72101
 Alpha virt. eigenvalues --    3.73492   3.74648   3.76063   3.77189   3.79830
 Alpha virt. eigenvalues --    3.80460   3.83295   3.87317   3.87693   3.91849
 Alpha virt. eigenvalues --    3.92681   3.94213   3.94796   3.99558   4.03531
 Alpha virt. eigenvalues --    4.04766   4.04824   4.06402   4.10342   4.11573
 Alpha virt. eigenvalues --    4.12885   4.15732   4.21018   4.21614   4.22938
 Alpha virt. eigenvalues --    4.23920   4.26797   4.29314   4.30867   4.31730
 Alpha virt. eigenvalues --    4.33830   4.35178   4.37426   4.37788   4.39332
 Alpha virt. eigenvalues --    4.40368   4.41134   4.42930   4.44296   4.45354
 Alpha virt. eigenvalues --    4.46889   4.47574   4.48555   4.48612   4.51553
 Alpha virt. eigenvalues --    4.52196   4.53244   4.53545   4.54400   4.55711
 Alpha virt. eigenvalues --    4.56429   4.57688   4.58815   4.60670   4.62292
 Alpha virt. eigenvalues --    4.65158   4.66685   4.69469   4.70129   4.71699
 Alpha virt. eigenvalues --    4.74450   4.75576   4.79657   4.82113   4.84788
 Alpha virt. eigenvalues --    4.87420   4.87951   4.90256   4.95368   4.98087
 Alpha virt. eigenvalues --    4.98816   4.99699   5.00068   5.03459   5.03842
 Alpha virt. eigenvalues --    5.06620   5.08112   5.08818   5.09321   5.11246
 Alpha virt. eigenvalues --    5.11931   5.15822   5.18374   5.19851   5.21867
 Alpha virt. eigenvalues --    5.22231   5.33330   5.34369   5.34882   5.37547
 Alpha virt. eigenvalues --    5.40109   5.46337   5.49741   5.50897   5.51539
 Alpha virt. eigenvalues --    5.56812   5.59990   5.62369   5.68504   5.71082
 Alpha virt. eigenvalues --    5.75846   5.78595   5.81697   5.92341   5.93133
 Alpha virt. eigenvalues --    6.00187   6.02305   6.03646   6.05397   6.10310
 Alpha virt. eigenvalues --    6.14073   6.21513   6.24921   6.25851   6.33790
 Alpha virt. eigenvalues --    6.34139   6.56404   6.72380   6.81352   6.90976
 Alpha virt. eigenvalues --    7.03095   8.76035   9.61885  10.43076  10.48932
 Alpha virt. eigenvalues --   11.01388  11.23750  11.32607  11.50275  11.64630
 Alpha virt. eigenvalues --   11.86275  12.63187  12.95103  13.06540  13.18518
 Alpha virt. eigenvalues --   16.31506  17.99058
          Condensed to atoms (all electrons):
               1          2          3          4          5          6
     1  C    4.463536   0.522705  -0.013270  -0.033885   0.462844   0.008123
     2  C    0.522705   4.991635   0.477229  -0.007345  -0.040186  -0.059521
     3  C   -0.013270   0.477229   4.974909   0.460036   0.002881  -0.026517
     4  C   -0.033885  -0.007345   0.460036   4.838303   0.000854   0.454884
     5  C    0.462844  -0.040186   0.002881   0.000854   4.906200   0.000308
     6  C    0.008123  -0.059521  -0.026517   0.454884   0.000308   4.907006
     7  H    0.001769   0.001225   0.004799  -0.028305  -0.000155   0.345509
     8  C    0.532839  -0.001820  -0.061110  -0.005637  -0.038453   0.541780
     9  H   -0.017022   0.333698  -0.027040   0.001400  -0.013531   0.001363
    10  H   -0.033367   0.004541   0.002004   0.000911  -0.011308  -0.028934
    11  H    0.001092  -0.025933   0.345941  -0.027642  -0.000114   0.004704
    12  N    0.009690  -0.019721   0.000066   0.000012   0.502875  -0.000037
    13  C    0.004218   0.000584   0.000011   0.000000  -0.057790  -0.000002
    14  H   -0.000177   0.000003  -0.000000  -0.000000  -0.000234   0.000000
    15  H    0.000428  -0.000098  -0.000001   0.000000   0.003943   0.000000
    16  O   -0.030139   0.003929   0.001104  -0.000002  -0.047257  -0.000005
    17  H   -0.000135   0.000002  -0.000000  -0.000000  -0.000055  -0.000000
    18  H   -0.026204   0.007485   0.000009  -0.000066   0.328307   0.000038
    19  N    0.000182   0.001315  -0.027046   0.349746   0.000000  -0.024995
    20  O   -0.000010   0.000002   0.008490  -0.132638  -0.000000   0.006254
    21  O   -0.000010   0.001143   0.007542  -0.133946  -0.000000   0.008415
               7          8          9         10         11         12
     1  C    0.001769   0.532839  -0.017022  -0.033367   0.001092   0.009690
     2  C    0.001225  -0.001820   0.333698   0.004541  -0.025933  -0.019721
     3  C    0.004799  -0.061110  -0.027040   0.002004   0.345941   0.000066
     4  C   -0.028305  -0.005637   0.001400   0.000911  -0.027642   0.000012
     5  C   -0.000155  -0.038453  -0.013531  -0.011308  -0.000114   0.502875
     6  C    0.345509   0.541780   0.001363  -0.028934   0.004704  -0.000037
     7  H    0.566266  -0.030442   0.000038  -0.004800  -0.000248   0.000001
     8  C   -0.030442   4.850725   0.005117   0.347988   0.001379   0.001299
     9  H    0.000038   0.005117   0.535551  -0.000258  -0.003620  -0.000993
    10  H   -0.004800   0.347988  -0.000258   0.612892   0.000046   0.000045
    11  H   -0.000248   0.001379  -0.003620   0.000046   0.556089  -0.000007
    12  N    0.000001   0.001299  -0.000993   0.000045  -0.000007   5.537728
    13  C   -0.000000  -0.000167   0.000358   0.000004  -0.000000   0.375705
    14  H    0.000000   0.000006  -0.000008  -0.000000   0.000000  -0.017249
    15  H    0.000000  -0.000011  -0.000034  -0.000020   0.000000  -0.019626
    16  O   -0.000000   0.000278   0.037132   0.000005  -0.000013   0.448035
    17  H    0.000000   0.000005  -0.000003   0.000000   0.000000  -0.016876
    18  H   -0.000007  -0.013173  -0.000090   0.006816   0.000004  -0.027181
    19  N   -0.012504   0.001401  -0.000054  -0.000065  -0.012199   0.000000
    20  O    0.024103   0.001191   0.000000  -0.000007   0.000448   0.000000
    21  O    0.000488   0.000014  -0.000009   0.000001   0.023223   0.000000
              13         14         15         16         17         18
     1  C    0.004218  -0.000177   0.000428  -0.030139  -0.000135  -0.026204
     2  C    0.000584   0.000003  -0.000098   0.003929   0.000002   0.007485
     3  C    0.000011  -0.000000  -0.000001   0.001104  -0.000000   0.000009
     4  C    0.000000  -0.000000   0.000000  -0.000002  -0.000000  -0.000066
     5  C   -0.057790  -0.000234   0.003943  -0.047257  -0.000055   0.328307
     6  C   -0.000002   0.000000   0.000000  -0.000005  -0.000000   0.000038
     7  H   -0.000000   0.000000   0.000000  -0.000000   0.000000  -0.000007
     8  C   -0.000167   0.000006  -0.000011   0.000278   0.000005  -0.013173
     9  H    0.000358  -0.000008  -0.000034   0.037132  -0.000003  -0.000090
    10  H    0.000004  -0.000000  -0.000020   0.000005   0.000000   0.006816
    11  H   -0.000000   0.000000   0.000000  -0.000013   0.000000   0.000004
    12  N    0.375705  -0.017249  -0.019626   0.448035  -0.016876  -0.027181
    13  C    4.889697   0.385414   0.359529  -0.059342   0.386544  -0.003613
    14  H    0.385414   0.535341  -0.032033   0.004148  -0.036912   0.000222
    15  H    0.359529  -0.032033   0.582382   0.004420  -0.032161  -0.001259
    16  O   -0.059342   0.004148   0.004420   8.137358   0.004014   0.005377
    17  H    0.386544  -0.036912  -0.032161   0.004014   0.534430   0.000087
    18  H   -0.003613   0.000222  -0.001259   0.005377   0.000087   0.603741
    19  N   -0.000000  -0.000000   0.000000  -0.000000  -0.000000  -0.000000
    20  O    0.000000   0.000000  -0.000000   0.000000  -0.000000   0.000000
    21  O    0.000000  -0.000000  -0.000000   0.000000   0.000000  -0.000000
              19         20         21
     1  C    0.000182  -0.000010  -0.000010
     2  C    0.001315   0.000002   0.001143
     3  C   -0.027046   0.008490   0.007542
     4  C    0.349746  -0.132638  -0.133946
     5  C    0.000000  -0.000000  -0.000000
     6  C   -0.024995   0.006254   0.008415
     7  H   -0.012504   0.024103   0.000488
     8  C    0.001401   0.001191   0.000014
     9  H   -0.000054   0.000000  -0.000009
    10  H   -0.000065  -0.000007   0.000001
    11  H   -0.012199   0.000448   0.023223
    12  N    0.000000   0.000000   0.000000
    13  C   -0.000000   0.000000   0.000000
    14  H   -0.000000   0.000000  -0.000000
    15  H    0.000000  -0.000000  -0.000000
    16  O   -0.000000   0.000000   0.000000
    17  H   -0.000000  -0.000000   0.000000
    18  H   -0.000000   0.000000  -0.000000
    19  N    5.260558   0.541122   0.545296
    20  O    0.541122   8.025989  -0.105889
    21  O    0.545296  -0.105889   8.013665
 Mulliken charges:
               1
     1  C    0.146793
     2  C   -0.190870
     3  C   -0.130038
     4  C    0.263320
     5  C    0.000869
     6  C   -0.138372
     7  H    0.132263
     8  C   -0.133209
     9  H    0.148006
    10  H    0.103506
    11  H    0.136851
    12  N    0.226235
    13  C   -0.281151
    14  H    0.161480
    15  H    0.134541
    16  O   -0.509043
    17  H    0.161059
    18  H    0.119506
    19  N    0.377243
    20  O   -0.369056
    21  O   -0.359932
 Sum of Mulliken charges =  -0.00000
 Mulliken charges with hydrogens summed into heavy atoms:
               1
     1  C    0.146793
     2  C   -0.042864
     3  C    0.006812
     4  C    0.263320
     5  C    0.120375
     6  C   -0.006109
     8  C   -0.029703
    12  N    0.226235
    13  C    0.175929
    16  O   -0.509043
    19  N    0.377243
    20  O   -0.369056
    21  O   -0.359932
 APT charges:
               1
     1  C   -0.632300
     2  C   -0.448558
     3  C   -0.375336
     4  C   -0.103071
     5  C   -0.265965
     6  C   -0.349014
     7  H    0.531731
     8  C   -0.367992
     9  H    0.384837
    10  H    0.457976
    11  H    0.472601
    12  N   -0.157653
    13  C   -0.929257
    14  H    0.618970
    15  H    0.350994
    16  O   -0.175484
    17  H    0.622154
    18  H    0.413131
    19  N   -1.451949
    20  O    0.769863
    21  O    0.634321
 Sum of APT charges =  -0.00000
 APT charges with hydrogens summed into heavy atoms:
               1
     1  C   -0.632300
     2  C   -0.063721
     3  C    0.097265
     4  C   -0.103071
     5  C    0.147167
     6  C    0.182716
     8  C    0.089984
    12  N   -0.157653
    13  C    0.662862
    16  O   -0.175484
    19  N   -1.451949
    20  O    0.769863
    21  O    0.634321
 Electronic spatial extent (au):  <R**2>=           3271.8022
 Charge=             -0.0000 electrons
 Dipole moment (field-independent basis, Debye):
    X=              6.1281    Y=              3.5822    Z=              0.1626  Tot=              7.1002
 Quadrupole moment (field-independent basis, Debye-Ang):
   XX=            -78.7697   YY=            -72.3232   ZZ=            -72.9104
   XY=              9.2477   XZ=              1.2122   YZ=              0.3445
 Traceless Quadrupole moment (field-independent basis, Debye-Ang):
   XX=             -4.1019   YY=              2.3446   ZZ=              1.7574
   XY=              9.2477   XZ=              1.2122   YZ=              0.3445
 Octapole moment (field-independent basis, Debye-Ang**2):
  XXX=            174.0857  YYY=              6.2902  ZZZ=              0.0340  XYY=             -3.6403
  XXY=             37.2320  XXZ=              2.6314  XZZ=             -4.0729  YZZ=             -3.5179
  YYZ=              0.0630  XYZ=             -2.7022
 Hexadecapole moment (field-independent basis, Debye-Ang**3):
 XXXX=          -3379.0139 YYYY=           -471.6785 ZZZZ=            -72.5816 XXXY=             99.4272
 XXXZ=             13.9376 YYYX=             10.3545 YYYZ=              0.6512 ZZZX=             -1.7001
 ZZZY=             -0.7211 XXYY=           -717.7214 XXZZ=           -556.6698 YYZZ=            -99.0874
 XXYZ=              3.8546 YYXZ=              2.9831 ZZXY=             -3.4325
 N-N= 7.459874431978D+02 E-N=-2.997821129763D+03  KE= 6.413459121227D+02
  Exact polarizability:   0.000   0.000   0.000   0.000   0.000   0.000
 Approx polarizability: 332.975 -40.003 243.309  -1.574  -0.458  80.573
 No NMR shielding tensors so no spin-rotation constants.
 Leave Link  601 at Fri Aug 27 07:22:46 2021, MaxMem= 24159191040 cpu:        16.8
 (Enter /public/home/users/caep010/software/Gaussian09/g09/l701.exe)
 Compute integral second derivatives.
 ... and contract with generalized density number  0.
 Leave Link  701 at Fri Aug 27 07:22:47 2021, MaxMem= 24159191040 cpu:        18.1
 (Enter /public/home/users/caep010/software/Gaussian09/g09/l702.exe)
 L702 exits ... SP integral derivatives will be done elsewhere.
 Leave Link  702 at Fri Aug 27 07:22:47 2021, MaxMem= 24159191040 cpu:         0.5
 (Enter /public/home/users/caep010/software/Gaussian09/g09/l703.exe)
 Compute integral second derivatives, UseDBF=F ICtDFT=           0.
 Integral derivatives from FoFJK, PRISM(SPDF).
 Calling FoFJK, ICntrl=    100147 FMM=F ISym2X=0 I1Cent= 0 IOpClX= 0 NMat=1 NMatS=1 NMatT=0.
 FoFJK:  IHMeth= 1 ICntrl=  100147 DoSepK=F KAlg= 0 I1Cent=   0 FoldK=F
 IRaf=         0 NMat=   1 IRICut=       1 DoRegI=T DoRafI=F ISym2E= 0.
 FoFCou: FMM=F IPFlag=           0 FMFlag=      100000 FMFlg1=         800
         NFxFlg=           0 DoJE=F BraDBF=F KetDBF=F FulRan=T
         wScrn=  0.000000 ICntrl=  100147 IOpCl=  0 I1Cent=           0 NGrid=           0
         NMat0=    1 NMatS0=      1 NMatT0=    0 NMatD0=    1 NMtDS0=    0 NMtDT0=    0
 Symmetry not used in FoFCou.
 Leave Link  703 at Fri Aug 27 07:23:37 2021, MaxMem= 24159191040 cpu:      1583.3
 (Enter /public/home/users/caep010/software/Gaussian09/g09/l716.exe)
 Dipole        = 2.41098505D+00 1.40936039D+00 6.39721451D-02
 Polarizability= 0.00000000D+00 0.00000000D+00 0.00000000D+00
                 0.00000000D+00 0.00000000D+00 0.00000000D+00
 ***** Axes restored to original set *****
 -------------------------------------------------------------------
 Center     Atomic                   Forces (Hartrees/Bohr)
 Number     Number              X              Y              Z
 -------------------------------------------------------------------
      1        6          -0.001835338    0.000743228   -0.001566640
      2        6           0.033865853   -0.057328925   -0.003492813
      3        6          -0.037675674   -0.057870362   -0.002846156
      4        6           0.015787606    0.008031079   -0.001851558
      5        6           0.032292278    0.053479459    0.003048075
      6        6          -0.031321940    0.044808721    0.004194420
      7        1           0.040171878   -0.058746221   -0.005080200
      8        6           0.022426273    0.065368435    0.005968560
      9        1          -0.038451996    0.059105671    0.003621040
     10        1          -0.034745655   -0.064830060   -0.005146107
     11        1           0.036391421    0.061320769    0.004642710
     12        7          -0.001593829    0.045619834   -0.003964354
     13        6           0.070267610    0.008776610   -0.001739472
     14        1          -0.029890994    0.032734997   -0.063529843
     15        1          -0.007549628   -0.078672831    0.000172638
     16        8          -0.007832304   -0.028600649    0.002722597
     17        1          -0.029273026    0.033310156    0.065436050
     18        1          -0.027316041   -0.067206939   -0.001583785
     19        7           0.011840450   -0.004922720    0.004241733
     20        8          -0.009569986    0.002728221   -0.001091796
     21        8          -0.005986957    0.002151525   -0.002155098
 -------------------------------------------------------------------
 Cartesian Forces:  Max     0.078672831 RMS     0.034269594
 FormGI is forming the generalized inverse of G from B-inverse, IUseBI=4.
 Leave Link  716 at Fri Aug 27 07:23:38 2021, MaxMem= 24159191040 cpu:         1.3
 (Enter /public/home/users/caep010/software/Gaussian09/g09/l103.exe)

 GradGradGradGradGradGradGradGradGradGradGradGradGradGradGradGradGradGrad
 Berny optimization.
 Red2BG is reusing G-inverse.
 Internal  Forces:  Max     0.079031371 RMS     0.021985812
 Search for a local minimum.
 Step number   1 out of a maximum of  106
 All quantities printed in internal units (Hartrees-Bohrs-Radians)
 RMS Force = .21986D-01 SwitMx=.10000D-02 MixMth= 1
 Mixed Optimization -- RFO/linear search
 Second derivative matrix not updated -- analytic derivatives used.
 ITU=  0
     Eigenvalues ---    0.00137   0.00451   0.00787   0.01465   0.01758
     Eigenvalues ---    0.01814   0.01918   0.02079   0.02239   0.02446
     Eigenvalues ---    0.02520   0.02697   0.02797   0.02917   0.03459
     Eigenvalues ---    0.06328   0.06350   0.10848   0.11182   0.11224
     Eigenvalues ---    0.11799   0.12669   0.12756   0.13548   0.16245
     Eigenvalues ---    0.16890   0.17074   0.17382   0.19006   0.20282
     Eigenvalues ---    0.20656   0.22697   0.23963   0.24616   0.29415
     Eigenvalues ---    0.31117   0.33180   0.34024   0.37529   0.41111
     Eigenvalues ---    0.43159   0.44747   0.47377   0.48227   0.49242
     Eigenvalues ---    0.54158   0.57669   0.57785   0.57893   0.58058
     Eigenvalues ---    0.58203   0.58214   0.58236   0.58359   0.58593
     Eigenvalues ---    0.67287   0.76450
 RFO step:  Lambda=-7.25554827D-02 EMin= 1.37102188D-03
 Linear search not attempted -- first point.
 Maximum step size (   0.300) exceeded in Quadratic search.
    -- Step size scaled by   0.883
 Iteration  1 RMS(Cart)=  0.03723891 RMS(Int)=  0.00045037
 Iteration  2 RMS(Cart)=  0.00068613 RMS(Int)=  0.00007363
 Iteration  3 RMS(Cart)=  0.00000053 RMS(Int)=  0.00007363
 ITry= 1 IFail=0 DXMaxC= 1.26D-01 DCOld= 1.00D+10 DXMaxT= 3.00D-01 DXLimC= 3.00D+00 Rises=F
 Variable       Old X    -DE/DX   Delta X   Delta X   Delta X     New X
                                 (Linear)    (Quad)   (Total)
    R1        2.66047   0.00147   0.00000   0.00337   0.00335   2.66383
    R2        2.73127   0.00096   0.00000  -0.00021  -0.00021   2.73106
    R3        2.66625   0.00297   0.00000   0.00256   0.00255   2.66880
    R4        2.62084   0.00458   0.00000   0.00260   0.00260   2.62343
    R5        1.88979   0.07058   0.00000   0.09486   0.09486   1.98464
    R6        2.61362   0.00611   0.00000   0.01018   0.01019   2.62381
    R7        1.89050   0.07144   0.00000   0.09666   0.09666   1.98717
    R8        2.60075   0.01313   0.00000   0.02210   0.02211   2.62286
    R9        2.78331  -0.00370   0.00000  -0.00634  -0.00634   2.77697
   R10        2.45836   0.01350   0.00000   0.02362   0.02362   2.48199
   R11        1.88950   0.07248   0.00000   0.09691   0.09691   1.98641
   R12        1.89114   0.07130   0.00000   0.09622   0.09622   1.98736
   R13        2.58786   0.01498   0.00000   0.01980   0.01981   2.60767
   R14        1.89015   0.07373   0.00000   0.10013   0.10013   1.99028
   R15        2.79433  -0.00254   0.00000   0.00138   0.00138   2.79571
   R16        2.45384  -0.02957   0.00000  -0.05529  -0.05529   2.39855
   R17        1.89160   0.07727   0.00000   0.10489   0.10489   1.99649
   R18        1.88940   0.07903   0.00000   0.10571   0.10571   1.99511
   R19        1.88874   0.07885   0.00000   0.10625   0.10625   1.99499
   R20        2.32865  -0.00696   0.00000  -0.00945  -0.00945   2.31919
   R21        2.31749  -0.00123   0.00000  -0.00166  -0.00166   2.31584
    A1        2.19132  -0.00547   0.00000  -0.01241  -0.01240   2.17892
    A2        2.07585   0.00126   0.00000  -0.00241  -0.00244   2.07341
    A3        2.01600   0.00422   0.00000   0.01483   0.01485   2.03085
    A4        2.09412   0.00177   0.00000   0.00312   0.00310   2.09722
    A5        2.09460  -0.00281   0.00000  -0.01033  -0.01032   2.08428
    A6        2.09446   0.00105   0.00000   0.00721   0.00722   2.10168
    A7        2.07206   0.00189   0.00000   0.00812   0.00813   2.08019
    A8        2.10552   0.00061   0.00000   0.00514   0.00514   2.11065
    A9        2.10561  -0.00250   0.00000  -0.01326  -0.01326   2.09234
   A10        2.14174  -0.00220   0.00000  -0.01003  -0.01001   2.13173
   A11        2.06962   0.00181   0.00000   0.00749   0.00747   2.07709
   A12        2.07176   0.00039   0.00000   0.00257   0.00255   2.07431
   A13        2.21954  -0.00511   0.00000  -0.00964  -0.00964   2.20990
   A14        2.03155   0.00572   0.00000   0.02134   0.02134   2.05289
   A15        2.03210  -0.00061   0.00000  -0.01170  -0.01170   2.02040
   A16        2.10499  -0.00095   0.00000  -0.01008  -0.01008   2.09491
   A17        2.07354  -0.00300   0.00000  -0.00334  -0.00333   2.07021
   A18        2.10465   0.00395   0.00000   0.01342   0.01341   2.11806
   A19        2.10841   0.00030   0.00000   0.00476   0.00475   2.11316
   A20        2.08738  -0.00029   0.00000  -0.00197  -0.00197   2.08541
   A21        2.08739  -0.00001   0.00000  -0.00278  -0.00278   2.08461
   A22        2.10310  -0.00324   0.00000  -0.01471  -0.01472   2.08838
   A23        2.17973   0.00453   0.00000   0.01823   0.01821   2.19794
   A24        1.99965  -0.00125   0.00000  -0.00312  -0.00314   1.99651
   A25        1.90979  -0.00633   0.00000  -0.02179  -0.02197   1.88782
   A26        1.91095   0.00236   0.00000   0.01643   0.01650   1.92745
   A27        1.91084  -0.00660   0.00000  -0.02321  -0.02339   1.88745
   A28        1.91117   0.00337   0.00000   0.01177   0.01184   1.92302
   A29        1.90993   0.00386   0.00000   0.00530   0.00484   1.91478
   A30        1.91111   0.00333   0.00000   0.01146   0.01154   1.92265
   A31        2.06841  -0.00619   0.00000  -0.01189  -0.01194   2.05647
   A32        2.06417  -0.00393   0.00000  -0.00771  -0.00776   2.05641
   A33        2.15003   0.01024   0.00000   0.02019   0.02014   2.17017
    D1        3.12021   0.00008   0.00000   0.00152   0.00154   3.12176
    D2       -0.02281   0.00012   0.00000   0.00173   0.00175  -0.02106
    D3       -0.02736   0.00037   0.00000   0.00398   0.00399  -0.02337
    D4        3.11280   0.00040   0.00000   0.00419   0.00420   3.11700
    D5        0.02628  -0.00032   0.00000  -0.00254  -0.00254   0.02374
    D6       -3.11528  -0.00007   0.00000  -0.00098  -0.00097  -3.11625
    D7       -3.10951  -0.00058   0.00000  -0.00487  -0.00488  -3.11439
    D8        0.03211  -0.00034   0.00000  -0.00331  -0.00331   0.02880
    D9        0.01969  -0.00043   0.00000  -0.00401  -0.00401   0.01568
   D10       -3.12376  -0.00032   0.00000  -0.00327  -0.00328  -3.12704
   D11       -3.12729  -0.00021   0.00000  -0.00188  -0.00186  -3.12915
   D12        0.01244  -0.00010   0.00000  -0.00114  -0.00113   0.01131
   D13        0.00553   0.00007   0.00000   0.00058   0.00059   0.00612
   D14       -3.13583   0.00001   0.00000  -0.00005  -0.00005  -3.13589
   D15       -3.13464   0.00004   0.00000   0.00038   0.00040  -3.13424
   D16        0.00719  -0.00002   0.00000  -0.00025  -0.00025   0.00694
   D17        0.02557  -0.00058   0.00000  -0.00564  -0.00564   0.01992
   D18       -3.12850  -0.00030   0.00000  -0.00316  -0.00317  -3.13167
   D19       -3.11626  -0.00052   0.00000  -0.00501  -0.00500  -3.12126
   D20        0.01286  -0.00024   0.00000  -0.00253  -0.00253   0.01033
   D21        3.10577   0.00064   0.00000   0.00602   0.00600   3.11177
   D22       -0.03335   0.00064   0.00000   0.00585   0.00583  -0.02753
   D23       -0.02333   0.00035   0.00000   0.00350   0.00350  -0.01983
   D24        3.12073   0.00035   0.00000   0.00333   0.00332   3.12406
   D25       -3.03422   0.00118   0.00000   0.00250   0.00250  -3.03172
   D26        0.14258  -0.00251   0.00000  -0.01609  -0.01610   0.12648
   D27        0.09541   0.00143   0.00000   0.00479   0.00479   0.10020
   D28       -3.01098  -0.00225   0.00000  -0.01381  -0.01380  -3.02479
   D29       -3.13159  -0.00019   0.00000  -0.00116  -0.00112  -3.13271
   D30        0.05260  -0.00156   0.00000  -0.01317  -0.01323   0.03937
   D31        0.00997  -0.00043   0.00000  -0.00271  -0.00266   0.00731
   D32       -3.08902  -0.00180   0.00000  -0.01473  -0.01477  -3.10379
   D33        0.00992  -0.00005   0.00000  -0.00070  -0.00071   0.00921
   D34       -3.12982  -0.00016   0.00000  -0.00143  -0.00143  -3.13125
   D35       -3.12921  -0.00005   0.00000  -0.00083  -0.00085  -3.13006
   D36        0.01424  -0.00015   0.00000  -0.00157  -0.00157   0.01267
   D37       -2.05608  -0.00233   0.00000  -0.01664  -0.01638  -2.07247
   D38        0.03865  -0.00064   0.00000  -0.00552  -0.00548   0.03317
   D39        2.13395   0.00084   0.00000   0.00436   0.00417   2.13812
   D40        1.04709  -0.00095   0.00000  -0.00526  -0.00507   1.04202
   D41       -3.14136   0.00074   0.00000   0.00586   0.00583  -3.13553
   D42       -1.04606   0.00222   0.00000   0.01574   0.01549  -1.03057
         Item               Value     Threshold  Converged?
 Maximum Force            0.079031     0.000450     NO 
 RMS     Force            0.021986     0.000300     NO 
 Maximum Displacement     0.126265     0.001800     NO 
 RMS     Displacement     0.037413     0.001200     NO 
 Predicted change in Energy=-3.910904D-02
 Lowest energy point so far.  Saving SCF results.
 GradGradGradGradGradGradGradGradGradGradGradGradGradGradGradGradGradGrad

 Leave Link  103 at Fri Aug 27 07:23:39 2021, MaxMem= 24159191040 cpu:        17.0
 (Enter /public/home/users/caep010/software/Gaussian09/g09/l202.exe)
                          Input orientation:                          
 ---------------------------------------------------------------------
 Center     Atomic      Atomic             Coordinates (Angstroms)
 Number     Number       Type             X           Y           Z
 ---------------------------------------------------------------------
      1          6           0        2.032221    0.306685    3.151973
      2          6           0        2.701998    1.544546    3.230534
      3          6           0        4.089565    1.587512    3.239571
      4          6           0        4.804266    0.399587    3.163029
      5          6           0        0.596336    0.142891    3.158915
      6          6           0        4.177049   -0.833758    3.054021
      7          1           0        4.751425   -1.710822    2.971281
      8          6           0        2.797778   -0.876070    3.054436
      9          1           0        2.142203    2.431716    3.280909
     10          1           0        2.308378   -1.805839    2.981833
     11          1           0        4.601565    2.503822    3.302954
     12          7           0       -0.301127    1.100339    3.212805
     13          6           0       -1.739749    0.755417    3.222743
     14          1           0       -2.186979    1.183416    2.366598
     15          1           0       -1.867612   -0.292553    3.215096
     16          8           0       -0.060778    2.346539    3.228124
     17          1           0       -2.170758    1.168195    4.093582
     18          1           0        0.217370   -0.836745    3.118457
     19          7           0        6.272779    0.448717    3.185616
     20          8           0        6.883993   -0.598946    2.998535
     21          8           0        6.805578    1.529749    3.407688
 ---------------------------------------------------------------------
                    Distance matrix (angstroms):
                    1          2          3          4          5
     1  C    0.000000
     2  C    1.409636   0.000000
     3  C    2.425048   1.388262   0.000000
     4  C    2.773623   2.394790   1.388460   0.000000
     5  C    1.445214   2.530530   3.781017   4.215755   0.000000
     6  C    2.431150   2.804151   2.429944   1.387957   3.712998
     7  H    3.390730   3.855487   3.374765   2.119761   4.553705
     8  C    1.412267   2.428902   2.787871   2.380145   2.428074
     9  H    2.131778   1.050228   2.122878   3.351123   2.764653
    10  H    2.137280   3.382583   3.841079   3.335595   2.599999
    11  H    3.384041   2.129275   1.051563   2.118601   4.651516
    12  N    2.465380   3.035851   4.417718   5.153500   1.313411
    13  C    3.799227   4.511308   5.888427   6.553954   2.415896
    14  H    4.380310   4.977840   6.349833   7.079985   3.075272
    15  H    3.946108   4.925089   6.246856   6.707885   2.502760
    16  O    2.923602   2.876827   4.219195   5.240564   2.300576
    17  H    4.392477   4.962886   6.332204   7.078675   3.095425
    18  H    2.145283   3.443325   4.570075   4.750802   1.051161
    19  N    4.243069   3.735416   2.462963   1.469508   5.684738
    20  O    4.937955   4.705046   3.556335   2.312875   6.333299
    21  O    4.934188   4.107429   2.721824   2.311357   6.367099
                    6          7          8          9         10
     6  C    0.000000
     7  H    1.051663   0.000000
     8  C    1.379920   2.126138   0.000000
     9  H    3.854270   4.905561   3.379722   0.000000
    10  H    2.107625   2.444917   1.053211   4.251345   0.000000
    11  H    3.373665   4.230329   3.839151   2.460518   4.892341
    12  N    4.880574   5.786989   3.678924   2.783354   3.912637
    13  C    6.128820   6.948446   4.824855   4.228819   4.796394
    14  H    6.711362   7.542128   5.437132   4.597394   5.433451
    15  H    6.070977   6.773668   4.704483   4.848153   4.447846
    16  O    5.301300   6.299638   4.311232   2.205259   4.787045
    17  H    6.736701   7.580561   5.472219   4.567116   5.490311
    18  H    3.960204   4.619884   2.581501   3.796605   2.308706
    19  N    2.460517   2.650295   3.721277   4.582906   4.565197
    20  O    2.717676   2.405173   4.095983   5.634645   4.732137
    21  O    3.552522   3.861514   4.687773   4.751493   5.615364
                   11         12         13         14         15
    11  H    0.000000
    12  N    5.100420   0.000000
    13  C    6.578421   1.479427   0.000000
    14  H    6.978865   2.068672   1.056496   0.000000
    15  H    7.048240   2.096194   1.055769   1.732175   0.000000
    16  O    4.665596   1.269258   2.313145   2.572121   3.198378
    17  H    6.947903   2.067823   1.055705   1.727127   1.731305
    18  H    5.514943   2.007495   2.525108   3.229123   2.156996
    19  N    2.651448   6.606178   8.018482   8.531006   8.174124
    20  O    3.863846   7.386435   8.732324   9.265996   8.759644
    21  O    2.411941   7.122333   8.582331   9.059243   8.864654
[...]
 01893062,-0.00151162,0.00440154,-0.00286209,-0.00057151,0.00086185,0.0
 0017610,0.00001100,0.00026353,0.00183593,-0.00042334,-0.00262543,0.000
 21336,0.00025694,0.00166436,0.00228051,0.00002854,-0.00015271,0.000691
 68,0.00035142,-0.11249536,-0.27531839,-0.01698614,-0.00107272,-0.00093
 915,-0.00008921,0.12161459,0.29174426,-0.00106709,-0.00157805,0.002552
 98,0.00033048,-0.00056843,0.00493069,0.00006485,0.00001119,-0.00000544
 ,0.00004856,-0.00042494,0.00770426,-0.00019759,0.00024565,-0.00326599,
 0.00014836,0.00010122,0.00183624,-0.00002375,0.00035074,-0.00418407,-0
 .00786449,-0.01698779,-0.03569017,-0.00007763,-0.00009389,0.00034013,0
 .00847817,0.01885252,0.02587829,-0.00496974,0.00079573,0.00008711,-0.0
 0971276,-0.02672939,-0.00188013,-0.12165787,-0.12290185,-0.00858732,0.
 01222329,0.01361788,0.00095677,-0.00003643,-0.00119396,-0.00008511,-0.
 00201984,0.00343856,0.00026022,0.00075629,0.00098422,0.00007129,-0.000
 96703,0.00074552,0.00005533,0.00113942,0.00025359,0.00000564,0.0000531
 6,-0.00009350,-0.00000921,0.12781537,0.00107625,0.00132408,-0.00049094
 ,0.00222580,0.00493194,0.00012044,-0.12074758,-0.27985844,-0.01693083,
 -0.01409444,-0.01968845,-0.00175578,0.00012579,0.00014603,0.00000648,0
 .00416101,-0.00264667,-0.00048401,-0.00083316,-0.00088320,-0.00013748,
 0.00062305,0.00042454,0.00002916,-0.00009895,0.00060775,0.00035181,-0.
 00010111,-0.00000515,0.00007421,0.13202630,0.29450389,0.00010704,-0.00
 049217,0.00812670,0.00019155,0.00018813,0.00318538,-0.00843628,-0.0169
 2380,-0.04012290,-0.00102039,-0.00182313,0.00521361,0.00000947,0.00000
 944,0.00005185,0.00031090,-0.00048112,0.00395503,-0.00005830,-0.000141
 48,0.00105618,0.00004533,0.00002888,0.00000029,-0.00001998,0.00035114,
 -0.00428863,-0.00000979,0.00007448,-0.00103610,0.00919772,0.01880864,0
 .02827459,-0.04920488,0.03280135,0.00247596,0.00478840,0.00685705,0.00
 048198,-0.00203310,0.00091797,0.00006784,0.00298928,0.00167251,0.00011
 315,-0.28445635,0.15762708,0.01185488,-0.00489157,-0.00035580,-0.00001
 130,-0.00050580,-0.00010174,-0.00000685,0.00146279,-0.00947652,-0.0006
 7669,-0.00031584,-0.00198005,-0.00014172,0.00016609,0.00056349,0.00003
 888,0.00006571,-0.00002847,-0.00000213,0.67420738,0.02474821,0.0082007
 5,0.00036995,-0.00681787,0.00015698,-0.00002608,0.00561377,-0.00327995
 ,-0.00018931,-0.00971794,0.00002641,0.00002491,0.13031822,-0.27749472,
 -0.01626658,0.00497170,0.00042077,-0.00006745,-0.00033657,-0.00002906,
 0.00001937,-0.01044640,0.00231953,0.00001990,-0.00900139,-0.00217298,-
 0.00011362,0.00020684,0.00000734,0.00003011,-0.00052488,0.00012065,0.0
 0000746,-0.10491022,0.82230836,0.00189739,0.00035211,0.00221065,-0.000
 49769,-0.00005947,0.00074003,0.00040438,-0.00017819,-0.00083988,-0.000
 70238,-0.00000137,-0.00001489,0.00989551,-0.01633020,-0.05611344,0.000
 37090,-0.00005566,0.00121281,-0.00002357,0.00001881,-0.00028683,-0.000
 74683,0.00001843,0.00239424,-0.00064424,-0.00013178,-0.00026773,0.0000
 1347,0.00002921,-0.00041795,-0.00003770,0.00000625,0.00003493,-0.00866
 722,0.04489639,0.20232048,0.00288664,0.00076734,0.00007235,-0.00002928
 ,-0.00100307,-0.00007216,-0.00027369,-0.00006223,-0.00000707,0.0010692
 7,-0.00005973,-0.00000665,-0.03425499,0.00374697,0.00036170,-0.0001024
 5,0.00033702,0.00002211,-0.00000038,-0.00000779,-0.00000048,-0.0001248
 0,0.00031815,0.00002352,0.00009468,0.00001581,0.00000348,-0.00003437,0
 .00003096,0.00000274,0.00002916,-0.00001031,-0.00000083,-0.17052114,0.
 00971666,0.00090690,0.43831330,0.00202727,-0.00362648,-0.00098038,-0.0
 0013013,-0.00055010,-0.00002733,-0.00021743,0.00031495,0.00012077,0.00
 015845,-0.00025896,-0.00002040,0.02220051,0.01281974,0.00049565,0.0003
 0932,-0.00021663,0.00004750,0.00010902,0.00002758,-0.00000046,0.000694
 73,0.00096122,0.00005312,0.00075778,0.00003986,-0.00007310,-0.00001061
 ,-0.00008956,-0.00001904,0.00004327,-0.00000846,0.00000004,0.00093250,
 -0.08428250,-0.00016417,-0.03474041,0.62868200,0.00016339,-0.00097868,
 0.00992966,-0.00000977,-0.00002593,-0.00016215,-0.00001813,0.00012053,
 -0.00135588,0.00000857,-0.00002013,0.00001878,0.00168755,0.00053846,0.
 00520400,0.00002060,0.00004740,-0.00088722,0.00000793,-0.00000018,0.00
 003066,0.00005059,0.00005427,0.00019934,0.00005622,-0.00007065,0.00102
 501,-0.00000029,-0.00001912,0.00017522,0.00000300,0.00000012,-0.000009
 85,0.00027795,-0.00018530,-0.08208278,-0.00220990,0.00372994,0.5787906
 3,-0.00096016,0.00063872,0.00191421,-0.00000468,0.00028599,-0.00003887
 ,0.00005372,-0.00003034,-0.00017839,-0.00016665,0.00007825,0.00001189,
 -0.00139773,-0.00395128,-0.00107146,-0.00011502,0.00001492,-0.00018270
 ,-0.00003173,-0.00000614,-0.00000012,-0.00012061,-0.00038216,0.0000574
 0,-0.00009223,-0.00002704,0.00014376,0.00002158,0.00001234,0.00003692,
 -0.00001960,0.00000248,-0.00000714,-0.02861890,0.01852934,-0.02975099,
 -0.08483447,0.04607519,-0.08043683,0.10294198,-0.00012736,0.00041134,-
 0.00012103,0.00004343,0.00000263,-0.00001864,0.00004805,0.00001804,0.0
 0007579,0.00001714,0.00005058,0.00000673,0.00036018,-0.00085491,-0.000
 09087,-0.00005734,-0.00001345,-0.00003101,-0.00000167,-0.00000115,0.00
 000170,0.00001324,-0.00006140,0.00002430,0.00003168,0.00001940,-0.0000
 4893,-0.00001158,0.00000978,0.00001583,0.00000741,-0.00000083,-0.00000
 083,-0.00370722,0.00205989,-0.00725518,0.05193812,-0.11147751,0.105262
 33,-0.05516430,0.11357968,-0.00011309,0.00000661,-0.00042516,0.0000469
 0,0.00007537,0.00003323,-0.00000136,0.00000480,0.00001391,-0.00002254,
 0.00001425,0.00000229,0.00096395,-0.00078559,0.00018180,-0.00002872,-0
 .00004265,0.00001332,0.00000181,-0.00000020,-0.00000295,0.00006859,-0.
 00006788,0.00001416,-0.00004845,0.00000139,-0.00001416,-0.00000254,-0.
 00000315,-0.00000519,-0.00000145,0.00000182,-0.00000382,0.00009597,0.0
 0026499,0.00350859,-0.08685369,0.10338442,-0.21876799,0.09294932,-0.11
 253859,0.23095988,0.00039328,0.00024724,0.00001655,0.00003436,-0.00011
 950,-0.00000853,0.00007046,0.00016443,0.00001158,-0.00025381,-0.000048
 97,-0.00000295,-0.00045811,0.00008442,0.00000671,0.00010589,0.00000992
 ,0.00000047,0.00000102,0.00000066,0.00000006,-0.00016734,0.00000373,0.
 00000053,0.00027616,0.00004678,0.00000268,-0.00002364,0.00004109,0.000
 00308,0.00001435,-0.00000436,-0.00000033,0.00149636,-0.03455568,-0.002
 48142,-0.05700137,-0.02315810,-0.00163332,0.00281507,0.01223127,0.0029
 2780,0.06037312,0.00023535,0.00074659,0.00005294,-0.00004390,-0.000249
 60,-0.00001471,0.00004030,0.00017199,0.00001205,-0.00021998,-0.0000374
 7,-0.00000238,0.00148382,-0.00042404,-0.00001898,0.00009324,0.00003203
 ,0.00000326,-0.00000161,-0.00000106,-0.00000043,-0.00020176,0.00002280
 ,0.00000461,0.00010121,0.00009193,0.00000156,-0.00002055,0.00003711,0.
 00000037,0.00002241,-0.00000397,-0.00000023,0.00360891,-0.01010991,-0.
 00045493,-0.03669940,-0.31810854,-0.01912583,-0.00174097,-0.01115850,-
 0.00288771,0.03659360,0.34288073,0.00001583,0.00005298,-0.00000050,-0.
 00000338,-0.00001459,-0.00004286,0.00000271,0.00001174,0.00000324,-0.0
 0001513,-0.00000276,0.00000244,0.00010699,-0.00001498,-0.00021552,0.00
 000638,0.00000345,-0.00001618,-0.00000011,-0.00000043,0.00000493,-0.00
 001411,0.00000412,-0.00003418,0.00000681,0.00000176,0.00006612,-0.0000
 0133,0.00000020,0.00003271,0.00000156,-0.00000017,-0.00000150,0.000244
 61,-0.00036532,-0.00390035,-0.00260061,-0.01915641,-0.05051302,0.00455
 638,0.02402242,0.00386826,0.00257660,0.02120310,0.04634125,0.00547786,
 -0.00232318,-0.00019231,-0.00543174,-0.00614401,-0.00042589,-0.0031881
 1,0.00392247,0.00029232,0.00086866,-0.00222685,-0.00016202,0.02160112,
 0.02556131,0.00181310,0.00112973,0.00161738,0.00011252,0.00011983,0.00
 000880,0.00000031,-0.00087489,0.00165534,0.00012050,-0.00421937,0.0058
 5851,0.00042796,-0.00012563,0.00013136,0.00001062,0.00014728,-0.000051
 27,-0.00000367,-0.12395166,-0.06360473,-0.00440976,-0.00938548,-0.0506
 1532,-0.00357770,0.00399526,-0.00073704,0.00060109,-0.00845634,-0.0038
 4813,-0.00024924,0.12213025,-0.01152244,0.00514351,0.00076273,0.002741
 66,-0.00118847,-0.00007447,-0.00142710,0.00118566,-0.00002316,0.006207
 96,0.00091542,0.00006580,0.01002828,-0.08178727,-0.00691950,-0.0034293
 3,0.00071662,0.00006915,0.00006161,-0.00002231,-0.00000145,0.00449701,
 -0.00080860,-0.00006080,0.00727742,0.00013581,0.00005664,-0.00030238,0
 .00060920,0.00002148,0.00042939,-0.00009607,-0.00001406,-0.06852748,-0
 .42827034,-0.02587997,-0.03099797,-0.03927346,-0.00341159,0.00185803,0
 .00114859,-0.00121677,-0.00462741,0.00234282,-0.00002649,0.08564526,0.
 53495482,-0.00085145,0.00074101,-0.00506173,0.00020961,-0.00005179,-0.
 00024005,-0.00008979,-0.00003706,0.00155687,0.00044152,0.00008601,-0.0
 0019513,0.00070176,-0.00696003,0.01399929,-0.00024905,0.00005763,-0.00
 014439,0.00000408,-0.00000136,-0.00000395,0.00032436,-0.00005430,-0.00
 011786,0.00052919,0.00005965,-0.00090638,-0.00002061,0.00002041,0.0003
 2108,0.00003058,-0.00001291,0.00008542,-0.00476250,-0.02588558,-0.0664
 1549,-0.00217364,-0.00336730,0.00921670,0.00290473,0.00035482,0.000494
 53,-0.00030425,-0.00002717,0.00285443,0.00590867,0.03588852,0.03342836
 ,-0.00096859,0.00090582,-0.00180026,-0.00000445,0.00027721,0.00007932,
 0.00005451,-0.00005553,0.00017190,-0.00016631,0.00007911,0.00000015,-0
 .00140142,-0.00406168,0.00050529,-0.00011415,-0.00001100,0.00018360,-0
 .00003176,-0.00000611,-0.00000063,-0.00012149,-0.00036989,-0.00011060,
 -0.00009266,-0.00000641,-0.00014564,0.00002142,0.00001750,-0.00003492,
 -0.00001955,0.00000142,0.00000749,-0.02847487,0.01410346,0.03223681,-0
 .08403921,0.03380715,0.08548951,0.00654800,-0.00493721,-0.01070124,0.0
 0278403,-0.00106728,-0.00476069,0.00398073,0.00225925,-0.00262646,0.10
 205679,-0.00014123,0.00037895,0.00023631,0.00004975,0.00001130,0.00001
 536,0.00004706,0.00002930,-0.00007381,0.00001363,0.00005256,0.00000045
 ,0.00049223,-0.00095966,-0.00007584,-0.00006067,-0.00002326,0.00002610
 ,-0.00000142,-0.00000098,-0.00000141,0.00002249,-0.00006611,-0.0000359
 9,0.00002465,0.00001205,0.00005260,-0.00001189,0.00001128,-0.00001341,
 0.00000712,-0.00000075,0.00000123,-0.00363504,0.00111010,0.00693737,0.
 03869338,-0.08428122,-0.08615720,-0.00634301,0.00589371,0.01386059,0.0
 1240816,-0.00787810,-0.02576839,-0.00064468,0.00101440,-0.00027692,-0.
 04098779,0.08427254,0.00009556,0.00010471,-0.00038390,-0.00003996,-0.0
 0007968,0.00002443,0.00000783,-0.00000229,0.00000180,0.00002565,-0.000
 00738,0.00000019,-0.00089454,0.00064037,0.00028614,0.00002081,0.000037
 43,0.00002216,-0.00000190,0.00000051,-0.00000311,-0.00006524,0.0000579
 3,0.00001960,0.00005290,0.00000242,-0.00000636,0.00000074,0.00000544,-
 0.00000650,0.00000256,-0.00000138,-0.00000394,-0.00047081,-0.00067694,
 0.00431434,0.09267948,-0.08425396,-0.24685938,0.00977001,-0.01011259,-
 0.02002032,-0.00117164,0.00120676,0.00062167,-0.00071620,0.00128117,0.
 00064476,-0.09918664,0.09168689,0.26125066,-0.00802469,-0.02636916,-0.
 00186776,-0.00480926,0.00199829,0.00016078,-0.00000158,-0.00172958,-0.
 00012236,0.00012340,0.00005296,0.00000390,-0.09998757,-0.11115037,-0.0
 0777798,-0.00003454,0.00059610,0.00004237,-0.00007590,-0.00001126,-0.0
 0000061,0.00062183,-0.00279631,-0.00020524,-0.00005577,0.00005961,0.00
 000383,-0.00051426,0.00123295,0.00009041,-0.00038496,0.00007055,0.0000
 0518,0.00895396,0.02717989,0.00190982,-0.00130228,0.00187203,0.0001269
 8,-0.00008610,0.00006274,0.00010187,-0.00209582,0.00158252,0.00012107,
 -0.00285865,0.00266057,0.00022387,-0.00008295,0.00007436,-0.00009127,0
 .11062146,0.00074005,-0.00144926,-0.00013741,0.00031138,0.00101897,-0.
 00013212,0.00020042,-0.00018289,-0.00004192,-0.00001684,0.00014580,-0.
 00000159,-0.09937267,-0.29637929,-0.01930550,-0.00023099,0.00014726,0.
 00002113,-0.00000960,-0.00000883,-0.00000122,0.00183658,0.00090935,0.0
 0017051,0.00010832,-0.00001884,0.00001560,-0.00005133,0.00040495,0.000
 00239,-0.00004717,0.00002212,0.00002342,-0.01220336,-0.03065693,-0.001
 71786,-0.00198290,-0.00069792,0.00026041,0.00015453,0.00036974,-0.0000
 6896,0.00065786,0.00162569,0.00004849,0.00539376,0.00288573,-0.0005771
 8,0.00005045,0.00042109,0.00010753,0.10441801,0.32142145,0.00007455,-0
 .00007202,0.00044388,0.00004076,-0.00013581,0.00283761,0.00001563,-0.0
 0003719,0.00039368,-0.00000133,-0.00000165,0.00016810,-0.00693538,-0.0
 1927556,-0.02493346,-0.00001671,0.00001906,-0.00013772,-0.00000048,-0.
 00000120,0.00000834,0.00012610,0.00018171,-0.00151865,0.00000720,0.000
 01559,-0.00023934,-0.00000163,-0.00000067,0.00037173,-0.00000309,0.000
 02309,-0.00030143,-0.00091077,-0.00181681,-0.00637689,-0.00014901,0.00
 024975,-0.00424015,-0.00072037,0.00046156,0.00014925,0.00005480,0.0000
 4660,0.00092792,0.00041964,-0.00056824,0.01070889,0.00073579,-0.000422
 12,0.00009552,0.00726114,0.02133219,0.02165145,-0.00718237,0.00045132,
 0.00004729,0.00911126,0.00524462,0.00037169,-0.03845703,0.01775350,0.0
 0135774,-0.11771265,-0.00115859,-0.00000356,0.00765199,-0.00320713,-0.
 00025061,-0.03503996,-0.02104002,-0.00143001,0.00148021,0.00394059,0.0
 0026999,0.01029974,-0.00495268,-0.00036224,0.00066956,-0.00014132,-0.0
 0000980,0.00057065,0.00051896,0.00003788,0.00172789,-0.00354239,-0.000
 26802,-0.00200745,0.01064986,0.00076646,-0.00156211,-0.00039835,-0.000
 02345,0.00030662,-0.00003617,0.00006299,0.00029236,0.00025320,0.000017
 46,-0.00069780,-0.00745197,-0.00053226,0.00030571,-0.00002665,-0.00006
 900,0.00020256,0.00021325,0.00001495,0.64753380,-0.00007664,-0.0045742
 8,-0.00022564,0.00600414,-0.00696600,-0.00110284,0.02409130,0.01570315
 ,0.00108000,-0.00020145,-0.10723065,-0.00156611,0.00020832,-0.00064833
 ,0.00005475,-0.02830572,0.01159290,0.00092008,-0.00034349,-0.00347730,
 0.00007947,-0.00461962,-0.00749681,-0.00109903,0.00155313,0.00054908,-
 0.00003263,-0.00190064,0.00012168,-0.00005399,0.00070982,-0.00376292,0
 .00006679,0.00016070,0.00066530,0.00004871,-0.00008006,-0.00001465,-0.
 00003089,0.00002272,0.00001095,0.00000854,0.00001399,0.00000199,-0.000
 00057,-0.00002156,-0.00043700,-0.00000247,0.00003034,0.00001105,-0.000
 00746,-0.00001893,0.00001272,-0.00000049,-0.01020296,0.96575634,0.0000
 0748,-0.00022844,-0.00142785,0.00042994,-0.00110007,0.00818295,0.00180
 457,0.00109867,-0.00011515,0.00005129,-0.00156195,-0.08538752,-0.00000
 535,0.00006202,-0.00141533,-0.00194368,0.00090274,-0.00027782,-0.00003
 908,0.00006951,-0.00457357,-0.00033603,-0.00109825,0.00792516,0.000112
 11,-0.00002872,0.00095076,-0.00013505,-0.00005965,0.00093363,0.0000368
 5,0.00007421,-0.00471435,0.00001606,0.00002585,-0.00001957,-0.00000124
 ,-0.00003024,0.00041713,0.00005472,-0.00000651,0.00000234,0.00000036,-
 0.00000112,0.00000958,-0.00000146,0.00001389,-0.00040106,-0.00005223,0
 .00000790,0.00000278,-0.00000181,-0.00000104,0.00002021,-0.00162033,0.
 05241677,0.24032055,0.00132713,0.00138043,0.00009543,-0.00359317,0.001
 48986,0.00011096,-0.00384409,-0.00789329,-0.00054841,-0.04245881,0.049
 71173,0.00370691,-0.00168673,0.00089967,0.00006888,-0.00264265,0.00223
 449,0.00016896,-0.00461260,0.00032338,0.00003386,-0.00064847,0.0016188
 9,0.00011606,-0.00071855,-0.00033030,-0.00002299,-0.00021441,-0.000182
 06,-0.00001244,0.00041613,0.00016546,0.00001256,0.00042217,-0.00293462
 ,-0.00021086,0.00053692,0.00014517,0.00000873,-0.00011804,0.00001237,-
 0.00002236,-0.00010717,-0.00009418,-0.00000650,-0.00020932,0.00216590,
 0.00015582,-0.00011776,0.00000900,0.00002446,-0.00013316,-0.00010081,-
 0.00000699,-0.25173555,0.18873220,0.01393876,0.26337428,-0.00271856,0.
 00046193,0.00002845,0.00167107,0.00117965,0.00017681,-0.00057314,0.002
 86234,-0.00001262,0.03478855,-0.00986165,-0.00224888,0.00237643,-0.000
 14032,-0.00002939,-0.00894231,-0.00783265,-0.00060276,-0.00052696,0.00
 367053,0.00026961,0.00316607,0.00109322,0.00011376,0.00019058,0.000097
 42,0.00004195,0.00026125,0.00002782,0.00000066,-0.00158575,0.00130895,
 0.00006040,-0.00095783,0.00164455,0.00012095,-0.00023111,-0.00002459,0
 .00000537,0.00002853,-0.00001166,0.00000033,0.00006598,0.00006139,0.00
 000459,0.00010612,-0.00100476,-0.00008165,0.00002718,-0.00001151,-0.00
 000208,0.00010946,0.00003406,0.00000425,0.17880907,-0.41548300,-0.0246
 0285,-0.22772408,0.53716232,-0.00019768,0.00001920,0.00015733,0.000124
 76,0.00017608,-0.00132210,-0.00002476,0.00000464,0.00306093,0.00264253
 ,-0.00228479,0.02022690,0.00017458,-0.00002561,0.00018784,-0.00063457,
 -0.00062799,0.00081590,-0.00002726,0.00026733,-0.00005141,0.00022743,0
 .00011730,-0.00059365,0.00001405,0.00004322,-0.00049243,0.00001916,0.0
 0000163,0.00001115,-0.00011398,0.00005838,0.00049907,-0.00006970,0.000
 12518,-0.00000433,-0.00001797,0.00000443,-0.00009025,-0.00000666,-0.00
 000118,-0.00000039,0.00000496,0.00000497,-0.00000465,0.00000862,-0.000
 08622,0.00012641,0.00001116,-0.00000048,-0.00000066,0.00000809,0.00000
 472,-0.00002831,0.01322045,-0.02461759,-0.08025242,-0.01687569,0.03701
 578,0.03158218,0.00131632,-0.00154048,-0.00011285,-0.00017744,-0.00143
 853,-0.00010338,-0.00299386,-0.00208664,-0.00014329,-0.03588328,-0.051
 34483,-0.00356933,-0.00172961,0.00086881,0.00006636,-0.00449886,0.0070
 5300,0.00052085,0.00030850,-0.00024371,-0.00001744,-0.00328290,-0.0014
 5393,-0.00009798,-0.00015350,-0.00002028,-0.00000122,-0.00098160,-0.00
 007503,-0.00000384,-0.00460027,-0.00096607,-0.00006037,0.00042943,-0.0
 0318764,-0.00022897,0.00053605,0.00013796,0.00000837,-0.00011629,0.000
 01426,-0.00002487,-0.00009286,-0.00007678,-0.00000529,-0.00005173,0.00
 245375,0.00017583,-0.00011604,0.00001053,0.00002720,-0.00007571,-0.000
 06897,-0.00000481,-0.22575743,-0.17575558,-0.01231588,0.04676383,0.021
 65944,0.00151248,0.23115726,0.00284787,0.00045329,0.00001227,-0.003146
 76,0.00091493,0.00011646,0.00926105,-0.00746833,-0.00061089,-0.0370595
 1,-0.01619666,-0.00253690,-0.00275299,0.00124731,0.00008917,-0.0000284
 3,0.00326032,0.00001283,0.00153377,0.00141816,0.00006081,-0.00201629,0
 .00125382,0.00018247,-0.00042066,-0.00006105,-0.00000355,-0.00027648,-
 0.00002606,0.00003318,-0.00000474,0.00356497,0.00025677,0.00074216,-0.
 00274423,-0.00019944,0.00031054,0.00006523,0.00000668,-0.00005582,0.00
 000508,-0.00001162,-0.00005510,-0.00004389,-0.00000276,0.00031645,0.00
 183573,0.00012766,-0.00005600,0.00000327,0.00001261,0.00010556,-0.0000
 2495,-0.00000204,-0.16567615,-0.44433423,-0.02595273,-0.00962922,-0.11
 523406,-0.01019900,0.20606072,0.57211137,0.00020192,0.00002359,0.00018
 196,-0.00022787,0.00011144,-0.00060130,0.00067380,-0.00058851,0.000763
 00,-0.00253699,-0.00250360,0.02001831,-0.00019367,0.00008100,0.0000977
 9,0.00001281,-0.00000191,0.00308119,0.00011077,0.00006609,0.00051210,-
 0.00013975,0.00017925,-0.00120094,-0.00002981,-0.00000455,0.00000346,-
 0.00001897,0.00003262,-0.00047670,0.00000936,0.00025891,-0.00000053,0.
 00005241,-0.00019112,0.00000406,0.00002099,0.00000716,-0.00003847,-0.0
 0000579,-0.00000012,-0.00000157,-0.00000375,-0.00000272,-0.00000378,0.
 00002290,0.00012335,0.00004931,-0.00000173,0.00000077,0.00000011,0.000
 00773,-0.00000160,-0.00000064,-0.01159761,-0.02593539,-0.08018047,-0.0
 0073517,-0.01026269,0.02617287,0.01437842,0.03860801,0.03162024\\0.000
 01749,0.00000110,0.00001036,0.00002913,-0.00005833,-0.00000941,-0.0000
 0776,-0.00004413,-0.00000387,-0.00002720,0.00000243,0.00001165,0.00000
 829,0.00003461,-0.00000092,-0.00001550,0.00004204,0.00000651,0.0000234
 1,-0.00004805,-0.00000759,-0.00001420,-0.00001388,-0.00000356,-0.00002
 875,0.00005428,0.00000238,0.00000299,0.00001031,-0.00000170,0.00001679
 ,0.00004369,-0.00000025,0.00002116,0.00015129,0.00002257,-0.00004134,0
 .00005127,0.00003483,0.00000794,-0.00003831,0.00004102,0.00001052,0.00
 006531,0.00000319,-0.00003186,-0.00016512,-0.00001641,0.00002254,-0.00
 004359,-0.00007839,-0.00000716,-0.00003456,-0.00000471,-0.00001989,0.0
 0000404,-0.00002286,0.00001787,-0.00001252,0.00000689,0.00001552,-0.00
 000188,0.00001029\\\@
 Job cpu time:       0 days 21 hours 53 minutes 43.4 seconds.
 File lengths (MBytes):  RWF= 133148 Int=      0 D2E=      0 Chk=    126 Scr=      1
 Normal termination of Gaussian 09 at Fri Aug 27 14:21:03 2021.
