 Entering Gaussian System, Link 0=g09
 Input=G4.NIVPAJ.gjf
 Output=G4.NIVPAJ.log
 Initial command:
 /public/home/users/caep010/software/Gaussian09/g09/l1.exe "/public/home/users/caep010/.cache/gau_scr/Gau-4686.inp" -scrdir="/public/home/users/caep010/.cache/gau_scr/"
 Entering Link 1 = /public/home/users/caep010/software/Gaussian09/g09/l1.exe PID=      4687.
  
 Copyright (c) 1988,1990,1992,1993,1995,1998,2003,2009,2015,
            Gaussian, Inc.  All Rights Reserved.
  
 This is part of the Gaussian(R) 09 program.  It is based on
 the Gaussian(R) 03 system (copyright 2003, Gaussian, Inc.),
 the Gaussian(R) 98 system (copyright 1998, Gaussian, Inc.),
 the Gaussian(R) 94 system (copyright 1995, Gaussian, Inc.),
 the Gaussian 92(TM) system (copyright 1992, Gaussian, Inc.),
 the Gaussian 90(TM) system (copyright 1990, Gaussian, Inc.),
 the Gaussian 88(TM) system (copyright 1988, Gaussian, Inc.),
 the Gaussian 86(TM) system (copyright 1986, Carnegie Mellon
 University), and the Gaussian 82(TM) system (copyright 1983,
 Carnegie Mellon University). Gaussian is a federally registered
 trademark of Gaussian, Inc.
  
 This software contains proprietary and confidential information,
 including trade secrets, belonging to Gaussian, Inc.
  
 This software is provided under written license and may be
 used, copied, transmitted, or stored only in accord with that
 written license.
  
 The following legend is applicable only to US Government
 contracts under FAR:
  
                    RESTRICTED RIGHTS LEGEND
  
 Use, reproduction and disclosure by the US Government is
 subject to restrictions as set forth in subparagraphs (a)
 and (c) of the Commercial Computer Software - Restricted
 Rights clause in FAR 52.227-19.
  
 Gaussian, Inc.
 340 Quinnipiac St., Bldg. 40, Wallingford CT 06492
  
  
 ---------------------------------------------------------------
 Warning -- This program may not be used in any manner that
 competes with the business of Gaussian, Inc. or will provide
 assistance to any competitor of Gaussian, Inc.  The licensee
 of this program is prohibited from giving any competitor of
 Gaussian, Inc. access to this program.  By using this program,
 the user acknowledges that Gaussian, Inc. is engaged in the
 business of creating and licensing software in the field of
 computational chemistry and represents and warrants to the
 licensee that it is not a competitor of Gaussian, Inc. and that
 it will not use this program in any manner prohibited above.
 ---------------------------------------------------------------
  

 Cite this work as:
 Gaussian 09, Revision E.01,
 M. J. Frisch, G. W. Trucks, H. B. Schlegel, G. E. Scuseria, 
 M. A. Robb, J. R. Cheeseman, G. Scalmani, V. Barone, B. Mennucci, 
 G. A. Petersson, H. Nakatsuji, M. Caricato, X. Li, H. P. Hratchian, 
 A. F. Izmaylov, J. Bloino, G. Zheng, J. L. Sonnenberg, M. Hada, 
 M. Ehara, K. Toyota, R. Fukuda, J. Hasegawa, M. Ishida, T. Nakajima, 
 Y. Honda, O. Kitao, H. Nakai, T. Vreven, J. A. Montgomery, Jr., 
 J. E. Peralta, F. Ogliaro, M. Bearpark, J. J. Heyd, E. Brothers, 
 K. N. Kudin, V. N. Staroverov, T. Keith, R. Kobayashi, J. Normand, 
 K. Raghavachari, A. Rendell, J. C. Burant, S. S. Iyengar, J. Tomasi, 
 M. Cossi, N. Rega, J. M. Millam, M. Klene, J. E. Knox, J. B. Cross, 
 V. Bakken, C. Adamo, J. Jaramillo, R. Gomperts, R. E. Stratmann, 
 O. Yazyev, A. J. Austin, R. Cammi, C. Pomelli, J. W. Ochterski, 
 R. L. Martin, K. Morokuma, V. G. Zakrzewski, G. A. Voth, 
 P. Salvador, J. J. Dannenberg, S. Dapprich, A. D. Daniels, 
 O. Farkas, J. B. Foresman, J. V. Ortiz, J. Cioslowski, 
 and D. J. Fox, Gaussian, Inc., Wallingford CT, 2013.
 
 ******************************************
 Gaussian 09:  ES64L-G09RevE.01 30-Nov-2015
                27-Aug-2021 
 ******************************************
 %nproc=32
 Will use up to   32 processors via shared memory.
 %mem=180GB
 ----------------
 #P G4 OPT=calcfc
 ----------------
 1/10=4,14=-1,18=20,19=15,26=3,38=1/1,3;
 2/9=110,12=2,17=6,18=5,40=1/2;
 3/5=35,7=104,11=2,16=1,25=1,30=1,71=2,74=-5,140=1/1,2,3;
 4//1;
 5/5=2,38=5/2;
 8/6=4,10=90,11=11/1;
 11/6=1,8=1,9=11,15=111,16=1/1,2,10;
 10/6=1,13=1/2;
 6/7=2,8=2,9=2,10=2,28=1/1;
 7/10=1,18=20,25=1/1,2,3,16;
 1/10=4,14=-1,18=20,19=15,26=3/3(2);
 2/9=110/2;
 99//99;
 2/9=110/2;
 3/5=35,7=104,11=2,16=1,25=1,30=1,71=1,74=-5/1,2,3;
 4/5=5,16=3,69=1/1;
 5/5=2,38=5/2;
 7//1,2,3,16;
 1/14=-1,18=20,19=15,26=3/3(-5);
 2/9=110/2;
 6/7=2,8=2,9=2,10=2,19=2,28=1/1;
 99/9=1/99;
 Leave Link    1 at Fri Aug 27 06:51:55 2021, MaxMem= 24159191040 cpu:         3.2
 (Enter /public/home/users/caep010/software/Gaussian09/g09/l101.exe)
 ------
 NIVPAJ
 ------
 Symbolic Z-matrix:
 Charge =  0 Multiplicity = 1
 C                     2.4264    6.3697    6.4393 
 C                     1.9505    6.537     5.1691 
 H                     1.1133    6.312     4.9521 
 C                     3.7381    6.7621    6.7522 
 H                     4.0906    6.6234    7.6046 
 C                     4.534     7.3104    5.7904 
 H                     5.4074    7.5869    6.0264 
 C                     1.5637    5.7833    7.5231 
 C                     4.0499    7.4823    4.48 
 N                     4.936     8.0598    3.5276 
 O                     4.5512    8.2154    2.35 
 O                     6.0652    8.4023    3.8689 
 H                     2.0485    5.0988    8.0165 
 H                     1.2851    6.4676    8.1426 
 C                     2.7343    7.0997    4.136 
 N                     2.1929    7.2208    2.9098 
 H                     1.3678    7.0799    2.8242 
 H                     2.6274    7.697     2.2973 
 O                     0.376     5.2619    7.0095 
 H                    -0.2608    5.2194    7.6199 
 
 NAtoms=     20 NQM=       20 NQMF=       0 NMMI=      0 NMMIF=      0
                NMic=       0 NMicF=      0.
                    Isotopes and Nuclear Properties:
 (Nuclear quadrupole moments (NQMom) in fm**2, nuclear magnetic moments (NMagM)
  in nuclear magnetons)

  Atom         1           2           3           4           5           6           7           8           9          10
 IAtWgt=          12          12           1          12           1          12           1          12          12          14
 AtmWgt=  12.0000000  12.0000000   1.0078250  12.0000000   1.0078250  12.0000000   1.0078250  12.0000000  12.0000000  14.0030740
 NucSpn=           0           0           1           0           1           0           1           0           0           2
 AtZEff=   0.0000000   0.0000000   0.0000000   0.0000000   0.0000000   0.0000000   0.0000000   0.0000000   0.0000000   0.0000000
 NQMom=    0.0000000   0.0000000   0.0000000   0.0000000   0.0000000   0.0000000   0.0000000   0.0000000   0.0000000   2.0440000
 NMagM=    0.0000000   0.0000000   2.7928460   0.0000000   2.7928460   0.0000000   2.7928460   0.0000000   0.0000000   0.4037610
 AtZNuc=   6.0000000   6.0000000   1.0000000   6.0000000   1.0000000   6.0000000   1.0000000   6.0000000   6.0000000   7.0000000

  Atom        11          12          13          14          15          16          17          18          19          20
 IAtWgt=          16          16           1           1          12          14           1           1          16           1
 AtmWgt=  15.9949146  15.9949146   1.0078250   1.0078250  12.0000000  14.0030740   1.0078250   1.0078250  15.9949146   1.0078250
 NucSpn=           0           0           1           1           0           2           1           1           0           1
 AtZEff=   0.0000000   0.0000000   0.0000000   0.0000000   0.0000000   0.0000000   0.0000000   0.0000000   0.0000000   0.0000000
 NQMom=    0.0000000   0.0000000   0.0000000   0.0000000   0.0000000   2.0440000   0.0000000   0.0000000   0.0000000   0.0000000
 NMagM=    0.0000000   0.0000000   2.7928460   2.7928460   0.0000000   0.4037610   2.7928460   2.7928460   0.0000000   2.7928460
 AtZNuc=   8.0000000   8.0000000   1.0000000   1.0000000   6.0000000   7.0000000   1.0000000   1.0000000   8.0000000   1.0000000
 Leave Link  101 at Fri Aug 27 06:51:56 2021, MaxMem= 24159191040 cpu:         9.8
 (Enter /public/home/users/caep010/software/Gaussian09/g09/l103.exe)

 GradGradGradGradGradGradGradGradGradGradGradGradGradGradGradGradGradGrad
 Berny optimization.
 Initialization pass.
                           ----------------------------
                           !    Initial Parameters    !
                           ! (Angstroms and Degrees)  !
 --------------------------                            --------------------------
 ! Name  Definition              Value          Derivative Info.                !
 --------------------------------------------------------------------------------
 ! R1    R(1,2)                  1.3667         calculate D2E/DX2 analytically  !
 ! R2    R(1,4)                  1.4044         calculate D2E/DX2 analytically  !
 ! R3    R(1,8)                  1.5042         calculate D2E/DX2 analytically  !
 ! R4    R(2,3)                  0.8937         calculate D2E/DX2 analytically  !
 ! R5    R(2,15)                 1.4136         calculate D2E/DX2 analytically  !
 ! R6    R(4,5)                  0.9328         calculate D2E/DX2 analytically  !
 ! R7    R(4,6)                  1.3635         calculate D2E/DX2 analytically  !
 ! R8    R(6,7)                  0.946          calculate D2E/DX2 analytically  !
 ! R9    R(6,9)                  1.4075         calculate D2E/DX2 analytically  !
 ! R10   R(8,13)                 0.9731         calculate D2E/DX2 analytically  !
 ! R11   R(8,14)                 0.9642         calculate D2E/DX2 analytically  !
 ! R12   R(8,19)                 1.3951         calculate D2E/DX2 analytically  !
 ! R13   R(9,10)                 1.4233         calculate D2E/DX2 analytically  !
 ! R14   R(9,15)                 1.4126         calculate D2E/DX2 analytically  !
 ! R15   R(10,11)                1.2486         calculate D2E/DX2 analytically  !
 ! R16   R(10,12)                1.2284         calculate D2E/DX2 analytically  !
 ! R17   R(15,16)                1.3459         calculate D2E/DX2 analytically  !
 ! R18   R(16,17)                0.8414         calculate D2E/DX2 analytically  !
 ! R19   R(16,18)                0.8892         calculate D2E/DX2 analytically  !
 ! R20   R(19,20)                0.8831         calculate D2E/DX2 analytically  !
 ! A1    A(2,1,4)              119.8729         calculate D2E/DX2 analytically  !
 ! A2    A(2,1,8)              121.174          calculate D2E/DX2 analytically  !
 ! A3    A(4,1,8)              118.9495         calculate D2E/DX2 analytically  !
 ! A4    A(1,2,3)              121.4041         calculate D2E/DX2 analytically  !
 ! A5    A(1,2,15)             122.3357         calculate D2E/DX2 analytically  !
 ! A6    A(3,2,15)             116.2445         calculate D2E/DX2 analytically  !
 ! A7    A(1,4,5)              120.9974         calculate D2E/DX2 analytically  !
 ! A8    A(1,4,6)              120.0245         calculate D2E/DX2 analytically  !
 ! A9    A(5,4,6)              118.9344         calculate D2E/DX2 analytically  !
 ! A10   A(4,6,7)              118.7157         calculate D2E/DX2 analytically  !
 ! A11   A(4,6,9)              120.3361         calculate D2E/DX2 analytically  !
 ! A12   A(7,6,9)              120.937          calculate D2E/DX2 analytically  !
 ! A13   A(1,8,13)             110.7196         calculate D2E/DX2 analytically  !
 ! A14   A(1,8,14)             110.6079         calculate D2E/DX2 analytically  !
 ! A15   A(1,8,19)             111.6355         calculate D2E/DX2 analytically  !
 ! A16   A(13,8,14)            108.5052         calculate D2E/DX2 analytically  !
 ! A17   A(13,8,19)            110.3585         calculate D2E/DX2 analytically  !
 ! A18   A(14,8,19)            104.8206         calculate D2E/DX2 analytically  !
 ! A19   A(6,9,10)             117.2851         calculate D2E/DX2 analytically  !
 ! A20   A(6,9,15)             120.9279         calculate D2E/DX2 analytically  !
 ! A21   A(10,9,15)            121.7864         calculate D2E/DX2 analytically  !
 ! A22   A(9,10,11)            119.3273         calculate D2E/DX2 analytically  !
 ! A23   A(9,10,12)            119.9684         calculate D2E/DX2 analytically  !
 ! A24   A(11,10,12)           120.704          calculate D2E/DX2 analytically  !
 ! A25   A(2,15,9)             116.5019         calculate D2E/DX2 analytically  !
 ! A26   A(2,15,16)            118.5953         calculate D2E/DX2 analytically  !
 ! A27   A(9,15,16)            124.8992         calculate D2E/DX2 analytically  !
 ! A28   A(15,16,17)           118.1703         calculate D2E/DX2 analytically  !
 ! A29   A(15,16,18)           118.6324         calculate D2E/DX2 analytically  !
 ! A30   A(17,16,18)           119.9181         calculate D2E/DX2 analytically  !
 ! A31   A(8,19,20)            112.1735         calculate D2E/DX2 analytically  !
 ! D1    D(4,1,2,3)           -178.574          calculate D2E/DX2 analytically  !
 ! D2    D(4,1,2,15)            -0.0692         calculate D2E/DX2 analytically  !
 ! D3    D(8,1,2,3)              0.7388         calculate D2E/DX2 analytically  !
 ! D4    D(8,1,2,15)           179.2436         calculate D2E/DX2 analytically  !
 ! D5    D(2,1,4,5)           -177.4871         calculate D2E/DX2 analytically  !
 ! D6    D(2,1,4,6)              0.0832         calculate D2E/DX2 analytically  !
 ! D7    D(8,1,4,5)              3.1847         calculate D2E/DX2 analytically  !
 ! D8    D(8,1,4,6)           -179.245          calculate D2E/DX2 analytically  !
 ! D9    D(2,1,8,13)           133.1836         calculate D2E/DX2 analytically  !
 ! D10   D(2,1,8,14)          -106.5001         calculate D2E/DX2 analytically  !
 ! D11   D(2,1,8,19)             9.8046         calculate D2E/DX2 analytically  !
 ! D12   D(4,1,8,13)           -47.4973         calculate D2E/DX2 analytically  !
 ! D13   D(4,1,8,14)            72.819          calculate D2E/DX2 analytically  !
 ! D14   D(4,1,8,19)          -170.8763         calculate D2E/DX2 analytically  !
 ! D15   D(1,2,15,9)             0.1856         calculate D2E/DX2 analytically  !
 ! D16   D(1,2,15,16)          179.5348         calculate D2E/DX2 analytically  !
 ! D17   D(3,2,15,9)           178.7627         calculate D2E/DX2 analytically  !
 ! D18   D(3,2,15,16)           -1.8881         calculate D2E/DX2 analytically  !
 ! D19   D(1,4,6,7)            178.5736         calculate D2E/DX2 analytically  !
 ! D20   D(1,4,6,9)             -0.2207         calculate D2E/DX2 analytically  !
 ! D21   D(5,4,6,7)             -3.8062         calculate D2E/DX2 analytically  !
 ! D22   D(5,4,6,9)            177.3995         calculate D2E/DX2 analytically  !
 ! D23   D(4,6,9,10)          -179.9436         calculate D2E/DX2 analytically  !
 ! D24   D(4,6,9,15)             0.348          calculate D2E/DX2 analytically  !
 ! D25   D(7,6,9,10)             1.2892         calculate D2E/DX2 analytically  !
 ! D26   D(7,6,9,15)          -178.4192         calculate D2E/DX2 analytically  !
 ! D27   D(1,8,19,20)         -156.7922         calculate D2E/DX2 analytically  !
 ! D28   D(13,8,19,20)          79.6243         calculate D2E/DX2 analytically  !
 ! D29   D(14,8,19,20)         -37.015          calculate D2E/DX2 analytically  !
 ! D30   D(6,9,10,11)          179.1729         calculate D2E/DX2 analytically  !
 ! D31   D(6,9,10,12)           -1.0086         calculate D2E/DX2 analytically  !
 ! D32   D(15,9,10,11)          -1.1213         calculate D2E/DX2 analytically  !
 ! D33   D(15,9,10,12)         178.6972         calculate D2E/DX2 analytically  !
 ! D34   D(6,9,15,2)            -0.3205         calculate D2E/DX2 analytically  !
 ! D35   D(6,9,15,16)         -179.6237         calculate D2E/DX2 analytically  !
 ! D36   D(10,9,15,2)          179.9843         calculate D2E/DX2 analytically  !
 ! D37   D(10,9,15,16)           0.6811         calculate D2E/DX2 analytically  !
 ! D38   D(2,15,16,17)          10.117          calculate D2E/DX2 analytically  !
 ! D39   D(2,15,16,18)         169.6671         calculate D2E/DX2 analytically  !
 ! D40   D(9,15,16,17)        -170.5932         calculate D2E/DX2 analytically  !
 ! D41   D(9,15,16,18)         -11.0431         calculate D2E/DX2 analytically  !
 --------------------------------------------------------------------------------
 Trust Radius=3.00D-01 FncErr=1.00D-07 GrdErr=1.00D-06
 Number of steps in this run=    102 maximum allowed number of steps=    120.
 GradGradGradGradGradGradGradGradGradGradGradGradGradGradGradGradGradGrad

 Leave Link  103 at Fri Aug 27 06:51:56 2021, MaxMem= 24159191040 cpu:         0.4
 (Enter /public/home/users/caep010/software/Gaussian09/g09/l202.exe)
                          Input orientation:                          
 ---------------------------------------------------------------------
 Center     Atomic      Atomic             Coordinates (Angstroms)
 Number     Number       Type             X           Y           Z
 ---------------------------------------------------------------------
      1          6           0        2.426400    6.369700    6.439300
      2          6           0        1.950500    6.537000    5.169100
      3          1           0        1.113300    6.312000    4.952100
      4          6           0        3.738100    6.762100    6.752200
      5          1           0        4.090600    6.623400    7.604600
      6          6           0        4.534000    7.310400    5.790400
      7          1           0        5.407400    7.586900    6.026400
      8          6           0        1.563700    5.783300    7.523100
      9          6           0        4.049900    7.482300    4.480000
     10          7           0        4.936000    8.059800    3.527600
     11          8           0        4.551200    8.215400    2.350000
     12          8           0        6.065200    8.402300    3.868900
     13          1           0        2.048500    5.098800    8.016500
     14          1           0        1.285100    6.467600    8.142600
     15          6           0        2.734300    7.099700    4.136000
     16          7           0        2.192900    7.220800    2.909800
     17          1           0        1.367800    7.079900    2.824200
     18          1           0        2.627400    7.697000    2.297300
     19          8           0        0.376000    5.261900    7.009500
     20          1           0       -0.260800    5.219400    7.619900
 ---------------------------------------------------------------------
                    Distance matrix (angstroms):
                    1          2          3          4          5
     1  C    0.000000
     2  C    1.366703   0.000000
     3  H    1.984773   0.893654   0.000000
     4  C    1.404436   2.398414   3.214425   0.000000
     5  H    2.047401   3.243324   3.999630   0.932781   0.000000
     6  C    2.397491   2.767424   3.660702   1.363506   1.989948
     7  H    3.246294   3.713140   4.606385   1.998410   2.270024
     8  C    1.504240   2.501798   2.663161   2.506063   2.664138
     9  C    2.777137   2.403317   3.196263   2.403914   3.240755
    10  N    4.199110   3.731843   4.438135   3.676552   4.404529
    11  O    4.964248   4.186644   4.713068   4.706652   5.509758
    12  O    4.896865   4.701130   5.483064   4.052045   4.584647
    13  H    2.060474   3.191506   3.425931   2.686963   2.581519
    14  H    2.052652   3.047831   3.198909   2.834987   2.860865
    15  C    2.435753   1.413602   1.978416   2.822426   3.754677
    16  N    3.638168   2.372926   2.482427   4.166784   5.098951
    17  H    3.833271   2.476456   2.276488   4.598750   5.520349
    18  H    4.354112   3.170336   3.355397   4.685491   5.609011
    19  O    2.399268   2.737152   2.424709   3.690599   4.000760
    20  H    3.152467   3.554200   3.193600   4.373103   4.572322
                    6          7          8          9         10
     6  C    0.000000
     7  H    0.946032   0.000000
     8  C    3.762574   4.501901   0.000000
     9  C    1.407498   2.060364   4.281150   0.000000
    10  N    2.417327   2.586475   5.702533   1.423287   0.000000
    11  O    3.557481   3.826749   6.449902   2.307734   1.248609
    12  O    2.688676   2.398413   6.362063   2.298103   1.228367
    13  H    4.003050   4.629616   0.973147   4.710998   6.103720
    14  H    4.098598   4.767021   0.964191   4.699827   6.096097
    15  C    2.453641   3.310051   3.817808   1.412630   2.477786
    16  N    3.713036   4.492242   4.872867   2.445886   2.934313
    17  H    4.344686   5.179720   4.878443   3.177619   3.766567
    18  H    3.998291   4.652602   5.665924   2.614150   2.641003
    19  O    4.792861   5.629129   1.395089   4.982578   6.383218
    20  H    5.541612   6.346085   1.912107   5.793257   7.198717
                   11         12         13         14         15
    11  O    0.000000
    12  O    2.152716   0.000000
    13  H    6.934402   6.652036   0.000000
    14  H    6.875786   6.697532   1.572353   0.000000
    15  C    2.781314   3.586503   4.419525   4.307270   0.000000
    16  N    2.619959   4.160592   5.531918   5.364104   1.345862
    17  H    3.412955   4.990562   5.598936   5.354169   1.894343
    18  H    1.993119   3.845236   6.308329   6.122150   1.936237
    19  O    6.918555   7.217512   1.959058   1.887880   4.146817
    20  H    7.739716   8.013684   2.346210   2.054513   4.964243
                   16         17         18         19         20
    16  N    0.000000
    17  H    0.841410   0.000000
    18  H    0.889220   1.498342   0.000000
    19  O    4.893460   4.669639   5.762234   0.000000
    20  H    5.675499   5.395603   6.542956   0.883124   0.000000
 Stoichiometry    C7H8N2O3
 Framework group  C1[X(C7H8N2O3)]
 Deg. of freedom    54
 Full point group                 C1      NOp   1
 Largest Abelian subgroup         C1      NOp   1
 Largest concise Abelian subgroup C1      NOp   1
                         Standard orientation:                         
 ---------------------------------------------------------------------
 Center     Atomic      Atomic             Coordinates (Angstroms)
 Number     Number       Type             X           Y           Z
 ---------------------------------------------------------------------
      1          6           0       -1.702656   -0.440183    0.023275
      2          6           0       -1.098355    0.785662    0.024725
      3          1           0       -1.576165    1.540337    0.052660
      4          6           0       -0.919699   -1.606037    0.009021
      5          1           0       -1.315334   -2.449979   -0.027230
      6          6           0        0.440669   -1.514196   -0.001628
      7          1           0        0.950149   -2.311242    0.009495
      8          6           0       -3.201032   -0.569694    0.052161
      9          6           0        1.068127   -0.254297   -0.003102
     10          7           0        2.491215   -0.234145   -0.015703
     11          8           0        3.087177    0.862919   -0.033142
     12          8           0        3.119926   -1.289376   -0.006009
     13          1           0       -3.503934   -1.212468   -0.612750
     14          1           0       -3.499556   -0.863924    0.920480
     15          6           0        0.307212    0.935765    0.013719
     16          7           0        0.822207    2.179176    0.006417
     17          1           0        0.300574    2.825957    0.138867
     18          1           0        1.695673    2.279399    0.139556
     19          8           0       -3.827584    0.661522   -0.142302
     20          1           0       -4.647116    0.674068    0.186511
 ---------------------------------------------------------------------
 Rotational constants (GHZ):      2.2208529      0.5653094      0.4519751
 Leave Link  202 at Fri Aug 27 06:51:56 2021, MaxMem= 24159191040 cpu:         0.4
 (Enter /public/home/users/caep010/software/Gaussian09/g09/l301.exe)
 Standard basis: GTBas3 (6D, 7F)
 Ernie: Thresh=  0.10000D-02 Tol=  0.10000D-05 Strict=F.
 There are   412 symmetry adapted cartesian basis functions of A   symmetry.
 There are   376 symmetry adapted basis functions of A   symmetry.
   376 basis functions,   584 primitive gaussians,   412 cartesian basis functions
    44 alpha electrons       44 beta electrons
       nuclear repulsion energy       696.8148997802 Hartrees.
 IExCor=  402 DFT=T Ex+Corr=B3LYP ExCW=0 ScaHFX=  0.200000
 ScaDFX=  0.800000  0.720000  1.000000  0.810000 ScalE2=  1.000000  1.000000
 IRadAn=      0 IRanWt=     -1 IRanGd=            0 ICorTp=0 IEmpDi=  4
 NAtoms=   20 NActive=   20 NUniq=   20 SFac= 1.00D+00 NAtFMM=   60 NAOKFM=F Big=F
 Integral buffers will be    131072 words long.
 Raffenetti 2 integral format.
 Two-electron integral symmetry is turned on.
 Leave Link  301 at Fri Aug 27 06:51:56 2021, MaxMem= 24159191040 cpu:         1.9
 (Enter /public/home/users/caep010/software/Gaussian09/g09/l302.exe)
 NPDir=0 NMtPBC=     1 NCelOv=     1 NCel=       1 NClECP=     1 NCelD=      1
         NCelK=      1 NCelE2=     1 NClLst=     1 CellRange=     0.0.
 One-electron integrals computed using PRISM.
 NBasis=   376 RedAO= T EigKep=  8.29D-05  NBF=   376
 NBsUse=   376 1.00D-06 EigRej= -1.00D+00 NBFU=   376
 Precomputing XC quadrature grid using
 IXCGrd= 4 IRadAn=           0 IRanWt=          -1 IRanGd=           0 AccXCQ= 0.00D+00.
 Generated NRdTot=       0 NPtTot=           0 NUsed=           0 NTot=          32
 NSgBfM=   410   410   410   410   410 MxSgAt=    20 MxSgA2=    20.
 Leave Link  302 at Fri Aug 27 06:51:57 2021, MaxMem= 24159191040 cpu:        17.8
 (Enter /public/home/users/caep010/software/Gaussian09/g09/l303.exe)
 DipDrv:  MaxL=1.
 Leave Link  303 at Fri Aug 27 06:51:57 2021, MaxMem= 24159191040 cpu:         1.0
 (Enter /public/home/users/caep010/software/Gaussian09/g09/l401.exe)
 ExpMin= 1.61D-01 ExpMax= 5.48D+03 ExpMxC= 8.25D+02 IAcc=1 IRadAn=         1 AccDes= 0.00D+00
 Harris functional with IExCor=  402 and IRadAn=       1 diagonalized for initial guess.
 HarFok:  IExCor=  402 AccDes= 0.00D+00 IRadAn=         1 IDoV= 1 UseB2=F ITyADJ=14
 ICtDFT=  3500011 ScaDFX=  1.000000  1.000000  1.000000  1.000000
 FoFCou: FMM=F IPFlag=           0 FMFlag=      100000 FMFlg1=           0
         NFxFlg=           0 DoJE=T BraDBF=F KetDBF=T FulRan=T
         wScrn=  0.000000 ICntrl=     500 IOpCl=  0 I1Cent=   200000004 NGrid=           0
         NMat0=    1 NMatS0=      1 NMatT0=    0 NMatD0=    1 NMtDS0=    0 NMtDT0=    0
 Petite list used in FoFCou.
 Harris En= -606.652187036529    
 JPrj=0 DoOrth=F DoCkMO=F.
 Leave Link  401 at Fri Aug 27 06:51:58 2021, MaxMem= 24159191040 cpu:        19.2
 (Enter /public/home/users/caep010/software/Gaussian09/g09/l502.exe)
 Closed shell SCF:
 Using DIIS extrapolation, IDIIS=  1040.
 Integral symmetry usage will be decided dynamically.
 Keep R1 ints in memory in canonical form, NReq=2547505368.
 IVT=      543950 IEndB=      543950 NGot= 24159191040 MDV= 21646907965
 LenX= 21646907965 LenY= 21646737780
 Requested convergence on RMS density matrix=1.00D-08 within 128 cycles.
 Requested convergence on MAX density matrix=1.00D-06.
 Requested convergence on             energy=1.00D-06.
 No special actions if energy rises.
 FoFCou: FMM=F IPFlag=           0 FMFlag=           0 FMFlg1=           0
         NFxFlg=           0 DoJE=F BraDBF=F KetDBF=F FulRan=T
         wScrn=  0.000000 ICntrl=     600 IOpCl=  0 I1Cent=           0 NGrid=           0
         NMat0=    1 NMatS0=  70876 NMatT0=    0 NMatD0=    1 NMtDS0=    0 NMtDT0=    0
 Symmetry not used in FoFCou.
 Integral accuracy reduced to 1.0D-05 until final iterations.

 Cycle   1  Pass 0  IDiag  1:
 E= -606.094626402345    
 DIIS: error= 3.62D-02 at cycle   1 NSaved=   1.
 NSaved= 1 IEnMin= 1 EnMin= -606.094626402345     IErMin= 1 ErrMin= 3.62D-02
 ErrMax= 3.62D-02  0.00D+00 EMaxC= 1.00D-01 BMatC= 5.34D-01 BMatP= 5.34D-01
 IDIUse=3 WtCom= 6.38D-01 WtEn= 3.62D-01
 Coeff-Com:  0.100D+01
 Coeff-En:   0.100D+01
 Coeff:      0.100D+01
 Gap=     0.126 Goal=   None    Shift=    0.000
 GapD=    0.126 DampG=1.000 DampE=0.500 DampFc=0.5000 IDamp=-1.
 Damping current iteration by 5.00D-01
 RMSDP=4.20D-03 MaxDP=2.73D-01              OVMax= 3.44D-01

 Cycle   2  Pass 0  IDiag  1:
 E= -606.206295909461     Delta-E=       -0.111669507115 Rises=F Damp=T
 DIIS: error= 1.99D-02 at cycle   2 NSaved=   2.
 NSaved= 2 IEnMin= 2 EnMin= -606.206295909461     IErMin= 2 ErrMin= 1.99D-02
 ErrMax= 1.99D-02  0.00D+00 EMaxC= 1.00D-01 BMatC= 8.44D-02 BMatP= 5.34D-01
 IDIUse=3 WtCom= 8.01D-01 WtEn= 1.99D-01
 Coeff-Com:  0.221D+00 0.779D+00
 Coeff-En:   0.357D+00 0.643D+00
 Coeff:      0.248D+00 0.752D+00
 Gap=     0.150 Goal=   None    Shift=    0.000
 RMSDP=1.24D-03 MaxDP=9.80D-02 DE=-1.12D-01 OVMax= 3.25D-01

 Cycle   3  Pass 0  IDiag  1:
 E= -606.492000053040     Delta-E=       -0.285704143579 Rises=F Damp=F
 DIIS: error= 1.12D-02 at cycle   3 NSaved=   3.
 NSaved= 3 IEnMin= 3 EnMin= -606.492000053040     IErMin= 3 ErrMin= 1.12D-02
 ErrMax= 1.12D-02  0.00D+00 EMaxC= 1.00D-01 BMatC= 3.63D-02 BMatP= 8.44D-02
 IDIUse=3 WtCom= 8.88D-01 WtEn= 1.12D-01
 Coeff-Com:  0.632D-01 0.390D+00 0.547D+00
 Coeff-En:   0.000D+00 0.000D+00 0.100D+01
 Coeff:      0.561D-01 0.346D+00 0.598D+00
 Gap=     0.149 Goal=   None    Shift=    0.000
 RMSDP=7.49D-04 MaxDP=4.53D-02 DE=-2.86D-01 OVMax= 8.82D-02

 Cycle   4  Pass 0  IDiag  1:
 E= -606.518150662344     Delta-E=       -0.026150609304 Rises=F Damp=F
 DIIS: error= 4.16D-03 at cycle   4 NSaved=   4.
 NSaved= 4 IEnMin= 4 EnMin= -606.518150662344     IErMin= 4 ErrMin= 4.16D-03
 ErrMax= 4.16D-03  0.00D+00 EMaxC= 1.00D-01 BMatC= 8.92D-03 BMatP= 3.63D-02
 IDIUse=3 WtCom= 9.58D-01 WtEn= 4.16D-02
 Coeff-Com:  0.188D-01 0.928D-01 0.342D+00 0.546D+00
 Coeff-En:   0.000D+00 0.000D+00 0.207D+00 0.793D+00
 Coeff:      0.180D-01 0.889D-01 0.336D+00 0.557D+00
 Gap=     0.148 Goal=   None    Shift=    0.000
 RMSDP=2.92D-04 MaxDP=1.61D-02 DE=-2.62D-02 OVMax= 3.52D-02

 Cycle   5  Pass 0  IDiag  1:
 E= -606.525269167491     Delta-E=       -0.007118505148 Rises=F Damp=F
 DIIS: error= 1.89D-03 at cycle   5 NSaved=   5.
 NSaved= 5 IEnMin= 5 EnMin= -606.525269167491     IErMin= 5 ErrMin= 1.89D-03
 ErrMax= 1.89D-03  0.00D+00 EMaxC= 1.00D-01 BMatC= 1.27D-03 BMatP= 8.92D-03
 IDIUse=3 WtCom= 9.81D-01 WtEn= 1.89D-02
 Coeff-Com:  0.565D-02 0.142D-01 0.150D+00 0.355D+00 0.475D+00
 Coeff-En:   0.000D+00 0.000D+00 0.000D+00 0.870D-01 0.913D+00
 Coeff:      0.555D-02 0.139D-01 0.147D+00 0.350D+00 0.484D+00
 Gap=     0.151 Goal=   None    Shift=    0.000
 RMSDP=1.26D-04 MaxDP=1.01D-02 DE=-7.12D-03 OVMax= 1.72D-02

 Cycle   6  Pass 0  IDiag  1:
 E= -606.526119128875     Delta-E=       -0.000849961384 Rises=F Damp=F
 DIIS: error= 1.35D-03 at cycle   6 NSaved=   6.
 NSaved= 6 IEnMin= 6 EnMin= -606.526119128875     IErMin= 6 ErrMin= 1.35D-03
 ErrMax= 1.35D-03  0.00D+00 EMaxC= 1.00D-01 BMatC= 3.27D-04 BMatP= 1.27D-03
 IDIUse=3 WtCom= 9.86D-01 WtEn= 1.35D-02
 Coeff-Com:  0.235D-02 0.138D-02 0.763D-01 0.205D+00 0.361D+00 0.354D+00
 Coeff-En:   0.000D+00 0.000D+00 0.000D+00 0.000D+00 0.194D+00 0.806D+00
 Coeff:      0.232D-02 0.136D-02 0.752D-01 0.202D+00 0.359D+00 0.360D+00
 Gap=     0.151 Goal=   None    Shift=    0.000
 RMSDP=4.99D-05 MaxDP=4.71D-03 DE=-8.50D-04 OVMax= 9.02D-03

 Cycle   7  Pass 0  IDiag  1:
 E= -606.526360314416     Delta-E=       -0.000241185541 Rises=F Damp=F
 DIIS: error= 2.90D-04 at cycle   7 NSaved=   7.
 NSaved= 7 IEnMin= 7 EnMin= -606.526360314416     IErMin= 7 ErrMin= 2.90D-04
 ErrMax= 2.90D-04  0.00D+00 EMaxC= 1.00D-01 BMatC= 2.27D-05 BMatP= 3.27D-04
 IDIUse=3 WtCom= 9.97D-01 WtEn= 2.90D-03
 Coeff-Com:  0.474D-03-0.222D-02 0.194D-01 0.607D-01 0.139D+00 0.237D+00
 Coeff-Com:  0.546D+00
 Coeff-En:   0.000D+00 0.000D+00 0.000D+00 0.000D+00 0.000D+00 0.751D-01
 Coeff-En:   0.925D+00
 Coeff:      0.472D-03-0.222D-02 0.194D-01 0.605D-01 0.138D+00 0.237D+00
 Coeff:      0.547D+00
 Gap=     0.151 Goal=   None    Shift=    0.000
 RMSDP=1.38D-05 MaxDP=8.78D-04 DE=-2.41D-04 OVMax= 1.73D-03

 Cycle   8  Pass 0  IDiag  1:
 E= -606.526378821747     Delta-E=       -0.000018507331 Rises=F Damp=F
 DIIS: error= 5.52D-05 at cycle   8 NSaved=   8.
 NSaved= 8 IEnMin= 8 EnMin= -606.526378821747     IErMin= 8 ErrMin= 5.52D-05
 ErrMax= 5.52D-05  0.00D+00 EMaxC= 1.00D-01 BMatC= 1.66D-06 BMatP= 2.27D-05
 IDIUse=1 WtCom= 1.00D+00 WtEn= 0.00D+00
 Coeff-Com:  0.117D-03-0.151D-02 0.596D-02 0.209D-01 0.552D-01 0.110D+00
 Coeff-Com:  0.320D+00 0.490D+00
 Coeff:      0.117D-03-0.151D-02 0.596D-02 0.209D-01 0.552D-01 0.110D+00
 Coeff:      0.320D+00 0.490D+00
 Gap=     0.151 Goal=   None    Shift=    0.000
 RMSDP=3.95D-06 MaxDP=1.84D-04 DE=-1.85D-05 OVMax= 5.92D-04

 Initial convergence to 1.0D-05 achieved.  Increase integral accuracy.
 Cycle   9  Pass 1  IDiag  1:
 E= -606.526464742790     Delta-E=       -0.000085921043 Rises=F Damp=F
 DIIS: error= 1.98D-05 at cycle   1 NSaved=   1.
 NSaved= 1 IEnMin= 1 EnMin= -606.526464742790     IErMin= 1 ErrMin= 1.98D-05
 ErrMax= 1.98D-05  0.00D+00 EMaxC= 1.00D-01 BMatC= 2.58D-07 BMatP= 2.58D-07
 IDIUse=1 WtCom= 1.00D+00 WtEn= 0.00D+00
 Coeff-Com:  0.100D+01
 Coeff:      0.100D+01
 Gap=     0.151 Goal=   None    Shift=    0.000
 RMSDP=3.95D-06 MaxDP=1.84D-04 DE=-8.59D-05 OVMax= 3.69D-04

 Cycle  10  Pass 1  IDiag  1:
 E= -606.526464728050     Delta-E=        0.000000014740 Rises=F Damp=F
 DIIS: error= 2.23D-05 at cycle   2 NSaved=   2.
 NSaved= 2 IEnMin= 1 EnMin= -606.526464742790     IErMin= 1 ErrMin= 1.98D-05
 ErrMax= 2.23D-05  0.00D+00 EMaxC= 1.00D-01 BMatC= 2.41D-07 BMatP= 2.58D-07
 IDIUse=1 WtCom= 1.00D+00 WtEn= 0.00D+00
 Coeff-Com:  0.489D+00 0.511D+00
 Coeff:      0.489D+00 0.511D+00
 Gap=     0.151 Goal=   None    Shift=    0.000
 RMSDP=2.04D-06 MaxDP=1.14D-04 DE= 1.47D-08 OVMax= 3.15D-04

 Cycle  11  Pass 1  IDiag  1:
 E= -606.526464910611     Delta-E=       -0.000000182561 Rises=F Damp=F
 DIIS: error= 1.14D-05 at cycle   3 NSaved=   3.
 NSaved= 3 IEnMin= 3 EnMin= -606.526464910611     IErMin= 3 ErrMin= 1.14D-05
 ErrMax= 1.14D-05  0.00D+00 EMaxC= 1.00D-01 BMatC= 7.30D-08 BMatP= 2.41D-07
 IDIUse=1 WtCom= 1.00D+00 WtEn= 0.00D+00
 Coeff-Com:  0.510D-01 0.347D+00 0.602D+00
 Coeff:      0.510D-01 0.347D+00 0.602D+00
 Gap=     0.151 Goal=   None    Shift=    0.000
 RMSDP=8.95D-07 MaxDP=5.82D-05 DE=-1.83D-07 OVMax= 1.20D-04

 Cycle  12  Pass 1  IDiag  1:
 E= -606.526464969196     Delta-E=       -0.000000058585 Rises=F Damp=F
 DIIS: error= 1.05D-05 at cycle   4 NSaved=   4.
 NSaved= 4 IEnMin= 4 EnMin= -606.526464969196     IErMin= 4 ErrMin= 1.05D-05
 ErrMax= 1.05D-05  0.00D+00 EMaxC= 1.00D-01 BMatC= 2.27D-08 BMatP= 7.30D-08
 IDIUse=1 WtCom= 1.00D+00 WtEn= 0.00D+00
 Coeff-Com: -0.845D-02 0.214D+00 0.447D+00 0.348D+00
 Coeff:     -0.845D-02 0.214D+00 0.447D+00 0.348D+00
 Gap=     0.151 Goal=   None    Shift=    0.000
 RMSDP=4.35D-07 MaxDP=4.25D-05 DE=-5.86D-08 OVMax= 7.26D-05

 Cycle  13  Pass 1  IDiag  1:
 E= -606.526464985493     Delta-E=       -0.000000016297 Rises=F Damp=F
 DIIS: error= 2.45D-06 at cycle   5 NSaved=   5.
 NSaved= 5 IEnMin= 5 EnMin= -606.526464985493     IErMin= 5 ErrMin= 2.45D-06
 ErrMax= 2.45D-06  0.00D+00 EMaxC= 1.00D-01 BMatC= 1.45D-09 BMatP= 2.27D-08
 IDIUse=1 WtCom= 1.00D+00 WtEn= 0.00D+00
 Coeff-Com: -0.105D-01 0.112D+00 0.244D+00 0.241D+00 0.413D+00
 Coeff:     -0.105D-01 0.112D+00 0.244D+00 0.241D+00 0.413D+00
 Gap=     0.151 Goal=   None    Shift=    0.000
 RMSDP=1.00D-07 MaxDP=8.46D-06 DE=-1.63D-08 OVMax= 1.45D-05

 Cycle  14  Pass 1  IDiag  1:
 E= -606.526464986697     Delta-E=       -0.000000001204 Rises=F Damp=F
 DIIS: error= 3.54D-07 at cycle   6 NSaved=   6.
 NSaved= 6 IEnMin= 6 EnMin= -606.526464986697     IErMin= 6 ErrMin= 3.54D-07
 ErrMax= 3.54D-07  0.00D+00 EMaxC= 1.00D-01 BMatC= 6.35D-11 BMatP= 1.45D-09
 IDIUse=1 WtCom= 1.00D+00 WtEn= 0.00D+00
 Coeff-Com: -0.530D-02 0.471D-01 0.104D+00 0.113D+00 0.241D+00 0.500D+00
 Coeff:     -0.530D-02 0.471D-01 0.104D+00 0.113D+00 0.241D+00 0.500D+00
 Gap=     0.151 Goal=   None    Shift=    0.000
 RMSDP=2.11D-08 MaxDP=1.31D-06 DE=-1.20D-09 OVMax= 1.80D-06

 Cycle  15  Pass 1  IDiag  1:
 E= -606.526464986707     Delta-E=       -0.000000000010 Rises=F Damp=F
 DIIS: error= 1.63D-07 at cycle   7 NSaved=   7.
 NSaved= 7 IEnMin= 7 EnMin= -606.526464986707     IErMin= 7 ErrMin= 1.63D-07
 ErrMax= 1.63D-07  0.00D+00 EMaxC= 1.00D-01 BMatC= 5.67D-12 BMatP= 6.35D-11
 IDIUse=1 WtCom= 1.00D+00 WtEn= 0.00D+00
 Coeff-Com: -0.121D-02 0.845D-02 0.186D-01 0.241D-01 0.679D-01 0.264D+00
 Coeff-Com:  0.618D+00
 Coeff:     -0.121D-02 0.845D-02 0.186D-01 0.241D-01 0.679D-01 0.264D+00
 Coeff:      0.618D+00
 Gap=     0.151 Goal=   None    Shift=    0.000
 RMSDP=6.60D-09 MaxDP=5.87D-07 DE=-9.55D-12 OVMax= 8.24D-07

 SCF Done:  E(RB3LYP) =  -606.526464987     A.U. after   15 cycles
            NFock= 15  Conv=0.66D-08     -V/T= 2.0030
 KE= 6.047294402639D+02 PE=-2.812745480194D+03 EE= 9.046746751627D+02
 Leave Link  502 at Fri Aug 27 06:53:12 2021, MaxMem= 24159191040 cpu:       386.2
 (Enter /public/home/users/caep010/software/Gaussian09/g09/l801.exe)
 DoSCS=F DFT=T ScalE2(SS,OS)=  1.000000  1.000000
 Range of M.O.s used for correlation:     1   376
 NBasis=   376 NAE=    44 NBE=    44 NFC=     0 NFV=     0
 NROrb=    376 NOA=    44 NOB=    44 NVA=   332 NVB=   332

 **** Warning!!: The largest alpha MO coefficient is  0.38512047D+02

 Leave Link  801 at Fri Aug 27 06:53:12 2021, MaxMem= 24159191040 cpu:         0.6
 (Enter /public/home/users/caep010/software/Gaussian09/g09/l1101.exe)
 Using compressed storage, NAtomX=    20.
 Will process     21 centers per pass.
 Leave Link 1101 at Fri Aug 27 06:53:13 2021, MaxMem= 24159191040 cpu:        22.0
 (Enter /public/home/users/caep010/software/Gaussian09/g09/l1102.exe)
 Symmetrizing basis deriv contribution to polar:
 IMax=3 JMax=2 DiffMx= 0.00D+00
 Leave Link 1102 at Fri Aug 27 06:53:13 2021, MaxMem= 24159191040 cpu:         1.2
 (Enter /public/home/users/caep010/software/Gaussian09/g09/l1110.exe)
 Forming Gx(P) for the SCF density, NAtomX=    20.
 Integral derivatives from FoFJK, PRISM(SPDF).
 Do as many integral derivatives as possible in FoFJK.
 G2DrvN: MDV=   24159190776.
 G2DrvN: will do    21 centers at a time, making    1 passes.
 Calling FoFCou, ICntrl=  3107 FMM=F I1Cent=   0 AccDes= 0.00D+00.
 FoFJK:  IHMeth= 1 ICntrl=    3107 DoSepK=F KAlg= 0 I1Cent=   0 FoldK=F
 IRaf=         0 NMat=   1 IRICut=       1 DoRegI=T DoRafI=F ISym2E= 0.
 FoFCou: FMM=F IPFlag=           0 FMFlag=      100000 FMFlg1=           0
         NFxFlg=           0 DoJE=F BraDBF=F KetDBF=F FulRan=T
         wScrn=  0.000000 ICntrl=    3107 IOpCl=  0 I1Cent=           0 NGrid=           0
         NMat0=    1 NMatS0=      1 NMatT0=    0 NMatD0=    1 NMtDS0=    0 NMtDT0=    0
 Symmetry not used in FoFCou.
 End of G2Drv F.D. properties file   721 does not exist.
 End of G2Drv F.D. properties file   722 does not exist.
 End of G2Drv F.D. properties file   788 does not exist.
 Leave Link 1110 at Fri Aug 27 06:53:38 2021, MaxMem= 24159191040 cpu:       793.3
 (Enter /public/home/users/caep010/software/Gaussian09/g09/l1002.exe)
 Minotr:  Closed shell wavefunction.
          IDoAtm=11111111111111111111
          Direct CPHF calculation.
          Differentiating once with respect to nuclear coordinates.
          Requested convergence is 1.0D-08 RMS, and 1.0D-07 maximum.
          Secondary convergence is 1.0D-12 RMS, and 1.0D-12 maximum.
          NewPWx=T KeepS1=F KeepF1=F KeepIn=T MapXYZ=F SortEE=F KeepMc=T.
          MDV=   24159190460 using IRadAn=       2.
 Generate precomputed XC quadrature information.
 Keep R1 ints in memory in canonical form, NReq=2546968671.
 FoFCou: FMM=F IPFlag=           0 FMFlag=           0 FMFlg1=           0
         NFxFlg=           0 DoJE=F BraDBF=F KetDBF=F FulRan=T
         wScrn=  0.000000 ICntrl=     600 IOpCl=  0 I1Cent=           0 NGrid=           0
         NMat0=    1 NMatS0=  70876 NMatT0=    0 NMatD0=    1 NMtDS0=    0 NMtDT0=    0
 Symmetry not used in FoFCou.
          Solving linear equations simultaneously, MaxMat=       0.
          There are    63 degrees of freedom in the 1st order CPHF.  IDoFFX=6 NUNeed=     0.
     57 vectors produced by pass  0 Test12= 2.32D-14 1.59D-09 XBig12= 2.69D-01 1.87D-01.
 AX will form    57 AO Fock derivatives at one time.
     57 vectors produced by pass  1 Test12= 2.32D-14 1.59D-09 XBig12= 3.21D-02 5.00D-02.
     57 vectors produced by pass  2 Test12= 2.32D-14 1.59D-09 XBig12= 3.38D-04 3.32D-03.
     57 vectors produced by pass  3 Test12= 2.32D-14 1.59D-09 XBig12= 1.84D-06 2.30D-04.
     57 vectors produced by pass  4 Test12= 2.32D-14 1.59D-09 XBig12= 3.66D-09 7.22D-06.
     56 vectors produced by pass  5 Test12= 2.32D-14 1.59D-09 XBig12= 5.98D-12 2.79D-07.
     23 vectors produced by pass  6 Test12= 2.32D-14 1.59D-09 XBig12= 7.67D-15 8.76D-09.
 InvSVY:  IOpt=1 It=  1 EMax= 4.44D-16
 Solved reduced A of dimension   364 with    63 vectors.
 End of Minotr F.D. properties file   721 does not exist.
 End of Minotr F.D. properties file   722 does not exist.
 End of Minotr F.D. properties file   788 does not exist.
 Leave Link 1002 at Fri Aug 27 06:54:23 2021, MaxMem= 24159191040 cpu:      1426.9
 (Enter /public/home/users/caep010/software/Gaussian09/g09/l601.exe)
 Copying SCF densities to generalized density rwf, IOpCl= 0 IROHF=0.

 **********************************************************************

            Population analysis using the SCF density.

 **********************************************************************

 Orbital symmetries:
       Occupied  (A) (A) (A) (A) (A) (A) (A) (A) (A) (A) (A) (A)
                 (A) (A) (A) (A) (A) (A) (A) (A) (A) (A) (A) (A)
                 (A) (A) (A) (A) (A) (A) (A) (A) (A) (A) (A) (A)
                 (A) (A) (A) (A) (A) (A) (A) (A)
       Virtual   (A) (A) (A) (A) (A) (A) (A) (A) (A) (A) (A) (A)
                 (A) (A) (A) (A) (A) (A) (A) (A) (A) (A) (A) (A)
                 (A) (A) (A) (A) (A) (A) (A) (A) (A) (A) (A) (A)
                 (A) (A) (A) (A) (A) (A) (A) (A) (A) (A) (A) (A)
                 (A) (A) (A) (A) (A) (A) (A) (A) (A) (A) (A) (A)
                 (A) (A) (A) (A) (A) (A) (A) (A) (A) (A) (A) (A)
                 (A) (A) (A) (A) (A) (A) (A) (A) (A) (A) (A) (A)
                 (A) (A) (A) (A) (A) (A) (A) (A) (A) (A) (A) (A)
                 (A) (A) (A) (A) (A) (A) (A) (A) (A) (A) (A) (A)
                 (A) (A) (A) (A) (A) (A) (A) (A) (A) (A) (A) (A)
                 (A) (A) (A) (A) (A) (A) (A) (A) (A) (A) (A) (A)
                 (A) (A) (A) (A) (A) (A) (A) (A) (A) (A) (A) (A)
                 (A) (A) (A) (A) (A) (A) (A) (A) (A) (A) (A) (A)
                 (A) (A) (A) (A) (A) (A) (A) (A) (A) (A) (A) (A)
                 (A) (A) (A) (A) (A) (A) (A) (A) (A) (A) (A) (A)
                 (A) (A) (A) (A) (A) (A) (A) (A) (A) (A) (A) (A)
                 (A) (A) (A) (A) (A) (A) (A) (A) (A) (A) (A) (A)
                 (A) (A) (A) (A) (A) (A) (A) (A) (A) (A) (A) (A)
                 (A) (A) (A) (A) (A) (A) (A) (A) (A) (A) (A) (A)
                 (A) (A) (A) (A) (A) (A) (A) (A) (A) (A) (A) (A)
                 (A) (A) (A) (A) (A) (A) (A) (A) (A) (A) (A) (A)
                 (A) (A) (A) (A) (A) (A) (A) (A) (A) (A) (A) (A)
                 (A) (A) (A) (A) (A) (A) (A) (A) (A) (A) (A) (A)
                 (A) (A) (A) (A) (A) (A) (A) (A) (A) (A) (A) (A)
                 (A) (A) (A) (A) (A) (A) (A) (A) (A) (A) (A) (A)
                 (A) (A) (A) (A) (A) (A) (A) (A) (A) (A) (A) (A)
                 (A) (A) (A) (A) (A) (A) (A) (A) (A) (A) (A) (A)
                 (A) (A) (A) (A) (A) (A) (A) (A)
 The electronic state is 1-A.
 Alpha  occ. eigenvalues --  -19.14959 -19.14910 -19.13877 -14.54546 -14.33082
 Alpha  occ. eigenvalues --  -10.25408 -10.23074 -10.22211 -10.20882 -10.18896
 Alpha  occ. eigenvalues --  -10.17300 -10.17253  -1.20189  -1.05446  -1.02248
 Alpha  occ. eigenvalues --   -0.97442  -0.87577  -0.81784  -0.76938  -0.74670
 Alpha  occ. eigenvalues --   -0.67264  -0.65081  -0.61990  -0.58387  -0.54773
 Alpha  occ. eigenvalues --   -0.53774  -0.52902  -0.51500  -0.50162  -0.49297
 Alpha  occ. eigenvalues --   -0.48053  -0.46503  -0.44017  -0.40520  -0.39965
 Alpha  occ. eigenvalues --   -0.37682  -0.34791  -0.33299  -0.29441  -0.29286
 Alpha  occ. eigenvalues --   -0.28798  -0.26939  -0.26401  -0.22332
 Alpha virt. eigenvalues --   -0.07204  -0.00233   0.01863   0.07709   0.11817
 Alpha virt. eigenvalues --    0.12899   0.14955   0.15393   0.17183   0.18654
 Alpha virt. eigenvalues --    0.19406   0.20503   0.22999   0.23650   0.24512
 Alpha virt. eigenvalues --    0.26101   0.27833   0.28925   0.31777   0.34260
 Alpha virt. eigenvalues --    0.35447   0.38656   0.40164   0.41723   0.42408
 Alpha virt. eigenvalues --    0.45225   0.47234   0.47462   0.47884   0.49937
 Alpha virt. eigenvalues --    0.51525   0.52549   0.54144   0.55473   0.56292
 Alpha virt. eigenvalues --    0.56914   0.59179   0.60278   0.60905   0.61381
 Alpha virt. eigenvalues --    0.64245   0.66545   0.67097   0.67608   0.70078
 Alpha virt. eigenvalues --    0.70480   0.72475   0.72805   0.74839   0.76071
 Alpha virt. eigenvalues --    0.77131   0.78611   0.79487   0.79567   0.82108
 Alpha virt. eigenvalues --    0.82741   0.83550   0.84960   0.85352   0.86687
 Alpha virt. eigenvalues --    0.87264   0.88169   0.88586   0.89457   0.90676
 Alpha virt. eigenvalues --    0.91894   0.92169   0.92651   0.93297   0.94540
 Alpha virt. eigenvalues --    0.97536   0.97669   0.99909   1.00263   1.00420
 Alpha virt. eigenvalues --    1.02265   1.04161   1.05513   1.07409   1.09096
 Alpha virt. eigenvalues --    1.12559   1.13270   1.16379   1.17958   1.18428
 Alpha virt. eigenvalues --    1.21097   1.22840   1.24126   1.25121   1.27264
 Alpha virt. eigenvalues --    1.31568   1.32654   1.35628   1.36146   1.37284
 Alpha virt. eigenvalues --    1.38910   1.39851   1.42021   1.42671   1.44248
 Alpha virt. eigenvalues --    1.45187   1.46673   1.47839   1.49765   1.51101
 Alpha virt. eigenvalues --    1.51986   1.54482   1.55349   1.57669   1.58615
 Alpha virt. eigenvalues --    1.59667   1.63700   1.66970   1.68778   1.69344
 Alpha virt. eigenvalues --    1.71700   1.72730   1.77684   1.78936   1.80212
 Alpha virt. eigenvalues --    1.82600   1.85127   1.87931   1.90483   1.91452
 Alpha virt. eigenvalues --    1.93940   1.97705   1.98837   2.04085   2.08716
 Alpha virt. eigenvalues --    2.13417   2.16093   2.20772   2.21578   2.23893
 Alpha virt. eigenvalues --    2.25253   2.27720   2.29100   2.29578   2.32886
 Alpha virt. eigenvalues --    2.33974   2.36996   2.41548   2.45111   2.50612
 Alpha virt. eigenvalues --    2.52155   2.55724   2.58668   2.60815   2.64985
 Alpha virt. eigenvalues --    2.72621   2.74790   2.78222   2.81403   2.83906
 Alpha virt. eigenvalues --    2.85636   2.89557   2.91533   2.94767   2.96046
 Alpha virt. eigenvalues --    2.97897   3.02678   3.04514   3.05980   3.07297
 Alpha virt. eigenvalues --    3.09071   3.10931   3.11316   3.12442   3.14955
 Alpha virt. eigenvalues --    3.16919   3.19597   3.21575   3.22680   3.23810
 Alpha virt. eigenvalues --    3.25028   3.27830   3.28279   3.30077   3.31138
 Alpha virt. eigenvalues --    3.32041   3.33757   3.38751   3.40947   3.42973
 Alpha virt. eigenvalues --    3.43774   3.44982   3.46127   3.47513   3.48993
 Alpha virt. eigenvalues --    3.51305   3.54158   3.55901   3.56679   3.57312
 Alpha virt. eigenvalues --    3.59622   3.61244   3.64297   3.65055   3.67506
 Alpha virt. eigenvalues --    3.70131   3.71484   3.73193   3.76175   3.77040
 Alpha virt. eigenvalues --    3.80224   3.82649   3.84549   3.85473   3.88587
 Alpha virt. eigenvalues --    3.91455   3.95488   3.98532   4.01255   4.03340
 Alpha virt. eigenvalues --    4.04430   4.07226   4.09098   4.11389   4.11775
 Alpha virt. eigenvalues --    4.15107   4.15629   4.18691   4.20547   4.24111
 Alpha virt. eigenvalues --    4.27497   4.28836   4.30660   4.32890   4.33952
 Alpha virt. eigenvalues --    4.34377   4.35045   4.36363   4.39148   4.40246
 Alpha virt. eigenvalues --    4.42409   4.43284   4.44947   4.45920   4.47631
 Alpha virt. eigenvalues --    4.49188   4.50588   4.51752   4.53913   4.54035
 Alpha virt. eigenvalues --    4.54721   4.56520   4.57477   4.58946   4.59856
 Alpha virt. eigenvalues --    4.60705   4.62506   4.64208   4.65933   4.66671
 Alpha virt. eigenvalues --    4.69674   4.70038   4.74838   4.75141   4.76184
 Alpha virt. eigenvalues --    4.77211   4.78438   4.83965   4.85839   4.92438
 Alpha virt. eigenvalues --    4.94463   4.97647   5.00535   5.02131   5.04640
 Alpha virt. eigenvalues --    5.05259   5.05551   5.07150   5.09497   5.10444
 Alpha virt. eigenvalues --    5.13305   5.15836   5.16427   5.17972   5.21679
 Alpha virt. eigenvalues --    5.24330   5.26720   5.32767   5.35772   5.38013
 Alpha virt. eigenvalues --    5.40689   5.45284   5.48169   5.50644   5.58041
 Alpha virt. eigenvalues --    5.61566   5.62443   5.62750   5.65863   5.67358
 Alpha virt. eigenvalues --    5.71952   5.80339   5.82892   5.89572   5.95690
 Alpha virt. eigenvalues --    5.98674   5.99988   6.03473   6.04039   6.10000
 Alpha virt. eigenvalues --    6.12230   6.16890   6.25478   6.25836   6.33642
 Alpha virt. eigenvalues --    6.36638   6.47891   6.58458   6.74474   6.95977
 Alpha virt. eigenvalues --    7.07681   7.22331   9.10313   9.62823  10.54738
 Alpha virt. eigenvalues --   10.58928  11.27147  11.34829  11.53753  11.63620
 Alpha virt. eigenvalues --   12.00016  12.79294  12.97432  13.18201  13.27468
 Alpha virt. eigenvalues --   14.69064  20.54192
          Condensed to atoms (all electrons):
               1          2          3          4          5          6
     1  C    4.642333   0.520558  -0.026994   0.490640  -0.034379   0.045728
     2  C    0.520558   4.957200   0.292609   0.050571   0.006082  -0.088855
     3  H   -0.026994   0.292609   0.669855   0.009731  -0.000432   0.001634
     4  C    0.490640   0.050571   0.009731   4.900094   0.329654   0.520796
     5  H   -0.034379   0.006082  -0.000432   0.329654   0.644070  -0.025911
     6  C    0.045728  -0.088855   0.001634   0.520796  -0.025911   4.935403
     7  H   -0.000058   0.001830   0.000071  -0.022663  -0.003291   0.331338
     8  C    0.361463  -0.031229  -0.017000  -0.078225  -0.010314   0.002449
     9  C   -0.042645  -0.014519   0.005481   0.004625   0.001366   0.416177
    10  N    0.000519   0.000278  -0.000104   0.000779  -0.000113  -0.017116
    11  O   -0.000053   0.000683   0.000019   0.000034   0.000001   0.008782
    12  O   -0.000016   0.000013   0.000001   0.001437  -0.000021   0.003152
    13  H   -0.038620   0.007137   0.001211  -0.002932   0.004753  -0.000536
    14  H   -0.012390  -0.001705   0.001013   0.001879   0.001449  -0.000294
    15  C    0.007402   0.426858  -0.027904  -0.057116   0.002567  -0.028388
    16  N    0.000936  -0.030608  -0.013879   0.000932   0.000008   0.001842
    17  H    0.000134  -0.010669   0.004124  -0.000062  -0.000001   0.000036
    18  H    0.000008   0.009129  -0.000482  -0.000061  -0.000000  -0.000713
    19  O   -0.057688   0.006937   0.028256   0.001469   0.000038  -0.000029
    20  H    0.007017  -0.000351  -0.001177  -0.000237  -0.000010   0.000002
               7          8          9         10         11         12
     1  C   -0.000058   0.361463  -0.042645   0.000519  -0.000053  -0.000016
     2  C    0.001830  -0.031229  -0.014519   0.000278   0.000683   0.000013
     3  H    0.000071  -0.017000   0.005481  -0.000104   0.000019   0.000001
     4  C   -0.022663  -0.078225   0.004625   0.000779   0.000034   0.001437
     5  H   -0.003291  -0.010314   0.001366  -0.000113   0.000001  -0.000021
     6  C    0.331338   0.002449   0.416177  -0.017116   0.008782   0.003152
     7  H    0.582419  -0.000290  -0.024413  -0.013755   0.000556   0.027695
     8  C   -0.000290   4.801923   0.001387   0.000001  -0.000000  -0.000000
     9  C   -0.024413   0.001387   4.933960   0.364605  -0.094191  -0.127758
    10  N   -0.013755   0.000001   0.364605   5.304061   0.480284   0.546291
    11  O    0.000556  -0.000000  -0.094191   0.480284   8.123229  -0.102152
    12  O    0.027695  -0.000000  -0.127758   0.546291  -0.102152   8.020228
    13  H   -0.000005   0.359328   0.000046  -0.000000  -0.000000   0.000000
    14  H    0.000003   0.358610   0.000020  -0.000000  -0.000000  -0.000000
    15  C    0.004632   0.004207   0.422560  -0.026504  -0.020484   0.004001
    16  N   -0.000056  -0.000111  -0.048181  -0.008502  -0.019146   0.000001
    17  H    0.000006  -0.000019   0.006387   0.000066   0.001258   0.000005
    18  H   -0.000021   0.000003  -0.018120   0.000342   0.047523   0.000590
    19  O    0.000000   0.374922   0.000012  -0.000000   0.000000   0.000000
    20  H   -0.000000  -0.051669   0.000000   0.000000  -0.000000   0.000000
              13         14         15         16         17         18
     1  C   -0.038620  -0.012390   0.007402   0.000936   0.000134   0.000008
     2  C    0.007137  -0.001705   0.426858  -0.030608  -0.010669   0.009129
     3  H    0.001211   0.001013  -0.027904  -0.013879   0.004124  -0.000482
     4  C   -0.002932   0.001879  -0.057116   0.000932  -0.000062  -0.000061
     5  H    0.004753   0.001449   0.002567   0.000008  -0.000001  -0.000000
     6  C   -0.000536  -0.000294  -0.028388   0.001842   0.000036  -0.000713
     7  H   -0.000005   0.000003   0.004632  -0.000056   0.000006  -0.000021
     8  C    0.359328   0.358610   0.004207  -0.000111  -0.000019   0.000003
     9  C    0.000046   0.000020   0.422560  -0.048181   0.006387  -0.018120
    10  N   -0.000000  -0.000000  -0.026504  -0.008502   0.000066   0.000342
    11  O   -0.000000  -0.000000  -0.020484  -0.019146   0.001258   0.047523
    12  O    0.000000  -0.000000   0.004001   0.000001   0.000005   0.000590
    13  H    0.662567  -0.069859   0.000062  -0.000000  -0.000000  -0.000000
    14  H   -0.069859   0.654792   0.000003   0.000001  -0.000000  -0.000000
    15  C    0.000062   0.000003   4.687486   0.494429  -0.032252  -0.016339
    16  N   -0.000000   0.000001   0.494429   6.330464   0.379879   0.346588
    17  H   -0.000000  -0.000000  -0.032252   0.379879   0.463544  -0.028682
    18  H   -0.000000  -0.000000  -0.016339   0.346588  -0.028682   0.418061
    19  O   -0.027158  -0.029032   0.001120  -0.000014  -0.000011  -0.000000
    20  H    0.001077  -0.008029  -0.000021   0.000000   0.000000   0.000000
              19         20
     1  C   -0.057688   0.007017
     2  C    0.006937  -0.000351
     3  H    0.028256  -0.001177
     4  C    0.001469  -0.000237
     5  H    0.000038  -0.000010
     6  C   -0.000029   0.000002
     7  H    0.000000  -0.000000
     8  C    0.374922  -0.051669
     9  C    0.000012   0.000000
    10  N   -0.000000   0.000000
    11  O    0.000000  -0.000000
    12  O    0.000000   0.000000
    13  H   -0.027158   0.001077
    14  H   -0.029032  -0.008029
    15  C    0.001120  -0.000021
    16  N   -0.000014   0.000000
    17  H   -0.000011   0.000000
    18  H   -0.000000   0.000000
    19  O    7.782891   0.336331
    20  H    0.336331   0.441605
 Mulliken charges:
               1
     1  C    0.136105
     2  C   -0.101950
     3  H    0.073969
     4  C   -0.151346
     5  H    0.084483
     6  C   -0.105497
     7  H    0.116000
     8  C   -0.075437
     9  C    0.213201
    10  N    0.368869
    11  O   -0.426343
    12  O   -0.373468
    13  H    0.102930
    14  H    0.103539
    15  C    0.153682
    16  N   -0.434585
    17  H    0.216257
    18  H    0.242174
    19  O   -0.418046
    20  H    0.275461
 Sum of Mulliken charges =  -0.00000
 Mulliken charges with hydrogens summed into heavy atoms:
               1
     1  C    0.136105
     2  C   -0.027981
     4  C   -0.066863
     6  C    0.010503
     8  C    0.131032
     9  C    0.213201
    10  N    0.368869
    11  O   -0.426343
    12  O   -0.373468
    15  C    0.153682
    16  N    0.023847
    19  O   -0.142585
 APT charges:
               1
     1  C   -0.431516
     2  C   -0.260686
     3  H    0.299169
     4  C   -0.171766
     5  H    0.452319
     6  C   -0.358995
     7  H    0.442882
     8  C   -0.331743
     9  C   -0.244341
    10  N   -1.276515
    11  O    0.423221
    12  O    0.640996
    13  H    0.451237
    14  H    0.433552
    15  C   -0.475458
    16  N   -0.632962
    17  H    0.581804
    18  H    0.561313
    19  O   -1.268495
    20  H    1.165983
 Sum of APT charges =  -0.00000
 APT charges with hydrogens summed into heavy atoms:
               1
     1  C   -0.431516
     2  C    0.038484
     4  C    0.280553
     6  C    0.083886
     8  C    0.553046
     9  C   -0.244341
    10  N   -1.276515
    11  O    0.423221
    12  O    0.640996
    15  C   -0.475458
    16  N    0.510156
    19  O   -0.102512
 Electronic spatial extent (au):  <R**2>=           2299.3466
 Charge=             -0.0000 electrons
 Dipole moment (field-independent basis, Debye):
    X=             -5.8875    Y=              0.7336    Z=              1.1821  Tot=              6.0496
 Quadrupole moment (field-independent basis, Debye-Ang):
   XX=            -70.2656   YY=            -59.9849   ZZ=            -68.0331
   XY=              5.7272   XZ=             -2.8732   YZ=              1.9082
 Traceless Quadrupole moment (field-independent basis, Debye-Ang):
   XX=             -4.1710   YY=              6.1096   ZZ=             -1.9386
   XY=              5.7272   XZ=             -2.8732   YZ=              1.9082
 Octapole moment (field-independent basis, Debye-Ang**2):
  XXX=           -124.1529  YYY=             24.3381  ZZZ=              0.2224  XYY=             -3.4004
  XXY=              1.3215  XXZ=             16.0437  XZZ=              4.7289  YZZ=              1.5430
  YYZ=              3.4058  XYZ=             -1.3316
 Hexadecapole moment (field-independent basis, Debye-Ang**3):
 XXXX=          -1857.0285 YYYY=           -525.5921 ZZZZ=            -66.9315 XXXY=             17.7784
 XXXZ=            -64.1474 YYYX=             11.7674 YYYZ=             10.6595 ZZZX=             -1.1511
 ZZZY=              0.9790 XXYY=           -458.0190 XXZZ=           -345.3651 YYZZ=           -119.4491
 XXYZ=             13.1015 YYXZ=              2.4781 ZZXY=             -3.4434
 N-N= 6.968148997802D+02 E-N=-2.812745504790D+03  KE= 6.047294402639D+02
  Exact polarizability:   0.000   0.000   0.000   0.000   0.000   0.000
 Approx polarizability: 216.809   3.178 213.381  -2.322  -0.817  72.477
 No NMR shielding tensors so no spin-rotation constants.
 Leave Link  601 at Fri Aug 27 06:54:24 2021, MaxMem= 24159191040 cpu:        15.8
 (Enter /public/home/users/caep010/software/Gaussian09/g09/l701.exe)
 Compute integral second derivatives.
 ... and contract with generalized density number  0.
 Leave Link  701 at Fri Aug 27 06:54:25 2021, MaxMem= 24159191040 cpu:        17.9
 (Enter /public/home/users/caep010/software/Gaussian09/g09/l702.exe)
 L702 exits ... SP integral derivatives will be done elsewhere.
 Leave Link  702 at Fri Aug 27 06:54:25 2021, MaxMem= 24159191040 cpu:         0.7
 (Enter /public/home/users/caep010/software/Gaussian09/g09/l703.exe)
 Compute integral second derivatives, UseDBF=F ICtDFT=           0.
 Integral derivatives from FoFJK, PRISM(SPDF).
 Calling FoFJK, ICntrl=    100147 FMM=F ISym2X=0 I1Cent= 0 IOpClX= 0 NMat=1 NMatS=1 NMatT=0.
 FoFJK:  IHMeth= 1 ICntrl=  100147 DoSepK=F KAlg= 0 I1Cent=   0 FoldK=F
 IRaf=         0 NMat=   1 IRICut=       1 DoRegI=T DoRafI=F ISym2E= 0.
 FoFCou: FMM=F IPFlag=           0 FMFlag=      100000 FMFlg1=         800
         NFxFlg=           0 DoJE=F BraDBF=F KetDBF=F FulRan=T
         wScrn=  0.000000 ICntrl=  100147 IOpCl=  0 I1Cent=           0 NGrid=           0
         NMat0=    1 NMatS0=      1 NMatT0=    0 NMatD0=    1 NMtDS0=    0 NMtDT0=    0
 Symmetry not used in FoFCou.
 Leave Link  703 at Fri Aug 27 06:55:12 2021, MaxMem= 24159191040 cpu:      1475.4
 (Enter /public/home/users/caep010/software/Gaussian09/g09/l716.exe)
 Dipole        =-2.31630382D+00 2.88614289D-01 4.65085799D-01
 Polarizability= 0.00000000D+00 0.00000000D+00 0.00000000D+00
                 0.00000000D+00 0.00000000D+00 0.00000000D+00
 ***** Axes restored to original set *****
 -------------------------------------------------------------------
 Center     Atomic                   Forces (Hartrees/Bohr)
 Number     Number              X              Y              Z
 -------------------------------------------------------------------
      1        6           0.002533924   -0.001336050    0.003257791
      2        6           0.204275975    0.060102577    0.044009006
      3        1          -0.217521518   -0.061774042   -0.051337652
      4        6          -0.061675951    0.017210257   -0.136467572
      5        1           0.059230384   -0.023014350    0.150033839
      6        6          -0.126298719   -0.036259145   -0.040247835
      7        1           0.131757718    0.041786547    0.027855496
      8        6          -0.025461346   -0.001010026   -0.114577162
      9        6           0.000060447   -0.001192084    0.006612767
     10        7           0.010498147    0.011073821   -0.023103040
     11        8          -0.004517350   -0.003158921    0.008097246
     12        8          -0.000932029   -0.003263711    0.008775937
     13        1           0.061591170   -0.080063923    0.055413869
     14        1          -0.022555244    0.095204534    0.082441984
     15        6           0.010246835   -0.001991003    0.013432261
     16        7           0.168738870   -0.032385713    0.121486945
     17        1          -0.253408003   -0.045739976   -0.026312902
     18        1           0.079005582    0.080107372   -0.107778325
     19        8           0.054092186   -0.011431592   -0.094285015
     20        1          -0.069661079   -0.002864572    0.072692363
 -------------------------------------------------------------------
 Cartesian Forces:  Max     0.253408003 RMS     0.080773088
 FormGI is forming the generalized inverse of G from B-inverse, IUseBI=4.
 Leave Link  716 at Fri Aug 27 06:55:12 2021, MaxMem= 24159191040 cpu:         1.0
 (Enter /public/home/users/caep010/software/Gaussian09/g09/l103.exe)

 GradGradGradGradGradGradGradGradGradGradGradGradGradGradGradGradGradGrad
 Berny optimization.
 Red2BG is reusing G-inverse.
 Internal  Forces:  Max     0.258834348 RMS     0.050368337
 Search for a local minimum.
 Step number   1 out of a maximum of  102
 All quantities printed in internal units (Hartrees-Bohrs-Radians)
 RMS Force = .50368D-01 SwitMx=.10000D-02 MixMth= 1
 Mixed Optimization -- RFO/linear search
 Second derivative matrix not updated -- analytic derivatives used.
 ITU=  0
     Eigenvalues ---   -0.00004   0.00181   0.00599   0.01181   0.01198
     Eigenvalues ---    0.01641   0.01780   0.01960   0.02058   0.02221
     Eigenvalues ---    0.02484   0.02698   0.02908   0.03105   0.06356
     Eigenvalues ---    0.07703   0.10678   0.11148   0.11460   0.11792
     Eigenvalues ---    0.12107   0.12604   0.14420   0.14572   0.15843
     Eigenvalues ---    0.17988   0.18831   0.19216   0.19612   0.21724
     Eigenvalues ---    0.23315   0.25939   0.26602   0.30711   0.33927
     Eigenvalues ---    0.37119   0.39173   0.43250   0.45199   0.45951
     Eigenvalues ---    0.51230   0.53215   0.54319   0.56032   0.66269
     Eigenvalues ---    0.69584   0.73760   0.76521   0.78530   0.83866
     Eigenvalues ---    0.90601   0.99205   1.04298   1.33117
 Eigenvalue     1 is  -3.55D-05 should be greater than     0.000000 Eigenvector:
                          D29       D27       D28       D14       D11
   1                    0.58352   0.57208   0.56832   0.04442   0.04131
                          D12       D9        D13       D10       A15
   1                    0.03819   0.03508   0.03161   0.02850   0.02203
 RFO step:  Lambda=-2.00196833D-01 EMin=-3.54946547D-05
 Linear search not attempted -- first point.
 Maximum step size (   0.300) exceeded in Quadratic search.
    -- Step size scaled by   0.707
 Iteration  1 RMS(Cart)=  0.03303305 RMS(Int)=  0.00025941
 Iteration  2 RMS(Cart)=  0.00029784 RMS(Int)=  0.00003091
 Iteration  3 RMS(Cart)=  0.00000013 RMS(Int)=  0.00003091
 ITry= 1 IFail=0 DXMaxC= 1.32D-01 DCOld= 1.00D+10 DXMaxT= 3.00D-01 DXLimC= 3.00D+00 Rises=F
 Variable       Old X    -DE/DX   Delta X   Delta X   Delta X     New X
                                 (Linear)    (Quad)   (Total)
    R1        2.58270   0.00939   0.00000   0.01027   0.01027   2.59297
    R2        2.65400   0.00574   0.00000   0.00512   0.00512   2.65912
    R3        2.84260   0.00242   0.00000   0.00444   0.00444   2.84704
    R4        1.68876   0.23180   0.00000   0.13170   0.13170   1.82046
    R5        2.67132   0.00547   0.00000   0.00428   0.00429   2.67560
    R6        1.76270   0.16291   0.00000   0.11072   0.11072   1.87342
    R7        2.57665   0.01465   0.00000   0.01302   0.01302   2.58967
    R8        1.78774   0.14080   0.00000   0.10117   0.10117   1.88891
    R9        2.65979  -0.00224   0.00000  -0.00350  -0.00350   2.65629
   R10        1.83898   0.11510   0.00000   0.09374   0.09374   1.93272
   R11        1.82206   0.12705   0.00000   0.09956   0.09956   1.92161
   R12        2.63634   0.02654   0.00000   0.02460   0.02460   2.66094
   R13        2.68962   0.00920   0.00000   0.01631   0.01631   2.70593
   R14        2.66948   0.00302   0.00000   0.00418   0.00418   2.67366
   R15        2.35953  -0.00664   0.00000  -0.00773  -0.00773   2.35180
   R16        2.32128   0.00067   0.00000  -0.00073  -0.00073   2.32055
   R17        2.54331   0.01394   0.00000   0.01209   0.01209   2.55541
   R18        1.59003   0.25883   0.00000   0.11969   0.11969   1.70972
   R19        1.68038   0.15574   0.00000   0.09284   0.09284   1.77322
   R20        1.66886   0.10061   0.00000   0.06503   0.06503   1.73390
    A1        2.09218   0.00221   0.00000   0.00242   0.00243   2.09461
    A2        2.11489  -0.00334   0.00000  -0.00389  -0.00389   2.11099
    A3        2.07606   0.00113   0.00000   0.00146   0.00146   2.07752
    A4        2.11890  -0.00282   0.00000  -0.00904  -0.00904   2.10986
    A5        2.13516  -0.00404   0.00000  -0.00419  -0.00419   2.13097
    A6        2.02885   0.00688   0.00000   0.01329   0.01329   2.04213
    A7        2.11180   0.00013   0.00000  -0.00158  -0.00158   2.11022
    A8        2.09482  -0.00358   0.00000  -0.00445  -0.00445   2.09038
    A9        2.07580   0.00348   0.00000   0.00612   0.00612   2.08191
   A10        2.07198   0.00599   0.00000   0.01281   0.01281   2.08479
   A11        2.10026   0.00107   0.00000   0.00293   0.00292   2.10319
   A12        2.11075  -0.00705   0.00000  -0.01571  -0.01571   2.09504
   A13        1.93242  -0.00184   0.00000  -0.00535  -0.00539   1.92703
   A14        1.93047  -0.00626   0.00000  -0.01124  -0.01120   1.91927
   A15        1.94841  -0.01069   0.00000  -0.01350  -0.01350   1.93491
   A16        1.89377   0.00033   0.00000  -0.00184  -0.00201   1.89176
   A17        1.92612   0.00417   0.00000   0.00503   0.00492   1.93104
   A18        1.82946   0.01534   0.00000   0.02872   0.02869   1.85816
   A19        2.04701  -0.00221   0.00000  -0.00237  -0.00237   2.04464
   A20        2.11059   0.00092   0.00000  -0.00023  -0.00024   2.11035
   A21        2.12557   0.00129   0.00000   0.00260   0.00260   2.12818
   A22        2.08265  -0.00406   0.00000  -0.00384  -0.00384   2.07882
   A23        2.09384  -0.00884   0.00000  -0.01157  -0.01157   2.08227
   A24        2.10668   0.01289   0.00000   0.01541   0.01541   2.12210
   A25        2.03334   0.00344   0.00000   0.00353   0.00352   2.03686
   A26        2.06988  -0.00070   0.00000   0.00104   0.00104   2.07092
   A27        2.17990  -0.00274   0.00000  -0.00457  -0.00457   2.17533
   A28        2.06246   0.00059   0.00000   0.00258   0.00257   2.06503
   A29        2.07053  -0.00062   0.00000  -0.00144  -0.00145   2.06907
   A30        2.09297   0.00140   0.00000   0.00141   0.00140   2.09437
   A31        1.95780  -0.00786   0.00000  -0.02050  -0.02050   1.93730
    D1       -3.11670  -0.00100   0.00000  -0.00293  -0.00291  -3.11962
    D2       -0.00121   0.00002   0.00000   0.00010   0.00010  -0.00111
    D3        0.01290  -0.00098   0.00000  -0.00309  -0.00307   0.00982
    D4        3.12839   0.00003   0.00000  -0.00006  -0.00006   3.12833
    D5       -3.09773  -0.00072   0.00000  -0.00213  -0.00212  -3.09985
    D6        0.00145   0.00023   0.00000   0.00067   0.00067   0.00212
    D7        0.05558  -0.00070   0.00000  -0.00193  -0.00193   0.05366
    D8       -3.12842   0.00025   0.00000   0.00086   0.00087  -3.12755
    D9        2.32449   0.00031   0.00000   0.00176   0.00176   2.32626
   D10       -1.85878  -0.00461   0.00000  -0.01145  -0.01144  -1.87022
   D11        0.17112   0.00389   0.00000   0.00878   0.00876   0.17988
   D12       -0.82898   0.00034   0.00000   0.00161   0.00161  -0.82737
   D13        1.27093  -0.00458   0.00000  -0.01160  -0.01159   1.25934
   D14       -2.98235   0.00392   0.00000   0.00863   0.00861  -2.97374
   D15        0.00324  -0.00041   0.00000  -0.00129  -0.00129   0.00195
   D16        3.13347  -0.00070   0.00000  -0.00234  -0.00234   3.13113
   D17        3.12000   0.00043   0.00000   0.00129   0.00131   3.12131
   D18       -0.03295   0.00014   0.00000   0.00024   0.00026  -0.03270
   D19        3.11670   0.00018   0.00000   0.00070   0.00071   3.11740
   D20       -0.00385  -0.00008   0.00000  -0.00020  -0.00020  -0.00405
   D21       -0.06643   0.00104   0.00000   0.00326   0.00327  -0.06316
   D22        3.09621   0.00078   0.00000   0.00236   0.00237   3.09857
   D23       -3.14061  -0.00035   0.00000  -0.00113  -0.00113   3.14145
   D24        0.00607  -0.00033   0.00000  -0.00106  -0.00106   0.00502
   D25        0.02250  -0.00078   0.00000  -0.00240  -0.00239   0.02011
   D26       -3.11400  -0.00076   0.00000  -0.00233  -0.00232  -3.11632
   D27       -2.73654  -0.00093   0.00000  -0.00395  -0.00391  -2.74045
   D28        1.38971   0.00600   0.00000   0.00887   0.00898   1.39869
   D29       -0.64603  -0.00480   0.00000  -0.00714  -0.00730  -0.65333
   D30        3.12716   0.00060   0.00000   0.00182   0.00182   3.12898
   D31       -0.01760   0.00062   0.00000   0.00191   0.00191  -0.01569
   D32       -0.01957   0.00058   0.00000   0.00174   0.00174  -0.01783
   D33        3.11885   0.00060   0.00000   0.00183   0.00183   3.12068
   D34       -0.00559   0.00055   0.00000   0.00175   0.00175  -0.00384
   D35       -3.13503   0.00084   0.00000   0.00282   0.00283  -3.13220
   D36        3.14132   0.00058   0.00000   0.00184   0.00184  -3.14002
   D37        0.01189   0.00088   0.00000   0.00291   0.00292   0.01480
   D38        0.17657  -0.00132   0.00000  -0.00111  -0.00111   0.17546
   D39        2.96125   0.00307   0.00000   0.00683   0.00683   2.96808
   D40       -2.97741  -0.00159   0.00000  -0.00219  -0.00219  -2.97960
   D41       -0.19274   0.00279   0.00000   0.00575   0.00575  -0.18699
         Item               Value     Threshold  Converged?
 Maximum Force            0.258834     0.000450     NO 
 RMS     Force            0.050368     0.000300     NO 
 Maximum Displacement     0.132380     0.001800     NO 
 RMS     Displacement     0.033047     0.001200     NO 
 Predicted change in Energy=-1.005913D-01
 Lowest energy point so far.  Saving SCF results.
 GradGradGradGradGradGradGradGradGradGradGradGradGradGradGradGradGradGrad

 Leave Link  103 at Fri Aug 27 06:55:12 2021, MaxMem= 24159191040 cpu:         6.4
 (Enter /public/home/users/caep010/software/Gaussian09/g09/l202.exe)
                          Input orientation:                          
 ---------------------------------------------------------------------
 Center     Atomic      Atomic             Coordinates (Angstroms)
 Number     Number       Type             X           Y           Z
 ---------------------------------------------------------------------
      1          6           0        2.426893    6.368996    6.441376
      2          6           0        1.946861    6.536285    5.166877
      3          1           0        1.043248    6.289076    4.942366
      4          6           0        3.741347    6.760919    6.755490
      5          1           0        4.113522    6.613998    7.662530
      6          6           0        4.537380    7.311597    5.785404
      7          1           0        5.463191    7.607459    6.018814
      8          6           0        1.560129    5.782297    7.525035
      9          6           0        4.052546    7.483610    4.477280
     10          7           0        4.945042    8.066127    3.520978
     11          8           0        4.557979    8.222619    2.348577
     12          8           0        6.071323    8.402062    3.876759
     13          1           0        2.072708    5.063928    8.041976
     14          1           0        1.280838    6.509828    8.178278
     15          6           0        2.734797    7.099500    4.134098
     16          7           0        2.195609    7.220858    2.899933
     17          1           0        1.309105    7.068885    2.802044
     18          1           0        2.660313    7.718843    2.254519
     19          8           0        0.372122    5.252969    6.985392
     20          1           0       -0.287451    5.209843    7.621774
 ---------------------------------------------------------------------
                    Distance matrix (angstroms):
                    1          2          3          4          5
     1  C    0.000000
     2  C    1.372139   0.000000
     3  H    2.041542   0.963345   0.000000
     4  C    1.407146   2.407142   3.284782   0.000000
     5  H    2.096655   3.305865   4.114784   0.991374   0.000000
     6  C    2.402696   2.773891   3.737007   1.370394   2.046924
     7  H    3.306275   3.773300   4.736325   2.055254   2.347418
     8  C    1.506589   2.505787   2.682195   2.511496   2.688949
     9  C    2.782586   2.409747   3.270947   2.410263   3.302387
    10  N    4.213081   3.746797   4.516885   3.689785   4.466828
    11  O    4.972771   4.195768   4.776993   4.714269   5.569856
    12  O    4.898212   4.707092   5.557136   4.050830   4.621927
    13  H    2.095368   3.232625   3.488317   2.705399   2.590679
    14  H    2.085691   3.084287   3.252124   2.853328   2.881137
    15  C    2.439666   1.415869   2.042406   2.828334   3.819218
    16  N    3.649791   2.381081   2.523427   4.179254   5.170009
    17  H    3.870921   2.506557   2.293416   4.651922   5.629920
    18  H    4.405263   3.223242   3.447268   4.727049   5.707809
    19  O    2.400740   2.726482   2.387024   3.698439   4.038439
    20  H    3.178779   3.574650   3.180367   4.403124   4.619727
                    6          7          8          9         10
     6  C    0.000000
     7  H    0.999571   0.000000
     8  C    3.772147   4.564406   0.000000
     9  C    1.405646   2.093224   4.288988   0.000000
    10  N    2.421390   2.591918   5.718914   1.431917   0.000000
    11  O    3.555583   3.829945   6.460494   2.309323   1.244521
    12  O    2.680489   2.364238   6.365842   2.297746   1.227982
    13  H    4.027249   4.696606   1.022751   4.741484   6.140270
    14  H    4.119921   4.833235   1.016874   4.725252   6.126900
    15  C    2.453794   3.354745   3.822737   1.414842   2.489070
    16  N    3.717266   4.533649   4.885167   2.450567   2.942713
    17  H    4.402398   5.281487   4.901526   3.241124   3.838150
    18  H    4.019500   4.694514   5.721796   2.633309   2.635244
    19  O    4.798676   5.691826   1.408107   4.981156   6.389650
    20  H    5.573923   6.433345   1.936651   5.821807   7.235597
                   11         12         13         14         15
    11  O    0.000000
    12  O    2.158182   0.000000
    13  H    6.969124   6.669414   0.000000
    14  H    6.903530   6.710616   1.654166   0.000000
    15  C    2.788095   3.591002   4.455718   4.337869   0.000000
    16  N    2.624559   4.167804   5.577459   5.404007   1.352263
    17  H    3.477343   5.060740   5.662139   5.405297   1.951385
    18  H    1.965648   3.838416   6.394412   6.201258   1.980392
    19  O    6.916667   7.215350   2.010995   1.956639   4.137848
    20  H    7.769274   8.040485   2.401710   2.111679   4.986850
                   16         17         18         19         20
    16  N    0.000000
    17  H    0.904747   0.000000
    18  H    0.938349   1.596243   0.000000
    19  O    4.887604   4.655737   5.804956   0.000000
    20  H    5.701364   5.406924   6.617539   0.917539   0.000000
 Stoichiometry    C7H8N2O3
 Framework group  C1[X(C7H8N2O3)]
 Deg. of freedom    54
 Full point group                 C1      NOp   1
 RotChk:  IX=0 Diff= 3.34D-03
 Largest Abelian subgroup         C1      NOp   1
 Largest concise Abelian subgroup C1      NOp   1
                         Standard orientation:                         
 ---------------------------------------------------------------------
 Center     Atomic      Atomic             Coordinates (Angstroms)
 Number     Number       Type             X           Y           Z
 ---------------------------------------------------------------------
      1          6           0       -1.706002   -0.446453    0.025251
      2          6           0       -1.104147    0.786646    0.027114
      3          1           0       -1.629768    1.593426    0.056500
      4          6           0       -0.919792   -1.613356    0.008741
      5          1           0       -1.340440   -2.510298   -0.028296
      6          6           0        0.446865   -1.512905   -0.002911
      7          1           0        1.000882   -2.344842    0.006431
      8          6           0       -3.206665   -0.576266    0.056389
      9          6           0        1.069688   -0.252772   -0.003404
     10          7           0        2.501394   -0.231548   -0.015760
     11          8           0        3.090503    0.864614   -0.030318
     12          8           0        3.118336   -1.293278   -0.008459
     13          1           0       -3.520705   -1.253228   -0.642983
     14          1           0       -3.508413   -0.898123    0.972571
     15          6           0        0.303694    0.936649    0.014157
     16          7           0        0.822713    2.185305    0.004523
     17          1           0        0.264509    2.883206    0.145620
     18          1           0        1.745743    2.288326    0.138317
     19          8           0       -3.822465    0.673035   -0.150491
     20          1           0       -4.673401    0.681010    0.192617
 ---------------------------------------------------------------------
 Rotational constants (GHZ):      2.1959041      0.5639388      0.4502083
 Leave Link  202 at Fri Aug 27 06:55:12 2021, MaxMem= 24159191040 cpu:         0.3
 (Enter /public/home/users/caep010/software/Gaussian09/g09/l301.exe)
 Standard basis: GTBas3 (6D, 7F)
 Ernie: Thresh=  0.10000D-02 Tol=  0.10000D-05 Strict=F.
 There are   412 symmetry adapted cartesian basis functions of A   symmetry.
 There are   376 symmetry adapted basis functions of A   symmetry.
   376 basis functions,   584 primitive gaussians,   412 cartesian basis functions
    44 alpha electrons       44 beta electrons
       nuclear repulsion energy       692.9827025017 Hartrees.
 IExCor=  402 DFT=T Ex+Corr=B3LYP ExCW=0 ScaHFX=  0.200000
 ScaDFX=  0.800000  0.720000  1.000000  0.810000 ScalE2=  1.000000  1.000000
 IRadAn=      0 IRanWt=     -1 IRanGd=            0 ICorTp=0 IEmpDi=  4
 NAtoms=   20 NActive=   20 NUniq=   20 SFac= 1.00D+00 NAtFMM=   60 NAOKFM=F Big=F
 Integral buffers will be    131072 words long.
 Raffenetti 2 integral format.
[...]
 977,0.00839344,0.00000347,-0.00135316,0.00069287,-0.05727156,-0.013351
 26,-0.06634039,0.06153969,0.01184094,0.06691686,-0.11733504,-0.0297240
 7,0.05293297,0.01334751,0.00336324,-0.00260506,-0.00189097,0.00160004,
 -0.00211684,-0.01804547,-0.01290801,0.02129891,0.00051364,0.00036935,0
 .00097371,-0.00298993,-0.00222559,-0.00160771,-0.00028325,-0.00021913,
 0.00063016,0.49763559,-0.02451281,-0.09347704,0.03980257,-0.00195775,0
 .00361110,0.00712212,0.00076676,-0.00398858,-0.00200307,-0.00876493,-0
 .00268929,0.00595649,0.00093086,-0.00090129,0.00004895,-0.00082506,0.0
 0413360,-0.00039594,0.00009478,-0.00009808,-0.00002041,-0.01680812,0.5
 3550246,0.03400347,0.03295650,-0.15262806,0.01741204,0.01450647,-0.024
 77285,0.00109819,-0.00086762,0.00003206,0.00536732,0.00014666,0.008833
 78,-0.00123557,-0.00071566,-0.00009069,-0.00682570,-0.00226946,0.00336
 437,-0.00055745,-0.00045098,0.00079967,0.00431698,0.00485671,0.5307978
 0,-0.02173234,-0.00172758,-0.01680742,-0.02216096,-0.01997402,0.035039
 73,0.00057331,-0.00157388,0.00068570,0.03101296,0.00808179,0.00466167,
 -0.00103424,-0.00405884,0.00297017,-0.13536771,-0.01235550,-0.06232853
 ,-0.00700851,0.00278030,-0.02705597,0.00065883,0.00027099,0.00023409,0
 .57606116,0.00338097,-0.00348219,-0.00062557,-0.01383635,0.00112193,0.
 00421341,-0.00200303,0.00311177,0.00198107,-0.00232206,0.00044450,0.01
 666502,-0.00358408,0.00580090,0.00301340,-0.00282384,-0.06566840,0.030
 64382,-0.00361840,0.00557828,-0.00804965,0.00076006,-0.00032227,0.0011
 1587,0.13240853,0.19794042,-0.03601579,-0.00763707,-0.02583661,0.01163
 386,-0.00430178,0.03977972,0.00239560,0.00256331,-0.00226615,0.0438876
 1,0.03083870,-0.05095399,0.00125107,0.00242024,0.00054854,-0.09891391,
 0.01730497,-0.25964985,-0.00258560,0.00085818,-0.00231671,-0.00156439,
 0.00053967,-0.00420880,0.12114277,-0.08228369,0.60621279,-0.00991766,-
 0.00203045,-0.00450963,-0.00603307,-0.00456650,-0.00081871,-0.00036727
 ,-0.00047809,0.00114259,0.00987018,0.00431741,-0.01230626,0.00104768,0
 .00005248,-0.00135949,0.01412805,-0.00079760,0.02797020,-0.00338874,0.
 00158156,-0.00503370,-0.00192324,-0.00004994,-0.00151574,-0.11835779,-
 0.01484429,0.00164143,0.75338526,-0.00525554,-0.00220557,-0.00316283,-
 0.00448167,0.00467601,0.00287804,0.00014132,0.00009447,0.00044441,0.00
 587049,0.00966576,-0.00290367,-0.00049466,0.00168491,0.00009661,-0.000
 23588,-0.00988378,0.02164280,0.00025951,-0.00320718,-0.00297420,-0.000
 96641,-0.00063593,-0.00102331,-0.01506785,-0.08789144,0.01019078,0.141
 14419,0.31189676,0.00760956,0.00129512,0.00448795,-0.00107347,0.002734
 74,-0.00461769,-0.00119399,-0.00038730,0.00002693,-0.01781826,-0.00483
 813,0.00066890,0.00074513,0.00085472,-0.00040636,0.02613050,0.02112750
 ,-0.04731727,-0.00002306,-0.00117045,0.00031344,0.00176296,0.00012359,
 0.00123963,0.00268253,0.01047910,-0.11521839,0.16723178,-0.07661125,0.
 74511224,-0.00215594,-0.00043055,-0.00195355,-0.00060881,-0.00087943,0
 .00315820,0.00027728,0.00006891,0.00005456,0.00348917,0.00139578,0.000
 66222,-0.00031297,0.00008264,0.00042568,-0.00312972,-0.00340828,0.0025
 3543,0.00018041,-0.00043504,0.00136405,0.00011834,0.00013235,-0.000185
 11,0.02470497,-0.00048773,0.00897084,-0.15023534,-0.00555012,-0.076582
 21,0.18680324,0.00093093,0.00065757,0.00051427,0.00034519,-0.00022363,
 -0.00046278,-0.00001385,0.00003163,-0.00002045,-0.00036362,-0.00122223
 ,0.00112024,0.00004415,-0.00084063,0.00010399,-0.00431546,0.00274524,-
 0.00016619,0.00002815,0.00035526,0.00017159,0.00034800,-0.00002154,0.0
 0010283,0.00032447,0.01233320,0.02606024,0.00121685,-0.09595361,0.0708
 0003,0.01567434,0.05814471,-0.00704078,-0.00134912,-0.00416704,-0.0015
 6511,-0.00215555,0.00557129,0.00036361,0.00008935,0.00019563,0.0072258
 1,0.00346326,-0.00410479,0.00051664,0.00012637,-0.00059650,0.00574409,
 0.00100458,0.00842253,-0.00036683,-0.00041701,0.00148980,-0.00098226,-
 0.00016977,-0.00074617,0.00655490,0.02519827,-0.06502835,-0.10221200,0
 .06150952,-0.43893747,0.15108135,-0.08320049,0.53708391,0.00308333,0.0
 0103356,0.00048391,-0.00079083,0.00040001,-0.00044413,-0.00026146,-0.0
 0013118,0.00032642,-0.00400687,-0.00221404,0.00352285,-0.00007099,-0.0
 0007633,0.00027237,-0.00227891,0.00190242,-0.01209155,-0.00042335,-0.0
 0125854,0.00436856,0.00088055,0.00007817,0.00069808,-0.06297580,-0.032
 62259,0.00973086,-0.46661751,-0.11096994,-0.10639849,-0.03526814,-0.00
 470194,-0.06360068,0.56565713,0.00074444,0.00011931,0.00023304,-0.0001
 2458,-0.00148303,-0.00084508,-0.00014131,-0.00021353,0.00013668,-0.001
 60871,-0.00113437,0.00036429,0.00002159,-0.00009849,0.00010096,-0.0019
 6495,0.00103024,-0.00145173,-0.00155666,-0.00113929,0.00180285,0.00030
 561,0.00016934,0.00015942,-0.03466344,0.00625057,0.00377353,-0.1143776
 6,-0.11797704,-0.01889378,0.00366090,0.02885022,-0.00548907,0.15123609
 ,0.08143218,0.00164940,0.00063804,-0.00020068,0.00166561,-0.00002937,0
 .00071635,0.00033335,0.00013305,-0.00018108,0.00112550,-0.00050927,0.0
 0307615,-0.00007483,-0.00003376,-0.00008090,0.00238355,0.00382617,-0.0
 0980898,0.00542439,0.00218001,-0.00087398,-0.00007683,-0.00012232,0.00
 045493,0.01667989,0.00630063,0.01902141,-0.09349304,-0.01411215,-0.154
 49989,-0.09490716,-0.01679982,-0.03840822,0.15759586,0.01539024,0.1847
 0479,0.00917244,-0.01418079,0.00766951,-0.00160494,-0.00077276,0.00063
 128,0.00005592,-0.00055969,0.00031396,-0.00077959,-0.00046774,0.001033
 07,-0.00011433,0.00033334,-0.00027552,0.00082141,0.00031806,-0.0010931
 3,0.00003406,-0.00006890,-0.00005392,-0.08776299,0.07994008,-0.0313167
 1,-0.00027523,-0.00044810,0.00121820,0.00072276,0.00051609,-0.00069525
 ,0.00001714,-0.00015168,0.00038225,-0.00036036,-0.00011552,0.00000100,
 0.11069997,0.00414404,-0.00946113,0.00550026,-0.00135721,-0.00065872,-
 0.00019137,0.00008139,-0.00020669,-0.00004161,0.00017024,0.00147403,0.
 00094625,-0.00036276,-0.00052513,-0.00043705,-0.00035990,0.00015081,0.
 00012362,-0.00001916,-0.00005456,0.00003597,0.08426010,-0.21790663,0.0
 6767124,-0.00028000,-0.00022854,0.00008760,0.00034688,0.00010235,-0.00
 034454,-0.00008003,-0.00003427,0.00010326,-0.00022260,-0.00006242,0.00
 005049,-0.09198176,0.23018251,-0.00742108,0.02370819,-0.01217019,0.002
 30145,0.00078509,-0.00047143,-0.00050475,0.00060945,0.00037831,-0.0009
 7565,-0.00119831,0.00044807,0.00008170,0.00043897,0.00042978,0.0004701
 0,-0.00058360,-0.00079155,-0.00001257,0.00012645,0.00001992,-0.0339882
 8,0.06565635,-0.07493443,0.00032203,0.00014047,0.00008187,-0.00025542,
 0.00003944,0.00024442,0.00008876,0.00002398,-0.00004819,0.00016841,0.0
 0003513,-0.00006498,0.04315634,-0.07587306,0.08373595,0.00010728,0.010
 50807,0.01364763,-0.00183692,-0.00062468,0.00042594,-0.00023348,0.0001
 9777,0.00045660,-0.00005947,-0.00122832,0.00104791,-0.00027840,-0.0000
 1608,-0.00041854,0.00037822,0.00054726,-0.00081282,-0.00003225,0.00005
 823,0.00001543,-0.05212705,0.02134392,0.02437301,-0.00037892,-0.000329
 60,0.00102585,0.00072996,0.00043759,-0.00070753,-0.00003999,-0.0000784
 0,0.00036190,-0.00036760,-0.00016195,0.00000897,0.00135590,0.00932595,
 0.00995274,0.06258637,-0.00186476,0.00920570,0.01221915,-0.00096551,-0
 .00071940,0.00061250,-0.00011358,0.00041343,0.00027105,-0.00059006,0.0
 0049221,0.00012461,0.00032342,-0.00012425,-0.00018926,0.00055669,0.000
 26044,-0.00041556,-0.00001667,0.00009226,-0.00002542,0.01916631,-0.151
 52201,-0.11483731,-0.00008794,-0.00022431,0.00061661,0.00032741,0.0001
 6997,-0.00030201,0.00000233,-0.00001437,0.00019670,-0.00013328,-0.0000
 5448,-0.00000738,0.00635565,-0.01943939,-0.02072227,-0.01255856,0.1636
 7586,0.00623014,-0.01408536,-0.02185532,0.00238730,0.00097225,-0.00022
 371,0.00001222,-0.00081072,0.00006636,-0.00191286,0.00048115,0.0007532
 6,0.00067459,-0.00055435,0.00021882,0.00008387,0.00118379,-0.00046136,
 0.00007604,-0.00007623,-0.00006011,0.01964754,-0.11543633,-0.17699879,
 0.00041210,0.00001299,0.00019308,-0.00011936,-0.00032277,0.00015448,0.
 00009276,0.00007380,-0.00000936,0.00016089,0.00012460,-0.00005681,-0.0
 0063486,0.00673764,0.00824129,-0.01523846,0.12952213,0.19847935,0.0517
 6438,0.01121544,0.03082077,-0.17877857,-0.04950541,0.03709834,-0.01340
 407,-0.01159575,0.02143670,-0.04188586,-0.01831863,0.01848934,-0.00105
 326,-0.00033722,0.00034544,-0.00883805,0.01201445,-0.06338114,0.001244
 11,-0.00067927,-0.00053935,-0.00198072,-0.00338452,-0.00312579,-0.2394
 2939,-0.05692018,-0.02622491,-0.02864262,-0.01492837,0.02200798,-0.004
 91499,0.00222157,-0.01331509,0.00580487,0.00080288,-0.00184588,-0.0002
 9176,0.00026234,-0.00014827,0.00065138,0.00036665,-0.00121141,0.612170
 68,0.02062013,-0.00033671,0.02519099,-0.06361623,-0.10263426,0.0427637
 1,-0.00430132,-0.00025645,0.00722689,-0.01948786,-0.01349218,0.0059384
 1,-0.00039969,-0.00050098,-0.00002183,0.00454297,0.01223715,-0.0252879
 3,-0.00035314,0.00290206,0.00211637,-0.00339850,0.00774119,0.00204045,
 -0.04846561,-0.08509168,0.00902795,-0.01422033,-0.00878037,-0.00260048
 ,0.00110970,-0.00016584,-0.00088012,-0.00125100,0.00386151,0.00280042,
 0.00108292,0.00068483,-0.00148910,-0.00093255,-0.00097175,0.00100768,0
 .13881759,0.24825140,-0.00526544,0.01239586,-0.05548264,0.08890161,0.0
 6167319,-0.17979474,-0.00672130,-0.00293384,0.00537752,0.02379392,0.00
 773249,-0.00143952,0.00053933,0.00004911,0.00018083,-0.03556421,-0.015
 29295,0.01311900,-0.00194373,0.00163020,-0.00520201,-0.00286307,0.0021
 0667,-0.00277764,-0.05611759,-0.00129948,-0.13728697,0.01925446,-0.004
 44943,0.03758622,-0.01032429,0.00076792,-0.01707178,0.00626298,0.00592
 897,-0.00817204,0.00060505,0.00017649,-0.00064913,-0.00002043,0.000090
 26,0.00005551,0.08391104,-0.11090071,0.70708027,-0.00614377,-0.0041160
 5,0.00207594,0.01770730,-0.00272342,0.02071906,0.00172159,0.00094755,0
 .00150399,0.00170723,0.00176658,-0.00321172,0.00037050,0.00024308,-0.0
 0002078,-0.00344278,-0.00409710,0.00579987,-0.00029173,0.00003601,-0.0
 0132171,0.00053317,0.00004625,0.00107847,-0.02248589,-0.00037779,-0.04
 259207,0.00581994,0.00243550,0.00032588,-0.01605586,-0.00640781,-0.000
 36518,-0.00463691,-0.00090502,-0.00262372,-0.00008610,-0.00020058,0.00
 026875,-0.00013591,-0.00006204,0.00030639,-0.16022592,-0.01812419,-0.1
 0060574,0.78819629,-0.00665294,0.00204809,-0.00076176,0.00479887,0.006
 14948,0.02647276,0.00187874,-0.00170902,-0.00076139,0.00360877,0.00090
 338,-0.00089893,0.00031153,-0.00027633,-0.00012434,-0.00329398,0.00091
 212,0.00479782,-0.00036276,0.00045218,-0.00033887,0.00077297,-0.000225
 15,0.00017230,-0.00475765,0.00920816,-0.01296051,0.00096082,-0.0024361
 7,0.00513398,-0.00720917,0.00034914,-0.00380520,-0.00157035,0.00001414
 ,-0.00192709,-0.00004960,-0.00004956,0.00015990,-0.00006915,0.00002317
 ,0.00017606,-0.01756305,-0.05827110,0.04408855,0.25377751,0.16297224,0
 .01308870,0.00219091,0.01367273,-0.00591972,0.01749117,-0.06680918,-0.
 00106122,-0.00164876,0.00215870,-0.01347007,-0.00430445,-0.00276829,-0
 .00004620,-0.00015639,0.00007325,0.00503613,0.00496373,-0.00836174,0.0
 0036277,0.00021561,0.00024365,-0.00195616,-0.00100543,0.00079803,-0.03
 148990,-0.00982792,0.00092975,0.00929945,0.01026175,-0.02660221,0.0055
 1453,-0.00279257,0.01902645,-0.00227731,-0.00201771,0.00405838,-0.0000
 1098,0.00009810,-0.00016740,0.00001478,0.00001951,-0.00017498,-0.08812
 188,0.03940989,-0.32716399,0.03382336,-0.20001176,0.72358126,-0.001304
 06,-0.00006541,-0.00121965,0.00166371,0.00009279,0.00436851,0.00007691
 ,0.00014323,-0.00051475,0.00124501,0.00046387,0.00022064,-0.00000663,0
 .00001926,-0.00000311,-0.00064496,-0.00098307,0.00073559,0.00006098,0.
 00002635,-0.00017013,0.00030450,0.00002921,-0.00003415,0.00396785,0.00
 065791,-0.00126805,-0.00100839,-0.00128115,0.00282496,-0.00212825,-0.0
 0078584,-0.00151489,0.00031536,0.00054535,-0.00025658,-0.00003504,-0.0
 0000890,0.00000644,-0.00002344,-0.00000173,0.00001096,-0.01161552,-0.0
 0080729,-0.00360521,-0.42846015,-0.11515466,-0.06192863,0.44421648,-0.
 00044630,-0.00080060,-0.00078920,0.00178975,-0.00204256,0.00105126,-0.
 00061402,0.00025174,0.00020835,0.00065852,-0.00002040,0.00011808,-0.00
 006450,0.00004536,0.00000216,-0.00061191,0.00117745,0.00052958,-0.0000
 0042,0.00009591,0.00004240,0.00005479,0.00031805,0.00006168,0.00080223
 ,0.00369040,0.00130340,-0.00071785,-0.00052515,0.00271078,-0.00273587,
 0.00029368,-0.00116690,0.00044444,-0.00065973,-0.00067166,0.00001968,-
 0.00000162,-0.00002197,-0.00002512,-0.00003581,-0.00001718,0.00420016,
 -0.00226085,-0.00434249,-0.10957572,-0.03324401,0.00673510,0.11380271,
 0.03872662,0.00035122,-0.00005826,-0.00028532,-0.00191115,-0.00189737,
 0.00151344,0.00156901,0.00092562,-0.00061019,0.00017316,0.00001140,0.0
 0010212,0.00012443,0.00005295,0.00002456,-0.00154198,-0.00042509,0.000
 60063,-0.00010076,0.00009275,-0.00046087,-0.00004749,0.00009455,-0.000
 05343,-0.00001684,0.00232783,-0.00476191,-0.00027226,0.00093935,-0.003
 03907,0.00388551,0.00122621,0.00198200,0.00075748,-0.00028748,0.000892
 12,0.00001005,-0.00004700,0.00004573,-0.00002423,-0.00000071,0.0000655
 7,-0.03492877,-0.01065443,-0.00383611,-0.05641673,0.00558576,-0.074847
 34,0.07009462,0.00271955,0.07101979,0.00454574,0.00018026,0.00252726,-
 0.00042776,0.00057542,-0.00884296,-0.00007613,0.00022386,0.00012300,-0
 .00393792,-0.00160765,0.00054266,-0.00012528,-0.00001306,0.00009310,-0
 .00029416,0.00087750,-0.00321677,0.00006421,0.00014606,-0.00037454,-0.
 00020180,0.00007516,0.00022155,-0.00583762,-0.00265811,0.00499029,-0.0
 0033981,0.00756625,-0.02545297,-0.00076624,-0.00401542,0.01764353,0.00
 287631,-0.00138099,0.00607991,-0.00005806,0.00004298,-0.00009745,-0.00
 006860,-0.00005979,-0.00004268,0.01985370,0.00897865,0.00138259,-0.174
 67616,-0.10934907,0.13774646,-0.00639922,-0.00689119,0.01827943,0.1659
 2479,0.00056422,0.00197132,0.00145475,-0.00060813,0.00393754,-0.001751
 10,0.00015915,-0.00072353,-0.00016834,-0.00133728,-0.00048731,0.000177
 90,0.00000824,-0.00014747,-0.00001187,-0.00007625,-0.00016143,-0.00111
 216,0.00003886,0.00002648,-0.00017547,0.00016916,-0.00043520,-0.000009
 11,-0.00164577,-0.00251638,0.00126498,0.00172942,0.00112593,-0.0095819
 2,-0.00087453,-0.00521528,0.00657292,0.00030501,0.00117042,0.00272190,
 -0.00008238,-0.00002320,0.00007908,0.00002159,0.00002477,-0.00011224,0
 .00389330,-0.00300781,0.00362946,-0.11288815,-0.08693669,0.13981902,0.
 00334554,-0.00487957,-0.00053176,0.10731425,0.09626186,0.00043382,0.00
 103705,-0.00134020,-0.00463508,-0.00026066,-0.00102975,0.00026921,-0.0
 0011661,0.00004385,0.00070653,0.00019624,0.00036513,-0.00000623,-0.000
 04294,0.00000478,0.00019814,-0.00013520,0.00004743,-0.00000806,-0.0000
 5446,0.00013167,-0.00015342,-0.00011414,-0.00032579,0.00236080,0.00007
 465,0.00033695,-0.00488720,-0.00248104,0.00083466,0.00600694,0.0024523
 2,-0.00475073,0.00034003,0.00083576,-0.00043668,0.00001265,-0.00000907
 ,-0.00000920,0.00003157,0.00004547,-0.00005591,0.01719802,0.01419960,-
 0.02636222,0.14147239,0.13503546,-0.25755812,-0.00773183,-0.00838848,0
 .01148055,-0.15152447,-0.14222168,0.27852334,-0.03190542,-0.00988030,-
 0.00856953,-0.00098170,-0.00055616,-0.00042955,-0.00070003,-0.00043688
 ,0.00100431,-0.00149809,-0.00252722,0.00590067,0.00061561,0.00040203,-
 0.00004990,-0.00100167,0.00024842,-0.00278472,-0.00016675,-0.00010465,
 0.00031123,-0.20323538,-0.03019857,-0.07513906,-0.00002376,-0.00046085
 ,0.00161569,0.00135669,0.00101918,-0.00162681,-0.00000154,-0.00035560,
 0.00122993,-0.00071736,-0.00037953,0.00033880,-0.03286499,-0.00479474,
 -0.01425383,-0.01223775,-0.01024954,-0.01076857,-0.00052553,0.00037863
 ,-0.00195701,0.00057920,-0.00014375,0.00160124,-0.00026148,-0.00007155
 ,-0.00003935,-0.00003694,-0.00002132,-0.00009725,0.45362767,-0.0195492
 5,-0.00325714,-0.00590361,-0.00060086,0.00045922,0.00055821,-0.0009807
 9,-0.00077227,0.00073672,-0.00125596,-0.00014664,0.00367815,0.00026444
 ,-0.00031411,-0.00017434,-0.00100360,0.00017651,-0.00092865,-0.0000693
 1,-0.00016838,0.00016163,-0.04136246,-0.07348509,-0.01164123,-0.000032
 99,-0.00007548,0.00044526,0.00050582,0.00011917,-0.00061534,-0.0000517
 1,-0.00006748,0.00042686,-0.00029946,-0.00008729,0.00017373,0.01950231
 ,0.01477917,0.00859859,-0.02700287,-0.00148861,-0.00983379,-0.00041028
 ,-0.00016227,-0.00113422,0.00020045,0.00015687,0.00063761,-0.00002694,
 -0.00017979,-0.00009638,0.00000549,-0.00000238,-0.00006187,0.17784843,
 0.14819835,0.02716138,0.00691067,0.01273955,-0.00028333,0.00055769,-0.
 00186070,0.00315578,0.00150399,-0.00174315,0.00095793,0.00188021,-0.00
 455782,0.00048883,0.00001039,0.00015393,0.00197226,0.00078262,0.000108
 72,0.00016702,0.00010871,-0.00028095,-0.03537749,0.00268314,-0.1180054
 8,0.00001495,-0.00011577,0.00049379,0.00020595,0.00002879,-0.00006978,
 0.00010095,0.00002763,0.00009581,0.00008942,0.00008533,-0.00012521,-0.
 01976874,-0.00463193,-0.00434978,-0.03305611,-0.00657716,-0.00861210,0
 .00126040,0.00005775,0.00136228,-0.00021632,-0.00002727,-0.00002488,-0
 .00002537,-0.00009123,0.00011329,-0.00006196,-0.00004467,0.00009468,-0
 .10844166,-0.14679275,0.43383029,-0.00614337,-0.00098559,-0.00467160,0
 .00045952,0.00059236,-0.00127228,0.00005315,0.00000822,0.00051303,-0.0
 0016334,-0.00065378,0.00157024,-0.00006484,-0.00004640,-0.00003732,-0.
 00049870,-0.00014661,-0.00012945,-0.00006097,-0.00001040,0.00011297,-0
 .02621626,-0.01720685,0.03113207,0.00008908,0.00012953,-0.00033935,-0.
 00022907,-0.00015853,0.00025075,0.00002724,0.00005597,-0.00014118,0.00
 015855,0.00006345,-0.00000818,0.00135380,0.00103372,0.00084057,0.00201
 068,-0.00039501,-0.00016660,0.00009712,-0.00017287,0.00033703,0.000005
 96,0.00006691,-0.00020536,0.00003633,-0.00001783,0.00005465,-0.0000190
 3,-0.00001495,0.00001342,-0.17002076,-0.10568047,0.16165612,0.19912494
 ,-0.00151038,-0.00013587,-0.00126514,0.00028940,-0.00007921,-0.0003174
 4,0.00001486,-0.00029630,-0.00009605,-0.00010846,0.00036913,0.00048430
 ,-0.00007584,0.00006287,0.00000549,-0.00014506,-0.00006179,-0.00000276
 ,0.00003095,-0.00010797,-0.00000070,-0.00355736,-0.00576765,0.00802454
 ,0.00002274,0.00002058,-0.00011235,-0.00010010,-0.00003908,0.00008564,
 0.00001553,-0.00000178,-0.00005786,0.00005156,0.00001174,-0.00000186,0
 .00081080,0.00127814,-0.00051277,0.00058687,0.00023654,0.00095689,-0.0
 0015172,0.00025408,0.00008393,0.00002493,-0.00004095,-0.00007742,-0.00
 001124,0.00005089,0.00002250,-0.00001061,0.00001795,0.00000961,-0.1197
 1603,-0.08368236,0.14364388,0.12353913,0.08791105,-0.00240434,-0.00045
 031,-0.00150271,-0.00004725,0.00012171,-0.00082885,0.00045084,-0.00010
 894,0.00078653,-0.00049572,-0.00023870,0.00075733,0.00007032,0.0000442
 0,0.00002587,-0.00010103,-0.00000157,-0.00014486,-0.00003137,-0.000051
 94,0.00003347,-0.01822423,-0.00972342,0.00922185,0.00005490,0.00003555
 ,-0.00007018,0.00003695,0.00000917,0.00003927,0.00001052,-0.00000273,0
 .00000120,0.00003405,0.00001408,-0.00001470,-0.00118426,0.00004472,0.0
 0003092,-0.00108423,-0.00064092,0.00028073,0.00027446,0.00005448,0.000
 47714,-0.00000011,-0.00000547,-0.00006408,0.00001063,0.00000675,0.0000
 5444,-0.00001596,0.00000034,0.00000556,0.21215536,0.16176542,-0.309362
 49,-0.18950953,-0.15087243,0.30027357\\-0.00000105,0.00000036,0.000000
 15,0.00000159,0.00000008,0.00000031,-0.00000282,-0.00000024,0.00000056
 ,-0.00000526,0.00000216,-0.00001640,0.00000736,-0.00000261,0.00001571,
 -0.00000016,-0.00000071,-0.00000136,0.00000091,-0.00000003,-0.00000106
 ,0.00000626,0.00000026,0.00001350,0.00000012,-0.00000020,-0.00000021,-
 0.00000029,-0.00000025,-0.00000087,-0.00000154,-0.00000006,-0.00000105
 ,-0.00000056,-0.00000028,-0.00000187,-0.00000178,0.00000586,-0.0000020
 4,0.00000321,-0.00000556,-0.00000625,-0.00000129,0.00000089,-0.0000030
 4,-0.00001141,-0.00000416,0.00000238,0.00000845,0.00000310,0.00000280,
 0.00000003,0.00000133,-0.00000106,-0.00000719,-0.00000341,0.00000435,0
 .00000544,0.00000345,-0.00000453\\\@
 Job cpu time:       0 days 21 hours 44 minutes 54.8 seconds.
 File lengths (MBytes):  RWF=  95508 Int=      0 D2E=      0 Chk=    115 Scr=      1
 Normal termination of Gaussian 09 at Fri Aug 27 12:20:35 2021.
