 Entering Gaussian System, Link 0=g09
 Input=G4.NAPHAP.gjf
 Output=G4.NAPHAP.log
 Initial command:
 /public/home/users/caep010/software/Gaussian09/g09/l1.exe "/public/home/users/caep010/.cache/gau_scr/Gau-10226.inp" -scrdir="/public/home/users/caep010/.cache/gau_scr/"
 Entering Link 1 = /public/home/users/caep010/software/Gaussian09/g09/l1.exe PID=     10227.
  
 Copyright (c) 1988,1990,1992,1993,1995,1998,2003,2009,2015,
            Gaussian, Inc.  All Rights Reserved.
  
 This is part of the Gaussian(R) 09 program.  It is based on
 the Gaussian(R) 03 system (copyright 2003, Gaussian, Inc.),
 the Gaussian(R) 98 system (copyright 1998, Gaussian, Inc.),
 the Gaussian(R) 94 system (copyright 1995, Gaussian, Inc.),
 the Gaussian 92(TM) system (copyright 1992, Gaussian, Inc.),
 the Gaussian 90(TM) system (copyright 1990, Gaussian, Inc.),
 the Gaussian 88(TM) system (copyright 1988, Gaussian, Inc.),
 the Gaussian 86(TM) system (copyright 1986, Carnegie Mellon
 University), and the Gaussian 82(TM) system (copyright 1983,
 Carnegie Mellon University). Gaussian is a federally registered
 trademark of Gaussian, Inc.
  
 This software contains proprietary and confidential information,
 including trade secrets, belonging to Gaussian, Inc.
  
 This software is provided under written license and may be
 used, copied, transmitted, or stored only in accord with that
 written license.
  
 The following legend is applicable only to US Government
 contracts under FAR:
  
                    RESTRICTED RIGHTS LEGEND
  
 Use, reproduction and disclosure by the US Government is
 subject to restrictions as set forth in subparagraphs (a)
 and (c) of the Commercial Computer Software - Restricted
 Rights clause in FAR 52.227-19.
  
 Gaussian, Inc.
 340 Quinnipiac St., Bldg. 40, Wallingford CT 06492
  
  
 ---------------------------------------------------------------
 Warning -- This program may not be used in any manner that
 competes with the business of Gaussian, Inc. or will provide
 assistance to any competitor of Gaussian, Inc.  The licensee
 of this program is prohibited from giving any competitor of
 Gaussian, Inc. access to this program.  By using this program,
 the user acknowledges that Gaussian, Inc. is engaged in the
 business of creating and licensing software in the field of
 computational chemistry and represents and warrants to the
 licensee that it is not a competitor of Gaussian, Inc. and that
 it will not use this program in any manner prohibited above.
 ---------------------------------------------------------------
  

 Cite this work as:
 Gaussian 09, Revision E.01,
 M. J. Frisch, G. W. Trucks, H. B. Schlegel, G. E. Scuseria, 
 M. A. Robb, J. R. Cheeseman, G. Scalmani, V. Barone, B. Mennucci, 
 G. A. Petersson, H. Nakatsuji, M. Caricato, X. Li, H. P. Hratchian, 
 A. F. Izmaylov, J. Bloino, G. Zheng, J. L. Sonnenberg, M. Hada, 
 M. Ehara, K. Toyota, R. Fukuda, J. Hasegawa, M. Ishida, T. Nakajima, 
 Y. Honda, O. Kitao, H. Nakai, T. Vreven, J. A. Montgomery, Jr., 
 J. E. Peralta, F. Ogliaro, M. Bearpark, J. J. Heyd, E. Brothers, 
 K. N. Kudin, V. N. Staroverov, T. Keith, R. Kobayashi, J. Normand, 
 K. Raghavachari, A. Rendell, J. C. Burant, S. S. Iyengar, J. Tomasi, 
 M. Cossi, N. Rega, J. M. Millam, M. Klene, J. E. Knox, J. B. Cross, 
 V. Bakken, C. Adamo, J. Jaramillo, R. Gomperts, R. E. Stratmann, 
 O. Yazyev, A. J. Austin, R. Cammi, C. Pomelli, J. W. Ochterski, 
 R. L. Martin, K. Morokuma, V. G. Zakrzewski, G. A. Voth, 
 P. Salvador, J. J. Dannenberg, S. Dapprich, A. D. Daniels, 
 O. Farkas, J. B. Foresman, J. V. Ortiz, J. Cioslowski, 
 and D. J. Fox, Gaussian, Inc., Wallingford CT, 2013.
 
 ******************************************
 Gaussian 09:  ES64L-G09RevE.01 30-Nov-2015
                27-Aug-2021 
 ******************************************
 %nproc=32
 Will use up to   32 processors via shared memory.
 %mem=180GB
 ----------------
 #P G4 OPT=calcfc
 ----------------
 1/10=4,14=-1,18=20,19=15,26=3,38=1/1,3;
 2/9=110,12=2,17=6,18=5,40=1/2;
 3/5=35,7=104,11=2,16=1,25=1,30=1,71=2,74=-5,140=1/1,2,3;
 4//1;
 5/5=2,38=5/2;
 8/6=4,10=90,11=11/1;
 11/6=1,8=1,9=11,15=111,16=1/1,2,10;
 10/6=1,13=1/2;
 6/7=2,8=2,9=2,10=2,28=1/1;
 7/10=1,18=20,25=1/1,2,3,16;
 1/10=4,14=-1,18=20,19=15,26=3/3(2);
 2/9=110/2;
 99//99;
 2/9=110/2;
 3/5=35,7=104,11=2,16=1,25=1,30=1,71=1,74=-5/1,2,3;
 4/5=5,16=3,69=1/1;
 5/5=2,38=5/2;
 7//1,2,3,16;
 1/14=-1,18=20,19=15,26=3/3(-5);
 2/9=110/2;
 6/7=2,8=2,9=2,10=2,19=2,28=1/1;
 99/9=1/99;
 Leave Link    1 at Fri Aug 27 06:18:54 2021, MaxMem= 24159191040 cpu:         6.5
 (Enter /public/home/users/caep010/software/Gaussian09/g09/l101.exe)
 ------
 NAPHAP
 ------
 Symbolic Z-matrix:
 Charge =  0 Multiplicity = 1
 N                    -0.8986    8.8774    2.1755 
 C                    -0.8181    7.5939    2.3486 
 N                     0.1938    9.1473    1.372 
 H                     0.404     9.9334    1.0944 
 N                    -1.6722    6.7826    3.0774 
 C                     0.8789    8.0474    1.0797 
 N                     1.968     7.7625    0.3251 
 N                     2.5897    8.8043   -0.2076 
 O                     3.5306    8.5377   -0.9857 
 N                     0.2479    7.0427    1.7187 
 H                     0.4766    6.2136    1.7255 
 N                    -2.5899    7.4222    3.6434 
 N                    -3.4491    7.8687    4.1873 
 O                     2.274     9.9819    0.0457 
 
 Add atom      8 valence  3 ND=      2 dihedral       7      8      9     14
 NAtoms=     14 NQM=       14 NQMF=       0 NMMI=      0 NMMIF=      0
                NMic=       0 NMicF=      0.
                    Isotopes and Nuclear Properties:
 (Nuclear quadrupole moments (NQMom) in fm**2, nuclear magnetic moments (NMagM)
  in nuclear magnetons)

  Atom         1           2           3           4           5           6           7           8           9          10
 IAtWgt=          14          12          14           1          14          12          14          14          16          14
 AtmWgt=  14.0030740  12.0000000  14.0030740   1.0078250  14.0030740  12.0000000  14.0030740  14.0030740  15.9949146  14.0030740
 NucSpn=           2           0           2           1           2           0           2           2           0           2
 AtZEff=   0.0000000   0.0000000   0.0000000   0.0000000   0.0000000   0.0000000   0.0000000   0.0000000   0.0000000   0.0000000
 NQMom=    2.0440000   0.0000000   2.0440000   0.0000000   2.0440000   0.0000000   2.0440000   2.0440000   0.0000000   2.0440000
 NMagM=    0.4037610   0.0000000   0.4037610   2.7928460   0.4037610   0.0000000   0.4037610   0.4037610   0.0000000   0.4037610
 AtZNuc=   7.0000000   6.0000000   7.0000000   1.0000000   7.0000000   6.0000000   7.0000000   7.0000000   8.0000000   7.0000000

  Atom        11          12          13          14
 IAtWgt=           1          14          14          16
 AtmWgt=   1.0078250  14.0030740  14.0030740  15.9949146
 NucSpn=           1           2           2           0
 AtZEff=   0.0000000   0.0000000   0.0000000   0.0000000
 NQMom=    0.0000000   2.0440000   2.0440000   0.0000000
 NMagM=    2.7928460   0.4037610   0.4037610   0.0000000
 AtZNuc=   1.0000000   7.0000000   7.0000000   8.0000000
 Leave Link  101 at Fri Aug 27 06:18:54 2021, MaxMem= 24159191040 cpu:        10.4
 (Enter /public/home/users/caep010/software/Gaussian09/g09/l103.exe)

 GradGradGradGradGradGradGradGradGradGradGradGradGradGradGradGradGradGrad
 Berny optimization.
 Initialization pass.
                           ----------------------------
                           !    Initial Parameters    !
                           ! (Angstroms and Degrees)  !
 --------------------------                            --------------------------
 ! Name  Definition              Value          Derivative Info.                !
 --------------------------------------------------------------------------------
 ! R1    R(1,2)                  1.2976         calculate D2E/DX2 analytically  !
 ! R2    R(1,3)                  1.3827         calculate D2E/DX2 analytically  !
 ! R3    R(2,5)                  1.3852         calculate D2E/DX2 analytically  !
 ! R4    R(2,10)                 1.3553         calculate D2E/DX2 analytically  !
 ! R5    R(3,4)                  0.8598         calculate D2E/DX2 analytically  !
 ! R6    R(3,6)                  1.3284         calculate D2E/DX2 analytically  !
 ! R7    R(5,12)                 1.2536         calculate D2E/DX2 analytically  !
 ! R8    R(6,7)                  1.3553         calculate D2E/DX2 analytically  !
 ! R9    R(6,10)                 1.3476         calculate D2E/DX2 analytically  !
 ! R10   R(7,8)                  1.325          calculate D2E/DX2 analytically  !
 ! R11   R(8,9)                  1.2497         calculate D2E/DX2 analytically  !
 ! R12   R(8,14)                 1.2452         calculate D2E/DX2 analytically  !
 ! R13   R(10,11)                0.8601         calculate D2E/DX2 analytically  !
 ! R14   R(12,13)                1.1106         calculate D2E/DX2 analytically  !
 ! A1    A(2,1,3)              102.8021         calculate D2E/DX2 analytically  !
 ! A2    A(1,2,5)              127.6794         calculate D2E/DX2 analytically  !
 ! A3    A(1,2,10)             112.8959         calculate D2E/DX2 analytically  !
 ! A4    A(5,2,10)             119.4247         calculate D2E/DX2 analytically  !
 ! A5    A(1,3,4)              124.005          calculate D2E/DX2 analytically  !
 ! A6    A(1,3,6)              111.9448         calculate D2E/DX2 analytically  !
 ! A7    A(4,3,6)              124.0503         calculate D2E/DX2 analytically  !
 ! A8    A(2,5,12)             112.9594         calculate D2E/DX2 analytically  !
 ! A9    A(3,6,7)              135.3193         calculate D2E/DX2 analytically  !
 ! A10   A(3,6,10)             105.7532         calculate D2E/DX2 analytically  !
 ! A11   A(7,6,10)             118.9201         calculate D2E/DX2 analytically  !
 ! A12   A(6,7,8)              115.8251         calculate D2E/DX2 analytically  !
 ! A13   A(7,8,9)              115.839          calculate D2E/DX2 analytically  !
 ! A14   A(7,8,14)             122.8763         calculate D2E/DX2 analytically  !
 ! A15   A(9,8,14)             121.2836         calculate D2E/DX2 analytically  !
 ! A16   A(2,10,6)             106.5863         calculate D2E/DX2 analytically  !
 ! A17   A(2,10,11)            126.6907         calculate D2E/DX2 analytically  !
 ! A18   A(6,10,11)            126.723          calculate D2E/DX2 analytically  !
 ! A19   L(5,12,13,1,-1)       186.9818         calculate D2E/DX2 analytically  !
 ! A20   L(5,12,13,1,-2)       179.4801         calculate D2E/DX2 analytically  !
 ! D1    D(3,1,2,5)           -179.7273         calculate D2E/DX2 analytically  !
 ! D2    D(3,1,2,10)             0.3359         calculate D2E/DX2 analytically  !
 ! D3    D(2,1,3,4)           -179.4855         calculate D2E/DX2 analytically  !
 ! D4    D(2,1,3,6)              0.5523         calculate D2E/DX2 analytically  !
 ! D5    D(1,2,5,12)            -2.0928         calculate D2E/DX2 analytically  !
 ! D6    D(10,2,5,12)          177.8404         calculate D2E/DX2 analytically  !
 ! D7    D(1,2,10,6)            -1.0746         calculate D2E/DX2 analytically  !
 ! D8    D(1,2,10,11)          178.939          calculate D2E/DX2 analytically  !
 ! D9    D(5,2,10,6)           178.9828         calculate D2E/DX2 analytically  !
 ! D10   D(5,2,10,11)           -1.0036         calculate D2E/DX2 analytically  !
 ! D11   D(1,3,6,7)            177.7537         calculate D2E/DX2 analytically  !
 ! D12   D(1,3,6,10)            -1.1991         calculate D2E/DX2 analytically  !
 ! D13   D(4,3,6,7)             -2.2084         calculate D2E/DX2 analytically  !
 ! D14   D(4,3,6,10)           178.8387         calculate D2E/DX2 analytically  !
 ! D15   D(3,6,7,8)              5.2069         calculate D2E/DX2 analytically  !
 ! D16   D(10,6,7,8)          -175.9445         calculate D2E/DX2 analytically  !
 ! D17   D(3,6,10,2)             1.3287         calculate D2E/DX2 analytically  !
 ! D18   D(3,6,10,11)         -178.6849         calculate D2E/DX2 analytically  !
 ! D19   D(7,6,10,2)          -177.8301         calculate D2E/DX2 analytically  !
 ! D20   D(7,6,10,11)            2.1563         calculate D2E/DX2 analytically  !
 ! D21   D(6,7,8,9)           -174.7045         calculate D2E/DX2 analytically  !
 ! D22   D(6,7,8,14)             5.6668         calculate D2E/DX2 analytically  !
 ! D23   D(7,8,9,14)          -179.635          calculate D2E/DX2 analytically  !
 --------------------------------------------------------------------------------
 Trust Radius=3.00D-01 FncErr=1.00D-07 GrdErr=1.00D-06
 Number of steps in this run=     67 maximum allowed number of steps=    100.
 GradGradGradGradGradGradGradGradGradGradGradGradGradGradGradGradGradGrad

 Leave Link  103 at Fri Aug 27 06:18:55 2021, MaxMem= 24159191040 cpu:         0.7
 (Enter /public/home/users/caep010/software/Gaussian09/g09/l202.exe)
                          Input orientation:                          
 ---------------------------------------------------------------------
 Center     Atomic      Atomic             Coordinates (Angstroms)
 Number     Number       Type             X           Y           Z
 ---------------------------------------------------------------------
      1          7           0       -0.898600    8.877400    2.175500
      2          6           0       -0.818100    7.593900    2.348600
      3          7           0        0.193800    9.147300    1.372000
      4          1           0        0.404000    9.933400    1.094400
      5          7           0       -1.672200    6.782600    3.077400
      6          6           0        0.878900    8.047400    1.079700
      7          7           0        1.968000    7.762500    0.325100
      8          7           0        2.589700    8.804300   -0.207600
      9          8           0        3.530600    8.537700   -0.985700
     10          7           0        0.247900    7.042700    1.718700
     11          1           0        0.476600    6.213600    1.725500
     12          7           0       -2.589900    7.422200    3.643400
     13          7           0       -3.449100    7.868700    4.187300
     14          8           0        2.274000    9.981900    0.045700
 ---------------------------------------------------------------------
                    Distance matrix (angstroms):
                    1          2          3          4          5
     1  N    0.000000
     2  C    1.297619   0.000000
     3  N    1.382677   2.095409   0.000000
     4  H    1.995164   2.922295   0.859767   0.000000
     5  N    2.408333   1.385223   3.461524   4.262679   0.000000
     6  C    2.247039   2.166928   1.328375   1.944927   3.478309
     7  N    3.589482   3.447511   2.482228   2.784012   4.667592
     8  N    4.225251   4.428581   2.890177   2.783407   5.748242
     9  O    5.452192   5.560531   4.130932   4.006298   6.830687
    10  N    2.211165   1.355342   2.133652   2.961463   2.366538
    11  H    3.031420   1.992418   2.968423   3.773655   2.601679
    12  N    2.670736   2.201196   3.985500   4.665508   1.253642
    13  N    3.401450   3.221567   4.778227   5.354941   2.359844
    14  O    3.977607   4.535083   2.604393   2.144534   5.916014
                    6          7          8          9         10
     6  C    0.000000
     7  N    1.355259   0.000000
     8  N    2.270876   1.325001   0.000000
     9  O    3.396731   2.181937   1.249723   0.000000
    10  N    1.347555   2.327870   3.506835   4.508317   0.000000
    11  H    1.985378   2.566025   3.861838   4.698826   0.860091
    12  N    4.358441   5.648130   6.600656   7.754575   3.449869
    13  N    5.331106   6.653784   7.527124   8.713421   4.521512
    14  O    2.599567   2.257750   1.245219   2.174521   3.942449
                   11         12         13         14
    11  H    0.000000
    12  N    3.813460   0.000000
    13  N    4.920461   1.110592   0.000000
    14  O    4.500273   6.569097   7.373760   0.000000
 Stoichiometry    C2H2N8O2
 Framework group  C1[X(C2H2N8O2)]
 Deg. of freedom    36
 Full point group                 C1      NOp   1
 Largest Abelian subgroup         C1      NOp   1
 Largest concise Abelian subgroup C1      NOp   1
                         Standard orientation:                         
 ---------------------------------------------------------------------
 Center     Atomic      Atomic             Coordinates (Angstroms)
 Number     Number       Type             X           Y           Z
 ---------------------------------------------------------------------
      1          7           0       -1.162092    0.952256   -0.069227
      2          6           0       -1.456717   -0.309573    0.000057
      3          7           0        0.220551    0.944832   -0.063022
      4          1           0        0.705349    1.654196   -0.094225
      5          7           0       -2.716612   -0.884933    0.021708
      6          6           0        0.710106   -0.288629   -0.003936
      7          7           0        1.950593   -0.834407   -0.010842
      8          7           0        2.959226    0.024499    0.012945
      9          8           0        4.100577   -0.472503   -0.097128
     10          7           0       -0.360555   -1.104685    0.056414
     11          1           0       -0.350544   -1.962482    0.118390
     12          7           0       -3.641128   -0.038359    0.007539
     13          7           0       -4.545352    0.606265   -0.008354
     14          8           0        2.798479    1.252404    0.143250
 ---------------------------------------------------------------------
 Rotational constants (GHZ):      4.7540592      0.4202201      0.3864946
 Leave Link  202 at Fri Aug 27 06:18:55 2021, MaxMem= 24159191040 cpu:         0.8
 (Enter /public/home/users/caep010/software/Gaussian09/g09/l301.exe)
 Standard basis: GTBas3 (6D, 7F)
 Ernie: Thresh=  0.10000D-02 Tol=  0.10000D-05 Strict=F.
 There are   382 symmetry adapted cartesian basis functions of A   symmetry.
 There are   346 symmetry adapted basis functions of A   symmetry.
   346 basis functions,   542 primitive gaussians,   382 cartesian basis functions
    43 alpha electrons       43 beta electrons
       nuclear repulsion energy       672.1007903558 Hartrees.
 IExCor=  402 DFT=T Ex+Corr=B3LYP ExCW=0 ScaHFX=  0.200000
 ScaDFX=  0.800000  0.720000  1.000000  0.810000 ScalE2=  1.000000  1.000000
 IRadAn=      0 IRanWt=     -1 IRanGd=            0 ICorTp=0 IEmpDi=  4
 NAtoms=   14 NActive=   14 NUniq=   14 SFac= 1.00D+00 NAtFMM=   60 NAOKFM=F Big=F
 Integral buffers will be    131072 words long.
 Raffenetti 2 integral format.
 Two-electron integral symmetry is turned on.
 Leave Link  301 at Fri Aug 27 06:18:55 2021, MaxMem= 24159191040 cpu:         2.4
 (Enter /public/home/users/caep010/software/Gaussian09/g09/l302.exe)
 NPDir=0 NMtPBC=     1 NCelOv=     1 NCel=       1 NClECP=     1 NCelD=      1
         NCelK=      1 NCelE2=     1 NClLst=     1 CellRange=     0.0.
 One-electron integrals computed using PRISM.
 NBasis=   346 RedAO= T EigKep=  1.24D-04  NBF=   346
 NBsUse=   346 1.00D-06 EigRej= -1.00D+00 NBFU=   346
 Precomputing XC quadrature grid using
 IXCGrd= 4 IRadAn=           0 IRanWt=          -1 IRanGd=           0 AccXCQ= 0.00D+00.
 Generated NRdTot=       0 NPtTot=           0 NUsed=           0 NTot=          32
 NSgBfM=   380   380   380   380   380 MxSgAt=    14 MxSgA2=    14.
 Leave Link  302 at Fri Aug 27 06:18:55 2021, MaxMem= 24159191040 cpu:        16.9
 (Enter /public/home/users/caep010/software/Gaussian09/g09/l303.exe)
 DipDrv:  MaxL=1.
 Leave Link  303 at Fri Aug 27 06:18:56 2021, MaxMem= 24159191040 cpu:         1.2
 (Enter /public/home/users/caep010/software/Gaussian09/g09/l401.exe)
 ExpMin= 1.61D-01 ExpMax= 5.48D+03 ExpMxC= 8.25D+02 IAcc=1 IRadAn=         1 AccDes= 0.00D+00
 Harris functional with IExCor=  402 and IRadAn=       1 diagonalized for initial guess.
 HarFok:  IExCor=  402 AccDes= 0.00D+00 IRadAn=         1 IDoV= 1 UseB2=F ITyADJ=14
 ICtDFT=  3500011 ScaDFX=  1.000000  1.000000  1.000000  1.000000
 FoFCou: FMM=F IPFlag=           0 FMFlag=      100000 FMFlg1=           0
         NFxFlg=           0 DoJE=T BraDBF=F KetDBF=T FulRan=T
         wScrn=  0.000000 ICntrl=     500 IOpCl=  0 I1Cent=   200000004 NGrid=           0
         NMat0=    1 NMatS0=      1 NMatT0=    0 NMatD0=    1 NMtDS0=    0 NMtDT0=    0
 Petite list used in FoFCou.
 Harris En= -665.625563369945    
 JPrj=0 DoOrth=F DoCkMO=F.
 Leave Link  401 at Fri Aug 27 06:18:56 2021, MaxMem= 24159191040 cpu:        16.6
 (Enter /public/home/users/caep010/software/Gaussian09/g09/l502.exe)
 Closed shell SCF:
 Using DIIS extrapolation, IDIIS=  1040.
 Integral symmetry usage will be decided dynamically.
 Keep R1 ints in memory in canonical form, NReq=1830452538.
 IVT=      471290 IEndB=      471290 NGot= 24159191040 MDV= 22356829255
 LenX= 22356829255 LenY= 22356682890
 Requested convergence on RMS density matrix=1.00D-08 within 128 cycles.
 Requested convergence on MAX density matrix=1.00D-06.
 Requested convergence on             energy=1.00D-06.
 No special actions if energy rises.
 FoFCou: FMM=F IPFlag=           0 FMFlag=           0 FMFlg1=           0
         NFxFlg=           0 DoJE=F BraDBF=F KetDBF=F FulRan=T
         wScrn=  0.000000 ICntrl=     600 IOpCl=  0 I1Cent=           0 NGrid=           0
         NMat0=    1 NMatS0=  60031 NMatT0=    0 NMatD0=    1 NMtDS0=    0 NMtDT0=    0
 Symmetry not used in FoFCou.
 Integral accuracy reduced to 1.0D-05 until final iterations.

 Cycle   1  Pass 0  IDiag  1:
 E= -665.365972959214    
 DIIS: error= 3.05D-02 at cycle   1 NSaved=   1.
 NSaved= 1 IEnMin= 1 EnMin= -665.365972959214     IErMin= 1 ErrMin= 3.05D-02
 ErrMax= 3.05D-02  0.00D+00 EMaxC= 1.00D-01 BMatC= 4.22D-01 BMatP= 4.22D-01
 IDIUse=3 WtCom= 6.95D-01 WtEn= 3.05D-01
 Coeff-Com:  0.100D+01
 Coeff-En:   0.100D+01
 Coeff:      0.100D+01
 Gap=     0.174 Goal=   None    Shift=    0.000
 GapD=    0.174 DampG=1.000 DampE=0.500 DampFc=0.5000 IDamp=-1.
 Damping current iteration by 5.00D-01
 RMSDP=5.38D-03 MaxDP=3.55D-01              OVMax= 9.13D-01

 Cycle   2  Pass 0  IDiag  1:
 E= -664.930194190626     Delta-E=        0.435778768588 Rises=F Damp=T
 DIIS: error= 1.99D-02 at cycle   2 NSaved=   2.
 NSaved= 2 IEnMin= 1 EnMin= -665.365972959214     IErMin= 2 ErrMin= 1.99D-02
 ErrMax= 1.99D-02  0.00D+00 EMaxC= 1.00D-01 BMatC= 2.87D-01 BMatP= 4.22D-01
 IDIUse=3 WtCom= 8.01D-01 WtEn= 1.99D-01
 Coeff-Com:  0.435D+00 0.565D+00
 Coeff-En:   0.764D+00 0.236D+00
 Coeff:      0.500D+00 0.500D+00
 Gap=    -0.304 Goal=   None    Shift=    0.000
 RMSDP=2.85D-03 MaxDP=1.82D-01 DE= 4.36D-01 OVMax= 5.42D-01

 Cycle   3  Pass 0  IDiag  1:
 E= -665.345741074134     Delta-E=       -0.415546883507 Rises=F Damp=F
 DIIS: error= 1.91D-02 at cycle   3 NSaved=   3.
 NSaved= 3 IEnMin= 1 EnMin= -665.365972959214     IErMin= 3 ErrMin= 1.91D-02
 ErrMax= 1.91D-02  0.00D+00 EMaxC= 1.00D-01 BMatC= 3.17D-01 BMatP= 2.87D-01
 IDIUse=2 WtCom= 0.00D+00 WtEn= 1.00D+00
 EnCoef did     2 forward-backward iterations
 Coeff-En:   0.423D+00 0.156D+00 0.421D+00
 Coeff:      0.423D+00 0.156D+00 0.421D+00
 Gap=     0.262 Goal=   None    Shift=    0.000
 RMSDP=2.94D-03 MaxDP=2.36D-01 DE=-4.16D-01 OVMax= 4.70D-01

 Cycle   4  Pass 0  IDiag  1:
 E= -665.460931123296     Delta-E=       -0.115190049162 Rises=F Damp=F
 DIIS: error= 2.66D-02 at cycle   4 NSaved=   4.
 NSaved= 4 IEnMin= 4 EnMin= -665.460931123296     IErMin= 3 ErrMin= 1.91D-02
 ErrMax= 2.66D-02  0.00D+00 EMaxC= 1.00D-01 BMatC= 2.42D-01 BMatP= 2.87D-01
 IDIUse=3 WtCom= 7.34D-01 WtEn= 2.66D-01
 EnCoef did     2 forward-backward iterations
 Coeff-Com:  0.260D+00 0.938D-01 0.315D+00 0.331D+00
 Coeff-En:   0.221D+00 0.000D+00 0.281D+00 0.498D+00
 Coeff:      0.250D+00 0.689D-01 0.306D+00 0.376D+00
 Gap=     0.158 Goal=   None    Shift=    0.000
 RMSDP=1.64D-03 MaxDP=1.57D-01 DE=-1.15D-01 OVMax= 2.68D-01

 Cycle   5  Pass 0  IDiag  1:
 E= -665.635145945512     Delta-E=       -0.174214822215 Rises=F Damp=F
 DIIS: error= 6.94D-03 at cycle   5 NSaved=   5.
 NSaved= 5 IEnMin= 5 EnMin= -665.635145945512     IErMin= 5 ErrMin= 6.94D-03
 ErrMax= 6.94D-03  0.00D+00 EMaxC= 1.00D-01 BMatC= 3.03D-02 BMatP= 2.42D-01
 IDIUse=3 WtCom= 9.31D-01 WtEn= 6.94D-02
 Coeff-Com:  0.895D-01-0.332D-01 0.122D+00 0.309D+00 0.512D+00
 Coeff-En:   0.000D+00 0.000D+00 0.000D+00 0.143D+00 0.857D+00
 Coeff:      0.833D-01-0.308D-01 0.114D+00 0.298D+00 0.536D+00
 Gap=     0.169 Goal=   None    Shift=    0.000
 RMSDP=5.34D-04 MaxDP=4.38D-02 DE=-1.74D-01 OVMax= 8.87D-02

 Cycle   6  Pass 0  IDiag  1:
 E= -665.657016124983     Delta-E=       -0.021870179471 Rises=F Damp=F
 DIIS: error= 2.28D-03 at cycle   6 NSaved=   6.
 NSaved= 6 IEnMin= 6 EnMin= -665.657016124983     IErMin= 6 ErrMin= 2.28D-03
 ErrMax= 2.28D-03  0.00D+00 EMaxC= 1.00D-01 BMatC= 3.22D-03 BMatP= 3.03D-02
 IDIUse=3 WtCom= 9.77D-01 WtEn= 2.28D-02
 Coeff-Com:  0.178D-01-0.209D-01 0.407D-01 0.964D-01 0.288D+00 0.578D+00
 Coeff-En:   0.000D+00 0.000D+00 0.000D+00 0.000D+00 0.107D+00 0.893D+00
 Coeff:      0.174D-01-0.204D-01 0.397D-01 0.942D-01 0.284D+00 0.585D+00
 Gap=     0.165 Goal=   None    Shift=    0.000
 RMSDP=1.90D-04 MaxDP=1.47D-02 DE=-2.19D-02 OVMax= 2.71D-02

 Cycle   7  Pass 0  IDiag  1:
 E= -665.658693503388     Delta-E=       -0.001677378405 Rises=F Damp=F
 DIIS: error= 1.75D-03 at cycle   7 NSaved=   7.
 NSaved= 7 IEnMin= 7 EnMin= -665.658693503388     IErMin= 7 ErrMin= 1.75D-03
 ErrMax= 1.75D-03  0.00D+00 EMaxC= 1.00D-01 BMatC= 1.06D-03 BMatP= 3.22D-03
 IDIUse=3 WtCom= 9.83D-01 WtEn= 1.75D-02
 Coeff-Com:  0.108D-02-0.667D-02 0.155D-01 0.942D-02 0.110D+00 0.425D+00
 Coeff-Com:  0.446D+00
 Coeff-En:   0.000D+00 0.000D+00 0.000D+00 0.000D+00 0.000D+00 0.247D+00
 Coeff-En:   0.753D+00
 Coeff:      0.106D-02-0.656D-02 0.152D-01 0.926D-02 0.108D+00 0.422D+00
 Coeff:      0.452D+00
 Gap=     0.169 Goal=   None    Shift=    0.000
 RMSDP=9.57D-05 MaxDP=6.62D-03 DE=-1.68D-03 OVMax= 1.04D-02

 Cycle   8  Pass 0  IDiag  1:
 E= -665.659461128693     Delta-E=       -0.000767625305 Rises=F Damp=F
 DIIS: error= 8.33D-04 at cycle   8 NSaved=   8.
 NSaved= 8 IEnMin= 8 EnMin= -665.659461128693     IErMin= 8 ErrMin= 8.33D-04
 ErrMax= 8.33D-04  0.00D+00 EMaxC= 1.00D-01 BMatC= 1.68D-04 BMatP= 1.06D-03
 IDIUse=3 WtCom= 9.92D-01 WtEn= 8.33D-03
 Coeff-Com: -0.560D-03-0.285D-02 0.772D-02-0.444D-02 0.451D-01 0.236D+00
 Coeff-Com:  0.332D+00 0.386D+00
 Coeff-En:   0.000D+00 0.000D+00 0.000D+00 0.000D+00 0.000D+00 0.000D+00
 Coeff-En:   0.125D+00 0.875D+00
 Coeff:     -0.555D-03-0.282D-02 0.766D-02-0.441D-02 0.448D-01 0.234D+00
 Coeff:      0.331D+00 0.390D+00
 Gap=     0.169 Goal=   None    Shift=    0.000
 RMSDP=3.65D-05 MaxDP=3.07D-03 DE=-7.68D-04 OVMax= 4.11D-03

 Cycle   9  Pass 0  IDiag  1:
 E= -665.659603505729     Delta-E=       -0.000142377036 Rises=F Damp=F
 DIIS: error= 1.94D-04 at cycle   9 NSaved=   9.
 NSaved= 9 IEnMin= 9 EnMin= -665.659603505729     IErMin= 9 ErrMin= 1.94D-04
 ErrMax= 1.94D-04  0.00D+00 EMaxC= 1.00D-01 BMatC= 1.09D-05 BMatP= 1.68D-04
 IDIUse=3 WtCom= 9.98D-01 WtEn= 1.94D-03
 Coeff-Com: -0.599D-03 0.481D-03 0.315D-02-0.497D-02 0.976D-02 0.698D-01
 Coeff-Com:  0.119D+00 0.221D+00 0.582D+00
 Coeff-En:   0.000D+00 0.000D+00 0.000D+00 0.000D+00 0.000D+00 0.000D+00
 Coeff-En:   0.000D+00 0.143D-01 0.986D+00
 Coeff:     -0.598D-03 0.480D-03 0.314D-02-0.496D-02 0.974D-02 0.696D-01
 Coeff:      0.119D+00 0.221D+00 0.583D+00
 Gap=     0.170 Goal=   None    Shift=    0.000
 RMSDP=1.27D-05 MaxDP=7.38D-04 DE=-1.42D-04 OVMax= 1.30D-03

 Cycle  10  Pass 0  IDiag  1:
 E= -665.659611655859     Delta-E=       -0.000008150130 Rises=F Damp=F
 DIIS: error= 6.25D-05 at cycle  10 NSaved=  10.
 NSaved=10 IEnMin=10 EnMin= -665.659611655859     IErMin=10 ErrMin= 6.25D-05
 ErrMax= 6.25D-05  0.00D+00 EMaxC= 1.00D-01 BMatC= 2.14D-06 BMatP= 1.09D-05
 IDIUse=1 WtCom= 1.00D+00 WtEn= 0.00D+00
 Coeff-Com: -0.354D-03 0.432D-03 0.592D-03-0.165D-02 0.345D-03 0.888D-02
 Coeff-Com:  0.228D-01 0.704D-01 0.371D+00 0.527D+00
 Coeff:     -0.354D-03 0.432D-03 0.592D-03-0.165D-02 0.345D-03 0.888D-02
 Coeff:      0.228D-01 0.704D-01 0.371D+00 0.527D+00
 Gap=     0.169 Goal=   None    Shift=    0.000
 RMSDP=4.22D-06 MaxDP=3.06D-04 DE=-8.15D-06 OVMax= 3.83D-04

 Initial convergence to 1.0D-05 achieved.  Increase integral accuracy.
 Cycle  11  Pass 1  IDiag  1:
 E= -665.659629623149     Delta-E=       -0.000017967290 Rises=F Damp=F
 DIIS: error= 3.03D-05 at cycle   1 NSaved=   1.
 NSaved= 1 IEnMin= 1 EnMin= -665.659629623149     IErMin= 1 ErrMin= 3.03D-05
 ErrMax= 3.03D-05  0.00D+00 EMaxC= 1.00D-01 BMatC= 3.75D-07 BMatP= 3.75D-07
 IDIUse=1 WtCom= 1.00D+00 WtEn= 0.00D+00
 Coeff-Com:  0.100D+01
 Coeff:      0.100D+01
 Gap=     0.169 Goal=   None    Shift=    0.000
 RMSDP=4.22D-06 MaxDP=3.06D-04 DE=-1.80D-05 OVMax= 3.89D-04

 Cycle  12  Pass 1  IDiag  1:
 E= -665.659629118355     Delta-E=        0.000000504793 Rises=F Damp=F
 DIIS: error= 4.96D-05 at cycle   2 NSaved=   2.
 NSaved= 2 IEnMin= 1 EnMin= -665.659629623149     IErMin= 1 ErrMin= 3.03D-05
 ErrMax= 4.96D-05  0.00D+00 EMaxC= 1.00D-01 BMatC= 1.03D-06 BMatP= 3.75D-07
 IDIUse=1 WtCom= 1.00D+00 WtEn= 0.00D+00
 Coeff-Com:  0.642D+00 0.358D+00
 Coeff:      0.642D+00 0.358D+00
 Gap=     0.169 Goal=   None    Shift=    0.000
 RMSDP=2.97D-06 MaxDP=2.87D-04 DE= 5.05D-07 OVMax= 4.44D-04

 Cycle  13  Pass 1  IDiag  1:
 E= -665.659629841892     Delta-E=       -0.000000723537 Rises=F Damp=F
 DIIS: error= 1.23D-05 at cycle   3 NSaved=   3.
 NSaved= 3 IEnMin= 3 EnMin= -665.659629841892     IErMin= 3 ErrMin= 1.23D-05
 ErrMax= 1.23D-05  0.00D+00 EMaxC= 1.00D-01 BMatC= 9.86D-08 BMatP= 3.75D-07
 IDIUse=1 WtCom= 1.00D+00 WtEn= 0.00D+00
 Coeff-Com:  0.202D+00 0.235D+00 0.563D+00
 Coeff:      0.202D+00 0.235D+00 0.563D+00
 Gap=     0.169 Goal=   None    Shift=    0.000
 RMSDP=1.07D-06 MaxDP=7.83D-05 DE=-7.24D-07 OVMax= 1.64D-04

 Cycle  14  Pass 1  IDiag  1:
 E= -665.659629896039     Delta-E=       -0.000000054147 Rises=F Damp=F
 DIIS: error= 6.23D-06 at cycle   4 NSaved=   4.
 NSaved= 4 IEnMin= 4 EnMin= -665.659629896039     IErMin= 4 ErrMin= 6.23D-06
 ErrMax= 6.23D-06  0.00D+00 EMaxC= 1.00D-01 BMatC= 2.92D-08 BMatP= 9.86D-08
 IDIUse=1 WtCom= 1.00D+00 WtEn= 0.00D+00
 Coeff-Com:  0.116D-01 0.950D-01 0.410D+00 0.483D+00
 Coeff:      0.116D-01 0.950D-01 0.410D+00 0.483D+00
 Gap=     0.169 Goal=   None    Shift=    0.000
 RMSDP=4.87D-07 MaxDP=3.06D-05 DE=-5.41D-08 OVMax= 5.66D-05

 Cycle  15  Pass 1  IDiag  1:
 E= -665.659629917371     Delta-E=       -0.000000021332 Rises=F Damp=F
 DIIS: error= 2.07D-06 at cycle   5 NSaved=   5.
 NSaved= 5 IEnMin= 5 EnMin= -665.659629917371     IErMin= 5 ErrMin= 2.07D-06
 ErrMax= 2.07D-06  0.00D+00 EMaxC= 1.00D-01 BMatC= 2.94D-09 BMatP= 2.92D-08
 IDIUse=1 WtCom= 1.00D+00 WtEn= 0.00D+00
 Coeff-Com: -0.704D-02 0.442D-01 0.224D+00 0.326D+00 0.413D+00
 Coeff:     -0.704D-02 0.442D-01 0.224D+00 0.326D+00 0.413D+00
 Gap=     0.169 Goal=   None    Shift=    0.000
 RMSDP=1.60D-07 MaxDP=1.08D-05 DE=-2.13D-08 OVMax= 1.59D-05

 Cycle  16  Pass 1  IDiag  1:
 E= -665.659629919854     Delta-E=       -0.000000002483 Rises=F Damp=F
 DIIS: error= 5.87D-07 at cycle   6 NSaved=   6.
 NSaved= 6 IEnMin= 6 EnMin= -665.659629919854     IErMin= 6 ErrMin= 5.87D-07
 ErrMax= 5.87D-07  0.00D+00 EMaxC= 1.00D-01 BMatC= 1.65D-10 BMatP= 2.94D-09
 IDIUse=1 WtCom= 1.00D+00 WtEn= 0.00D+00
 Coeff-Com: -0.518D-02 0.243D-01 0.125D+00 0.189D+00 0.263D+00 0.404D+00
 Coeff:     -0.518D-02 0.243D-01 0.125D+00 0.189D+00 0.263D+00 0.404D+00
 Gap=     0.169 Goal=   None    Shift=    0.000
 RMSDP=3.64D-08 MaxDP=2.28D-06 DE=-2.48D-09 OVMax= 3.48D-06

 Cycle  17  Pass 1  IDiag  1:
 E= -665.659629919970     Delta-E=       -0.000000000116 Rises=F Damp=F
 DIIS: error= 2.99D-07 at cycle   7 NSaved=   7.
 NSaved= 7 IEnMin= 7 EnMin= -665.659629919970     IErMin= 7 ErrMin= 2.99D-07
 ErrMax= 2.99D-07  0.00D+00 EMaxC= 1.00D-01 BMatC= 1.98D-11 BMatP= 1.65D-10
 IDIUse=1 WtCom= 1.00D+00 WtEn= 0.00D+00
 Coeff-Com: -0.244D-02 0.966D-02 0.489D-01 0.774D-01 0.110D+00 0.263D+00
 Coeff-Com:  0.493D+00
 Coeff:     -0.244D-02 0.966D-02 0.489D-01 0.774D-01 0.110D+00 0.263D+00
 Coeff:      0.493D+00
 Gap=     0.169 Goal=   None    Shift=    0.000
 RMSDP=1.45D-08 MaxDP=1.06D-06 DE=-1.16D-10 OVMax= 1.59D-06

 Cycle  18  Pass 1  IDiag  1:
 E= -665.659629919985     Delta-E=       -0.000000000015 Rises=F Damp=F
 DIIS: error= 1.46D-07 at cycle   8 NSaved=   8.
 NSaved= 8 IEnMin= 8 EnMin= -665.659629919985     IErMin= 8 ErrMin= 1.46D-07
 ErrMax= 1.46D-07  0.00D+00 EMaxC= 1.00D-01 BMatC= 7.38D-12 BMatP= 1.98D-11
 IDIUse=1 WtCom= 1.00D+00 WtEn= 0.00D+00
 Coeff-Com: -0.716D-03 0.184D-02 0.837D-02 0.158D-01 0.222D-01 0.104D+00
 Coeff-Com:  0.392D+00 0.456D+00
 Coeff:     -0.716D-03 0.184D-02 0.837D-02 0.158D-01 0.222D-01 0.104D+00
 Coeff:      0.392D+00 0.456D+00
 Gap=     0.169 Goal=   None    Shift=    0.000
 RMSDP=7.27D-09 MaxDP=4.55D-07 DE=-1.55D-11 OVMax= 7.40D-07

 SCF Done:  E(RB3LYP) =  -665.659629920     A.U. after   18 cycles
            NFock= 18  Conv=0.73D-08     -V/T= 2.0051
 KE= 6.622820504812D+02 PE=-2.900451657932D+03 EE= 9.004091871748D+02
 Leave Link  502 at Fri Aug 27 06:19:59 2021, MaxMem= 24159191040 cpu:       317.2
 (Enter /public/home/users/caep010/software/Gaussian09/g09/l801.exe)
 DoSCS=F DFT=T ScalE2(SS,OS)=  1.000000  1.000000
 Range of M.O.s used for correlation:     1   346
 NBasis=   346 NAE=    43 NBE=    43 NFC=     0 NFV=     0
 NROrb=    346 NOA=    43 NOB=    43 NVA=   303 NVB=   303

 **** Warning!!: The largest alpha MO coefficient is  0.57860239D+02

 Leave Link  801 at Fri Aug 27 06:19:59 2021, MaxMem= 24159191040 cpu:         0.6
 (Enter /public/home/users/caep010/software/Gaussian09/g09/l1101.exe)
 Using compressed storage, NAtomX=    14.
 Will process     15 centers per pass.
 Leave Link 1101 at Fri Aug 27 06:20:00 2021, MaxMem= 24159191040 cpu:        19.8
 (Enter /public/home/users/caep010/software/Gaussian09/g09/l1102.exe)
 Symmetrizing basis deriv contribution to polar:
 IMax=3 JMax=2 DiffMx= 0.00D+00
 Leave Link 1102 at Fri Aug 27 06:20:00 2021, MaxMem= 24159191040 cpu:         1.2
 (Enter /public/home/users/caep010/software/Gaussian09/g09/l1110.exe)
 Forming Gx(P) for the SCF density, NAtomX=    14.
 Integral derivatives from FoFJK, PRISM(SPDF).
 Do as many integral derivatives as possible in FoFJK.
 G2DrvN: MDV=   24159190824.
 G2DrvN: will do    15 centers at a time, making    1 passes.
 Calling FoFCou, ICntrl=  3107 FMM=F I1Cent=   0 AccDes= 0.00D+00.
 FoFJK:  IHMeth= 1 ICntrl=    3107 DoSepK=F KAlg= 0 I1Cent=   0 FoldK=F
 IRaf=         0 NMat=   1 IRICut=       1 DoRegI=T DoRafI=F ISym2E= 0.
 FoFCou: FMM=F IPFlag=           0 FMFlag=      100000 FMFlg1=           0
         NFxFlg=           0 DoJE=F BraDBF=F KetDBF=F FulRan=T
         wScrn=  0.000000 ICntrl=    3107 IOpCl=  0 I1Cent=           0 NGrid=           0
         NMat0=    1 NMatS0=      1 NMatT0=    0 NMatD0=    1 NMtDS0=    0 NMtDT0=    0
 Symmetry not used in FoFCou.
 End of G2Drv F.D. properties file   721 does not exist.
 End of G2Drv F.D. properties file   722 does not exist.
 End of G2Drv F.D. properties file   788 does not exist.
 Leave Link 1110 at Fri Aug 27 06:20:16 2021, MaxMem= 24159191040 cpu:       491.0
 (Enter /public/home/users/caep010/software/Gaussian09/g09/l1002.exe)
 Minotr:  Closed shell wavefunction.
          IDoAtm=11111111111111
          Direct CPHF calculation.
          Differentiating once with respect to nuclear coordinates.
          Requested convergence is 1.0D-08 RMS, and 1.0D-07 maximum.
          Secondary convergence is 1.0D-12 RMS, and 1.0D-12 maximum.
          NewPWx=T KeepS1=F KeepF1=F KeepIn=T MapXYZ=F SortEE=F KeepMc=T.
          MDV=   24159190550 using IRadAn=       2.
 Generate precomputed XC quadrature information.
 Keep R1 ints in memory in canonical form, NReq=1829986824.
 FoFCou: FMM=F IPFlag=           0 FMFlag=           0 FMFlg1=           0
         NFxFlg=           0 DoJE=F BraDBF=F KetDBF=F FulRan=T
         wScrn=  0.000000 ICntrl=     600 IOpCl=  0 I1Cent=           0 NGrid=           0
         NMat0=    1 NMatS0=  60031 NMatT0=    0 NMatD0=    1 NMtDS0=    0 NMtDT0=    0
 Symmetry not used in FoFCou.
          Solving linear equations simultaneously, MaxMat=       0.
          There are    45 degrees of freedom in the 1st order CPHF.  IDoFFX=6 NUNeed=     0.
     39 vectors produced by pass  0 Test12= 2.90D-14 2.22D-09 XBig12= 2.09D-01 1.51D-01.
 AX will form    39 AO Fock derivatives at one time.
     39 vectors produced by pass  1 Test12= 2.90D-14 2.22D-09 XBig12= 7.33D-02 1.18D-01.
     39 vectors produced by pass  2 Test12= 2.90D-14 2.22D-09 XBig12= 3.12D-03 1.31D-02.
     39 vectors produced by pass  3 Test12= 2.90D-14 2.22D-09 XBig12= 4.19D-05 1.02D-03.
     39 vectors produced by pass  4 Test12= 2.90D-14 2.22D-09 XBig12= 2.67D-07 5.63D-05.
     39 vectors produced by pass  5 Test12= 2.90D-14 2.22D-09 XBig12= 8.41D-10 4.45D-06.
     31 vectors produced by pass  6 Test12= 2.90D-14 2.22D-09 XBig12= 1.25D-12 1.05D-07.
      3 vectors produced by pass  7 Test12= 2.90D-14 2.22D-09 XBig12= 2.05D-15 4.12D-09.
 InvSVY:  IOpt=1 It=  1 EMax= 2.22D-15
 Solved reduced A of dimension   268 with    39 vectors.
 End of Minotr F.D. properties file   721 does not exist.
 End of Minotr F.D. properties file   722 does not exist.
 End of Minotr F.D. properties file   788 does not exist.
 Leave Link 1002 at Fri Aug 27 06:20:47 2021, MaxMem= 24159191040 cpu:       979.1
 (Enter /public/home/users/caep010/software/Gaussian09/g09/l601.exe)
 Copying SCF densities to generalized density rwf, IOpCl= 0 IROHF=0.

 **********************************************************************

            Population analysis using the SCF density.

 **********************************************************************

 Orbital symmetries:
       Occupied  (A) (A) (A) (A) (A) (A) (A) (A) (A) (A) (A) (A)
                 (A) (A) (A) (A) (A) (A) (A) (A) (A) (A) (A) (A)
                 (A) (A) (A) (A) (A) (A) (A) (A) (A) (A) (A) (A)
                 (A) (A) (A) (A) (A) (A) (A)
       Virtual   (A) (A) (A) (A) (A) (A) (A) (A) (A) (A) (A) (A)
                 (A) (A) (A) (A) (A) (A) (A) (A) (A) (A) (A) (A)
                 (A) (A) (A) (A) (A) (A) (A) (A) (A) (A) (A) (A)
                 (A) (A) (A) (A) (A) (A) (A) (A) (A) (A) (A) (A)
                 (A) (A) (A) (A) (A) (A) (A) (A) (A) (A) (A) (A)
                 (A) (A) (A) (A) (A) (A) (A) (A) (A) (A) (A) (A)
                 (A) (A) (A) (A) (A) (A) (A) (A) (A) (A) (A) (A)
                 (A) (A) (A) (A) (A) (A) (A) (A) (A) (A) (A) (A)
                 (A) (A) (A) (A) (A) (A) (A) (A) (A) (A) (A) (A)
                 (A) (A) (A) (A) (A) (A) (A) (A) (A) (A) (A) (A)
                 (A) (A) (A) (A) (A) (A) (A) (A) (A) (A) (A) (A)
                 (A) (A) (A) (A) (A) (A) (A) (A) (A) (A) (A) (A)
                 (A) (A) (A) (A) (A) (A) (A) (A) (A) (A) (A) (A)
                 (A) (A) (A) (A) (A) (A) (A) (A) (A) (A) (A) (A)
                 (A) (A) (A) (A) (A) (A) (A) (A) (A) (A) (A) (A)
                 (A) (A) (A) (A) (A) (A) (A) (A) (A) (A) (A) (A)
                 (A) (A) (A) (A) (A) (A) (A) (A) (A) (A) (A) (A)
                 (A) (A) (A) (A) (A) (A) (A) (A) (A) (A) (A) (A)
                 (A) (A) (A) (A) (A) (A) (A) (A) (A) (A) (A) (A)
                 (A) (A) (A) (A) (A) (A) (A) (A) (A) (A) (A) (A)
                 (A) (A) (A) (A) (A) (A) (A) (A) (A) (A) (A) (A)
                 (A) (A) (A) (A) (A) (A) (A) (A) (A) (A) (A) (A)
                 (A) (A) (A) (A) (A) (A) (A) (A) (A) (A) (A) (A)
                 (A) (A) (A) (A) (A) (A) (A) (A) (A) (A) (A) (A)
                 (A) (A) (A) (A) (A) (A) (A) (A) (A) (A) (A) (A)
                 (A) (A) (A)
 The electronic state is 1-A.
 Alpha  occ. eigenvalues --  -19.14326 -19.13208 -14.56919 -14.56059 -14.47689
 Alpha  occ. eigenvalues --  -14.44760 -14.43852 -14.43493 -14.40577 -14.36170
 Alpha  occ. eigenvalues --  -10.35002 -10.34577  -1.21750  -1.20544  -1.15328
 Alpha  occ. eigenvalues --   -1.05861  -1.01516  -1.00922  -0.96126  -0.89187
 Alpha  occ. eigenvalues --   -0.78064  -0.74979  -0.70427  -0.61439  -0.60527
 Alpha  occ. eigenvalues --   -0.58829  -0.58322  -0.55296  -0.54390  -0.53438
 Alpha  occ. eigenvalues --   -0.51181  -0.51028  -0.48140  -0.40309  -0.39000
 Alpha  occ. eigenvalues --   -0.38550  -0.38073  -0.33877  -0.31481  -0.29221
 Alpha  occ. eigenvalues --   -0.28078  -0.25345  -0.24898
 Alpha virt. eigenvalues --   -0.07991  -0.07017  -0.05341   0.02775   0.03824
 Alpha virt. eigenvalues --    0.08111   0.09393   0.12581   0.14130   0.16464
 Alpha virt. eigenvalues --    0.18110   0.20613   0.25668   0.28544   0.30653
 Alpha virt. eigenvalues --    0.32224   0.34181   0.35540   0.37822   0.40518
 Alpha virt. eigenvalues --    0.42449   0.42842   0.43221   0.44700   0.46776
 Alpha virt. eigenvalues --    0.49184   0.50094   0.51871   0.52541   0.53243
 Alpha virt. eigenvalues --    0.54666   0.55137   0.55772   0.58092   0.58194
 Alpha virt. eigenvalues --    0.58360   0.59345   0.61827   0.62600   0.64154
 Alpha virt. eigenvalues --    0.65104   0.67379   0.68702   0.70190   0.72108
 Alpha virt. eigenvalues --    0.73028   0.75016   0.75495   0.77213   0.78513
 Alpha virt. eigenvalues --    0.78948   0.79259   0.83241   0.84322   0.84903
 Alpha virt. eigenvalues --    0.85400   0.88328   0.89218   0.89554   0.90360
 Alpha virt. eigenvalues --    0.91701   0.93201   0.93424   0.94548   0.96506
 Alpha virt. eigenvalues --    0.99101   1.00201   1.00516   1.02826   1.06039
 Alpha virt. eigenvalues --    1.09242   1.11044   1.11658   1.13173   1.13850
 Alpha virt. eigenvalues --    1.15207   1.17225   1.18483   1.20790   1.23336
 Alpha virt. eigenvalues --    1.26378   1.26484   1.29134   1.29888   1.31424
 Alpha virt. eigenvalues --    1.32249   1.34609   1.36076   1.38961   1.41474
 Alpha virt. eigenvalues --    1.41624   1.44170   1.45262   1.46099   1.49653
 Alpha virt. eigenvalues --    1.52372   1.53631   1.56210   1.58222   1.60329
 Alpha virt. eigenvalues --    1.61927   1.63283   1.63675   1.67441   1.69792
 Alpha virt. eigenvalues --    1.70142   1.72149   1.73051   1.74275   1.76377
 Alpha virt. eigenvalues --    1.78692   1.79569   1.80381   1.82773   1.86924
 Alpha virt. eigenvalues --    1.90249   1.92204   1.98125   2.02473   2.10346
 Alpha virt. eigenvalues --    2.12448   2.16968   2.21382   2.24484   2.28850
 Alpha virt. eigenvalues --    2.32749   2.42064   2.46315   2.47548   2.54788
 Alpha virt. eigenvalues --    2.63190   2.77859   2.81393   2.88406   2.90189
 Alpha virt. eigenvalues --    2.94307   2.96089   2.98335   3.01283   3.06267
 Alpha virt. eigenvalues --    3.06494   3.08423   3.08943   3.14486   3.16439
 Alpha virt. eigenvalues --    3.19595   3.20299   3.23563   3.24387   3.26867
 Alpha virt. eigenvalues --    3.27327   3.31597   3.36281   3.36470   3.38197
 Alpha virt. eigenvalues --    3.39758   3.43750   3.46518   3.47365   3.49311
 Alpha virt. eigenvalues --    3.52417   3.54898   3.57320   3.57971   3.59821
 Alpha virt. eigenvalues --    3.61851   3.63007   3.65501   3.66290   3.68433
 Alpha virt. eigenvalues --    3.69790   3.71866   3.75545   3.76364   3.76834
 Alpha virt. eigenvalues --    3.78529   3.84171   3.85767   3.86358   3.90223
 Alpha virt. eigenvalues --    3.91590   3.92429   3.94147   3.98922   3.99704
 Alpha virt. eigenvalues --    4.02056   4.02405   4.04940   4.05409   4.05950
 Alpha virt. eigenvalues --    4.06735   4.08699   4.10357   4.10650   4.11725
 Alpha virt. eigenvalues --    4.12566   4.13643   4.14886   4.16996   4.18970
 Alpha virt. eigenvalues --    4.19639   4.22222   4.23077   4.24815   4.26980
 Alpha virt. eigenvalues --    4.27847   4.29657   4.31387   4.32436   4.34120
 Alpha virt. eigenvalues --    4.36455   4.37463   4.39318   4.39920   4.40904
 Alpha virt. eigenvalues --    4.44150   4.47428   4.47763   4.50561   4.51163
 Alpha virt. eigenvalues --    4.53900   4.54612   4.57218   4.59024   4.59524
 Alpha virt. eigenvalues --    4.60792   4.63332   4.64907   4.68795   4.72442
 Alpha virt. eigenvalues --    4.73469   4.75939   4.76636   4.77522   4.81055
 Alpha virt. eigenvalues --    4.82567   4.85690   4.87368   4.91392   4.94311
 Alpha virt. eigenvalues --    4.96186   5.00037   5.01151   5.02841   5.05645
 Alpha virt. eigenvalues --    5.06154   5.07443   5.10675   5.13838   5.15529
 Alpha virt. eigenvalues --    5.16474   5.19628   5.22633   5.24255   5.25348
 Alpha virt. eigenvalues --    5.29826   5.33876   5.34991   5.39981   5.42379
 Alpha virt. eigenvalues --    5.44300   5.47582   5.52727   5.57252   5.61118
 Alpha virt. eigenvalues --    5.62057   5.64187   5.76501   5.81746   5.85078
 Alpha virt. eigenvalues --    5.87514   5.92845   6.01898   6.06859   6.09887
 Alpha virt. eigenvalues --    6.19620   6.25725   6.31683   6.35020   6.43775
 Alpha virt. eigenvalues --    6.70546   6.90062   6.96890   7.04996   8.59746
 Alpha virt. eigenvalues --   10.03687  10.73643  10.90000  11.01692  11.21135
 Alpha virt. eigenvalues --   11.22621  11.26240  11.36486  11.39277  11.41580
 Alpha virt. eigenvalues --   11.68499  12.15543  13.11132  13.23863  16.22388
 Alpha virt. eigenvalues --   20.62870  23.64616  25.27894
          Condensed to atoms (all electrons):
               1          2          3          4          5          6
     1  N    6.557713   0.551654   0.348942  -0.012070  -0.035276  -0.092224
     2  C    0.551654   4.314386  -0.092336   0.003656   0.408116  -0.064815
     3  N    0.348942  -0.092336   6.145722   0.364636   0.001883   0.457266
     4  H   -0.012070   0.003656   0.364636   0.384516  -0.000049  -0.038559
     5  N   -0.035276   0.408116   0.001883  -0.000049   6.553405  -0.003050
     6  C   -0.092224  -0.064815   0.457266  -0.038559  -0.003050   4.383662
     7  N    0.004127  -0.005024  -0.031457  -0.002573  -0.000047   0.463818
     8  N    0.000278  -0.000092  -0.000705   0.000735   0.000000  -0.080265
     9  O    0.000003  -0.000003   0.000172   0.000341  -0.000000   0.001332
    10  N   -0.034877   0.462151  -0.017140   0.005661  -0.021932   0.419384
    11  H    0.006418  -0.027196   0.004370  -0.000146   0.001841  -0.020177
    12  N   -0.000922  -0.085113   0.000326  -0.000001   0.555780   0.000010
    13  N    0.002819   0.001514  -0.000044   0.000001  -0.052365   0.000018
    14  O    0.000741   0.000140  -0.006267   0.037897   0.000000   0.020839
               7          8          9         10         11         12
     1  N    0.004127   0.000278   0.000003  -0.034877   0.006418  -0.000922
     2  C   -0.005024  -0.000092  -0.000003   0.462151  -0.027196  -0.085113
     3  N   -0.031457  -0.000705   0.000172  -0.017140   0.004370   0.000326
     4  H   -0.002573   0.000735   0.000341   0.005661  -0.000146  -0.000001
     5  N   -0.000047   0.000000  -0.000000  -0.021932   0.001841   0.555780
     6  C    0.463818  -0.080265   0.001332   0.419384  -0.020177   0.000010
     7  N    6.833095   0.417612  -0.110772  -0.022364   0.003031  -0.000001
     8  N    0.417612   4.949538   0.581199  -0.001293   0.000081  -0.000000
     9  O   -0.110772   0.581199   8.037612  -0.000043  -0.000012  -0.000000
    10  N   -0.022364  -0.001293  -0.000043   6.151073   0.371002  -0.001287
    11  H    0.003031   0.000081  -0.000012   0.371002   0.398461   0.000022
    12  N   -0.000001  -0.000000  -0.000000  -0.001287   0.000022   5.227975
    13  N    0.000000  -0.000000  -0.000000  -0.000156   0.000006   0.841653
    14  O   -0.138602   0.555225  -0.091715   0.000263   0.000019   0.000000
              13         14
     1  N    0.002819   0.000741
     2  C    0.001514   0.000140
     3  N   -0.000044  -0.006267
     4  H    0.000001   0.037897
     5  N   -0.052365   0.000000
     6  C    0.000018   0.020839
     7  N    0.000000  -0.138602
     8  N   -0.000000   0.555225
     9  O   -0.000000  -0.091715
    10  N   -0.000156   0.000263
    11  H    0.000006   0.000019
    12  N    0.841653   0.000000
    13  N    6.374304  -0.000000
    14  O   -0.000000   8.076516
 Mulliken charges:
               1
     1  N   -0.297325
     2  C    0.532961
     3  N   -0.175368
     4  H    0.255956
     5  N   -0.408305
     6  C    0.552761
     7  N   -0.410843
     8  N    0.577688
     9  O   -0.418113
    10  N   -0.310442
    11  H    0.262278
    12  N    0.461557
    13  N   -0.167750
    14  O   -0.455057
 Sum of Mulliken charges =  -0.00000
 Mulliken charges with hydrogens summed into heavy atoms:
               1
     1  N   -0.297325
     2  C    0.532961
     3  N    0.080588
     5  N   -0.408305
     6  C    0.552761
     7  N   -0.410843
     8  N    0.577688
     9  O   -0.418113
    10  N   -0.048164
    12  N    0.461557
    13  N   -0.167750
    14  O   -0.455057
 APT charges:
               1
     1  N   -0.015612
     2  C   -0.077942
     3  N   -0.599752
     4  H    0.551131
     5  N   -0.506416
     6  C   -0.077385
     7  N    0.117998
     8  N   -1.312468
     9  O    1.025775
    10  N   -0.611481
    11  H    0.632699
    12  N   -1.425638
    13  N    2.314027
    14  O   -0.014936
 Sum of APT charges =  -0.00000
 APT charges with hydrogens summed into heavy atoms:
               1
     1  N   -0.015612
     2  C   -0.077942
     3  N   -0.048620
     5  N   -0.506416
     6  C   -0.077385
     7  N    0.117998
     8  N   -1.312468
     9  O    1.025775
    10  N    0.021218
    12  N   -1.425638
    13  N    2.314027
    14  O   -0.014936
 Electronic spatial extent (au):  <R**2>=           2508.6194
 Charge=             -0.0000 electrons
 Dipole moment (field-independent basis, Debye):
    X=             -7.2384    Y=             -1.2374    Z=              0.0694  Tot=              7.3437
 Quadrupole moment (field-independent basis, Debye-Ang):
   XX=            -87.5594   YY=            -64.5224   ZZ=            -63.0237
   XY=              4.2737   XZ=             -0.1234   YZ=             -0.8491
 Traceless Quadrupole moment (field-independent basis, Debye-Ang):
   XX=            -15.8575   YY=              7.1794   ZZ=              8.6782
   XY=              4.2737   XZ=             -0.1234   YZ=             -0.8491
 Octapole moment (field-independent basis, Debye-Ang**2):
  XXX=            -92.5604  YYY=             -2.4562  ZZZ=              0.2409  XYY=             -0.4635
  XXY=             -3.8864  XXZ=              1.6868  XZZ=              5.5696  YZZ=              1.0287
  YYZ=              0.2223  XYZ=             -1.9710
 Hexadecapole moment (field-independent basis, Debye-Ang**3):
 XXXX=          -3094.4631 YYYY=           -269.5623 ZZZZ=            -52.5674 XXXY=             67.4751
 XXXZ=              6.0919 YYYX=             12.8775 YYYZ=             -2.5571 ZZZX=             -0.1033
 ZZZY=              0.1878 XXYY=           -553.9762 XXZZ=           -441.3781 YYZZ=            -58.8155
 XXYZ=             -3.9182 YYXZ=             -1.5034 ZZXY=              2.4853
 N-N= 6.721007903558D+02 E-N=-2.900451670942D+03  KE= 6.622820504812D+02
  Exact polarizability:   0.000   0.000   0.000   0.000   0.000   0.000
 Approx polarizability: 240.962 -39.763 150.916  -2.199   0.883  60.748
 No NMR shielding tensors so no spin-rotation constants.
 Leave Link  601 at Fri Aug 27 06:20:48 2021, MaxMem= 24159191040 cpu:        23.2
 (Enter /public/home/users/caep010/software/Gaussian09/g09/l701.exe)
 Compute integral second derivatives.
 ... and contract with generalized density number  0.
 Leave Link  701 at Fri Aug 27 06:20:49 2021, MaxMem= 24159191040 cpu:        18.6
 (Enter /public/home/users/caep010/software/Gaussian09/g09/l702.exe)
 L702 exits ... SP integral derivatives will be done elsewhere.
 Leave Link  702 at Fri Aug 27 06:20:49 2021, MaxMem= 24159191040 cpu:         0.8
 (Enter /public/home/users/caep010/software/Gaussian09/g09/l703.exe)
 Compute integral second derivatives, UseDBF=F ICtDFT=           0.
 Integral derivatives from FoFJK, PRISM(SPDF).
 Calling FoFJK, ICntrl=    100147 FMM=F ISym2X=0 I1Cent= 0 IOpClX= 0 NMat=1 NMatS=1 NMatT=0.
 FoFJK:  IHMeth= 1 ICntrl=  100147 DoSepK=F KAlg= 0 I1Cent=   0 FoldK=F
 IRaf=         0 NMat=   1 IRICut=       1 DoRegI=T DoRafI=F ISym2E= 0.
 FoFCou: FMM=F IPFlag=           0 FMFlag=      100000 FMFlg1=         800
         NFxFlg=           0 DoJE=F BraDBF=F KetDBF=F FulRan=T
         wScrn=  0.000000 ICntrl=  100147 IOpCl=  0 I1Cent=           0 NGrid=           0
         NMat0=    1 NMatS0=      1 NMatT0=    0 NMatD0=    1 NMtDS0=    0 NMtDT0=    0
 Symmetry not used in FoFCou.
 Leave Link  703 at Fri Aug 27 06:21:23 2021, MaxMem= 24159191040 cpu:      1066.5
 (Enter /public/home/users/caep010/software/Gaussian09/g09/l716.exe)
 Dipole        =-2.84780834D+00-4.86839931D-01 2.72908486D-02
 Polarizability= 0.00000000D+00 0.00000000D+00 0.00000000D+00
                 0.00000000D+00 0.00000000D+00 0.00000000D+00
 ***** Axes restored to original set *****
 -------------------------------------------------------------------
 Center     Atomic                   Forces (Hartrees/Bohr)
 Number     Number              X              Y              Z
 -------------------------------------------------------------------
      1        7           0.000102939    0.004600137   -0.001479703
      2        6          -0.013381390    0.001374270    0.010200079
      3        7          -0.057567478   -0.192640694    0.071794402
      4        1           0.051048855    0.203290238   -0.068321273
      5        7          -0.002003854    0.004837003    0.001849265
      6        6           0.051886713   -0.006600339   -0.032926675
      7        7          -0.036557686   -0.016427553    0.028307066
      8        7           0.042628377    0.020102285   -0.037420482
      9        8          -0.020910723    0.001080292    0.018723751
     10        7          -0.064665966    0.193829115    0.003735443
     11        1           0.060465662   -0.209181192   -0.001160243
     12        7           0.026860910   -0.017576072   -0.017620564
     13        7          -0.027177944    0.013588656    0.017710980
     14        8          -0.010728416   -0.000276145    0.006607955
 -------------------------------------------------------------------
 Cartesian Forces:  Max     0.209181192 RMS     0.068499780
 FormGI is forming the generalized inverse of G from B-inverse, IUseBI=4.
 Leave Link  716 at Fri Aug 27 06:21:23 2021, MaxMem= 24159191040 cpu:         1.1
 (Enter /public/home/users/caep010/software/Gaussian09/g09/l103.exe)

 GradGradGradGradGradGradGradGradGradGradGradGradGradGradGradGradGradGrad
 Berny optimization.
 Red2BG is reusing G-inverse.
 Internal  Forces:  Max     0.220412408 RMS     0.042236360
 Search for a local minimum.
 Step number   1 out of a maximum of   67
 All quantities printed in internal units (Hartrees-Bohrs-Radians)
 RMS Force = .42236D-01 SwitMx=.10000D-02 MixMth= 1
 Mixed Optimization -- RFO/linear search
 Second derivative matrix not updated -- analytic derivatives used.
 ITU=  0
     Eigenvalues ---    0.00693   0.00920   0.00944   0.01646   0.01942
     Eigenvalues ---    0.03113   0.04342   0.04834   0.05010   0.08777
     Eigenvalues ---    0.10172   0.10281   0.11100   0.12383   0.18596
     Eigenvalues ---    0.19911   0.20840   0.23804   0.26039   0.27684
     Eigenvalues ---    0.30399   0.34592   0.38147   0.38527   0.42024
     Eigenvalues ---    0.47659   0.50842   0.52427   0.55069   0.63669
     Eigenvalues ---    0.66915   0.69359   0.81047   1.19051   1.19475
     Eigenvalues ---    1.41581
 RFO step:  Lambda=-8.57057011D-02 EMin= 6.92860226D-03
 Linear search not attempted -- first point.
 Iteration  1 RMS(Cart)=  0.04810026 RMS(Int)=  0.00068894
 Iteration  2 RMS(Cart)=  0.00078998 RMS(Int)=  0.00004112
 Iteration  3 RMS(Cart)=  0.00000039 RMS(Int)=  0.00004111
 ITry= 1 IFail=0 DXMaxC= 1.96D-01 DCOld= 1.00D+10 DXMaxT= 3.00D-01 DXLimC= 3.00D+00 Rises=F
 Variable       Old X    -DE/DX   Delta X   Delta X   Delta X     New X
                                 (Linear)    (Quad)   (Total)
    R1        2.45215   0.00405   0.00000   0.00221   0.00213   2.45427
    R2        2.61288   0.00354   0.00000  -0.00242  -0.00244   2.61044
    R3        2.61769   0.00195   0.00000  -0.00036  -0.00036   2.61734
    R4        2.56122   0.01625   0.00000   0.02493   0.02489   2.58612
    R5        1.62472   0.22041   0.00000   0.17136   0.17136   1.79608
    R6        2.51027   0.01567   0.00000   0.03414   0.03421   2.54448
    R7        2.36904  -0.00175   0.00000  -0.01161  -0.01161   2.35743
    R8        2.56107  -0.03051   0.00000  -0.06571  -0.06571   2.49536
    R9        2.54651   0.02002   0.00000   0.04056   0.04062   2.58713
   R10        2.50389   0.02645   0.00000   0.07005   0.07005   2.57394
   R11        2.36163  -0.02763   0.00000  -0.05778  -0.05778   2.30385
   R12        2.35312   0.00380   0.00000   0.00433   0.00433   2.35745
   R13        1.62534   0.21771   0.00000   0.17048   0.17048   1.79582
   R14        2.09871   0.03517   0.00000   0.02557   0.02557   2.12429
    A1        1.79424   0.00522   0.00000   0.00934   0.00921   1.80344
    A2        2.22843   0.00313   0.00000   0.01125   0.01130   2.23972
    A3        1.97040  -0.00292   0.00000  -0.00736  -0.00746   1.96294
    A4        2.08435  -0.00021   0.00000  -0.00389  -0.00384   2.08052
    A5        2.16429  -0.00538   0.00000  -0.01354  -0.01357   2.15073
    A6        1.95380   0.00381   0.00000   0.01568   0.01573   1.96954
    A7        2.16509   0.00157   0.00000  -0.00214  -0.00218   2.16291
    A8        1.97151   0.00973   0.00000   0.03392   0.03392   2.00543
    A9        2.36177  -0.00232   0.00000   0.00345   0.00338   2.36515
   A10        1.84574  -0.00769   0.00000  -0.02857  -0.02844   1.81731
   A11        2.07555   0.01001   0.00000   0.02509   0.02503   2.10057
   A12        2.02153  -0.01727   0.00000  -0.01230  -0.01230   2.00922
   A13        2.02177   0.00153   0.00000   0.00078   0.00078   2.02255
   A14        2.14460  -0.01473   0.00000  -0.03519  -0.03519   2.10940
   A15        2.11680   0.01321   0.00000   0.03442   0.03442   2.15122
   A16        1.86028   0.00159   0.00000   0.01105   0.01108   1.87136
   A17        2.21117   0.00233   0.00000   0.01086   0.01084   2.22202
   A18        2.21173  -0.00392   0.00000  -0.02191  -0.02192   2.18981
   A19        3.26345   0.00136   0.00000   0.00837   0.00837   3.27182
   A20        3.13252   0.00058   0.00000   0.00293   0.00293   3.13545
    D1       -3.13683  -0.00007   0.00000  -0.00056  -0.00054  -3.13737
    D2        0.00586  -0.00037   0.00000  -0.00248  -0.00248   0.00338
    D3       -3.13261   0.00060   0.00000   0.00447   0.00443  -3.12818
    D4        0.00964  -0.00001   0.00000  -0.00084  -0.00086   0.00878
    D5       -0.03653   0.00014   0.00000   0.00203   0.00202  -0.03451
    D6        3.10390   0.00045   0.00000   0.00406   0.00408   3.10798
    D7       -0.01876   0.00064   0.00000   0.00486   0.00490  -0.01386
    D8        3.12307   0.00040   0.00000   0.00331   0.00332   3.12639
    D9        3.12384   0.00037   0.00000   0.00310   0.00314   3.12698
   D10       -0.01752   0.00013   0.00000   0.00155   0.00156  -0.01596
   D11        3.10239   0.00007   0.00000   0.00214   0.00217   3.10455
   D12       -0.02093   0.00048   0.00000   0.00408   0.00406  -0.01687
   D13       -0.03854  -0.00054   0.00000  -0.00317  -0.00317  -0.04171
   D14        3.12132  -0.00013   0.00000  -0.00123  -0.00127   3.12005
   D15        0.09088  -0.00304   0.00000  -0.02511  -0.02511   0.06576
   D16       -3.07081  -0.00364   0.00000  -0.02769  -0.02769  -3.09850
   D17        0.02319  -0.00070   0.00000  -0.00539  -0.00536   0.01783
   D18       -3.11864  -0.00046   0.00000  -0.00383  -0.00381  -3.12245
   D19       -3.10372  -0.00026   0.00000  -0.00368  -0.00366  -3.10738
   D20        0.03763  -0.00002   0.00000  -0.00212  -0.00211   0.03552
   D21       -3.04917  -0.00268   0.00000  -0.02014  -0.02016  -3.06933
   D22        0.09890  -0.00319   0.00000  -0.02148  -0.02146   0.07745
   D23       -3.13522  -0.00039   0.00000  -0.00103  -0.00105  -3.13627
         Item               Value     Threshold  Converged?
 Maximum Force            0.220412     0.000450     NO 
 RMS     Force            0.042236     0.000300     NO 
 Maximum Displacement     0.195915     0.001800     NO 
 RMS     Displacement     0.048080     0.001200     NO 
 Predicted change in Energy=-4.646933D-02
 Lowest energy point so far.  Saving SCF results.
 GradGradGradGradGradGradGradGradGradGradGradGradGradGradGradGradGradGrad

 Leave Link  103 at Fri Aug 27 06:21:23 2021, MaxMem= 24159191040 cpu:         9.3
 (Enter /public/home/users/caep010/software/Gaussian09/g09/l202.exe)
                          Input orientation:                          
 ---------------------------------------------------------------------
 Center     Atomic      Atomic             Coordinates (Angstroms)
 Number     Number       Type             X           Y           Z
 ---------------------------------------------------------------------
      1          7           0       -0.875714    8.891637    2.167918
      2          6           0       -0.825840    7.607168    2.353357
      3          7           0        0.222383    9.140769    1.367701
      4          1           0        0.461279   10.010220    1.067156
      5          7           0       -1.692945    6.810274    3.082335
      6          6           0        0.914500    8.025415    1.067751
      7          7           0        1.976776    7.744263    0.335488
      8          7           0        2.594741    8.821304   -0.224282
      9          8           0        3.529477    8.572383   -0.966321
     10          7           0        0.241266    7.028550    1.721441
     11          1           0        0.484554    6.109926    1.725929
     12          7           0       -2.615000    7.424812    3.655400
     13          7           0       -3.491561    7.847439    4.218146
     14          8           0        2.211683    9.981440    0.027980
 ---------------------------------------------------------------------
                    Distance matrix (angstroms):
                    1          2          3          4          5
     1  N    0.000000
     2  C    1.298744   0.000000
     3  N    1.381387   2.102908   0.000000
     4  H    2.061664   3.014241   0.950444   0.000000
     5  N    2.415802   1.385034   3.469821   4.352159   0.000000
     6  C    2.272790   2.203746   1.346480   2.035893   3.511964
     7  N    3.579241   3.456190   2.468519   2.822521   4.678072
     8  N    4.215640   4.451822   2.874813   2.762786   5.776002
     9  O    5.415819   5.560638   4.087493   3.951739   6.838885
    10  N    2.217675   1.368515   2.141718   3.060531   2.375048
    11  H    3.127875   2.086272   3.063180   3.955606   2.659291
    12  N    2.718326   2.220285   4.028501   4.779837   1.247497
    13  N    3.483739   3.262091   4.857069   5.498301   2.366600
    14  O    3.911397   4.502343   2.541436   2.035836   5.884853
                    6          7          8          9         10
     6  C    0.000000
     7  N    1.320487   0.000000
     8  N    2.264066   1.362072   0.000000
     9  O    3.357786   2.188920   1.219146   0.000000
    10  N    1.369049   2.333475   3.540995   4.518829   0.000000
    11  H    2.070544   2.613639   3.950668   4.752206   0.950305
    12  N    4.417469   5.675234   6.644059   7.773792   3.472101
    13  N    5.419413   6.707338   7.597805   8.757809   4.564878
    14  O    2.567068   2.270397   1.247511   2.170405   3.933181
                   11         12         13         14
    11  H    0.000000
    12  N    3.880596   0.000000
    13  N    5.003957   1.124124   0.000000
    14  O    4.566686   6.556783   7.391782   0.000000
 Stoichiometry    C2H2N8O2
 Framework group  C1[X(C2H2N8O2)]
 Deg. of freedom    36
 Full point group                 C1      NOp   1
 RotChk:  IX=0 Diff= 1.18D-02
 Largest Abelian subgroup         C1      NOp   1
 Largest concise Abelian subgroup C1      NOp   1
                         Standard orientation:                         
 ---------------------------------------------------------------------
 Center     Atomic      Atomic             Coordinates (Angstroms)
 Number     Number       Type             X           Y           Z
 ---------------------------------------------------------------------
      1          7           0       -1.130377    0.959277   -0.052170
      2          6           0       -1.458246   -0.296365   -0.001156
      3          7           0        0.250626    0.928526   -0.041391
      4          1           0        0.789162    1.711448   -0.060234
      5          7           0       -2.726363   -0.853225    0.009171
      6          6           0        0.745333   -0.322953    0.004188
      7          7           0        1.951687   -0.859923   -0.003527
      8          7           0        2.981477    0.031511    0.007255
      9          8           0        4.099830   -0.446184   -0.078838
     10          7           0       -0.366678   -1.120457    0.045567
     11          1           0       -0.363087   -2.069299    0.098161
     12          7           0       -3.662309   -0.028481    0.002132
     13          7           0       -4.595109    0.598792   -0.006120
     14          8           0        2.766510    1.256386    0.106021
 ---------------------------------------------------------------------
 Rotational constants (GHZ):      4.7444148      0.4174441      0.3839099
 Leave Link  202 at Fri Aug 27 06:21:23 2021, MaxMem= 24159191040 cpu:         0.7
 (Enter /public/home/users/caep010/software/Gaussian09/g09/l301.exe)
 Standard basis: GTBas3 (6D, 7F)
 Ernie: Thresh=  0.10000D-02 Tol=  0.10000D-05 Strict=F.
 There are   382 symmetry adapted cartesian basis functions of A   symmetry.
 There are   346 symmetry adapted basis functions of A   symmetry.
   346 basis functions,   542 primitive gaussians,   382 cartesian basis functions
    43 alpha electrons       43 beta electrons
       nuclear repulsion energy       669.4999472303 Hartrees.
 IExCor=  402 DFT=T Ex+Corr=B3LYP ExCW=0 ScaHFX=  0.200000
 ScaDFX=  0.800000  0.720000  1.000000  0.810000 ScalE2=  1.000000  1.000000
 IRadAn=      0 IRanWt=     -1 IRanGd=            0 ICorTp=0 IEmpDi=  4
 NAtoms=   14 NActive=   14 NUniq=   14 SFac= 1.00D+00 NAtFMM=   60 NAOKFM=F Big=F
 Integral buffers will be    131072 words long.
 Raffenetti 2 integral format.
 Two-electron integral symmetry is turned on.
 Leave Link  301 at Fri Aug 27 06:21:24 2021, MaxMem= 24159191040 cpu:         1.9
 (Enter /public/home/users/caep010/software/Gaussian09/g09/l302.exe)
 NPDir=0 NMtPBC=     1 NCelOv=     1 NCel=       1 NClECP=     1 NCelD=      1
         NCelK=      1 NCelE2=     1 NClLst=     1 CellRange=     0.0.
 One-electron integrals computed using PRISM.
 NBasis=   346 RedAO= T EigKep=  1.24D-04  NBF=   346
 NBsUse=   346 1.00D-06 EigRej= -1.00D+00 NBFU=   346
 Precomputing XC quadrature grid using
 IXCGrd= 4 IRadAn=           0 IRanWt=          -1 IRanGd=           0 AccXCQ= 0.00D+00.
 Generated NRdTot=       0 NPtTot=           0 NUsed=           0 NTot=          32
 NSgBfM=   380   380   380   380   380 MxSgAt=    14 MxSgA2=    14.
 Leave Link  302 at Fri Aug 27 06:21:24 2021, MaxMem= 24159191040 cpu:        16.6
 (Enter /public/home/users/caep010/software/Gaussian09/g09/l303.exe)
 DipDrv:  MaxL=1.
 Leave Link  303 at Fri Aug 27 06:21:24 2021, MaxMem= 24159191040 cpu:         0.9
 (Enter /public/home/users/caep010/software/Gaussian09/g09/l401.exe)
 Initial guess from the checkpoint file:  "/public/home/users/caep010/.cache/gau_scr/Gau-10227.chk"
 B after Tr=    -0.000000   -0.000000    0.000000
         Rot=    1.000000   -0.000483    0.000105    0.000145 Ang=  -0.06 deg.
 Guess basis will be translated and rotated to current coordinates.
 JPrj=2 DoOrth=T DoCkMO=T.
 Generating alternative initial guess.
 ExpMin= 1.61D-01 ExpMax= 5.48D+03 ExpMxC= 8.25D+02 IAcc=1 IRadAn=         1 AccDes= 0.00D+00
 Harris functional with IExCor=  402 and IRadAn=       1 diagonalized for initial guess.
 HarFok:  IExCor=  402 AccDes= 0.00D+00 IRadAn=         1 IDoV= 1 UseB2=F ITyADJ=14
 ICtDFT=  3500011 ScaDFX=  1.000000  1.000000  1.000000  1.000000
 FoFCou: FMM=F IPFlag=           0 FMFlag=      100000 FMFlg1=           0
         NFxFlg=           0 DoJE=T BraDBF=F KetDBF=T FulRan=T
         wScrn=  0.000000 ICntrl=     500 IOpCl=  0 I1Cent=   200000004 NGrid=           0
         NMat0=    1 NMatS0=      1 NMatT0=    0 NMatD0=    1 NMtDS0=    0 NMtDT0=    0
 Petite list used in FoFCou.
 Harris En= -665.661741507889    
 Leave Link  401 at Fri Aug 27 06:21:25 2021, MaxMem= 24159191040 cpu:        23.2
 (Enter /public/home/users/caep010/software/Gaussian09/g09/l502.exe)
 Closed shell SCF:
 Using DIIS extrapolation, IDIIS=  1040.
 Integral symmetry usage will be decided dynamically.
 Keep R1 ints in memory in canonical form, NReq=1830452538.
 IVT=      471290 IEndB=      471290 NGot= 24159191040 MDV= 22356829255
 LenX= 22356829255 LenY= 22356682890
 Requested convergence on RMS density matrix=1.00D-08 within 128 cycles.
 Requested convergence on MAX density matrix=1.00D-06.
 Requested convergence on             energy=1.00D-06.
 No special actions if energy rises.
 FoFCou: FMM=F IPFlag=           0 FMFlag=           0 FMFlg1=           0
         NFxFlg=           0 DoJE=F BraDBF=F KetDBF=F FulRan=T
         wScrn=  0.000000 ICntrl=     600 IOpCl=  0 I1Cent=           0 NGrid=           0
         NMat0=    1 NMatS0=  60031 NMatT0=    0 NMatD0=    1 NMtDS0=    0 NMtDT0=    0
 Symmetry not used in FoFCou.
 Integral accuracy reduced to 1.0D-05 until final iterations.

 Cycle   1  Pass 0  IDiag  1:
 E= -665.699145860885    
 DIIS: error= 5.07D-03 at cycle   1 NSaved=   1.
 NSaved= 1 IEnMin= 1 EnMin= -665.699145860885     IErMin= 1 ErrMin= 5.07D-03
 ErrMax= 5.07D-03  0.00D+00 EMaxC= 1.00D-01 BMatC= 1.32D-02 BMatP= 1.32D-02
 IDIUse=3 WtCom= 9.49D-01 WtEn= 5.07D-02
 Coeff-Com:  0.100D+01
 Coeff-En:   0.100D+01
 Coeff:      0.100D+01
 Gap=     0.989 Goal=   None    Shift=    0.000
 GapD=    0.989 DampG=2.000 DampE=1.000 DampFc=2.0000 IDamp=-1.
 RMSDP=5.33D-04 MaxDP=2.82D-02              OVMax= 2.13D-02

 Cycle   2  Pass 0  IDiag  1:
 E= -665.709806601327     Delta-E=       -0.010660740441 Rises=F Damp=F
 DIIS: error= 2.43D-03 at cycle   2 NSaved=   2.
 NSaved= 2 IEnMin= 2 EnMin= -665.709806601327     IErMin= 2 ErrMin= 2.43D-03
 ErrMax= 2.43D-03  0.00D+00 EMaxC= 1.00D-01 BMatC= 2.21D-03 BMatP= 1.32D-02
 IDIUse=3 WtCom= 9.76D-01 WtEn= 2.43D-02
 Coeff-Com:  0.196D+00 0.804D+00
 Coeff-En:   0.000D+00 0.100D+01
 Coeff:      0.192D+00 0.808D+00
 Gap=     0.174 Goal=   None    Shift=    0.000
 RMSDP=2.39D-04 MaxDP=2.13D-02 DE=-1.07D-02 OVMax= 3.12D-02

 Cycle   3  Pass 0  IDiag  1:
 E= -665.708946412969     Delta-E=        0.000860188357 Rises=F Damp=F
 DIIS: error= 2.54D-03 at cycle   3 NSaved=   3.
 NSaved= 3 IEnMin= 2 EnMin= -665.709806601327     IErMin= 2 ErrMin= 2.43D-03
 ErrMax= 2.54D-03  0.00D+00 EMaxC= 1.00D-01 BMatC= 3.32D-03 BMatP= 2.21D-03
 IDIUse=3 WtCom= 1.66D-01 WtEn= 8.34D-01
 Coeff-Com:  0.601D-02 0.551D+00 0.443D+00
 Coeff-En:   0.000D+00 0.579D+00 0.421D+00
 Coeff:      0.996D-03 0.574D+00 0.425D+00
 Gap=     0.172 Goal=   None    Shift=    0.000
 RMSDP=1.45D-04 MaxDP=1.08D-02 DE= 8.60D-04 OVMax= 1.76D-02

 Cycle   4  Pass 0  IDiag  1:
 E= -665.711500928344     Delta-E=       -0.002554515374 Rises=F Damp=F
 DIIS: error= 5.30D-04 at cycle   4 NSaved=   4.
 NSaved= 4 IEnMin= 4 EnMin= -665.711500928344     IErMin= 4 ErrMin= 5.30D-04
 ErrMax= 5.30D-04  0.00D+00 EMaxC= 1.00D-01 BMatC= 1.78D-04 BMatP= 2.21D-03
 IDIUse=3 WtCom= 9.95D-01 WtEn= 5.30D-03
 Coeff-Com: -0.318D-02 0.328D+00 0.265D+00 0.410D+00
 Coeff-En:   0.000D+00 0.000D+00 0.000D+00 0.100D+01
 Coeff:     -0.316D-02 0.327D+00 0.263D+00 0.413D+00
 Gap=     0.171 Goal=   None    Shift=    0.000
 RMSDP=4.36D-05 MaxDP=3.33D-03 DE=-2.55D-03 OVMax= 7.28D-03

 Cycle   5  Pass 0  IDiag  1:
 E= -665.711611196065     Delta-E=       -0.000110267721 Rises=F Damp=F
 DIIS: error= 2.56D-04 at cycle   5 NSaved=   5.
 NSaved= 5 IEnMin= 5 EnMin= -665.711611196065     IErMin= 5 ErrMin= 2.56D-04
 ErrMax= 2.56D-04  0.00D+00 EMaxC= 1.00D-01 BMatC= 4.25D-05 BMatP= 1.78D-04
 IDIUse=3 WtCom= 9.97D-01 WtEn= 2.56D-03
 Coeff-Com: -0.499D-02 0.897D-01 0.709D-01 0.313D+00 0.531D+00
 Coeff-En:   0.000D+00 0.000D+00 0.000D+00 0.242D+00 0.758D+00
 Coeff:     -0.498D-02 0.895D-01 0.707D-01 0.313D+00 0.532D+00
 Gap=     0.172 Goal=   None    Shift=    0.000
 RMSDP=1.70D-05 MaxDP=1.42D-03 DE=-1.10D-04 OVMax= 2.64D-03

 Cycle   6  Pass 0  IDiag  1:
 E= -665.711641717384     Delta-E=       -0.000030521319 Rises=F Damp=F
 DIIS: error= 5.75D-05 at cycle   6 NSaved=   6.
 NSaved= 6 IEnMin= 6 EnMin= -665.711641717384     IErMin= 6 ErrMin= 5.75D-05
 ErrMax= 5.75D-05  0.00D+00 EMaxC= 1.00D-01 BMatC= 3.38D-06 BMatP= 4.25D-05
 IDIUse=1 WtCom= 1.00D+00 WtEn= 0.00D+00
 Coeff-Com: -0.254D-02 0.299D-01 0.225D-01 0.162D+00 0.331D+00 0.457D+00
 Coeff:     -0.254D-02 0.299D-01 0.225D-01 0.162D+00 0.331D+00 0.457D+00
 Gap=     0.171 Goal=   None    Shift=    0.000
 RMSDP=5.58D-06 MaxDP=3.93D-04 DE=-3.05D-05 OVMax= 6.04D-04

 Initial convergence to 1.0D-05 achieved.  Increase integral accuracy.
 Cycle   7  Pass 1  IDiag  1:
 E= -665.711679233597     Delta-E=       -0.000037516214 Rises=F Damp=F
 DIIS: error= 3.53D-05 at cycle   1 NSaved=   1.
 NSaved= 1 IEnMin= 1 EnMin= -665.711679233597     IErMin= 1 ErrMin= 3.53D-05
 ErrMax= 3.53D-05  0.00D+00 EMaxC= 1.00D-01 BMatC= 7.89D-07 BMatP= 7.89D-07
 IDIUse=1 WtCom= 1.00D+00 WtEn= 0.00D+00
 Coeff-Com:  0.100D+01
 Coeff:      0.100D+01
 Gap=     0.172 Goal=   None    Shift=    0.000
 RMSDP=5.58D-06 MaxDP=3.93D-04 DE=-3.75D-05 OVMax= 8.54D-04

 Cycle   8  Pass 1  IDiag  1:
 E= -665.711674824886     Delta-E=        0.000004408712 Rises=F Damp=F
 DIIS: error= 1.15D-04 at cycle   2 NSaved=   2.
 NSaved= 2 IEnMin= 1 EnMin= -665.711679233597     IErMin= 1 ErrMin= 3.53D-05
 ErrMax= 1.15D-04  0.00D+00 EMaxC= 1.00D-01 BMatC= 5.87D-06 BMatP= 7.89D-07
 IDIUse=3 WtCom= 4.83D-01 WtEn= 5.17D-01
 Coeff-Com:  0.743D+00 0.257D+00
 Coeff-En:   0.827D+00 0.173D+00
 Coeff:      0.786D+00 0.214D+00
 Gap=     0.171 Goal=   None    Shift=    0.000
 RMSDP=4.67D-06 MaxDP=4.14D-04 DE= 4.41D-06 OVMax= 5.61D-04

 Cycle   9  Pass 1  IDiag  1:
 E= -665.711679822832     Delta-E=       -0.000004997946 Rises=F Damp=F
 DIIS: error= 1.31D-05 at cycle   3 NSaved=   3.
 NSaved= 3 IEnMin= 3 EnMin= -665.711679822832     IErMin= 3 ErrMin= 1.31D-05
 ErrMax= 1.31D-05  0.00D+00 EMaxC= 1.00D-01 BMatC= 1.03D-07 BMatP= 7.89D-07
 IDIUse=1 WtCom= 1.00D+00 WtEn= 0.00D+00
 Coeff-Com:  0.149D+00-0.630D-01 0.914D+00
 Coeff:      0.149D+00-0.630D-01 0.914D+00
 Gap=     0.171 Goal=   None    Shift=    0.000
 RMSDP=1.04D-06 MaxDP=5.06D-05 DE=-5.00D-06 OVMax= 1.08D-04

 Cycle  10  Pass 1  IDiag  1:
 E= -665.711679884217     Delta-E=       -0.000000061385 Rises=F Damp=F
 DIIS: error= 7.45D-06 at cycle   4 NSaved=   4.
 NSaved= 4 IEnMin= 4 EnMin= -665.711679884217     IErMin= 4 ErrMin= 7.45D-06
 ErrMax= 7.45D-06  0.00D+00 EMaxC= 1.00D-01 BMatC= 3.34D-08 BMatP= 1.03D-07
 IDIUse=1 WtCom= 1.00D+00 WtEn= 0.00D+00
 Coeff-Com:  0.104D-01-0.798D-01 0.667D+00 0.402D+00
 Coeff:      0.104D-01-0.798D-01 0.667D+00 0.402D+00
 Gap=     0.171 Goal=   None    Shift=    0.000
 RMSDP=5.11D-07 MaxDP=2.93D-05 DE=-6.14D-08 OVMax= 6.26D-05

 Cycle  11  Pass 1  IDiag  1:
 E= -665.711679910359     Delta-E=       -0.000000026142 Rises=F Damp=F
 DIIS: error= 2.02D-06 at cycle   5 NSaved=   5.
 NSaved= 5 IEnMin= 5 EnMin= -665.711679910359     IErMin= 5 ErrMin= 2.02D-06
 ErrMax= 2.02D-06  0.00D+00 EMaxC= 1.00D-01 BMatC= 2.75D-09 BMatP= 3.34D-08
 IDIUse=1 WtCom= 1.00D+00 WtEn= 0.00D+00
 Coeff-Com: -0.677D-02-0.486D-01 0.371D+00 0.275D+00 0.410D+00
 Coeff:     -0.677D-02-0.486D-01 0.371D+00 0.275D+00 0.410D+00
 Gap=     0.171 Goal=   None    Shift=    0.000
 RMSDP=1.47D-07 MaxDP=1.18D-05 DE=-2.61D-08 OVMax= 2.38D-05

 Cycle  12  Pass 1  IDiag  1:
 E= -665.711679912351     Delta-E=       -0.000000001992 Rises=F Damp=F
 DIIS: error= 5.69D-07 at cycle   6 NSaved=   6.
 NSaved= 6 IEnMin= 6 EnMin= -665.711679912351     IErMin= 6 ErrMin= 5.69D-07
 ErrMax= 5.69D-07  0.00D+00 EMaxC= 1.00D-01 BMatC= 2.58D-10 BMatP= 2.75D-09
 IDIUse=1 WtCom= 1.00D+00 WtEn= 0.00D+00
 Coeff-Com: -0.579D-02-0.210D-01 0.152D+00 0.125D+00 0.264D+00 0.486D+00
 Coeff:     -0.579D-02-0.210D-01 0.152D+00 0.125D+00 0.264D+00 0.486D+00
 Gap=     0.171 Goal=   None    Shift=    0.000
 RMSDP=4.90D-08 MaxDP=3.52D-06 DE=-1.99D-09 OVMax= 6.57D-06

 Cycle  13  Pass 1  IDiag  1:
 E= -665.711679912584     Delta-E=       -0.000000000234 Rises=F Damp=F
 DIIS: error= 1.80D-07 at cycle   7 NSaved=   7.
 NSaved= 7 IEnMin= 7 EnMin= -665.711679912584     IErMin= 7 ErrMin= 1.80D-07
 ErrMax= 1.80D-07  0.00D+00 EMaxC= 1.00D-01 BMatC= 3.22D-11 BMatP= 2.58D-10
 IDIUse=1 WtCom= 1.00D+00 WtEn= 0.00D+00
 Coeff-Com: -0.281D-02-0.784D-02 0.544D-01 0.483D-01 0.115D+00 0.308D+00
 Coeff-Com:  0.484D+00
 Coeff:     -0.281D-02-0.784D-02 0.544D-01 0.483D-01 0.115D+00 0.308D+00
 Coeff:      0.484D+00
 Gap=     0.171 Goal=   None    Shift=    0.000
 RMSDP=1.83D-08 MaxDP=1.26D-06 DE=-2.34D-10 OVMax= 2.26D-06

 Cycle  14  Pass 1  IDiag  1:
 E= -665.711679912574     Delta-E=        0.000000000010 Rises=F Damp=F
 DIIS: error= 7.27D-08 at cycle   8 NSaved=   8.
 NSaved= 8 IEnMin= 7 EnMin= -665.711679912584     IErMin= 8 ErrMin= 7.27D-08
 ErrMax= 7.27D-08  0.00D+00 EMaxC= 1.00D-01 BMatC= 3.67D-12 BMatP= 3.22D-11
 IDIUse=1 WtCom= 1.00D+00 WtEn= 0.00D+00
 Coeff-Com: -0.355D-04 0.118D-02-0.100D-01-0.667D-02-0.904D-02 0.455D-01
 Coeff-Com:  0.274D+00 0.705D+00
 Coeff:     -0.355D-04 0.118D-02-0.100D-01-0.667D-02-0.904D-02 0.455D-01
 Coeff:      0.274D+00 0.705D+00
 Gap=     0.171 Goal=   None    Shift=    0.000
 RMSDP=7.24D-09 MaxDP=3.57D-07 DE= 1.00D-11 OVMax= 8.85D-07

 SCF Done:  E(RB3LYP) =  -665.711679913     A.U. after   14 cycles
            NFock= 14  Conv=0.72D-08     -V/T= 2.0060
 KE= 6.617618749337D+02 PE=-2.895246103649D+03 EE= 8.982726015723D+02
 Leave Link  502 at Fri Aug 27 06:22:14 2021, MaxMem= 24159191040 cpu:       279.8
 (Enter /public/home/users/caep010/software/Gaussian09/g09/l701.exe)
 Compute integral first derivatives.
 ... and contract with generalized density number  0.
 Leave Link  701 at Fri Aug 27 06:22:15 2021, MaxMem= 24159191040 cpu:        14.4
 (Enter /public/home/users/caep010/software/Gaussian09/g09/l702.exe)
 L702 exits ... SP integral derivatives will be done elsewhere.
 Leave Link  702 at Fri Aug 27 06:22:15 2021, MaxMem= 24159191040 cpu:         0.5
 (Enter /public/home/users/caep010/software/Gaussian09/g09/l703.exe)
 Compute integral first derivatives, UseDBF=F ICtDFT=           0.
 Integral derivatives from FoFJK, PRISM(SPDF).
 Calling FoFJK, ICntrl=      2127 FMM=F ISym2X=0 I1Cent= 0 IOpClX= 0 NMat=1 NMatS=1 NMatT=0.
 FoFJK:  IHMeth= 1 ICntrl=    2127 DoSepK=F KAlg= 0 I1Cent=   0 FoldK=F
 IRaf=         0 NMat=   1 IRICut=       1 DoRegI=T DoRafI=F ISym2E= 0.
 FoFCou: FMM=F IPFlag=           0 FMFlag=      100000 FMFlg1=         800
         NFxFlg=           0 DoJE=F BraDBF=F KetDBF=F FulRan=T
         wScrn=  0.000000 ICntrl=    2127 IOpCl=  0 I1Cent=           0 NGrid=           0
         NMat0=    1 NMatS0=      1 NMatT0=    0 NMatD0=    1 NMtDS0=    0 NMtDT0=    0
 Symmetry not used in FoFCou.
 Leave Link  703 at Fri Aug 27 06:22:20 2021, MaxMem= 24159191040 cpu:       170.6
 (Enter /public/home/users/caep010/software/Gaussian09/g09/l716.exe)
[...]
     3  N    0.159821  -0.089529   6.529357   0.375829   0.004247   0.461615
     4  H   -0.030479   0.002793   0.375829   0.237216   0.000624  -0.016237
     5  N   -0.071577   0.364791   0.004247   0.000624   7.028618   0.004260
     6  C   -0.037433  -0.072893   0.461615  -0.016237   0.004260   4.234198
     7  N    0.012407   0.013288  -0.045733  -0.004090  -0.001545   0.415031
     8  N   -0.001522  -0.001358  -0.004825   0.001740   0.000122  -0.012956
     9  O    0.000151   0.000653   0.003176  -0.000140  -0.000152   0.007197
    10  N   -0.090997   0.452935  -0.077719  -0.000042  -0.075444   0.495982
    11  H    0.001567  -0.017597   0.004522  -0.000023   0.002780  -0.020157
    12  N   -0.001202  -0.029112   0.001139  -0.000048   0.343023  -0.001730
    13  N   -0.000564   0.001210  -0.003283  -0.000000  -0.139592  -0.000220
    14  O   -0.000011   0.002486  -0.026377   0.005884   0.000156  -0.004347
               7          8          9         10         11         12
     1  N    0.012407  -0.001522   0.000151  -0.090997   0.001567  -0.001202
     2  C    0.013288  -0.001358   0.000653   0.452935  -0.017597  -0.029112
     3  N   -0.045733  -0.004825   0.003176  -0.077719   0.004522   0.001139
     4  H   -0.004090   0.001740  -0.000140  -0.000042  -0.000023  -0.000048
     5  N   -0.001545   0.000122  -0.000152  -0.075444   0.002780   0.343023
     6  C    0.415031  -0.012956   0.007197   0.495982  -0.020157  -0.001730
     7  N    7.015515   0.317254  -0.137349  -0.082892   0.006131   0.001127
     8  N    0.317254   5.337811   0.442524   0.008909  -0.000460  -0.000103
     9  O   -0.137349   0.442524   8.193668  -0.004321   0.000015   0.000003
    10  N   -0.082892   0.008909  -0.004321   6.383662   0.347331   0.006692
    11  H    0.006131  -0.000460   0.000015   0.347331   0.254072  -0.000186
    12  N    0.001127  -0.000103   0.000003   0.006692  -0.000186   5.394152
    13  N    0.000063  -0.000025   0.000000   0.002911  -0.000035   0.705897
    14  O   -0.084315   0.349480  -0.110515  -0.001091   0.000086  -0.000095
              13         14
     1  N   -0.000564  -0.000011
     2  C    0.001210   0.002486
     3  N   -0.003283  -0.026377
     4  H   -0.000000   0.005884
     5  N   -0.139592   0.000156
     6  C   -0.000220  -0.004347
     7  N    0.000063  -0.084315
     8  N   -0.000025   0.349480
     9  O    0.000000  -0.110515
    10  N    0.002911  -0.001091
    11  H   -0.000035   0.000086
    12  N    0.705897  -0.000095
    13  N    6.614899   0.000009
    14  O    0.000009   8.359746
 Mulliken charges:
               1
     1  N   -0.421624
     2  C    0.491787
     3  N   -0.292239
     4  H    0.426975
     5  N   -0.460311
     6  C    0.547690
     7  N   -0.424891
     8  N    0.563409
     9  O   -0.394911
    10  N   -0.365918
    11  H    0.421953
    12  N    0.580444
    13  N   -0.181270
    14  O   -0.491095
 Sum of Mulliken charges =  -0.00000
 Mulliken charges with hydrogens summed into heavy atoms:
               1
     1  N   -0.421624
     2  C    0.491787
     3  N    0.134737
     5  N   -0.460311
     6  C    0.547690
     7  N   -0.424891
     8  N    0.563409
     9  O   -0.394911
    10  N    0.056035
    12  N    0.580444
    13  N   -0.181270
    14  O   -0.491095
 Electronic spatial extent (au):  <R**2>=           2547.8854
 Charge=             -0.0000 electrons
 Dipole moment (field-independent basis, Debye):
    X=             -7.3428    Y=             -1.2946    Z=              0.0013  Tot=              7.4561
 Quadrupole moment (field-independent basis, Debye-Ang):
   XX=            -85.7018   YY=            -66.2300   ZZ=            -65.6670
   XY=              3.4597   XZ=             -0.0051   YZ=             -0.0045
 Traceless Quadrupole moment (field-independent basis, Debye-Ang):
   XX=            -13.1689   YY=              6.3030   ZZ=              6.8659
   XY=              3.4597   XZ=             -0.0051   YZ=             -0.0045
 Octapole moment (field-independent basis, Debye-Ang**2):
  XXX=           -109.7549  YYY=             -3.6276  ZZZ=              0.0067  XYY=             -1.3538
  XXY=             -0.0261  XXZ=             -0.0170  XZZ=              5.6144  YZZ=              1.0248
  YYZ=              0.0092  XYZ=             -0.0034
 Hexadecapole moment (field-independent basis, Debye-Ang**3):
 XXXX=          -3130.2102 YYYY=           -275.7186 ZZZZ=            -58.8581 XXXY=             41.3191
 XXXZ=             -0.0881 YYYX=             15.1412 YYYZ=             -0.0235 ZZZX=              0.0100
 ZZZY=             -0.0034 XXYY=           -582.5749 XXZZ=           -465.5285 YYZZ=            -65.4071
 XXYZ=             -0.0116 YYXZ=             -0.0012 ZZXY=              2.3735
 N-N= 6.671559341604D+02 E-N=-2.887890761759D+03  KE= 6.610998610155D+02
 No NMR shielding tensors so no spin-rotation constants.
 Leave Link  601 at Fri Aug 27 09:57:38 2021, MaxMem= 24159191040 cpu:        41.7
 (Enter /public/home/users/caep010/software/Gaussian09/g09/l9999.exe)
 1\1\GINC-B1035\SP\RHF\GFHFB2\C2H2N8O2\ROOT\27-Aug-2021\0\\#P Geom=AllC
 heck Guess=TCheck SCRF=Check HF/GFHFB2 SCF=Tight\\NAPHAP\\0,1\N,0,-0.8
 565317851,8.905496503,2.1953462082\C,0,-0.8300126944,7.6173110116,2.36
 56464644\N,0,0.2342190335,9.1451333189,1.3880764446\H,0,0.5011836452,1
 0.0622089494,1.0652235624\N,0,-1.6967716395,6.8237559332,3.0955161069\
 C,0,0.9190629803,8.0247178155,1.0680096553\N,0,1.9881969096,7.74230498
 78,0.3526843509\N,0,2.6020757454,8.8269165356,-0.2395917944\O,0,3.5903
 544163,8.5750956509,-0.9012354094\N,0,0.2194897962,7.0291683839,1.7091
 046167\H,0,0.4638367682,6.052416572,1.6805754641\N,0,-2.6288945986,7.4
 180658297,3.6680650691\N,0,-3.5154518085,7.8165813964,4.2370148692\O,0
 ,2.1448432314,9.9764271121,-0.0844356079\\Version=ES64L-G09RevE.01\Sta
 te=1-A\HF=-662.2669716\RMSD=7.649e-09\Dipole=-2.149451,-1.0789389,1.67
 95579\Quadrupole=-5.0489111,5.1104712,-0.0615601,-0.4292608,7.2439462,
 0.2979032\PG=C01 [X(C2H2N8O2)]\\@


 THIS CURIOUS WORLD WHICH WE INHABIT IS MORE WONDERFUL THAN IT IS CONVENIENT;
 MORE BEAUTIFUL THAN IT IS USEFUL;
 IT IS MORE TO BE ADMIRED THAN IT IS TO BE USED.

                                                                 -- THOREAU
 Diagonal vibrational polarizability:
        0.0000000       0.0000000       0.0000000

 Temperature=              298.150000 Pressure=                      1.000000
 E(ZPE)=                     0.081053 E(Thermal)=                    0.090729
 E(CCSD(T))=              -663.973139 E(Empiric)=                   -0.215357
 DE(Plus)=                  -0.047415 DE(2DF)=                      -0.431599
 E(Delta-G3XP)=             -0.800455 DE(HF)=                       -0.064852
 G4(0 K)=                 -665.451764 G4 Energy=                  -665.442088
 G4 Enthalpy=             -665.441144 G4 Free Energy=             -665.488077
 1\1\GINC-B1035\Mixed\G4\G4\C2H2N8O2\ROOT\27-Aug-2021\0\\#P Geom=AllChe
 ck Guess=TCheck SCRF=Check HF/GFHFB2 SCF=Tight\\NAPHAP\\0,1\N,0,-0.856
 5317851,8.905496503,2.1953462082\C,0,-0.8300126944,7.6173110116,2.3656
 464644\N,0,0.2342190335,9.1451333189,1.3880764446\H,0,0.5011836452,10.
 0622089494,1.0652235624\N,0,-1.6967716395,6.8237559332,3.0955161069\C,
 0,0.9190629803,8.0247178155,1.0680096553\N,0,1.9881969096,7.7423049878
 ,0.3526843509\N,0,2.6020757454,8.8269165356,-0.2395917944\O,0,3.590354
 4163,8.5750956509,-0.9012354094\N,0,0.2194897962,7.0291683839,1.709104
 6167\H,0,0.4638367682,6.052416572,1.6805754641\N,0,-2.6288945986,7.418
 0658297,3.6680650691\N,0,-3.5154518085,7.8165813964,4.2370148692\O,0,2
 .1448432314,9.9764271121,-0.0844356079\\Version=ES64L-G09RevE.01\State
 =1-A\MP2/GTBas1=-663.8925954\MP4/GTBas1=-663.9986784\CCSD(T)/G3Bas1=-6
 63.9731387\MP2/GTBas2=-663.9366635\MP4/GTBas2=-664.0460937\MP2/GTBas3=
 -664.2996418\MP4/GTBas3=-664.4302774\HF/GTLargeXP=-662.2045394\MP2/GTL
 argeXP=-665.1441646\HF/GFHFB1=-662.2570401\HF/GFHFB2=-662.2669716\G4=-
 665.4517637\FreqCoord=-1.6186104979,16.828949468,4.1486031003,-1.56849
 66792,14.3946316809,4.4704239449,0.4426098284,17.2817974214,2.62308433
 19,0.9470998316,19.0148192063,2.0129808032,-3.2064337087,12.8950299114
 ,5.849677682,1.7367773317,15.1645189651,2.0182457557,3.7571476573,14.6
 308360643,0.6664768345,4.9172105358,16.6804548501,-0.4527628751,6.7847
 865669,16.2045823436,-1.7030881051,0.4147756039,13.2832031875,3.229739
 658,0.8765244623,11.4374097632,3.1758273728,-4.9678908236,14.018112853
 9,6.9316384182,-6.6432411515,14.7711981345,8.0067977238,4.0531663052,1
 8.8527150266,-0.1595601749\PG=C01 [X(C2H2N8O2)]\NImag=0\\0.31262642,-0
 .02354944,0.64559633,-0.15843295,-0.06576991,0.20567787,-0.09036791,0.
 04794167,0.00370256,0.56574409,-0.01384379,-0.43650435,0.06282663,0.02
 385130,0.78701491,0.01277127,0.01910362,-0.08704276,-0.29557172,-0.109
 95383,0.37839356,-0.16505466,-0.04980082,0.09592983,-0.03006001,-0.034
 52371,0.03361915,0.42307854,0.01052477,-0.10198945,0.00163505,-0.03310
 401,-0.07802273,0.03639924,0.03120948,0.94361001,0.08703158,0.04433780
 ,-0.10801859,0.03340359,0.03740742,-0.01884970,-0.26039320,-0.15121739
 ,0.26794016,-0.00771446,-0.02260199,0.00083352,-0.00498935,0.00207779,
 0.00431374,-0.06048489,-0.07765629,0.05291977,0.06142616,-0.00196563,0
 .01022220,-0.00174181,0.00188797,0.00116584,-0.00128390,-0.07895009,-0
 .40489535,0.11478391,0.08603806,0.41469146,-0.00217876,0.01287729,-0.0
 1155051,0.00434914,-0.00141770,-0.00132875,0.05310594,0.11379381,-0.05
 593071,-0.04653766,-0.11951360,0.06381379,0.00216983,-0.02090343,0.002
 09835,-0.13684371,-0.09256597,0.08915800,-0.00587021,0.00042993,0.0096
 3743,0.00065794,0.00212060,0.00068272,0.52516598,-0.02906187,-0.026871
 55,0.02462935,-0.05966711,-0.14355048,0.05888109,0.00239414,-0.0041631
 6,0.00006230,-0.00087203,0.00086508,0.00079542,-0.06272364,0.30593647,
 0.00330087,0.01885820,-0.00429635,0.08432530,0.08216351,-0.10180226,0.
 00934316,0.00145963,0.00100507,0.00112280,-0.00132653,0.00146200,-0.33
 489414,0.00522817,0.27525360,-0.03702618,0.01420894,0.02697671,-0.0448
 6962,-0.00672580,0.03798677,-0.15454409,0.06285073,0.05650252,0.016519
 64,-0.00437418,-0.01459481,0.00448098,0.00053202,-0.00255508,0.6742448
 6,0.04000512,-0.01841320,-0.02498748,-0.04534125,0.04628852,0.02637955
 ,0.08518526,-0.26234735,-0.03089422,0.00981677,-0.01738138,-0.00509894
 ,-0.00228883,-0.00517092,0.00251756,-0.05752655,0.62696063,0.02321565,
 -0.00675798,-0.01136435,0.04367931,-0.00094758,-0.02333826,0.05319484,
 -0.01502800,-0.09713391,-0.01665421,0.00489639,0.00606880,-0.00214459,
 0.00052510,0.00241862,-0.33880355,-0.02432099,0.42689353,-0.00675549,-
 0.00577445,0.01139634,0.00157325,0.00822221,-0.00271168,-0.00965912,0.
 03577310,0.01055451,-0.00766246,-0.00462252,0.00521719,-0.00499673,0.0
 0073339,0.00322110,-0.27365974,0.06452538,0.14378092,0.45496485,-0.003
 79665,-0.00450878,0.00454339,0.00230695,-0.00491426,-0.00099477,0.0336
 5452,0.00521710,-0.02273073,-0.00431112,-0.00121216,0.00304424,-0.0019
 7641,0.00118550,0.00118271,0.03732517,-0.12816868,-0.01602253,-0.01174
 419,0.33402510,0.01110081,0.00594510,-0.00060109,-0.00184800,-0.005185
 03,0.00150819,0.01086015,-0.02420857,0.00857266,0.00516092,0.00326829,
 -0.00539298,0.00361792,-0.00073499,-0.00274255,0.14774338,-0.03529609,
 -0.15659037,-0.27630176,-0.03142255,0.26201138,0.00178830,0.00198453,-
 0.00319764,-0.00064397,-0.00532060,0.00411468,0.00382096,-0.00434587,-
 0.00147083,-0.00163910,0.00316241,-0.00072834,0.00409522,0.00013479,-0
 .00259116,-0.05752064,-0.03566555,0.03562343,-0.09848261,0.00941088,0.
 01602940,0.70294507,0.01194195,0.00275220,-0.00921003,-0.00112758,-0.0
 0978808,0.00282621,-0.00302238,-0.02285712,0.00563296,0.01984394,0.006
 21361,-0.01524388,0.00341920,-0.00104857,-0.00219645,-0.03507508,0.025
 33321,0.01897564,-0.01529424,-0.15437767,0.02257399,-0.15323626,0.6819
 8543,-0.00465678,-0.00215248,0.00129411,0.00349579,0.00580205,0.000746
 21,-0.00166320,0.00654214,0.00104868,-0.00316405,-0.00344160,0.0007344
 9,-0.00306711,0.00012495,0.00261337,0.03555225,0.01941956,-0.04250515,
 0.01961568,0.00508847,-0.08848209,-0.29095433,0.04659131,0.45846733,-0
 .00250921,-0.00374361,0.00184665,-0.00021338,0.00404961,-0.00106035,-0
 .00076729,0.00079310,0.00009149,0.00255447,-0.00037555,-0.00072254,-0.
 00286961,-0.00008102,0.00204726,0.00839423,-0.00530044,0.00097631,-0.0
 5190285,-0.02253255,0.05357771,-0.39839985,0.07582387,0.20587922,0.477
 03441,-0.00153482,0.00142447,0.00078037,0.00097820,-0.00042299,-0.0007
 5706,0.00080265,0.00348992,-0.00114876,-0.00449107,-0.00130716,0.00358
 080,-0.00022046,0.00037006,0.00010249,0.00090719,-0.00651603,0.0015751
 2,-0.04031623,0.01645714,0.02890730,0.06727079,-0.14495638,-0.03972546
 ,-0.09962885,0.15646879,0.00151980,0.00234018,-0.00209931,-0.00061011,
 -0.00293218,-0.00001391,0.00009381,-0.00114199,-0.00036491,-0.00012045
 ,0.00066908,0.00144092,0.00206507,0.00000427,-0.00145552,0.00007064,0.
 00596624,0.00777583,0.05617889,0.01633842,-0.02284940,0.20712975,-0.04
 577665,-0.23110864,-0.29762479,0.05270735,0.23794280,-0.01324755,0.053
 90673,0.01849040,-0.19838667,0.06479701,0.09251621,0.01129235,-0.01906
 850,0.00112092,-0.00048087,0.00227312,0.00298887,-0.02683148,0.0057375
 6,0.01950960,-0.14034792,-0.04642504,0.06106227,-0.03292615,-0.0328401
 7,0.03258736,0.00330385,0.00841406,0.00081383,-0.00171937,-0.00240772,
 0.00118319,0.47388025,0.01967320,-0.07270363,0.00027116,0.06979101,-0.
 16302741,-0.03339821,0.01769680,-0.08782512,0.00166528,0.00553303,-0.0
 0262953,-0.00290270,-0.01624632,0.01501555,0.00957658,-0.04706084,-0.2
 2989495,0.05770615,-0.01831342,0.01399656,0.01184189,0.00762056,0.0090
 6820,-0.00582329,-0.00114562,-0.00006723,0.00074505,-0.12573383,0.9588
 8368,0.02350941,-0.02395773,0.01095846,0.09173654,-0.02984255,-0.11484
 403,-0.00427441,0.02771246,0.00783661,0.00250883,-0.00060404,0.0025342
 0,0.02273423,-0.00598041,-0.01329854,0.06120778,0.05729804,-0.11532528
 ,0.03045182,0.02211880,-0.01845824,0.00091319,-0.00637369,0.00644998,0
 .00100182,0.00163354,-0.00148637,-0.26732307,-0.04203629,0.26524844,-0
 .00246305,0.00395845,0.00567362,0.00043795,0.02200483,-0.00933024,-0.0
 0223167,-0.00480858,0.00400300,0.00134828,-0.00044291,0.00006635,0.000
 84916,-0.00062385,-0.00111479,0.01135159,-0.01702173,-0.00868528,-0.00
 045477,0.00077822,-0.00065364,-0.00055588,0.00028846,-0.00061434,-0.00
 018670,0.00010403,0.00025016,-0.07212519,0.09659458,0.03346210,0.06414
 342,-0.00084305,0.00253868,0.00116448,0.00084409,-0.00243561,-0.001438
 90,-0.00039936,-0.00259394,0.00101961,0.00061107,-0.00007432,-0.000221
 66,-0.00121071,-0.00000064,0.00073109,0.00459096,-0.01161064,-0.002188
 25,0.00302510,0.00158125,-0.00255029,-0.00172072,-0.00181314,0.0012775
 0,0.00095269,0.00015948,-0.00066869,0.09475997,-0.44002369,-0.00273016
 ,-0.10098265,0.45359915,0.00637983,-0.00224008,0.00217966,-0.00618635,
 -0.01643680,-0.00133649,0.00335358,0.00413018,-0.00054461,-0.00008734,
 0.00052055,0.00133605,-0.00103099,0.00031486,-0.00017337,-0.01188405,0
 .01306843,0.00199047,-0.00097584,-0.00095847,-0.00038496,-0.00031786,-
 0.00014379,-0.00111254,0.00012581,-0.00006918,0.00010895,0.03371483,-0
 .00394698,-0.02792925,-0.02306451,0.00597775,0.02588998,0.00077323,0.0
 0414978,-0.00151315,-0.07649050,0.02740597,0.04142614,0.01213530,0.001
 27965,-0.00894406,0.00028016,-0.00243888,-0.00002862,-0.31918324,0.106
 68581,0.18028274,-0.00672873,0.01217811,0.00482845,0.00477342,0.000123
 25,-0.00338093,-0.00417436,-0.00360288,0.00384752,0.00286190,0.0000751
 2,-0.00215069,-0.00399805,-0.00834760,0.00501833,-0.00065291,0.0007461
 3,-0.00004707,1.15516279,-0.00006432,-0.00200028,0.00026309,-0.0071348
 1,0.00515261,0.00249259,-0.00976996,-0.00035929,0.00693577,-0.00027476
 ,0.00165879,-0.00008823,0.15112059,-0.14647921,-0.09168174,0.00413817,
 -0.00836571,-0.00131775,-0.00320345,-0.00037911,0.00232456,0.00278821,
 0.00232114,-0.00223429,-0.00195117,-0.00004894,0.00136237,0.00215566,0
 .00060627,-0.00141458,-0.00056753,-0.00066387,0.00041568,-0.44491499,0
 .33694046,-0.00089655,-0.00271949,0.00052512,0.04648913,-0.02195279,-0
 .04196282,-0.00731968,-0.00088777,0.00507891,-0.00034583,0.00144405,-0
 .00023232,0.17375774,-0.06022932,-0.15649558,0.00600718,-0.00700704,-0
 .00060649,-0.00289453,-0.00002863,0.00207286,0.00291410,0.00228645,-0.
 00187468,-0.00185567,-0.00007000,0.00115780,0.00347942,0.00601812,-0.0
 0198354,0.00014706,-0.00051453,-0.00059348,-0.67459268,0.28154308,0.54
 586434,0.00376089,0.00237669,-0.00295270,0.01521846,0.00251721,-0.0071
 4539,-0.00795345,-0.00060051,0.00542770,0.00006339,0.00136959,-0.00014
 719,-0.03996152,0.03731285,0.03754495,0.00423352,-0.00605065,-0.002677
 73,-0.00304793,-0.00038870,0.00226167,0.00238300,0.00225792,-0.0022002
 1,-0.00168500,-0.00011074,0.00125184,0.00169782,-0.00008697,-0.0007244
 9,0.00053727,-0.00047329,-0.00019440,-0.76557147,0.30819593,0.45567352
 ,0.79070993,-0.00187729,-0.00036535,0.00139524,-0.00349781,-0.00382620
 ,0.00386524,0.00454029,0.00007484,-0.00328622,0.00006638,-0.00071780,0
 .00007914,0.04256886,0.00328980,-0.02755456,-0.00216977,0.00352085,0.0
 0090147,0.00157897,0.00016723,-0.00113124,-0.00127651,-0.00109922,0.00
 102470,0.00088107,0.00003353,-0.00061850,-0.00090074,0.00038102,0.0006
 7785,0.00002521,0.00031149,-0.00003974,0.30531515,-0.18752548,-0.19704
 213,-0.34546690,0.18534598,-0.00232712,-0.00161569,0.00196864,-0.00626
 192,-0.00039253,0.01013390,0.00467056,0.00035367,-0.00377139,0.0000443
 4,-0.00084355,0.00023255,0.03678069,-0.02383687,-0.00170603,-0.0032464
 0,0.00364760,0.00095940,0.00197438,0.00026060,-0.00136615,-0.00168460,
 -0.00147538,0.00114495,0.00110774,0.00008264,-0.00073230,-0.00060547,0
 .00010209,0.00106991,-0.00026864,0.00031338,0.00030713,0.45608991,-0.1
 9907861,-0.35138022,-0.48654394,0.22193323,0.34336962,0.00401983,-0.00
 215305,-0.00085154,-0.00010864,-0.00194605,-0.00008657,-0.01370177,-0.
 00327700,0.01011559,0.00012110,-0.00368200,-0.00147230,-0.00086261,-0.
 00050104,0.00045738,-0.00452791,0.00390939,0.00260418,0.02823633,-0.00
 600922,-0.00075499,-0.15692000,0.08936903,0.03711572,-0.03059176,0.078
 57192,0.03076288,-0.00011103,0.00002544,-0.00022209,0.00000249,0.00009
 978,0.00021436,0.00081244,-0.00051757,-0.00056322,-0.00038491,0.000213
 10,0.00027045,0.17401643,-0.00560817,0.00082272,0.00420049,0.00227139,
 0.00287023,-0.00212087,0.00098318,0.01266164,-0.00256772,-0.01377977,-
 0.00659929,0.01031603,-0.00152342,0.00062208,0.00093932,0.02837905,-0.
 01423434,-0.01799680,-0.01458965,-0.07906924,0.02566764,0.10919334,-0.
 39173360,-0.03249355,0.05225847,-0.02508466,-0.02899495,-0.00466811,-0
 .00177972,0.00349876,0.00069348,0.00102579,-0.00059239,0.00134537,-0.0
 0085737,-0.00084001,-0.00085242,0.00040932,0.00054942,-0.15410274,0.50
 094643,-0.00033708,0.00175117,0.00236910,-0.00070328,0.00086136,-0.000
 26287,0.00947947,0.00045755,-0.00686827,0.00000562,0.00317275,-0.00318
 754,0.00060467,0.00021609,-0.00078247,-0.00096335,-0.00069223,0.000757
 15,0.00049298,0.01958108,0.02270275,0.03422021,-0.01846669,-0.10741605
 ,0.03460933,-0.04759914,0.01168406,0.00046164,0.00018116,-0.00077234,0
 .00012916,-0.00017134,0.00026246,-0.00083589,0.00047807,0.00043012,0.0
 0042636,-0.00020446,-0.00023001,-0.07758985,0.04043464,0.08131390\\-0.
 00001519,-0.00002556,0.00001790,0.00005438,0.00000833,-0.00003901,0.00
 008858,0.00014752,-0.00010617,-0.00004276,-0.00013126,0.00005809,-0.00
 000379,-0.00002918,0.00000075,-0.00012123,0.00002887,0.00011662,-0.000
 06522,-0.00021571,0.00003007,0.00003646,0.00012840,-0.00002714,0.00001
 401,0.00002208,-0.00000866,-0.00000150,0.00024035,-0.00004695,0.000032
 35,-0.00019916,0.00002499,-0.00003836,0.00004604,0.00002746,0.00005867
 ,-0.00002338,-0.00004204,0.00000360,0.00000266,-0.00000591\\\@
 Job cpu time:       0 days 13 hours 27 minutes 25.6 seconds.
 File lengths (MBytes):  RWF=  74682 Int=      0 D2E=      0 Chk=     89 Scr=      1
 Normal termination of Gaussian 09 at Fri Aug 27 09:57:38 2021.
