 Entering Gaussian System, Link 0=g09
 Input=G4.ONBZAM.gjf
 Output=G4.ONBZAM.log
 Initial command:
 /public/home/users/caep010/software/Gaussian09/g09/l1.exe "/public/home/users/caep010/.cache/gau_scr/Gau-125463.inp" -scrdir="/public/home/users/caep010/.cache/gau_scr/"
 Entering Link 1 = /public/home/users/caep010/software/Gaussian09/g09/l1.exe PID=    125464.
  
 Copyright (c) 1988,1990,1992,1993,1995,1998,2003,2009,2015,
            Gaussian, Inc.  All Rights Reserved.
  
 This is part of the Gaussian(R) 09 program.  It is based on
 the Gaussian(R) 03 system (copyright 2003, Gaussian, Inc.),
 the Gaussian(R) 98 system (copyright 1998, Gaussian, Inc.),
 the Gaussian(R) 94 system (copyright 1995, Gaussian, Inc.),
 the Gaussian 92(TM) system (copyright 1992, Gaussian, Inc.),
 the Gaussian 90(TM) system (copyright 1990, Gaussian, Inc.),
 the Gaussian 88(TM) system (copyright 1988, Gaussian, Inc.),
 the Gaussian 86(TM) system (copyright 1986, Carnegie Mellon
 University), and the Gaussian 82(TM) system (copyright 1983,
 Carnegie Mellon University). Gaussian is a federally registered
 trademark of Gaussian, Inc.
  
 This software contains proprietary and confidential information,
 including trade secrets, belonging to Gaussian, Inc.
  
 This software is provided under written license and may be
 used, copied, transmitted, or stored only in accord with that
 written license.
  
 The following legend is applicable only to US Government
 contracts under FAR:
  
                    RESTRICTED RIGHTS LEGEND
  
 Use, reproduction and disclosure by the US Government is
 subject to restrictions as set forth in subparagraphs (a)
 and (c) of the Commercial Computer Software - Restricted
 Rights clause in FAR 52.227-19.
  
 Gaussian, Inc.
 340 Quinnipiac St., Bldg. 40, Wallingford CT 06492
  
  
 ---------------------------------------------------------------
 Warning -- This program may not be used in any manner that
 competes with the business of Gaussian, Inc. or will provide
 assistance to any competitor of Gaussian, Inc.  The licensee
 of this program is prohibited from giving any competitor of
 Gaussian, Inc. access to this program.  By using this program,
 the user acknowledges that Gaussian, Inc. is engaged in the
 business of creating and licensing software in the field of
 computational chemistry and represents and warrants to the
 licensee that it is not a competitor of Gaussian, Inc. and that
 it will not use this program in any manner prohibited above.
 ---------------------------------------------------------------
  

 Cite this work as:
 Gaussian 09, Revision E.01,
 M. J. Frisch, G. W. Trucks, H. B. Schlegel, G. E. Scuseria, 
 M. A. Robb, J. R. Cheeseman, G. Scalmani, V. Barone, B. Mennucci, 
 G. A. Petersson, H. Nakatsuji, M. Caricato, X. Li, H. P. Hratchian, 
 A. F. Izmaylov, J. Bloino, G. Zheng, J. L. Sonnenberg, M. Hada, 
 M. Ehara, K. Toyota, R. Fukuda, J. Hasegawa, M. Ishida, T. Nakajima, 
 Y. Honda, O. Kitao, H. Nakai, T. Vreven, J. A. Montgomery, Jr., 
 J. E. Peralta, F. Ogliaro, M. Bearpark, J. J. Heyd, E. Brothers, 
 K. N. Kudin, V. N. Staroverov, T. Keith, R. Kobayashi, J. Normand, 
 K. Raghavachari, A. Rendell, J. C. Burant, S. S. Iyengar, J. Tomasi, 
 M. Cossi, N. Rega, J. M. Millam, M. Klene, J. E. Knox, J. B. Cross, 
 V. Bakken, C. Adamo, J. Jaramillo, R. Gomperts, R. E. Stratmann, 
 O. Yazyev, A. J. Austin, R. Cammi, C. Pomelli, J. W. Ochterski, 
 R. L. Martin, K. Morokuma, V. G. Zakrzewski, G. A. Voth, 
 P. Salvador, J. J. Dannenberg, S. Dapprich, A. D. Daniels, 
 O. Farkas, J. B. Foresman, J. V. Ortiz, J. Cioslowski, 
 and D. J. Fox, Gaussian, Inc., Wallingford CT, 2013.
 
 ******************************************
 Gaussian 09:  ES64L-G09RevE.01 30-Nov-2015
                25-Aug-2021 
 ******************************************
 %nproc=32
 Will use up to   32 processors via shared memory.
 %mem=180GB
 ----------------
 #P G4 OPT=calcfc
 ----------------
 1/10=4,14=-1,18=20,19=15,26=3,38=1/1,3;
 2/9=110,12=2,17=6,18=5,40=1/2;
 3/5=35,7=104,11=2,16=1,25=1,30=1,71=2,74=-5,140=1/1,2,3;
 4//1;
 5/5=2,38=5/2;
 8/6=4,10=90,11=11/1;
 11/6=1,8=1,9=11,15=111,16=1/1,2,10;
 10/6=1,13=1/2;
 6/7=2,8=2,9=2,10=2,28=1/1;
 7/10=1,18=20,25=1/1,2,3,16;
 1/10=4,14=-1,18=20,19=15,26=3/3(2);
 2/9=110/2;
 99//99;
 2/9=110/2;
 3/5=35,7=104,11=2,16=1,25=1,30=1,71=1,74=-5/1,2,3;
 4/5=5,16=3,69=1/1;
 5/5=2,38=5/2;
 7//1,2,3,16;
 1/14=-1,18=20,19=15,26=3/3(-5);
 2/9=110/2;
 6/7=2,8=2,9=2,10=2,19=2,28=1/1;
 99/9=1/99;
 Leave Link    1 at Wed Aug 25 23:52:23 2021, MaxMem= 24159191040 cpu:         3.1
 (Enter /public/home/users/caep010/software/Gaussian09/g09/l101.exe)
 ------
 ONBZAM
 ------
 Symbolic Z-matrix:
 Charge =  0 Multiplicity = 1
 C                     0.9157    4.3806   -2.9846 
 N                    -0.3286    4.2667   -3.7468 
 C                     1.542     5.6199   -2.9584 
 O                    -0.3608    4.7438   -4.8759 
 O                    -1.286     3.7308   -3.1998 
 C                     2.641     5.7836   -2.1288 
 C                     3.1066    4.7438   -1.3597 
 C                     2.4898    3.4763   -1.4263 
 C                     1.386     3.2985   -2.2407 
 C                     0.8002    1.9262   -2.4171 
 N                     0.6513    1.2023   -1.299 
 H                     0.9764    1.4453   -0.375 
 H                     0.        0.243    -1.3933 
 H                     1.2741    6.2031   -3.7089 
 H                     3.0244    6.8682   -2.2593 
 H                     3.9056    4.8602   -0.6047 
 O                     0.5263    1.4849   -3.5274 
 H                     2.6553    2.9289   -0.6816 
 
 NAtoms=     18 NQM=       18 NQMF=       0 NMMI=      0 NMMIF=      0
                NMic=       0 NMicF=      0.
                    Isotopes and Nuclear Properties:
 (Nuclear quadrupole moments (NQMom) in fm**2, nuclear magnetic moments (NMagM)
  in nuclear magnetons)

  Atom         1           2           3           4           5           6           7           8           9          10
 IAtWgt=          12          14          12          16          16          12          12          12          12          12
 AtmWgt=  12.0000000  14.0030740  12.0000000  15.9949146  15.9949146  12.0000000  12.0000000  12.0000000  12.0000000  12.0000000
 NucSpn=           0           2           0           0           0           0           0           0           0           0
 AtZEff=   0.0000000   0.0000000   0.0000000   0.0000000   0.0000000   0.0000000   0.0000000   0.0000000   0.0000000   0.0000000
 NQMom=    0.0000000   2.0440000   0.0000000   0.0000000   0.0000000   0.0000000   0.0000000   0.0000000   0.0000000   0.0000000
 NMagM=    0.0000000   0.4037610   0.0000000   0.0000000   0.0000000   0.0000000   0.0000000   0.0000000   0.0000000   0.0000000
 AtZNuc=   6.0000000   7.0000000   6.0000000   8.0000000   8.0000000   6.0000000   6.0000000   6.0000000   6.0000000   6.0000000

  Atom        11          12          13          14          15          16          17          18
 IAtWgt=          14           1           1           1           1           1          16           1
 AtmWgt=  14.0030740   1.0078250   1.0078250   1.0078250   1.0078250   1.0078250  15.9949146   1.0078250
 NucSpn=           2           1           1           1           1           1           0           1
 AtZEff=   0.0000000   0.0000000   0.0000000   0.0000000   0.0000000   0.0000000   0.0000000   0.0000000
 NQMom=    2.0440000   0.0000000   0.0000000   0.0000000   0.0000000   0.0000000   0.0000000   0.0000000
 NMagM=    0.4037610   2.7928460   2.7928460   2.7928460   2.7928460   2.7928460   0.0000000   2.7928460
 AtZNuc=   7.0000000   1.0000000   1.0000000   1.0000000   1.0000000   1.0000000   8.0000000   1.0000000
 Leave Link  101 at Wed Aug 25 23:52:24 2021, MaxMem= 24159191040 cpu:        10.4
 (Enter /public/home/users/caep010/software/Gaussian09/g09/l103.exe)

 GradGradGradGradGradGradGradGradGradGradGradGradGradGradGradGradGradGrad
 Berny optimization.
 Initialization pass.
                           ----------------------------
                           !    Initial Parameters    !
                           ! (Angstroms and Degrees)  !
 --------------------------                            --------------------------
 ! Name  Definition              Value          Derivative Info.                !
 --------------------------------------------------------------------------------
 ! R1    R(1,2)                  1.4636         calculate D2E/DX2 analytically  !
 ! R2    R(1,3)                  1.3888         calculate D2E/DX2 analytically  !
 ! R3    R(1,9)                  1.3948         calculate D2E/DX2 analytically  !
 ! R4    R(2,4)                  1.2262         calculate D2E/DX2 analytically  !
 ! R5    R(2,5)                  1.226          calculate D2E/DX2 analytically  !
 ! R6    R(3,6)                  1.3867         calculate D2E/DX2 analytically  !
 ! R7    R(3,14)                 0.9875         calculate D2E/DX2 analytically  !
 ! R8    R(6,7)                  1.3746         calculate D2E/DX2 analytically  !
 ! R9    R(6,15)                 1.1577         calculate D2E/DX2 analytically  !
 ! R10   R(7,8)                  1.4112         calculate D2E/DX2 analytically  !
 ! R11   R(7,16)                 1.1054         calculate D2E/DX2 analytically  !
 ! R12   R(8,9)                  1.3832         calculate D2E/DX2 analytically  !
 ! R13   R(8,18)                 0.9389         calculate D2E/DX2 analytically  !
 ! R14   R(9,10)                 1.5025         calculate D2E/DX2 analytically  !
 ! R15   R(10,11)                1.3403         calculate D2E/DX2 analytically  !
 ! R16   R(10,17)                1.2258         calculate D2E/DX2 analytically  !
 ! R17   R(11,12)                1.0092         calculate D2E/DX2 analytically  !
 ! R18   R(11,13)                1.1633         calculate D2E/DX2 analytically  !
 ! A1    A(2,1,3)              117.5582         calculate D2E/DX2 analytically  !
 ! A2    A(2,1,9)              120.2661         calculate D2E/DX2 analytically  !
 ! A3    A(3,1,9)              122.0168         calculate D2E/DX2 analytically  !
 ! A4    A(1,2,4)              118.1366         calculate D2E/DX2 analytically  !
 ! A5    A(1,2,5)              117.7473         calculate D2E/DX2 analytically  !
 ! A6    A(4,2,5)              124.0851         calculate D2E/DX2 analytically  !
 ! A7    A(1,3,6)              118.2968         calculate D2E/DX2 analytically  !
 ! A8    A(1,3,14)             112.9748         calculate D2E/DX2 analytically  !
 ! A9    A(6,3,14)             126.8686         calculate D2E/DX2 analytically  !
 ! A10   A(3,6,7)              120.9235         calculate D2E/DX2 analytically  !
 ! A11   A(3,6,15)             107.7954         calculate D2E/DX2 analytically  !
 ! A12   A(7,6,15)             131.2656         calculate D2E/DX2 analytically  !
 ! A13   A(6,7,8)              120.3296         calculate D2E/DX2 analytically  !
 ! A14   A(6,7,16)             123.1832         calculate D2E/DX2 analytically  !
 ! A15   A(8,7,16)             116.2782         calculate D2E/DX2 analytically  !
 ! A16   A(7,8,9)              119.4744         calculate D2E/DX2 analytically  !
 ! A17   A(7,8,18)             114.1524         calculate D2E/DX2 analytically  !
 ! A18   A(9,8,18)             122.1877         calculate D2E/DX2 analytically  !
 ! A19   A(1,9,8)              118.9052         calculate D2E/DX2 analytically  !
 ! A20   A(1,9,10)             120.9641         calculate D2E/DX2 analytically  !
 ! A21   A(8,9,10)             119.8454         calculate D2E/DX2 analytically  !
 ! A22   A(9,10,11)            116.0198         calculate D2E/DX2 analytically  !
 ! A23   A(9,10,17)            121.4856         calculate D2E/DX2 analytically  !
 ! A24   A(11,10,17)           122.4365         calculate D2E/DX2 analytically  !
 ! A25   A(10,11,12)           126.7234         calculate D2E/DX2 analytically  !
 ! A26   A(10,11,13)           116.1012         calculate D2E/DX2 analytically  !
 ! A27   A(12,11,13)           116.9437         calculate D2E/DX2 analytically  !
 ! D1    D(3,1,2,4)             46.699          calculate D2E/DX2 analytically  !
 ! D2    D(3,1,2,5)           -131.3566         calculate D2E/DX2 analytically  !
 ! D3    D(9,1,2,4)           -137.791          calculate D2E/DX2 analytically  !
 ! D4    D(9,1,2,5)             44.1534         calculate D2E/DX2 analytically  !
 ! D5    D(2,1,3,6)            173.2637         calculate D2E/DX2 analytically  !
 ! D6    D(2,1,3,14)           -21.1871         calculate D2E/DX2 analytically  !
 ! D7    D(9,1,3,6)             -2.1625         calculate D2E/DX2 analytically  !
 ! D8    D(9,1,3,14)           163.3867         calculate D2E/DX2 analytically  !
 ! D9    D(2,1,9,8)           -173.6238         calculate D2E/DX2 analytically  !
 ! D10   D(2,1,9,10)            12.5212         calculate D2E/DX2 analytically  !
 ! D11   D(3,1,9,8)              1.6811         calculate D2E/DX2 analytically  !
 ! D12   D(3,1,9,10)          -172.1739         calculate D2E/DX2 analytically  !
 ! D13   D(1,3,6,7)              0.5261         calculate D2E/DX2 analytically  !
 ! D14   D(1,3,6,15)           179.2462         calculate D2E/DX2 analytically  !
 ! D15   D(14,3,6,7)          -162.7843         calculate D2E/DX2 analytically  !
 ! D16   D(14,3,6,15)           15.9358         calculate D2E/DX2 analytically  !
 ! D17   D(3,6,7,8)              1.5312         calculate D2E/DX2 analytically  !
 ! D18   D(3,6,7,16)          -173.0171         calculate D2E/DX2 analytically  !
 ! D19   D(15,6,7,8)          -176.8474         calculate D2E/DX2 analytically  !
 ! D20   D(15,6,7,16)            8.6043         calculate D2E/DX2 analytically  !
 ! D21   D(6,7,8,9)             -2.0095         calculate D2E/DX2 analytically  !
 ! D22   D(6,7,8,18)          -159.5323         calculate D2E/DX2 analytically  !
 ! D23   D(16,7,8,9)           172.9029         calculate D2E/DX2 analytically  !
 ! D24   D(16,7,8,18)           15.3801         calculate D2E/DX2 analytically  !
 ! D25   D(7,8,9,1)              0.4217         calculate D2E/DX2 analytically  !
 ! D26   D(7,8,9,10)           174.3469         calculate D2E/DX2 analytically  !
 ! D27   D(18,8,9,1)           156.0786         calculate D2E/DX2 analytically  !
 ! D28   D(18,8,9,10)          -29.9962         calculate D2E/DX2 analytically  !
 ! D29   D(1,9,10,11)         -141.2284         calculate D2E/DX2 analytically  !
 ! D30   D(1,9,10,17)           41.4791         calculate D2E/DX2 analytically  !
 ! D31   D(8,9,10,11)           44.9739         calculate D2E/DX2 analytically  !
 ! D32   D(8,9,10,17)         -132.3185         calculate D2E/DX2 analytically  !
 ! D33   D(9,10,11,12)          -6.7386         calculate D2E/DX2 analytically  !
 ! D34   D(9,10,11,13)         167.5287         calculate D2E/DX2 analytically  !
 ! D35   D(17,10,11,12)        170.5257         calculate D2E/DX2 analytically  !
 ! D36   D(17,10,11,13)        -15.207          calculate D2E/DX2 analytically  !
 --------------------------------------------------------------------------------
 Trust Radius=3.00D-01 FncErr=1.00D-07 GrdErr=1.00D-06
 Number of steps in this run=     91 maximum allowed number of steps=    108.
 GradGradGradGradGradGradGradGradGradGradGradGradGradGradGradGradGradGrad

 Leave Link  103 at Wed Aug 25 23:52:24 2021, MaxMem= 24159191040 cpu:         0.5
 (Enter /public/home/users/caep010/software/Gaussian09/g09/l202.exe)
                          Input orientation:                          
 ---------------------------------------------------------------------
 Center     Atomic      Atomic             Coordinates (Angstroms)
 Number     Number       Type             X           Y           Z
 ---------------------------------------------------------------------
      1          6           0        0.915700    4.380600   -2.984600
      2          7           0       -0.328600    4.266700   -3.746800
      3          6           0        1.542000    5.619900   -2.958400
      4          8           0       -0.360800    4.743800   -4.875900
      5          8           0       -1.286000    3.730800   -3.199800
      6          6           0        2.641000    5.783600   -2.128800
      7          6           0        3.106600    4.743800   -1.359700
      8          6           0        2.489800    3.476300   -1.426300
      9          6           0        1.386000    3.298500   -2.240700
     10          6           0        0.800200    1.926200   -2.417100
     11          7           0        0.651300    1.202300   -1.299000
     12          1           0        0.976400    1.445300   -0.375000
     13          1           0        0.000000    0.243000   -1.393300
     14          1           0        1.274100    6.203100   -3.708900
     15          1           0        3.024400    6.868200   -2.259300
     16          1           0        3.905600    4.860200   -0.604700
     17          8           0        0.526300    1.484900   -3.527400
     18          1           0        2.655300    2.928900   -0.681600
 ---------------------------------------------------------------------
                    Distance matrix (angstroms):
                    1          2          3          4          5
     1  C    0.000000
     2  N    1.463627   0.000000
     3  C    1.388813   2.439645   0.000000
     4  O    2.310494   1.226184   2.839895   0.000000
     5  O    2.305653   1.225974   3.409480   2.165981   0.000000
     6  C    2.382743   3.706404   1.386663   4.199827   4.558767
     7  C    2.751773   4.210281   2.402367   4.938271   4.868991
     8  C    2.392457   3.735349   2.800121   4.651045   4.179323
     9  C    1.394815   2.479032   2.434816   3.476274   2.871644
    10  C    2.521800   2.918944   3.806139   3.915672   2.867304
    11  N    3.607318   4.042583   4.802306   5.134275   3.709378
    12  H    3.928063   4.586105   4.941775   5.738145   4.280357
    13  H    4.526641   4.673018   5.808473   5.702270   4.133036
    14  H    1.993632   2.513907   0.987493   2.482810   3.595214
    15  H    3.340783   4.497007   2.060219   4.776950   5.413628
    16  H    3.851421   5.305986   3.421060   6.038118   5.912935
    17  O    2.971758   2.918459   4.295769   3.636733   2.904448
    18  H    3.230704   4.482055   3.696584   5.475662   4.745337
                    6          7          8          9         10
     6  C    0.000000
     7  C    1.374584   0.000000
     8  C    2.416609   1.411182   0.000000
     9  C    2.786264   2.413611   1.383197   0.000000
    10  C    4.283830   3.791628   2.497848   1.502493   0.000000
    11  N    5.063179   4.309803   2.927006   2.412600   1.340280
    12  H    4.966644   4.048146   2.742366   2.661383   2.105346
    13  H    6.181755   5.468939   4.080983   3.460515   2.126417
    14  H    2.130988   3.317582   3.758141   3.256506   4.492794
    15  H    1.157749   2.308487   3.533366   3.927780   5.421746
    16  H    2.185123   1.105430   2.143524   3.385821   4.640761
    17  O    4.990677   4.687995   3.497946   2.384078   1.225779
    18  H    3.200610   1.989310   0.938944   2.044143   2.731074
                   11         12         13         14         15
    11  N    0.000000
    12  H    1.009215   0.000000
    13  H    1.163332   1.853596   0.000000
    14  H    5.586009   5.817231   6.519826   0.000000
    15  H    6.217411   6.095304   7.334182   2.367963   0.000000
    16  H    4.944973   4.504944   6.098700   4.285351   2.747049
    17  O    2.249723   3.184617   2.524617   4.780540   6.068649
    18  H    2.716311   2.261366   3.843331   4.668259   4.259514
                   16         17         18
    16  H    0.000000
    17  O    5.599508   0.000000
    18  H    2.301974   3.836190   0.000000
 Stoichiometry    C7H6N2O3
 Framework group  C1[X(C7H6N2O3)]
 Deg. of freedom    48
 Full point group                 C1      NOp   1
 Largest Abelian subgroup         C1      NOp   1
 Largest concise Abelian subgroup C1      NOp   1
                         Standard orientation:                         
 ---------------------------------------------------------------------
 Center     Atomic      Atomic             Coordinates (Angstroms)
 Number     Number       Type             X           Y           Z
 ---------------------------------------------------------------------
      1          6           0        0.477307    0.607146    0.018734
      2          7           0       -0.483617    1.697485    0.191911
      3          6           0        1.827443    0.932332    0.032507
      4          8           0       -0.322176    2.720283   -0.464861
      5          8           0       -1.380200    1.542992    1.013668
      6          6           0        2.752554   -0.100438    0.012751
      7          6           0        2.345516   -1.412663   -0.030463
      8          6           0        0.971959   -1.731176   -0.088106
      9          6           0        0.035532   -0.713595   -0.058645
     10          6           0       -1.420701   -1.031837   -0.247302
     11          7           0       -1.885563   -2.086284    0.437090
     12          1           0       -1.342610   -2.737104    0.984952
     13          1           0       -3.042472   -2.202442    0.474633
     14          1           0        1.996910    1.883535   -0.171541
     15          1           0        3.809763    0.371464    0.014080
     16          1           0        3.042125   -2.265659    0.064978
     17          8           0       -2.120845   -0.390868   -1.022861
     18          1           0        0.768651   -2.606072    0.185461
 ---------------------------------------------------------------------
 Rotational constants (GHZ):      1.1948431      1.0646343      0.6209476
 Leave Link  202 at Wed Aug 25 23:52:24 2021, MaxMem= 24159191040 cpu:         1.1
 (Enter /public/home/users/caep010/software/Gaussian09/g09/l301.exe)
 Standard basis: GTBas3 (6D, 7F)
 Ernie: Thresh=  0.10000D-02 Tol=  0.10000D-05 Strict=F.
 There are   402 symmetry adapted cartesian basis functions of A   symmetry.
 There are   366 symmetry adapted basis functions of A   symmetry.
   366 basis functions,   570 primitive gaussians,   402 cartesian basis functions
    43 alpha electrons       43 beta electrons
       nuclear repulsion energy       686.0124802461 Hartrees.
 IExCor=  402 DFT=T Ex+Corr=B3LYP ExCW=0 ScaHFX=  0.200000
 ScaDFX=  0.800000  0.720000  1.000000  0.810000 ScalE2=  1.000000  1.000000
 IRadAn=      0 IRanWt=     -1 IRanGd=            0 ICorTp=0 IEmpDi=  4
 NAtoms=   18 NActive=   18 NUniq=   18 SFac= 1.00D+00 NAtFMM=   60 NAOKFM=F Big=F
 Integral buffers will be    131072 words long.
 Raffenetti 2 integral format.
 Two-electron integral symmetry is turned on.
 Leave Link  301 at Wed Aug 25 23:52:24 2021, MaxMem= 24159191040 cpu:         1.8
 (Enter /public/home/users/caep010/software/Gaussian09/g09/l302.exe)
 NPDir=0 NMtPBC=     1 NCelOv=     1 NCel=       1 NClECP=     1 NCelD=      1
         NCelK=      1 NCelE2=     1 NClLst=     1 CellRange=     0.0.
 One-electron integrals computed using PRISM.
 NBasis=   366 RedAO= T EigKep=  1.68D-04  NBF=   366
 NBsUse=   366 1.00D-06 EigRej= -1.00D+00 NBFU=   366
 Precomputing XC quadrature grid using
 IXCGrd= 4 IRadAn=           0 IRanWt=          -1 IRanGd=           0 AccXCQ= 0.00D+00.
 Generated NRdTot=       0 NPtTot=           0 NUsed=           0 NTot=          32
 NSgBfM=   401   401   401   401   401 MxSgAt=    18 MxSgA2=    18.
 Leave Link  302 at Wed Aug 25 23:52:25 2021, MaxMem= 24159191040 cpu:        17.3
 (Enter /public/home/users/caep010/software/Gaussian09/g09/l303.exe)
 DipDrv:  MaxL=1.
 Leave Link  303 at Wed Aug 25 23:52:25 2021, MaxMem= 24159191040 cpu:         1.6
 (Enter /public/home/users/caep010/software/Gaussian09/g09/l401.exe)
 ExpMin= 1.61D-01 ExpMax= 5.48D+03 ExpMxC= 8.25D+02 IAcc=1 IRadAn=         1 AccDes= 0.00D+00
 Harris functional with IExCor=  402 and IRadAn=       1 diagonalized for initial guess.
 HarFok:  IExCor=  402 AccDes= 0.00D+00 IRadAn=         1 IDoV= 1 UseB2=F ITyADJ=14
 ICtDFT=  3500011 ScaDFX=  1.000000  1.000000  1.000000  1.000000
 FoFCou: FMM=F IPFlag=           0 FMFlag=      100000 FMFlg1=           0
         NFxFlg=           0 DoJE=T BraDBF=F KetDBF=T FulRan=T
         wScrn=  0.000000 ICntrl=     500 IOpCl=  0 I1Cent=   200000004 NGrid=           0
         NMat0=    1 NMatS0=      1 NMatT0=    0 NMatD0=    1 NMtDS0=    0 NMtDT0=    0
 Petite list used in FoFCou.
 Harris En= -605.476384047220    
 JPrj=0 DoOrth=F DoCkMO=F.
 Leave Link  401 at Wed Aug 25 23:52:26 2021, MaxMem= 24159191040 cpu:        23.0
 (Enter /public/home/users/caep010/software/Gaussian09/g09/l502.exe)
 Closed shell SCF:
 Using DIIS extrapolation, IDIIS=  1040.
 Integral symmetry usage will be decided dynamically.
 Keep R1 ints in memory in canonical form, NReq=2288577883.
 IVT=      519130 IEndB=      519130 NGot= 24159191040 MDV= 21903338370
 LenX= 21903338370 LenY= 21903176325
 Requested convergence on RMS density matrix=1.00D-08 within 128 cycles.
 Requested convergence on MAX density matrix=1.00D-06.
 Requested convergence on             energy=1.00D-06.
 No special actions if energy rises.
 FoFCou: FMM=F IPFlag=           0 FMFlag=           0 FMFlg1=           0
         NFxFlg=           0 DoJE=F BraDBF=F KetDBF=F FulRan=T
         wScrn=  0.000000 ICntrl=     600 IOpCl=  0 I1Cent=           0 NGrid=           0
         NMat0=    1 NMatS0=  67161 NMatT0=    0 NMatD0=    1 NMtDS0=    0 NMtDT0=    0
 Symmetry not used in FoFCou.
 Integral accuracy reduced to 1.0D-05 until final iterations.

 Cycle   1  Pass 0  IDiag  1:
 E= -605.039112168277    
 DIIS: error= 2.26D-02 at cycle   1 NSaved=   1.
 NSaved= 1 IEnMin= 1 EnMin= -605.039112168277     IErMin= 1 ErrMin= 2.26D-02
 ErrMax= 2.26D-02  0.00D+00 EMaxC= 1.00D-01 BMatC= 4.73D-01 BMatP= 4.73D-01
 IDIUse=3 WtCom= 7.74D-01 WtEn= 2.26D-01
 Coeff-Com:  0.100D+01
 Coeff-En:   0.100D+01
 Coeff:      0.100D+01
 Gap=     0.204 Goal=   None    Shift=    0.000
 GapD=    0.204 DampG=1.000 DampE=0.500 DampFc=0.5000 IDamp=-1.
 Damping current iteration by 5.00D-01
 RMSDP=4.77D-03 MaxDP=2.14D-01              OVMax= 3.36D-01

 Cycle   2  Pass 0  IDiag  1:
 E= -605.096273978189     Delta-E=       -0.057161809911 Rises=F Damp=T
 DIIS: error= 1.01D-02 at cycle   2 NSaved=   2.
 NSaved= 2 IEnMin= 2 EnMin= -605.096273978189     IErMin= 2 ErrMin= 1.01D-02
 ErrMax= 1.01D-02  0.00D+00 EMaxC= 1.00D-01 BMatC= 1.09D-01 BMatP= 4.73D-01
 IDIUse=3 WtCom= 8.99D-01 WtEn= 1.01D-01
 Coeff-Com:  0.286D+00 0.714D+00
 Coeff-En:   0.432D+00 0.568D+00
 Coeff:      0.301D+00 0.699D+00
 Gap=     0.181 Goal=   None    Shift=    0.000
 RMSDP=1.45D-03 MaxDP=1.03D-01 DE=-5.72D-02 OVMax= 2.01D-01

 Cycle   3  Pass 0  IDiag  1:
 E= -605.378690646455     Delta-E=       -0.282416668267 Rises=F Damp=F
 DIIS: error= 6.92D-03 at cycle   3 NSaved=   3.
 NSaved= 3 IEnMin= 3 EnMin= -605.378690646455     IErMin= 3 ErrMin= 6.92D-03
 ErrMax= 6.92D-03  0.00D+00 EMaxC= 1.00D-01 BMatC= 4.33D-02 BMatP= 1.09D-01
 IDIUse=3 WtCom= 9.31D-01 WtEn= 6.92D-02
 Coeff-Com:  0.104D+00 0.390D+00 0.505D+00
 Coeff-En:   0.000D+00 0.000D+00 0.100D+01
 Coeff:      0.972D-01 0.363D+00 0.539D+00
 Gap=     0.191 Goal=   None    Shift=    0.000
 RMSDP=7.80D-04 MaxDP=3.86D-02 DE=-2.82D-01 OVMax= 9.17D-02

 Cycle   4  Pass 0  IDiag  1:
 E= -605.408887043851     Delta-E=       -0.030196397396 Rises=F Damp=F
 DIIS: error= 3.73D-03 at cycle   4 NSaved=   4.
 NSaved= 4 IEnMin= 4 EnMin= -605.408887043851     IErMin= 4 ErrMin= 3.73D-03
 ErrMax= 3.73D-03  0.00D+00 EMaxC= 1.00D-01 BMatC= 1.17D-02 BMatP= 4.33D-02
 IDIUse=3 WtCom= 9.63D-01 WtEn= 3.73D-02
 Coeff-Com:  0.248D-01 0.114D+00 0.349D+00 0.512D+00
 Coeff-En:   0.000D+00 0.000D+00 0.224D+00 0.776D+00
 Coeff:      0.239D-01 0.110D+00 0.344D+00 0.522D+00
 Gap=     0.179 Goal=   None    Shift=    0.000
 RMSDP=3.33D-04 MaxDP=2.33D-02 DE=-3.02D-02 OVMax= 4.25D-02

 Cycle   5  Pass 0  IDiag  1:
 E= -605.417147108396     Delta-E=       -0.008260064544 Rises=F Damp=F
 DIIS: error= 1.64D-03 at cycle   5 NSaved=   5.
 NSaved= 5 IEnMin= 5 EnMin= -605.417147108396     IErMin= 5 ErrMin= 1.64D-03
 ErrMax= 1.64D-03  0.00D+00 EMaxC= 1.00D-01 BMatC= 2.01D-03 BMatP= 1.17D-02
 IDIUse=3 WtCom= 9.84D-01 WtEn= 1.64D-02
 Coeff-Com:  0.469D-02 0.227D-01 0.168D+00 0.361D+00 0.443D+00
 Coeff-En:   0.000D+00 0.000D+00 0.000D+00 0.123D+00 0.877D+00
 Coeff:      0.462D-02 0.224D-01 0.165D+00 0.357D+00 0.451D+00
 Gap=     0.176 Goal=   None    Shift=    0.000
 RMSDP=1.37D-04 MaxDP=8.44D-03 DE=-8.26D-03 OVMax= 1.77D-02

 Cycle   6  Pass 0  IDiag  1:
 E= -605.418472830753     Delta-E=       -0.001325722357 Rises=F Damp=F
 DIIS: error= 8.12D-04 at cycle   6 NSaved=   6.
 NSaved= 6 IEnMin= 6 EnMin= -605.418472830753     IErMin= 6 ErrMin= 8.12D-04
 ErrMax= 8.12D-04  0.00D+00 EMaxC= 1.00D-01 BMatC= 3.76D-04 BMatP= 2.01D-03
 IDIUse=3 WtCom= 9.92D-01 WtEn= 8.12D-03
 Coeff-Com:  0.428D-03 0.214D-02 0.758D-01 0.191D+00 0.330D+00 0.401D+00
 Coeff-En:   0.000D+00 0.000D+00 0.000D+00 0.000D+00 0.168D+00 0.832D+00
 Coeff:      0.425D-03 0.213D-02 0.752D-01 0.189D+00 0.329D+00 0.405D+00
 Gap=     0.176 Goal=   None    Shift=    0.000
 RMSDP=5.47D-05 MaxDP=3.77D-03 DE=-1.33D-03 OVMax= 9.82D-03

 Cycle   7  Pass 0  IDiag  1:
 E= -605.418729440702     Delta-E=       -0.000256609949 Rises=F Damp=F
 DIIS: error= 2.84D-04 at cycle   7 NSaved=   7.
 NSaved= 7 IEnMin= 7 EnMin= -605.418729440702     IErMin= 7 ErrMin= 2.84D-04
 ErrMax= 2.84D-04  0.00D+00 EMaxC= 1.00D-01 BMatC= 5.77D-05 BMatP= 3.76D-04
 IDIUse=3 WtCom= 9.97D-01 WtEn= 2.84D-03
 Coeff-Com: -0.222D-03-0.110D-02 0.328D-01 0.879D-01 0.181D+00 0.303D+00
 Coeff-Com:  0.396D+00
 Coeff-En:   0.000D+00 0.000D+00 0.000D+00 0.000D+00 0.000D+00 0.143D+00
 Coeff-En:   0.857D+00
 Coeff:     -0.221D-03-0.109D-02 0.327D-01 0.877D-01 0.181D+00 0.303D+00
 Coeff:      0.397D+00
 Gap=     0.177 Goal=   None    Shift=    0.000
 RMSDP=2.05D-05 MaxDP=1.43D-03 DE=-2.57D-04 OVMax= 2.84D-03

 Cycle   8  Pass 0  IDiag  1:
 E= -605.418772664417     Delta-E=       -0.000043223715 Rises=F Damp=F
 DIIS: error= 4.49D-05 at cycle   8 NSaved=   8.
 NSaved= 8 IEnMin= 8 EnMin= -605.418772664417     IErMin= 8 ErrMin= 4.49D-05
 ErrMax= 4.49D-05  0.00D+00 EMaxC= 1.00D-01 BMatC= 2.74D-06 BMatP= 5.77D-05
 IDIUse=1 WtCom= 1.00D+00 WtEn= 0.00D+00
 Coeff-Com: -0.169D-03-0.127D-02 0.942D-02 0.266D-01 0.667D-01 0.127D+00
 Coeff-Com:  0.226D+00 0.545D+00
 Coeff:     -0.169D-03-0.127D-02 0.942D-02 0.266D-01 0.667D-01 0.127D+00
 Coeff:      0.226D+00 0.545D+00
 Gap=     0.177 Goal=   None    Shift=    0.000
 RMSDP=5.05D-06 MaxDP=2.38D-04 DE=-4.32D-05 OVMax= 5.54D-04

 Initial convergence to 1.0D-05 achieved.  Increase integral accuracy.
 Cycle   9  Pass 1  IDiag  1:
 E= -605.418704520126     Delta-E=        0.000068144291 Rises=F Damp=F
 DIIS: error= 2.26D-05 at cycle   1 NSaved=   1.
 NSaved= 1 IEnMin= 1 EnMin= -605.418704520126     IErMin= 1 ErrMin= 2.26D-05
 ErrMax= 2.26D-05  0.00D+00 EMaxC= 1.00D-01 BMatC= 4.82D-07 BMatP= 4.82D-07
 IDIUse=1 WtCom= 1.00D+00 WtEn= 0.00D+00
 Coeff-Com:  0.100D+01
 Coeff:      0.100D+01
 Gap=     0.177 Goal=   None    Shift=    0.000
 RMSDP=5.05D-06 MaxDP=2.38D-04 DE= 6.81D-05 OVMax= 5.41D-04

 Cycle  10  Pass 1  IDiag  1:
 E= -605.418703822785     Delta-E=        0.000000697341 Rises=F Damp=F
 DIIS: error= 4.54D-05 at cycle   2 NSaved=   2.
 NSaved= 2 IEnMin= 1 EnMin= -605.418704520126     IErMin= 1 ErrMin= 2.26D-05
 ErrMax= 4.54D-05  0.00D+00 EMaxC= 1.00D-01 BMatC= 1.12D-06 BMatP= 4.82D-07
 IDIUse=1 WtCom= 1.00D+00 WtEn= 0.00D+00
 Coeff-Com:  0.619D+00 0.381D+00
 Coeff:      0.619D+00 0.381D+00
 Gap=     0.177 Goal=   None    Shift=    0.000
 RMSDP=3.35D-06 MaxDP=1.68D-04 DE= 6.97D-07 OVMax= 4.33D-04

 Cycle  11  Pass 1  IDiag  1:
 E= -605.418704925446     Delta-E=       -0.000001102661 Rises=F Damp=F
 DIIS: error= 7.75D-06 at cycle   3 NSaved=   3.
 NSaved= 3 IEnMin= 3 EnMin= -605.418704925446     IErMin= 3 ErrMin= 7.75D-06
 ErrMax= 7.75D-06  0.00D+00 EMaxC= 1.00D-01 BMatC= 6.08D-08 BMatP= 4.82D-07
 IDIUse=1 WtCom= 1.00D+00 WtEn= 0.00D+00
 Coeff-Com:  0.909D-01 0.192D+00 0.717D+00
 Coeff:      0.909D-01 0.192D+00 0.717D+00
 Gap=     0.177 Goal=   None    Shift=    0.000
 RMSDP=9.65D-07 MaxDP=6.13D-05 DE=-1.10D-06 OVMax= 9.31D-05

 Cycle  12  Pass 1  IDiag  1:
 E= -605.418704956112     Delta-E=       -0.000000030666 Rises=F Damp=F
 DIIS: error= 4.34D-06 at cycle   4 NSaved=   4.
 NSaved= 4 IEnMin= 4 EnMin= -605.418704956112     IErMin= 4 ErrMin= 4.34D-06
 ErrMax= 4.34D-06  0.00D+00 EMaxC= 1.00D-01 BMatC= 2.96D-08 BMatP= 6.08D-08
 IDIUse=1 WtCom= 1.00D+00 WtEn= 0.00D+00
 Coeff-Com: -0.630D-02 0.950D-01 0.511D+00 0.400D+00
 Coeff:     -0.630D-02 0.950D-01 0.511D+00 0.400D+00
 Gap=     0.177 Goal=   None    Shift=    0.000
 RMSDP=4.64D-07 MaxDP=3.05D-05 DE=-3.07D-08 OVMax= 5.42D-05

 Cycle  13  Pass 1  IDiag  1:
 E= -605.418704978374     Delta-E=       -0.000000022262 Rises=F Damp=F
 DIIS: error= 2.02D-06 at cycle   5 NSaved=   5.
 NSaved= 5 IEnMin= 5 EnMin= -605.418704978374     IErMin= 5 ErrMin= 2.02D-06
 ErrMax= 2.02D-06  0.00D+00 EMaxC= 1.00D-01 BMatC= 2.29D-09 BMatP= 2.96D-08
 IDIUse=1 WtCom= 1.00D+00 WtEn= 0.00D+00
 Coeff-Com: -0.106D-01 0.539D-01 0.311D+00 0.280D+00 0.365D+00
 Coeff:     -0.106D-01 0.539D-01 0.311D+00 0.280D+00 0.365D+00
 Gap=     0.177 Goal=   None    Shift=    0.000
 RMSDP=1.37D-07 MaxDP=9.43D-06 DE=-2.23D-08 OVMax= 2.34D-05

 Cycle  14  Pass 1  IDiag  1:
 E= -605.418704980028     Delta-E=       -0.000000001654 Rises=F Damp=F
 DIIS: error= 6.30D-07 at cycle   6 NSaved=   6.
 NSaved= 6 IEnMin= 6 EnMin= -605.418704980028     IErMin= 6 ErrMin= 6.30D-07
 ErrMax= 6.30D-07  0.00D+00 EMaxC= 1.00D-01 BMatC= 3.04D-10 BMatP= 2.29D-09
 IDIUse=1 WtCom= 1.00D+00 WtEn= 0.00D+00
 Coeff-Com: -0.655D-02 0.247D-01 0.148D+00 0.145D+00 0.272D+00 0.416D+00
 Coeff:     -0.655D-02 0.247D-01 0.148D+00 0.145D+00 0.272D+00 0.416D+00
 Gap=     0.177 Goal=   None    Shift=    0.000
 RMSDP=4.21D-08 MaxDP=2.97D-06 DE=-1.65D-09 OVMax= 6.41D-06

 Cycle  15  Pass 1  IDiag  1:
 E= -605.418704980243     Delta-E=       -0.000000000215 Rises=F Damp=F
 DIIS: error= 1.36D-07 at cycle   7 NSaved=   7.
 NSaved= 7 IEnMin= 7 EnMin= -605.418704980243     IErMin= 7 ErrMin= 1.36D-07
 ErrMax= 1.36D-07  0.00D+00 EMaxC= 1.00D-01 BMatC= 1.30D-11 BMatP= 3.04D-10
 IDIUse=1 WtCom= 1.00D+00 WtEn= 0.00D+00
 Coeff-Com: -0.252D-02 0.848D-02 0.507D-01 0.534D-01 0.114D+00 0.229D+00
 Coeff-Com:  0.547D+00
 Coeff:     -0.252D-02 0.848D-02 0.507D-01 0.534D-01 0.114D+00 0.229D+00
 Coeff:      0.547D+00
 Gap=     0.177 Goal=   None    Shift=    0.000
 RMSDP=1.25D-08 MaxDP=5.41D-07 DE=-2.15D-10 OVMax= 9.56D-07

 Cycle  16  Pass 1  IDiag  1:
 E= -605.418704980204     Delta-E=        0.000000000039 Rises=F Damp=F
 DIIS: error= 4.61D-08 at cycle   8 NSaved=   8.
 NSaved= 8 IEnMin= 7 EnMin= -605.418704980243     IErMin= 8 ErrMin= 4.61D-08
 ErrMax= 4.61D-08  0.00D+00 EMaxC= 1.00D-01 BMatC= 2.92D-12 BMatP= 1.30D-11
 IDIUse=1 WtCom= 1.00D+00 WtEn= 0.00D+00
 Coeff-Com: -0.491D-03 0.101D-02 0.554D-02 0.779D-02 0.220D-01 0.676D-01
 Coeff-Com:  0.345D+00 0.551D+00
 Coeff:     -0.491D-03 0.101D-02 0.554D-02 0.779D-02 0.220D-01 0.676D-01
 Coeff:      0.345D+00 0.551D+00
 Gap=     0.177 Goal=   None    Shift=    0.000
 RMSDP=5.79D-09 MaxDP=3.08D-07 DE= 3.87D-11 OVMax= 4.96D-07

 SCF Done:  E(RB3LYP) =  -605.418704980     A.U. after   16 cycles
            NFock= 16  Conv=0.58D-08     -V/T= 2.0065
 KE= 6.015270824734D+02 PE=-2.787126830213D+03 EE= 8.941685625131D+02
 Leave Link  502 at Wed Aug 25 23:53:36 2021, MaxMem= 24159191040 cpu:       388.8
 (Enter /public/home/users/caep010/software/Gaussian09/g09/l801.exe)
 DoSCS=F DFT=T ScalE2(SS,OS)=  1.000000  1.000000
 Range of M.O.s used for correlation:     1   366
 NBasis=   366 NAE=    43 NBE=    43 NFC=     0 NFV=     0
 NROrb=    366 NOA=    43 NOB=    43 NVA=   323 NVB=   323

 **** Warning!!: The largest alpha MO coefficient is  0.33818887D+02

 Leave Link  801 at Wed Aug 25 23:53:36 2021, MaxMem= 24159191040 cpu:         0.8
 (Enter /public/home/users/caep010/software/Gaussian09/g09/l1101.exe)
 Using compressed storage, NAtomX=    18.
 Will process     19 centers per pass.
 Leave Link 1101 at Wed Aug 25 23:53:37 2021, MaxMem= 24159191040 cpu:        21.4
 (Enter /public/home/users/caep010/software/Gaussian09/g09/l1102.exe)
 Symmetrizing basis deriv contribution to polar:
 IMax=3 JMax=2 DiffMx= 0.00D+00
 Leave Link 1102 at Wed Aug 25 23:53:37 2021, MaxMem= 24159191040 cpu:         1.0
 (Enter /public/home/users/caep010/software/Gaussian09/g09/l1110.exe)
 Forming Gx(P) for the SCF density, NAtomX=    18.
 Integral derivatives from FoFJK, PRISM(SPDF).
 Do as many integral derivatives as possible in FoFJK.
 G2DrvN: MDV=   24159190792.
 G2DrvN: will do    19 centers at a time, making    1 passes.
 Calling FoFCou, ICntrl=  3107 FMM=F I1Cent=   0 AccDes= 0.00D+00.
 FoFJK:  IHMeth= 1 ICntrl=    3107 DoSepK=F KAlg= 0 I1Cent=   0 FoldK=F
 IRaf=         0 NMat=   1 IRICut=       1 DoRegI=T DoRafI=F ISym2E= 0.
 FoFCou: FMM=F IPFlag=           0 FMFlag=      100000 FMFlg1=           0
         NFxFlg=           0 DoJE=F BraDBF=F KetDBF=F FulRan=T
         wScrn=  0.000000 ICntrl=    3107 IOpCl=  0 I1Cent=           0 NGrid=           0
         NMat0=    1 NMatS0=      1 NMatT0=    0 NMatD0=    1 NMtDS0=    0 NMtDT0=    0
 Symmetry not used in FoFCou.
 End of G2Drv F.D. properties file   721 does not exist.
 End of G2Drv F.D. properties file   722 does not exist.
 End of G2Drv F.D. properties file   788 does not exist.
 Leave Link 1110 at Wed Aug 25 23:54:01 2021, MaxMem= 24159191040 cpu:       753.1
 (Enter /public/home/users/caep010/software/Gaussian09/g09/l1002.exe)
 Minotr:  Closed shell wavefunction.
          IDoAtm=111111111111111111
          Direct CPHF calculation.
          Differentiating once with respect to nuclear coordinates.
          Requested convergence is 1.0D-08 RMS, and 1.0D-07 maximum.
          Secondary convergence is 1.0D-12 RMS, and 1.0D-12 maximum.
          NewPWx=T KeepS1=F KeepF1=F KeepIn=T MapXYZ=F SortEE=F KeepMc=T.
          MDV=   24159190490 using IRadAn=       2.
 Generate precomputed XC quadrature information.
 Keep R1 ints in memory in canonical form, NReq=2288065440.
 FoFCou: FMM=F IPFlag=           0 FMFlag=           0 FMFlg1=           0
         NFxFlg=           0 DoJE=F BraDBF=F KetDBF=F FulRan=T
         wScrn=  0.000000 ICntrl=     600 IOpCl=  0 I1Cent=           0 NGrid=           0
         NMat0=    1 NMatS0=  67161 NMatT0=    0 NMatD0=    1 NMtDS0=    0 NMtDT0=    0
 Symmetry not used in FoFCou.
          Solving linear equations simultaneously, MaxMat=       0.
          There are    57 degrees of freedom in the 1st order CPHF.  IDoFFX=6 NUNeed=     0.
     51 vectors produced by pass  0 Test12= 2.44D-14 1.75D-09 XBig12= 2.23D-01 1.46D-01.
 AX will form    51 AO Fock derivatives at one time.
     51 vectors produced by pass  1 Test12= 2.44D-14 1.75D-09 XBig12= 1.39D-01 1.53D-01.
     51 vectors produced by pass  2 Test12= 2.44D-14 1.75D-09 XBig12= 1.75D-03 8.11D-03.
     51 vectors produced by pass  3 Test12= 2.44D-14 1.75D-09 XBig12= 1.23D-05 4.01D-04.
     51 vectors produced by pass  4 Test12= 2.44D-14 1.75D-09 XBig12= 6.43D-08 2.39D-05.
     51 vectors produced by pass  5 Test12= 2.44D-14 1.75D-09 XBig12= 1.58D-10 1.15D-06.
     24 vectors produced by pass  6 Test12= 2.44D-14 1.75D-09 XBig12= 2.24D-13 4.72D-08.
 InvSVY:  IOpt=1 It=  1 EMax= 6.11D-16
 Solved reduced A of dimension   330 with    57 vectors.
 End of Minotr F.D. properties file   721 does not exist.
 End of Minotr F.D. properties file   722 does not exist.
 End of Minotr F.D. properties file   788 does not exist.
 Leave Link 1002 at Wed Aug 25 23:54:42 2021, MaxMem= 24159191040 cpu:      1272.1
 (Enter /public/home/users/caep010/software/Gaussian09/g09/l601.exe)
 Copying SCF densities to generalized density rwf, IOpCl= 0 IROHF=0.

 **********************************************************************

            Population analysis using the SCF density.

 **********************************************************************

 Orbital symmetries:
       Occupied  (A) (A) (A) (A) (A) (A) (A) (A) (A) (A) (A) (A)
                 (A) (A) (A) (A) (A) (A) (A) (A) (A) (A) (A) (A)
                 (A) (A) (A) (A) (A) (A) (A) (A) (A) (A) (A) (A)
                 (A) (A) (A) (A) (A) (A) (A)
       Virtual   (A) (A) (A) (A) (A) (A) (A) (A) (A) (A) (A) (A)
                 (A) (A) (A) (A) (A) (A) (A) (A) (A) (A) (A) (A)
                 (A) (A) (A) (A) (A) (A) (A) (A) (A) (A) (A) (A)
                 (A) (A) (A) (A) (A) (A) (A) (A) (A) (A) (A) (A)
                 (A) (A) (A) (A) (A) (A) (A) (A) (A) (A) (A) (A)
                 (A) (A) (A) (A) (A) (A) (A) (A) (A) (A) (A) (A)
                 (A) (A) (A) (A) (A) (A) (A) (A) (A) (A) (A) (A)
                 (A) (A) (A) (A) (A) (A) (A) (A) (A) (A) (A) (A)
                 (A) (A) (A) (A) (A) (A) (A) (A) (A) (A) (A) (A)
                 (A) (A) (A) (A) (A) (A) (A) (A) (A) (A) (A) (A)
                 (A) (A) (A) (A) (A) (A) (A) (A) (A) (A) (A) (A)
                 (A) (A) (A) (A) (A) (A) (A) (A) (A) (A) (A) (A)
                 (A) (A) (A) (A) (A) (A) (A) (A) (A) (A) (A) (A)
                 (A) (A) (A) (A) (A) (A) (A) (A) (A) (A) (A) (A)
                 (A) (A) (A) (A) (A) (A) (A) (A) (A) (A) (A) (A)
                 (A) (A) (A) (A) (A) (A) (A) (A) (A) (A) (A) (A)
                 (A) (A) (A) (A) (A) (A) (A) (A) (A) (A) (A) (A)
                 (A) (A) (A) (A) (A) (A) (A) (A) (A) (A) (A) (A)
                 (A) (A) (A) (A) (A) (A) (A) (A) (A) (A) (A) (A)
                 (A) (A) (A) (A) (A) (A) (A) (A) (A) (A) (A) (A)
                 (A) (A) (A) (A) (A) (A) (A) (A) (A) (A) (A) (A)
                 (A) (A) (A) (A) (A) (A) (A) (A) (A) (A) (A) (A)
                 (A) (A) (A) (A) (A) (A) (A) (A) (A) (A) (A) (A)
                 (A) (A) (A) (A) (A) (A) (A) (A) (A) (A) (A) (A)
                 (A) (A) (A) (A) (A) (A) (A) (A) (A) (A) (A) (A)
                 (A) (A) (A) (A) (A) (A) (A) (A) (A) (A) (A) (A)
                 (A) (A) (A) (A) (A) (A) (A) (A) (A) (A) (A)
 The electronic state is 1-A.
 Alpha  occ. eigenvalues --  -19.16915 -19.16890 -19.10850 -14.56056 -14.37374
 Alpha  occ. eigenvalues --  -10.29541 -10.25556 -10.23057 -10.22466 -10.22381
 Alpha  occ. eigenvalues --  -10.21126 -10.20936  -1.22162  -1.04678  -1.03609
 Alpha  occ. eigenvalues --   -0.91169  -0.89784  -0.81596  -0.79352  -0.71174
 Alpha  occ. eigenvalues --   -0.66470  -0.62807  -0.59561  -0.56713  -0.54131
 Alpha  occ. eigenvalues --   -0.53086  -0.51071  -0.50088  -0.49045  -0.47043
 Alpha  occ. eigenvalues --   -0.46033  -0.42966  -0.41223  -0.40272  -0.38827
 Alpha  occ. eigenvalues --   -0.37263  -0.30651  -0.30482  -0.30233  -0.28221
 Alpha  occ. eigenvalues --   -0.27263  -0.27211  -0.25577
 Alpha virt. eigenvalues --   -0.07895  -0.04687  -0.02423   0.02523   0.04473
 Alpha virt. eigenvalues --    0.07726   0.09350   0.12092   0.12680   0.15900
 Alpha virt. eigenvalues --    0.18273   0.19880   0.23359   0.24897   0.26962
 Alpha virt. eigenvalues --    0.27368   0.29693   0.30451   0.32271   0.36360
 Alpha virt. eigenvalues --    0.37714   0.39331   0.40283   0.42162   0.44267
 Alpha virt. eigenvalues --    0.44674   0.47365   0.47594   0.48411   0.49742
 Alpha virt. eigenvalues --    0.50226   0.51728   0.52566   0.54090   0.54756
 Alpha virt. eigenvalues --    0.56558   0.57835   0.59500   0.59806   0.61876
 Alpha virt. eigenvalues --    0.64200   0.65308   0.66609   0.67338   0.68889
 Alpha virt. eigenvalues --    0.70160   0.70689   0.71276   0.71753   0.72526
 Alpha virt. eigenvalues --    0.73719   0.74542   0.77297   0.79070   0.79358
 Alpha virt. eigenvalues --    0.80020   0.81502   0.81816   0.82509   0.84931
 Alpha virt. eigenvalues --    0.86709   0.86902   0.88080   0.89782   0.90219
 Alpha virt. eigenvalues --    0.91161   0.91554   0.94579   0.95519   0.97559
 Alpha virt. eigenvalues --    0.98294   0.99864   1.01535   1.01951   1.04005
 Alpha virt. eigenvalues --    1.06566   1.08221   1.11600   1.12139   1.12965
 Alpha virt. eigenvalues --    1.14612   1.16733   1.18214   1.20916   1.21611
 Alpha virt. eigenvalues --    1.25256   1.26654   1.26827   1.28886   1.29471
 Alpha virt. eigenvalues --    1.32167   1.34113   1.35937   1.36530   1.37206
 Alpha virt. eigenvalues --    1.39197   1.39720   1.40447   1.43462   1.45302
 Alpha virt. eigenvalues --    1.47895   1.49719   1.51486   1.52186   1.55877
 Alpha virt. eigenvalues --    1.56856   1.57226   1.58844   1.60851   1.62931
 Alpha virt. eigenvalues --    1.66196   1.68265   1.70113   1.71779   1.74711
 Alpha virt. eigenvalues --    1.76669   1.78053   1.80036   1.81376   1.82152
 Alpha virt. eigenvalues --    1.84232   1.85988   1.88211   1.88587   1.91592
 Alpha virt. eigenvalues --    1.93214   1.94661   2.02642   2.05135   2.08419
 Alpha virt. eigenvalues --    2.10261   2.12053   2.15391   2.16687   2.17952
 Alpha virt. eigenvalues --    2.20741   2.22935   2.27261   2.29154   2.32076
 Alpha virt. eigenvalues --    2.34366   2.38257   2.41860   2.51065   2.55380
 Alpha virt. eigenvalues --    2.59036   2.63703   2.66551   2.71108   2.74143
 Alpha virt. eigenvalues --    2.77321   2.82366   2.82873   2.86315   2.90132
 Alpha virt. eigenvalues --    2.90765   2.92333   2.93601   2.96024   2.98655
 Alpha virt. eigenvalues --    3.00012   3.02892   3.03804   3.05124   3.06933
 Alpha virt. eigenvalues --    3.09219   3.10886   3.13787   3.14950   3.16057
 Alpha virt. eigenvalues --    3.16453   3.18509   3.20406   3.20742   3.25928
 Alpha virt. eigenvalues --    3.26330   3.28275   3.30435   3.32319   3.37560
 Alpha virt. eigenvalues --    3.38544   3.40997   3.44577   3.47245   3.48662
 Alpha virt. eigenvalues --    3.51350   3.52120   3.54396   3.56320   3.57440
 Alpha virt. eigenvalues --    3.59780   3.62566   3.66534   3.67495   3.69102
 Alpha virt. eigenvalues --    3.70772   3.72650   3.73054   3.75834   3.77801
 Alpha virt. eigenvalues --    3.80774   3.82116   3.87303   3.88815   3.91209
 Alpha virt. eigenvalues --    3.96016   3.99340   4.00343   4.04737   4.04824
 Alpha virt. eigenvalues --    4.06533   4.07707   4.12581   4.12946   4.13319
 Alpha virt. eigenvalues --    4.17009   4.17712   4.19299   4.21172   4.22920
 Alpha virt. eigenvalues --    4.24665   4.26178   4.27568   4.29685   4.32447
 Alpha virt. eigenvalues --    4.33410   4.35473   4.36494   4.37994   4.39619
 Alpha virt. eigenvalues --    4.41171   4.42962   4.43517   4.45164   4.47606
 Alpha virt. eigenvalues --    4.48767   4.49255   4.50543   4.52975   4.54014
 Alpha virt. eigenvalues --    4.56549   4.57299   4.58650   4.61154   4.63095
 Alpha virt. eigenvalues --    4.63701   4.64390   4.67236   4.68684   4.68815
 Alpha virt. eigenvalues --    4.70593   4.71207   4.74642   4.75481   4.79482
 Alpha virt. eigenvalues --    4.81479   4.82999   4.85993   4.89631   4.93899
 Alpha virt. eigenvalues --    4.99066   5.00199   5.02686   5.03575   5.04368
 Alpha virt. eigenvalues --    5.06804   5.07079   5.09512   5.10415   5.12011
 Alpha virt. eigenvalues --    5.14315   5.16586   5.18973   5.22224   5.24133
 Alpha virt. eigenvalues --    5.24957   5.29548   5.32117   5.35336   5.38039
 Alpha virt. eigenvalues --    5.43749   5.46300   5.50584   5.56996   5.58051
 Alpha virt. eigenvalues --    5.59653   5.63855   5.64175   5.67045   5.74511
 Alpha virt. eigenvalues --    5.75113   5.79890   5.85618   5.90132   5.91190
 Alpha virt. eigenvalues --    5.94133   6.02293   6.09399   6.17748   6.25918
 Alpha virt. eigenvalues --    6.26640   6.32339   6.47311   6.52064   6.76762
 Alpha virt. eigenvalues --    6.85700   6.87707   7.05780   8.45852   9.61673
 Alpha virt. eigenvalues --   10.26800  10.59060  10.85876  11.30323  11.35429
 Alpha virt. eigenvalues --   11.66509  11.76548  12.54047  12.67951  12.96651
 Alpha virt. eigenvalues --   13.21449  13.61609  17.03849
          Condensed to atoms (all electrons):
               1          2          3          4          5          6
     1  C    4.832137   0.326835   0.423623  -0.106331  -0.091491   0.021634
     2  N    0.326835   5.412259  -0.031170   0.471368   0.484406   0.001866
     3  C    0.423623  -0.031170   4.938001   0.001481   0.001590   0.480198
     4  O   -0.106331   0.471368   0.001481   8.035545  -0.069804   0.000283
     5  O   -0.091491   0.484406   0.001590  -0.069804   8.022232  -0.000089
     6  C    0.021634   0.001866   0.480198   0.000283  -0.000089   4.772299
     7  C   -0.049191   0.000142   0.021702   0.000032  -0.000022   0.574150
     8  C    0.042200   0.002082  -0.076165  -0.000176   0.000266   0.028322
     9  C    0.407004  -0.030863   0.022651   0.005492   0.003344  -0.051548
    10  C   -0.040310  -0.016459   0.005523  -0.000299   0.008507  -0.000051
    11  N    0.004836  -0.000322  -0.000030  -0.000010  -0.001951  -0.000027
    12  H   -0.000222   0.000034  -0.000019   0.000000  -0.000037   0.000010
    13  H   -0.000125  -0.000003   0.000002   0.000000  -0.000026   0.000001
    14  H   -0.032375  -0.010067   0.344074   0.020382   0.000796  -0.032056
    15  H    0.001962  -0.000068  -0.039053  -0.000006   0.000001   0.358495
    16  H    0.001620   0.000003   0.002625   0.000000  -0.000000  -0.035916
    17  O    0.010757   0.000267   0.000475  -0.001099  -0.004761  -0.000033
    18  H    0.003072  -0.000045   0.002715   0.000001   0.000011  -0.000880
               7          8          9         10         11         12
     1  C   -0.049191   0.042200   0.407004  -0.040310   0.004836  -0.000222
     2  N    0.000142   0.002082  -0.030863  -0.016459  -0.000322   0.000034
     3  C    0.021702  -0.076165   0.022651   0.005523  -0.000030  -0.000019
     4  O    0.000032  -0.000176   0.005492  -0.000299  -0.000010   0.000000
     5  O   -0.000022   0.000266   0.003344   0.008507  -0.001951  -0.000037
     6  C    0.574150   0.028322  -0.051548  -0.000051  -0.000027   0.000010
     7  C    4.788447   0.481896   0.006548   0.002796   0.000272  -0.000138
     8  C    0.481896   4.921111   0.491177  -0.051332  -0.005452   0.000995
     9  C    0.006548   0.491177   4.961039   0.257108  -0.083824   0.004637
    10  C    0.002796  -0.051332   0.257108   4.407632   0.330613  -0.027304
    11  N    0.000272  -0.005452  -0.083824   0.330613   6.742645   0.333205
    12  H   -0.000138   0.000995   0.004637  -0.027304   0.333205   0.435235
    13  H    0.000001  -0.000053   0.004713  -0.010121   0.296352  -0.020927
    14  H    0.003524   0.001024   0.006276  -0.000019   0.000002  -0.000000
    15  H   -0.037775   0.003391   0.001315   0.000007  -0.000000  -0.000000
    16  H    0.364163  -0.039465   0.002128  -0.000100   0.000004  -0.000007
    17  O   -0.000067  -0.002292  -0.094366   0.764432  -0.055826   0.003744
    18  H   -0.023129   0.335699  -0.020109  -0.010386   0.004264   0.002457
              13         14         15         16         17         18
     1  C   -0.000125  -0.032375   0.001962   0.001620   0.010757   0.003072
     2  N   -0.000003  -0.010067  -0.000068   0.000003   0.000267  -0.000045
     3  C    0.000002   0.344074  -0.039053   0.002625   0.000475   0.002715
     4  O    0.000000   0.020382  -0.000006   0.000000  -0.001099   0.000001
     5  O   -0.000026   0.000796   0.000001  -0.000000  -0.004761   0.000011
     6  C    0.000001  -0.032056   0.358495  -0.035916  -0.000033  -0.000880
     7  C    0.000001   0.003524  -0.037775   0.364163  -0.000067  -0.023129
     8  C   -0.000053   0.001024   0.003391  -0.039465  -0.002292   0.335699
     9  C    0.004713   0.006276   0.001315   0.002128  -0.094366  -0.020109
    10  C   -0.010121  -0.000019   0.000007  -0.000100   0.764432  -0.010386
    11  N    0.296352   0.000002  -0.000000   0.000004  -0.055826   0.004264
    12  H   -0.020927  -0.000000  -0.000000  -0.000007   0.003744   0.002457
    13  H    0.442021  -0.000000   0.000000  -0.000000   0.004603  -0.000136
    14  H   -0.000000   0.569026  -0.006112  -0.000167   0.000011   0.000054
    15  H    0.000000  -0.006112   0.608283  -0.004462  -0.000000  -0.000235
    16  H   -0.000000  -0.000167  -0.004462   0.600096   0.000001  -0.004392
    17  O    0.004603   0.000011  -0.000000   0.000001   7.750724  -0.000013
    18  H   -0.000136   0.000054  -0.000235  -0.004392  -0.000013   0.615381
 Mulliken charges:
               1
     1  C    0.244366
     2  N    0.389735
     3  C   -0.098223
     4  O   -0.356859
     5  O   -0.352974
     6  C   -0.116658
     7  C   -0.133352
     8  C   -0.133228
     9  C    0.107278
    10  C    0.379765
    11  N   -0.564751
    12  H    0.268335
    13  H    0.283696
    14  H    0.135627
    15  H    0.114258
    16  H    0.113871
    17  O   -0.376557
    18  H    0.095673
 Sum of Mulliken charges =  -0.00000
 Mulliken charges with hydrogens summed into heavy atoms:
               1
     1  C    0.244366
     2  N    0.389735
     3  C    0.037404
     4  O   -0.356859
     5  O   -0.352974
     6  C   -0.002400
     7  C   -0.019481
     8  C   -0.037555
     9  C    0.107278
    10  C    0.379765
    11  N   -0.012720
    17  O   -0.376557
 APT charges:
               1
     1  C   -0.368051
     2  N   -0.934571
     3  C   -0.147162
     4  O    0.507616
     5  O    0.229902
     6  C   -0.405810
     7  C   -0.521426
     8  C   -0.231730
     9  C   -0.454519
    10  C   -0.606431
    11  N   -0.900687
    12  H    0.575330
    13  H    0.825468
    14  H    0.428277
    15  H    0.654236
    16  H    0.688851
    17  O    0.215044
    18  H    0.445662
 Sum of APT charges =  -0.00000
 APT charges with hydrogens summed into heavy atoms:
               1
     1  C   -0.368051
     2  N   -0.934571
     3  C    0.281115
     4  O    0.507616
     5  O    0.229902
     6  C    0.248426
     7  C    0.167425
     8  C    0.213933
     9  C   -0.454519
    10  C   -0.606431
    11  N    0.500111
    17  O    0.215044
 Electronic spatial extent (au):  <R**2>=           1794.2700
 Charge=             -0.0000 electrons
 Dipole moment (field-independent basis, Debye):
    X=              3.4311    Y=             -5.2362    Z=              2.1891  Tot=              6.6319
 Quadrupole moment (field-independent basis, Debye-Ang):
   XX=            -61.0579   YY=            -61.6302   ZZ=            -70.5458
   XY=              8.1663   XZ=             -3.8472   YZ=             -3.6647
 Traceless Quadrupole moment (field-independent basis, Debye-Ang):
   XX=              3.3534   YY=              2.7811   ZZ=             -6.1345
   XY=              8.1663   XZ=             -3.8472   YZ=             -3.6647
 Octapole moment (field-independent basis, Debye-Ang**2):
  XXX=             -8.8131  YYY=            -34.8853  ZZZ=              1.9558  XYY=             -6.4882
  XXY=            -14.6567  XXZ=             10.9383  XZZ=             -4.9315  YZZ=              1.6972
  YYZ=             13.7649  XYZ=              7.8716
 Hexadecapole moment (field-independent basis, Debye-Ang**3):
 XXXX=          -1018.5556 YYYY=           -929.2462 ZZZZ=           -151.0696 XXXY=             65.0330
 XXXZ=            -31.6508 YYYX=             39.3516 YYYZ=            -23.5350 ZZZX=             -2.8528
 ZZZY=             -5.4293 XXYY=           -290.1527 XXZZ=           -237.2176 YYZZ=           -179.8478
 XXYZ=            -22.9583 YYXZ=            -10.8549 ZZXY=              6.5609
 N-N= 6.860124802461D+02 E-N=-2.787126828354D+03  KE= 6.015270824734D+02
  Exact polarizability:   0.000   0.000   0.000   0.000   0.000   0.000
 Approx polarizability: 199.311  -0.059 193.115  -7.967 -23.241 103.923
 No NMR shielding tensors so no spin-rotation constants.
 Leave Link  601 at Wed Aug 25 23:54:42 2021, MaxMem= 24159191040 cpu:        15.5
 (Enter /public/home/users/caep010/software/Gaussian09/g09/l701.exe)
 Compute integral second derivatives.
 ... and contract with generalized density number  0.
 Leave Link  701 at Wed Aug 25 23:54:43 2021, MaxMem= 24159191040 cpu:        21.2
 (Enter /public/home/users/caep010/software/Gaussian09/g09/l702.exe)
 L702 exits ... SP integral derivatives will be done elsewhere.
 Leave Link  702 at Wed Aug 25 23:54:43 2021, MaxMem= 24159191040 cpu:         0.6
 (Enter /public/home/users/caep010/software/Gaussian09/g09/l703.exe)
 Compute integral second derivatives, UseDBF=F ICtDFT=           0.
 Integral derivatives from FoFJK, PRISM(SPDF).
 Calling FoFJK, ICntrl=    100147 FMM=F ISym2X=0 I1Cent= 0 IOpClX= 0 NMat=1 NMatS=1 NMatT=0.
 FoFJK:  IHMeth= 1 ICntrl=  100147 DoSepK=F KAlg= 0 I1Cent=   0 FoldK=F
 IRaf=         0 NMat=   1 IRICut=       1 DoRegI=T DoRafI=F ISym2E= 0.
 FoFCou: FMM=F IPFlag=           0 FMFlag=      100000 FMFlg1=         800
         NFxFlg=           0 DoJE=F BraDBF=F KetDBF=F FulRan=T
         wScrn=  0.000000 ICntrl=  100147 IOpCl=  0 I1Cent=           0 NGrid=           0
         NMat0=    1 NMatS0=      1 NMatT0=    0 NMatD0=    1 NMtDS0=    0 NMtDT0=    0
 Symmetry not used in FoFCou.
 Leave Link  703 at Wed Aug 25 23:55:29 2021, MaxMem= 24159191040 cpu:      1450.2
 (Enter /public/home/users/caep010/software/Gaussian09/g09/l716.exe)
 Dipole        = 1.34990640D+00-2.06006837D+00 8.61273096D-01
 Polarizability= 0.00000000D+00 0.00000000D+00 0.00000000D+00
                 0.00000000D+00 0.00000000D+00 0.00000000D+00
 ***** Axes restored to original set *****
 -------------------------------------------------------------------
 Center     Atomic                   Forces (Hartrees/Bohr)
 Number     Number              X              Y              Z
 -------------------------------------------------------------------
      1        6           0.004817749   -0.004200382    0.006732813
      2        7          -0.013882586   -0.006088064   -0.012972909
      3        6           0.017961304   -0.081494438    0.043888035
      4        8           0.005951797    0.002909163    0.004674040
      5        8           0.007353063    0.002756505    0.003298499
      6        6           0.006078932    0.058151894   -0.025938151
      7        6           0.008345455   -0.007230151    0.019808537
      8        6          -0.030931728    0.122879773   -0.095487862
      9        6          -0.006429702   -0.008231695   -0.005048272
     10        6          -0.003800208   -0.004002634   -0.024029156
     11        7          -0.051184179   -0.081815163    0.012777580
     12        1          -0.005358405    0.003579322   -0.003891382
     13        1           0.052752959    0.069355587    0.005690068
     14        1          -0.025367797    0.067627146   -0.054163914
     15        1           0.003012721   -0.040203672    0.018890351
     16        1          -0.006942245    0.003080132   -0.012277098
     17        8           0.000259325    0.009050973    0.011266761
     18        1           0.037363543   -0.106124297    0.106782059
 -------------------------------------------------------------------
 Cartesian Forces:  Max     0.122879773 RMS     0.041232168
 FormGI is forming the generalized inverse of G from B-inverse, IUseBI=4.
 Leave Link  716 at Wed Aug 25 23:55:29 2021, MaxMem= 24159191040 cpu:         1.6
 (Enter /public/home/users/caep010/software/Gaussian09/g09/l103.exe)

 GradGradGradGradGradGradGradGradGradGradGradGradGradGradGradGradGradGrad
 Berny optimization.
 Red2BG is reusing G-inverse.
 Internal  Forces:  Max     0.153148127 RMS     0.023295286
 Search for a local minimum.
 Step number   1 out of a maximum of   91
 All quantities printed in internal units (Hartrees-Bohrs-Radians)
 RMS Force = .23295D-01 SwitMx=.10000D-02 MixMth= 1
 Mixed Optimization -- RFO/linear search
 Second derivative matrix not updated -- analytic derivatives used.
 ITU=  0
     Eigenvalues ---   -0.00356   0.00040   0.00759   0.01485   0.01704
     Eigenvalues ---    0.01737   0.02039   0.02205   0.02350   0.02658
     Eigenvalues ---    0.02674   0.03060   0.03239   0.05255   0.09859
     Eigenvalues ---    0.10033   0.10534   0.10825   0.10891   0.11798
     Eigenvalues ---    0.12261   0.16330   0.17444   0.18191   0.19001
     Eigenvalues ---    0.19399   0.20594   0.21640   0.23205   0.23781
     Eigenvalues ---    0.25027   0.25399   0.31886   0.32971   0.33972
     Eigenvalues ---    0.37472   0.42235   0.45559   0.46777   0.47036
     Eigenvalues ---    0.49199   0.49861   0.52706   0.59710   0.62448
     Eigenvalues ---    0.77676   0.80184   0.81294
 Eigenvalue     1 is  -3.56D-03 should be greater than     0.000000 Eigenvector:
                          D33       D35       D36       D34       D30
   1                    0.61329   0.54326  -0.39520  -0.32518   0.13244
                          D32       A25       D4        D2        D29
   1                    0.12704  -0.08169  -0.06885  -0.06574   0.06340
 RFO step:  Lambda=-8.86055648D-02 EMin=-3.56326695D-03
 Linear search not attempted -- first point.
 Maximum step size (   0.300) exceeded in Quadratic search.
    -- Step size scaled by   0.599
 Iteration  1 RMS(Cart)=  0.07176489 RMS(Int)=  0.02492619
 Iteration  2 RMS(Cart)=  0.02677473 RMS(Int)=  0.00716775
 Iteration  3 RMS(Cart)=  0.00179406 RMS(Int)=  0.00693871
 Iteration  4 RMS(Cart)=  0.00003855 RMS(Int)=  0.00693864
 Iteration  5 RMS(Cart)=  0.00000153 RMS(Int)=  0.00693864
 Iteration  6 RMS(Cart)=  0.00000006 RMS(Int)=  0.00693864
 ITry= 1 IFail=0 DXMaxC= 4.67D-01 DCOld= 1.00D+10 DXMaxT= 3.00D-01 DXLimC= 3.00D+00 Rises=F
 Variable       Old X    -DE/DX   Delta X   Delta X   Delta X     New X
                                 (Linear)    (Quad)   (Total)
    R1        2.76585   0.00313   0.00000   0.00843   0.00843   2.77428
    R2        2.62448   0.00455   0.00000   0.00045   0.00038   2.62486
    R3        2.63582   0.00123   0.00000   0.00005   0.00005   2.63587
    R4        2.31715  -0.00333   0.00000  -0.00410  -0.00410   2.31306
    R5        2.31676  -0.00548   0.00000  -0.00333  -0.00333   2.31342
    R6        2.62041   0.01073   0.00000   0.00795   0.00788   2.62830
    R7        1.86609   0.08798   0.00000   0.07351   0.07351   1.93960
    R8        2.59759   0.00496   0.00000   0.01089   0.01089   2.60848
    R9        2.18783  -0.03880   0.00000  -0.07580  -0.07580   2.11203
   R10        2.66675  -0.00355   0.00000  -0.01146  -0.01139   2.65536
   R11        2.08896  -0.01308   0.00000  -0.01938  -0.01938   2.06958
   R12        2.61386   0.01344   0.00000   0.01391   0.01397   2.62783
   R13        1.77435   0.15315   0.00000   0.10205   0.10205   1.87639
   R14        2.83930   0.00615   0.00000   0.00915   0.00915   2.84845
   R15        2.53276   0.01737   0.00000   0.02502   0.02502   2.55778
   R16        2.31639  -0.01352   0.00000  -0.01428  -0.01428   2.30211
   R17        1.90714  -0.00443   0.00000  -0.00281  -0.00281   1.90433
   R18        2.19838  -0.08719   0.00000  -0.21019  -0.21019   1.98819
    A1        2.05178  -0.00430   0.00000  -0.00339  -0.00342   2.04836
    A2        2.09904   0.00242   0.00000  -0.00070  -0.00076   2.09828
    A3        2.12959   0.00195   0.00000   0.00421   0.00428   2.13387
    A4        2.06187  -0.00591   0.00000  -0.00624  -0.00625   2.05563
    A5        2.05508  -0.00449   0.00000  -0.00712  -0.00712   2.04795
    A6        2.16569   0.01026   0.00000   0.01317   0.01316   2.17885
    A7        2.06467   0.00155   0.00000   0.00408   0.00395   2.06862
    A8        1.97178   0.01112   0.00000   0.03331   0.03333   2.00511
    A9        2.21427  -0.01125   0.00000  -0.02974  -0.03006   2.18422
   A10        2.11051  -0.00407   0.00000  -0.00804  -0.00798   2.10253
   A11        1.88138   0.02584   0.00000   0.07157   0.07154   1.95292
   A12        2.29102  -0.02175   0.00000  -0.06343  -0.06347   2.22755
   A13        2.10015   0.00168   0.00000   0.00144   0.00158   2.10173
   A14        2.14995  -0.00608   0.00000  -0.01781  -0.01792   2.13203
   A15        2.02944   0.00458   0.00000   0.01765   0.01753   2.04697
   A16        2.08522   0.00395   0.00000   0.00836   0.00804   2.09327
   A17        1.99234   0.00602   0.00000   0.03254   0.03208   2.02441
   A18        2.13258  -0.00588   0.00000  -0.01814  -0.01914   2.11344
   A19        2.07529  -0.00503   0.00000  -0.00986  -0.00969   2.06560
   A20        2.11122   0.00038   0.00000   0.00239   0.00233   2.11355
   A21        2.09170   0.00451   0.00000   0.00708   0.00698   2.09868
   A22        2.02493   0.00037   0.00000  -0.00554  -0.00572   2.01921
   A23        2.12032  -0.00404   0.00000  -0.00399  -0.00416   2.11617
   A24        2.13692   0.00369   0.00000   0.00807   0.00789   2.14481
   A25        2.21174  -0.00289   0.00000  -0.06762  -0.09966   2.11208
   A26        2.02635   0.00118   0.00000   0.02588  -0.00682   2.01953
   A27        2.04105   0.00173   0.00000   0.00074  -0.03762   2.00343
    D1        0.81505  -0.00319   0.00000  -0.04146  -0.04137   0.77368
    D2       -2.29261   0.00111   0.00000  -0.03581  -0.03572  -2.32832
    D3       -2.40491  -0.00215   0.00000  -0.03964  -0.03973  -2.44464
    D4        0.77062   0.00214   0.00000  -0.03399  -0.03408   0.73654
    D5        3.02402   0.00133   0.00000   0.00567   0.00549   3.02951
    D6       -0.36979   0.00499   0.00000   0.03014   0.03068  -0.33911
    D7       -0.03774   0.00026   0.00000   0.00406   0.00406  -0.03368
    D8        2.85164   0.00392   0.00000   0.02853   0.02925   2.88089
    D9       -3.03031  -0.00071   0.00000  -0.00551  -0.00534  -3.03564
   D10        0.21854   0.00055   0.00000  -0.00180  -0.00180   0.21673
   D11        0.02934   0.00009   0.00000  -0.00397  -0.00398   0.02536
   D12       -3.00500   0.00135   0.00000  -0.00025  -0.00045  -3.00545
   D13        0.00918   0.00002   0.00000  -0.00091  -0.00085   0.00833
   D14        3.12844   0.00030   0.00000   0.00253   0.00260   3.13104
   D15       -2.84112  -0.00818   0.00000  -0.04031  -0.03976  -2.88088
   D16        0.27813  -0.00789   0.00000  -0.03687  -0.03631   0.24182
   D17        0.02672  -0.00072   0.00000  -0.00241  -0.00249   0.02423
   D18       -3.01972  -0.00342   0.00000  -0.01998  -0.02019  -3.03991
   D19       -3.08657  -0.00186   0.00000  -0.00900  -0.00866  -3.09523
   D20        0.15017  -0.00456   0.00000  -0.02656  -0.02636   0.12381
   D21       -0.03507   0.00103   0.00000   0.00244   0.00250  -0.03257
   D22       -2.78436  -0.00805   0.00000  -0.05160  -0.05257  -2.83694
   D23        3.01773   0.00300   0.00000   0.01702   0.01753   3.03526
   D24        0.26843  -0.00608   0.00000  -0.03702  -0.03755   0.23089
   D25        0.00736  -0.00075   0.00000   0.00066   0.00064   0.00800
   D26        3.04293  -0.00225   0.00000  -0.00329  -0.00314   3.03979
   D27        2.72408   0.01208   0.00000   0.07152   0.07083   2.79491
   D28       -0.52353   0.01058   0.00000   0.06756   0.06704  -0.45649
   D29       -2.46490   0.00084   0.00000   0.03938   0.03953  -2.42537
   D30        0.72395   0.00002   0.00000   0.07312   0.07313   0.79708
   D31        0.78494   0.00269   0.00000   0.04416   0.04415   0.82909
   D32       -2.30939   0.00187   0.00000   0.07790   0.07775  -2.23165
   D33       -0.11761   0.00404   0.00000   0.35294   0.34396   0.22635
   D34        2.92393   0.00445   0.00000  -0.15242  -0.14331   2.78061
   D35        2.97624   0.00464   0.00000   0.31849   0.30939  -2.99756
   D36       -0.26541   0.00505   0.00000  -0.18687  -0.17789  -0.44330
         Item               Value     Threshold  Converged?
 Maximum Force            0.153148     0.000450     NO 
 RMS     Force            0.023295     0.000300     NO 
 Maximum Displacement     0.467363     0.001800     NO 
 RMS     Displacement     0.086908     0.001200     NO 
 Predicted change in Energy=-4.391527D-02
 Lowest energy point so far.  Saving SCF results.
 GradGradGradGradGradGradGradGradGradGradGradGradGradGradGradGradGradGrad

 Leave Link  103 at Wed Aug 25 23:55:30 2021, MaxMem= 24159191040 cpu:         4.4
 (Enter /public/home/users/caep010/software/Gaussian09/g09/l202.exe)
                          Input orientation:                          
 ---------------------------------------------------------------------
 Center     Atomic      Atomic             Coordinates (Angstroms)
 Number     Number       Type             X           Y           Z
 ---------------------------------------------------------------------
      1          6           0        0.914501    4.361636   -2.977059
      2          7           0       -0.338023    4.236655   -3.732601
      3          6           0        1.518375    5.612093   -2.944500
      4          8           0       -0.394479    4.765620   -4.834974
      5          8           0       -1.263946    3.645532   -3.192296
      6          6           0        2.629460    5.791984   -2.127462
      7          6           0        3.122352    4.744469   -1.375709
      8          6           0        2.525711    3.474327   -1.447970
      9          6           0        1.407866    3.277434   -2.251335
     10          6           0        0.841090    1.893202   -2.437670
     11          7           0        0.672452    1.170865   -1.305501
     12          1           0        0.729082    1.606342   -0.398491
     13          1           0       -0.011215    0.373783   -1.370213
     14          1           0        1.221058    6.254772   -3.687500
     15          1           0        3.031833    6.832533   -2.194298
     16          1           0        3.935269    4.876909   -0.653881
     17          8           0        0.637078    1.438222   -3.549174
     18          1           0        2.740835    2.849721   -0.706667
 ---------------------------------------------------------------------
                    Distance matrix (angstroms):
                    1          2          3          4          5
     1  C    0.000000
     2  N    1.468087   0.000000
     3  C    1.389017   2.441136   0.000000
     4  O    2.308350   1.224017   2.819471   0.000000
     5  O    2.303207   1.224209   3.416149   2.170014   0.000000
     6  C    2.389308   3.715034   1.390835   4.186675   4.571623
     7  C    2.754176   4.217465   2.405539   4.933057   4.873116
     8  C    2.391951   3.741879   2.797208   4.654755   4.175343
     9  C    1.394840   2.482414   2.437893   3.484011   2.856481
    10  C    2.527745   2.925564   3.813888   3.940112   2.841003
    11  N    3.610224   4.038681   4.808993   5.149542   3.665189
    12  H    3.778232   4.378761   4.811568   5.561097   3.991967
    13  H    4.397940   4.539764   5.679606   5.607111   3.948882
    14  H    2.045157   2.550601   1.026393   2.478755   3.637115
    15  H    3.346811   4.523371   2.083946   4.794258   5.441203
    16  H    3.845478   5.305607   3.410104   6.020020   5.915376
    17  O    2.991760   2.969123   4.308540   3.713350   2.934872
    18  H    3.282691   4.534228   3.759388   5.526642   4.780161
                    6          7          8          9         10
     6  C    0.000000
     7  C    1.380348   0.000000
     8  C    2.417438   1.405156   0.000000
     9  C    2.798321   2.420408   1.390590   0.000000
    10  C    4.300581   3.802846   2.513446   1.507333   0.000000
    11  N    5.085297   4.333312   2.959866   2.423442   1.353520
    12  H    4.911250   4.065777   2.796185   2.585793   2.062300
    13  H    6.074825   5.377934   4.006921   3.349829   2.043165
    14  H    2.152089   3.352657   3.801117   3.310893   4.552993
    15  H    1.117637   2.244614   3.477170   3.908868   5.408842
    16  H    2.171161   1.095176   2.141183   3.390862   4.653853
    17  O    4.994606   4.672452   3.482488   2.379328   1.218224
    18  H    3.269246   2.045297   0.992945   2.084645   2.742322
                   11         12         13         14         15
    11  N    0.000000
    12  H    1.007727   0.000000
    13  H    1.052106   1.735363   0.000000
    14  H    5.641011   5.715551   6.440058   0.000000
    15  H    6.197671   5.986706   7.187121   2.417099   0.000000
    16  H    4.980497   4.587098   6.030424   4.297475   2.648310
    17  O    2.259823   3.156506   2.510216   4.853794   6.055504
    18  H    2.730453   2.384977   3.760897   4.773830   4.261515
                   16         17         18
    16  H    0.000000
    17  O    5.575424   0.000000
    18  H    2.353497   3.807620   0.000000
 Stoichiometry    C7H6N2O3
 Framework group  C1[X(C7H6N2O3)]
 Deg. of freedom    48
 Full point group                 C1      NOp   1
 RotChk:  IX=2 Diff= 3.96D-02
 Largest Abelian subgroup         C1      NOp   1
 Largest concise Abelian subgroup C1      NOp   1
                         Standard orientation:                         
 ---------------------------------------------------------------------
 Center     Atomic      Atomic             Coordinates (Angstroms)
 Number     Number       Type             X           Y           Z
 ---------------------------------------------------------------------
      1          6           0        0.482195    0.598987    0.019797
      2          7           0       -0.465970    1.707079    0.188306
      3          6           0        1.836130    0.908464    0.041021
      4          8           0       -0.255052    2.738347   -0.436369
      5          8           0       -1.386954    1.543790    0.978125
      6          6           0        2.756175   -0.134368    0.019998
      7          6           0        2.327089   -1.445341   -0.030954
      8          6           0        0.955181   -1.743085   -0.091617
      9          6           0        0.019857   -0.714496   -0.061351
     10          6           0       -1.444377   -1.013725   -0.257641
     11          7           0       -1.935337   -2.044289    0.469624
     12          1           0       -1.407546   -2.440081    1.231397
     13          1           0       -2.978611   -2.050851    0.605505
     14          1           0        2.056615    1.894650   -0.138715
     15          1           0        3.809572    0.238970    0.029308
     16          1           0        3.021017   -2.289165    0.045430
     17          8           0       -2.106322   -0.414334   -1.086271
     18          1           0        0.701230   -2.674101    0.142171
 ---------------------------------------------------------------------
 Rotational constants (GHZ):      1.1925114      1.0591628      0.6210606
 Leave Link  202 at Wed Aug 25 23:55:30 2021, MaxMem= 24159191040 cpu:         0.6
 (Enter /public/home/users/caep010/software/Gaussian09/g09/l301.exe)
 Standard basis: GTBas3 (6D, 7F)
 Ernie: Thresh=  0.10000D-02 Tol=  0.10000D-05 Strict=F.
 There are   402 symmetry adapted cartesian basis functions of A   symmetry.
 There are   366 symmetry adapted basis functions of A   symmetry.
   366 basis functions,   570 primitive gaussians,   402 cartesian basis functions
    43 alpha electrons       43 beta electrons
       nuclear repulsion energy       685.4579951939 Hartrees.
 IExCor=  402 DFT=T Ex+Corr=B3LYP ExCW=0 ScaHFX=  0.200000
 ScaDFX=  0.800000  0.720000  1.000000  0.810000 ScalE2=  1.000000  1.000000
 IRadAn=      0 IRanWt=     -1 IRanGd=            0 ICorTp=0 IEmpDi=  4
 NAtoms=   18 NActive=   18 NUniq=   18 SFac= 1.00D+00 NAtFMM=   60 NAOKFM=F Big=F
 Integral buffers will be    131072 words long.
 Raffenetti 2 integral format.
 Two-electron integral symmetry is turned on.
 Leave Link  301 at Wed Aug 25 23:55:30 2021, MaxMem= 24159191040 cpu:         2.0
 (Enter /public/home/users/caep010/software/Gaussian09/g09/l302.exe)
 NPDir=0 NMtPBC=     1 NCelOv=     1 NCel=       1 NClECP=     1 NCelD=      1
         NCelK=      1 NCelE2=     1 NClLst=     1 CellRange=     0.0.
 One-electron integrals computed using PRISM.
 NBasis=   366 RedAO= T EigKep=  1.54D-04  NBF=   366
 NBsUse=   366 1.00D-06 EigRej= -1.00D+00 NBFU=   366
 Precomputing XC quadrature grid using
 IXCGrd= 4 IRadAn=           0 IRanWt=          -1 IRanGd=           0 AccXCQ= 0.00D+00.
 Generated NRdTot=       0 NPtTot=           0 NUsed=           0 NTot=          32
 NSgBfM=   401   401   401   401   401 MxSgAt=    18 MxSgA2=    18.
 Leave Link  302 at Wed Aug 25 23:55:30 2021, MaxMem= 24159191040 cpu:        17.5
 (Enter /public/home/users/caep010/software/Gaussian09/g09/l303.exe)
 DipDrv:  MaxL=1.
 Leave Link  303 at Wed Aug 25 23:55:31 2021, MaxMem= 24159191040 cpu:         1.0
 (Enter /public/home/users/caep010/software/Gaussian09/g09/l401.exe)
 Initial guess from the checkpoint file:  "/public/home/users/caep010/.cache/gau_scr/Gau-125464.chk"
 B after Tr=     0.000000    0.000000    0.000000
         Rot=    0.999966    0.002894    0.002149    0.007375 Ang=   0.94 deg.
 Guess basis will be translated and rotated to current coordinates.
 JPrj=2 DoOrth=T DoCkMO=T.
 Generating alternative initial guess.
 ExpMin= 1.61D-01 ExpMax= 5.48D+03 ExpMxC= 8.25D+02 IAcc=1 IRadAn=         1 AccDes= 0.00D+00
 Harris functional with IExCor=  402 and IRadAn=       1 diagonalized for initial guess.
 HarFok:  IExCor=  402 AccDes= 0.00D+00 IRadAn=         1 IDoV= 1 UseB2=F ITyADJ=14
 ICtDFT=  3500011 ScaDFX=  1.000000  1.000000  1.000000  1.000000
 FoFCou: FMM=F IPFlag=           0 FMFlag=      100000 FMFlg1=           0
         NFxFlg=           0 DoJE=T BraDBF=F KetDBF=T FulRan=T
         wScrn=  0.000000 ICntrl=     500 IOpCl=  0 I1Cent=   200000004 NGrid=           0
         NMat0=    1 NMatS0=      1 NMatT0=    0 NMatD0=    1 NMtDS0=    0 NMtDT0=    0
 Petite list used in FoFCou.
 Harris En= -605.509541321722    
 Leave Link  401 at Wed Aug 25 23:55:32 2021, MaxMem= 24159191040 cpu:        28.2
 (Enter /public/home/users/caep010/software/Gaussian09/g09/l502.exe)
 Closed shell SCF:
 Using DIIS extrapolation, IDIIS=  1040.
 Integral symmetry usage will be decided dynamically.
 Keep R1 ints in memory in canonical form, NReq=2288577883.
 IVT=      519130 IEndB=      519130 NGot= 24159191040 MDV= 21903338370
 LenX= 21903338370 LenY= 21903176325
 Requested convergence on RMS density matrix=1.00D-08 within 128 cycles.
 Requested convergence on MAX density matrix=1.00D-06.
 Requested convergence on             energy=1.00D-06.
 No special actions if energy rises.
 FoFCou: FMM=F IPFlag=           0 FMFlag=           0 FMFlg1=           0
         NFxFlg=           0 DoJE=F BraDBF=F KetDBF=F FulRan=T
         wScrn=  0.000000 ICntrl=     600 IOpCl=  0 I1Cent=           0 NGrid=           0
         NMat0=    1 NMatS0=  67161 NMatT0=    0 NMatD0=    1 NMtDS0=    0 NMtDT0=    0
 Symmetry not used in FoFCou.
 Integral accuracy reduced to 1.0D-05 until final iterations.

 Cycle   1  Pass 0  IDiag  1:
 E= -605.438806132014    
 DIIS: error= 4.05D-03 at cycle   1 NSaved=   1.
 NSaved= 1 IEnMin= 1 EnMin= -605.438806132014     IErMin= 1 ErrMin= 4.05D-03
 ErrMax= 4.05D-03  0.00D+00 EMaxC= 1.00D-01 BMatC= 1.74D-02 BMatP= 1.74D-02
 IDIUse=3 WtCom= 9.59D-01 WtEn= 4.05D-02
 Coeff-Com:  0.100D+01
 Coeff-En:   0.100D+01
 Coeff:      0.100D+01
 Gap=     1.023 Goal=   None    Shift=    0.000
 GapD=    1.023 DampG=2.000 DampE=1.000 DampFc=2.0000 IDamp=-1.
 RMSDP=6.92D-04 MaxDP=4.01D-02              OVMax= 4.69D-02

 Cycle   2  Pass 0  IDiag  1:
 E= -605.460196055006     Delta-E=       -0.021389922992 Rises=F Damp=F
 DIIS: error= 1.42D-03 at cycle   2 NSaved=   2.
 NSaved= 2 IEnMin= 2 EnMin= -605.460196055006     IErMin= 2 ErrMin= 1.42D-03
 ErrMax= 1.42D-03  0.00D+00 EMaxC= 1.00D-01 BMatC= 1.00D-03 BMatP= 1.74D-02
 IDIUse=3 WtCom= 9.86D-01 WtEn= 1.42D-02
 Coeff-Com:  0.458D-01 0.954D+00
 Coeff-En:   0.000D+00 0.100D+01
 Coeff:      0.451D-01 0.955D+00
 Gap=     0.182 Goal=   None    Shift=    0.000
 RMSDP=2.22D-04 MaxDP=1.61D-02 DE=-2.14D-02 OVMax= 1.90D-02

 Cycle   3  Pass 0  IDiag  1:
 E= -605.459006089760     Delta-E=        0.001189965246 Rises=F Damp=F
[...]
 14142482\N,0,0.3140889074,1.3525306239,-1.26541895\H,0,-0.1678625389,2
 .0092699285,-0.6725517348\H,0,-0.1196252609,0.4470622083,-1.3754919253
 \H,0,1.0058472927,6.399049525,-3.4618433568\H,0,3.0900678883,6.8004355
 311,-2.1375837561\H,0,4.1150619592,4.9142881605,-0.8820091736\O,0,1.29
 68763029,1.1394837267,-3.309885853\H,0,3.0913091491,2.6646874993,-0.97
 24282716\\Version=ES64L-G09RevE.01\State=1-A\MP2/GTBas1=-603.7061661\M
 P4/GTBas1=-603.8269613\CCSD(T)/G3Bas1=-603.8091041\MP2/GTBas2=-603.749
 8431\MP4/GTBas2=-603.8732273\MP2/GTBas3=-604.1098584\MP4/GTBas3=-604.2
 534928\HF/GTLargeXP=-602.1543419\MP2/GTLargeXP=-604.9173294\HF/GFHFB1=
 -602.2019452\HF/GFHFB2=-602.2111479\G4=-605.1924471\FreqCoord=1.721994
 9565,8.1954802064,-5.5260248029,-0.6645087593,7.8839332196,-6.92806620
 01,2.8033841384,10.5902188282,-5.4898782371,-1.2283116735,9.5121320985
 ,-8.4670525647,-1.9590285065,6.0308259461,-6.4273475275,4.9901426208,1
 0.9876337114,-4.0932240407,6.0702000449,8.9887147724,-2.7629849328,4.9
 760561102,6.5974379101,-2.8425624664,2.7768533378,6.1524182609,-4.2310
 728409,1.8549084098,3.4457086178,-4.4624262155,0.5935420163,2.55591246
 54,-2.3912952589,-0.3172142265,3.7969698919,-1.2709385889,-0.226058981
 7,0.8448251381,-2.5993030368,1.9007759148,12.0924511129,-6.5419358593,
 5.839382041,12.850960738,-4.0394478851,7.7763401228,9.2866587615,-1.66
 67557848,2.4507410407,2.1533121764,-6.2547777933,5.8417276839,5.035529
 6035,-1.8376231172\PG=C01 [X(C7H6N2O3)]\NImag=0\\0.42359968,0.06087180
 ,0.69354854,0.16469218,-0.13195382,0.29557682,-0.10890338,-0.00090153,
 -0.01741587,0.56512553,-0.00231324,-0.10592557,0.00145751,0.14258485,0
 .78634857,-0.01378340,-0.00126788,-0.08989514,0.11667669,-0.28510548,0
 .50931613,-0.12056716,-0.05191264,-0.02702815,-0.02602896,-0.02779177,
 -0.01237829,0.53280867,-0.09883028,-0.29483553,-0.00081404,-0.01934076
 ,0.00502177,-0.01586056,0.03758777,0.67001671,-0.01263204,0.03161149,-
 0.08329955,-0.00897954,-0.01898074,-0.00257797,0.26107196,-0.12885587,
 0.35116765,-0.01011325,0.02647007,-0.03854520,-0.15510568,0.07348504,-
 0.10401778,-0.00282914,0.00014558,-0.00394824,0.13846689,0.01523011,0.
 00342072,0.02234233,0.06780065,-0.31033847,0.20792996,-0.00632317,-0.0
 0760211,-0.00217579,-0.06667994,0.38214708,-0.03231870,0.03038392,-0.0
 2247477,-0.10008440,0.21152986,-0.29441328,0.00142852,0.00408267,-0.00
 016382,0.12380665,-0.29511972,0.32403149,-0.03461297,-0.04943466,-0.00
 279252,-0.26828180,-0.20857462,0.02597363,-0.00374726,0.00573108,-0.00
 489949,0.03803907,-0.00923101,0.01482186,0.27613183,-0.03617209,-0.012
 46847,-0.00051816,-0.20190391,-0.36766415,0.07877053,-0.00021993,0.003
 30532,-0.00056247,-0.03072102,-0.07692286,0.05478709,0.26457396,0.4578
 1006,-0.01172107,-0.00778552,0.01784723,0.02160688,0.07056930,-0.11293
 599,-0.00198607,0.00243274,0.00112915,0.02910945,0.07072265,-0.0050944
 2,-0.03116050,-0.13359435,0.10243117,-0.02328195,-0.06536303,0.0014608
 7,0.00728437,-0.00417252,0.00096226,-0.25575952,-0.00926637,-0.1330262
 3,0.00020213,0.00177035,-0.00066764,-0.00190936,-0.00077288,-0.0004190
 8,0.51266585,-0.02382394,0.01413774,-0.02015679,-0.00392461,-0.0073952
 7,0.00182231,-0.06385815,-0.12729531,-0.02461219,0.00115872,0.00184968
 ,0.00030651,-0.00169318,0.00067426,-0.00082492,0.10101845,0.69864131,-
 0.01223972,-0.04540082,0.01135768,0.00097317,0.00226509,0.00935848,-0.
 11761967,0.01140448,-0.14408910,0.00058073,0.00043601,-0.00105815,-0.0
 0111319,-0.00223845,-0.00139619,0.23683118,-0.09443586,0.32024397,-0.0
 0279913,0.00088599,0.00313059,-0.00063769,0.00040284,0.00022365,-0.017
 86367,0.02012304,-0.02266490,-0.00029880,-0.00083136,0.00019416,0.0001
 5569,0.00024060,-0.00035908,-0.13993960,0.08200100,-0.07938949,0.55154
 918,-0.00114500,-0.06073528,0.01702979,0.00003198,-0.00383368,0.001880
 30,0.05705146,0.04640446,0.02711165,0.00125573,0.00057462,0.00028714,-
 0.00109922,-0.00010796,-0.00138208,0.02902331,-0.24317132,0.07380245,0
 .07537189,0.63490959,0.00357328,0.01553545,-0.01036066,0.00051732,0.00
 083895,-0.00154044,-0.03312603,0.00277906,-0.01698220,-0.00057531,-0.0
 0047970,0.00017205,0.00017378,0.00027360,0.00034310,-0.06443817,0.1103
 0819,-0.13660031,0.26806308,-0.09122136,0.34607648,-0.02008048,0.05334
 043,-0.03631208,0.00751966,0.00338676,-0.00328289,-0.03717185,-0.03017
 120,-0.01156539,-0.00263366,0.00086100,-0.00103606,-0.00019194,-0.0009
 6566,0.00188291,0.04803574,-0.01116681,0.03095117,-0.14094187,-0.05786
 994,-0.03881439,0.49953200,0.01568383,0.04319343,-0.00124642,0.0040163
 4,-0.00321740,0.00546543,-0.02724371,-0.02602910,-0.01350474,0.0008388
 2,0.00046208,0.00057018,-0.00054318,-0.00029780,0.00022627,0.02491934,
 -0.05218886,0.03442826,-0.11312538,-0.29563416,-0.01192028,0.04009521,
 0.68604683,-0.02432793,0.02724069,-0.01649355,-0.00087111,0.00697251,0
 .00555040,-0.01206769,-0.01441923,-0.01115851,-0.00054364,-0.00085220,
 -0.00150401,0.00035884,-0.00187494,0.00046644,0.01953122,0.00983715,0.
 01783224,-0.02404354,0.02338751,-0.08210563,0.24286490,-0.11959177,0.3
 2954967,-0.11766750,0.03183653,-0.04493950,-0.02278073,0.01847000,-0.0
 1594578,0.04165370,0.02414625,0.01607613,-0.00173230,-0.00046926,-0.00
 403146,0.00013334,0.00338417,-0.00403974,-0.03549974,0.01657101,-0.025
 88417,-0.01837724,-0.06414133,0.00109503,-0.23999689,-0.00912580,-0.11
 779044,0.47776850,0.06684395,-0.24301298,0.09651061,0.00993863,0.01270
 022,0.00260584,-0.00939219,-0.04987867,0.01105766,-0.00515004,0.002409
 63,-0.00467441,-0.00180905,-0.00381949,0.00038154,0.01900210,-0.006581
 68,0.01303581,-0.02934166,0.01463973,-0.02165559,-0.05578512,-0.121108
 28,-0.02147995,0.04331020,0.60851135,-0.05850506,0.06717472,-0.1183007
 2,-0.01688453,0.00807278,-0.01422696,0.02917388,0.03436409,0.01792209,
 -0.00236827,-0.00027431,0.00107972,0.00092965,0.00297399,-0.00128881,-
 0.02751839,0.01334837,-0.02776177,-0.00944526,-0.04807711,0.01208798,-
 0.10421299,0.00921756,-0.13818110,0.20002312,-0.08301864,0.34458763,0.
 01039100,0.00844142,0.00503148,0.00870091,0.00973177,0.00231953,0.0019
 0052,0.00353851,-0.00533060,-0.00197394,-0.00453684,0.00168825,-0.0066
 7918,-0.00556831,0.00037320,-0.00231264,0.00216094,-0.00122965,-0.0019
 7316,-0.00289342,-0.00605994,-0.00568566,-0.02673216,-0.00315373,-0.10
 077155,-0.03154612,-0.01194568,0.36157394,-0.00231703,-0.02167100,0.00
 366950,0.00515419,0.00065058,0.00314732,0.00207729,0.00274649,0.000017
 91,-0.00300202,0.00009599,-0.00184252,-0.00358535,-0.00307839,-0.00174
 424,-0.00050582,0.00049640,-0.00036373,0.00325449,0.00094883,0.0015320
 9,-0.00949131,-0.00085581,-0.00906384,-0.03555293,-0.16010117,0.007979
 52,0.02548967,0.65749834,0.01072052,0.01242136,0.00855895,0.00387368,0
 .00463787,-0.00515574,-0.00547290,0.00465653,0.00102620,-0.00112890,-0
 .00064077,0.00157895,-0.00022741,-0.00346394,-0.00258117,0.00006435,-0
 .00116404,-0.00065030,-0.00533579,0.00278244,0.00348185,-0.00922998,-0
 .01865683,0.00099005,-0.00148333,0.02300221,-0.07866655,-0.23378825,0.
 20470209,0.76270283,-0.00175489,-0.00041854,-0.00075978,-0.00492738,-0
 .00345925,-0.00038087,0.00002293,-0.00100740,0.00033977,0.00111555,0.0
 0202214,-0.00061828,0.00222593,0.00449438,-0.00285815,0.00046522,-0.00
 058866,0.00043077,0.00055370,0.00063510,0.00020064,-0.00052348,-0.0000
 5678,-0.00019171,0.00085904,-0.01300762,0.01425812,-0.13037002,-0.0656
 5080,0.12777627,0.37122240,-0.00235507,-0.00084122,-0.00179944,-0.0024
 3091,-0.00007169,0.00000546,0.00059284,-0.00168704,-0.00057495,0.00095
 093,-0.00038206,0.00064552,0.00185932,-0.00085740,0.00181031,0.0003146
 6,-0.00038807,0.00061030,-0.00003009,0.00048295,-0.00135077,0.00123425
 ,-0.00333112,0.00114775,-0.02159961,-0.01905017,0.02817135,-0.05134302
 ,-0.16520163,0.04909041,0.11616044,0.75766713,-0.00006650,-0.00074370,
 -0.00048628,-0.00113285,-0.00173674,0.00102186,0.00041215,-0.00023043,
 -0.00024808,0.00002738,0.00103542,-0.00092922,-0.00053311,0.00329470,-
 0.00149294,-0.00014652,0.00027584,-0.00010230,0.00088018,-0.00089025,0
 .00030941,-0.00014685,0.00232745,-0.00195770,0.00224851,0.00302948,0.0
 0615899,0.09264944,0.05397514,-0.20969487,-0.30627698,0.16233969,0.495
 87266,-0.00013782,-0.00063808,0.00006137,0.00153839,0.00137827,0.00001
 668,0.00035117,0.00052060,0.00022569,-0.00031581,-0.00056690,0.0001206
 1,-0.00101998,-0.00086353,0.00037038,-0.00038280,0.00025282,-0.0003131
 7,-0.00021464,-0.00053130,-0.00015124,0.00003031,-0.00013143,-0.000016
 10,0.00045711,-0.00057049,-0.00080946,-0.00825779,0.01775425,-0.003941
 27,-0.12768769,0.11693329,0.15325788,0.12567785,-0.00019737,-0.0003087
 9,0.00027728,-0.00003582,-0.00036724,0.00029088,-0.00005787,-0.0001688
 5,0.00005746,-0.00004820,0.00007440,-0.00001547,0.00023589,-0.00005947
 ,-0.00027090,0.00008451,-0.00012936,0.00006971,-0.00003215,0.00014424,
 -0.00000038,-0.00062315,-0.00023930,0.00004379,0.00002574,-0.00025146,
 0.00001088,-0.00422718,0.01337706,0.00707181,0.10760269,-0.23837511,-0
 .16332781,-0.12028845,0.23669712,0.00011814,0.00042033,-0.00014675,0.0
 0099906,0.00202781,-0.00041588,-0.00002477,0.00012173,-0.00020208,0.00
 004923,-0.00116270,0.00049236,-0.00106596,-0.00123308,0.00132078,-0.00
 012067,-0.00006295,-0.00008539,0.00005950,-0.00021404,-0.00027049,0.00
 010379,-0.00040058,0.00038654,-0.00137682,0.00098842,0.00010961,0.0088
 1886,-0.02311349,-0.02020110,0.12850701,-0.15040980,-0.16239611,-0.140
 95708,0.16617863,0.18391668,-0.00131283,-0.00057381,-0.00033767,0.0003
 8087,0.00042559,-0.00004001,0.00021873,-0.00033893,0.00013696,-0.00011
 709,-0.00012921,0.00013879,-0.00015655,-0.00031574,-0.00006789,0.00009
 746,-0.00000604,0.00010793,-0.00004490,0.00019820,0.00010160,0.0004655
 5,0.00030538,-0.00009641,0.00332968,-0.00252613,0.00446047,-0.00417147
 ,-0.01644401,-0.01131891,-0.11351412,-0.17446329,0.01134181,0.00730430
 ,0.01977979,-0.00087778,0.10895048,-0.00027103,0.00018873,-0.00008930,
 -0.00084156,-0.00100387,0.00040101,0.00008172,-0.00013564,-0.00008304,
 0.00015674,0.00050672,-0.00036880,0.00032363,0.00093696,-0.00031551,-0
 .00001556,0.00006444,0.00000329,0.00007126,-0.00025354,-0.00026590,0.0
 0032808,0.00001936,0.00017066,-0.00220869,0.00030178,0.00184841,-0.009
 86326,-0.01313088,0.00280509,-0.14969118,-0.36081473,-0.05017293,-0.01
 100723,-0.01140126,0.00253583,0.16897622,0.38457768,0.00008105,0.00030
 084,0.00027839,0.00102015,0.00081717,-0.00033205,-0.00022552,0.0001529
 0,0.00013253,-0.00024432,-0.00034503,0.00023394,-0.00041606,-0.0007363
 4,0.00002278,0.00009574,-0.00001801,0.00000801,-0.00009717,0.00029079,
 0.00038257,-0.00013567,0.00040399,0.00011884,0.00417853,0.00041458,-0.
 00306524,0.01489268,0.03472520,0.00643502,0.00288933,-0.06359659,-0.05
 240137,-0.01422345,-0.01503550,-0.00111399,-0.00253439,0.04632873,0.04
 844435,0.00904626,-0.00911989,0.00533690,-0.00021159,0.00026280,0.0036
 2336,-0.10562049,0.09238209,-0.07182685,-0.00284431,-0.00064744,-0.001
 89406,0.00044241,0.00047085,-0.00075949,-0.00556738,0.01956412,-0.0117
 8980,-0.00120128,-0.00246327,-0.00541704,-0.00096582,-0.00077022,0.000
 04178,0.00056953,-0.00384207,-0.00189830,0.00121022,0.00005009,0.00018
 821,-0.00015989,-0.00009314,0.00007525,0.00002042,-0.00001821,0.000022
 70,-0.00002070,-0.00000723,0.00002445,0.10657602,0.01326710,-0.0174857
 4,0.01547320,0.00283639,-0.00301090,0.00283793,0.09052879,-0.21541611,
 0.11377553,0.00001479,0.00311512,-0.00128021,0.00031789,0.00153964,-0.
 00083241,-0.00422674,0.00875369,-0.00447494,-0.00252767,0.00093423,0.0
 0022112,-0.00051928,0.00009321,-0.00059314,-0.00389196,-0.00409956,-0.
 00026302,0.00108439,0.00066977,0.00131200,-0.00028805,-0.00042558,-0.0
 0002799,0.00002972,-0.00002614,0.00003376,-0.00010887,-0.00003846,0.00
 005940,-0.09719308,0.22501068,0.00047603,0.00003122,0.00498939,0.00117
 495,-0.00042376,-0.00362746,-0.07146765,0.11520009,-0.11938050,-0.0026
 8913,-0.00174003,-0.00130782,0.00055469,0.00114085,0.00001223,-0.00541
 975,0.01168664,-0.00378694,-0.00533214,-0.00013837,0.00389887,0.000177
 48,-0.00062785,-0.00030207,-0.00202537,0.00011049,0.00354110,-0.000281
 15,0.00006668,0.00072366,-0.00012614,-0.00018546,-0.00011961,0.0000425
 5,0.00001081,0.00003686,-0.00006995,-0.00002926,0.00001615,0.08226788,
 -0.12462282,0.11840073,-0.00092673,0.00007363,-0.00610880,0.00057669,-
 0.00155736,0.00022582,-0.00806760,-0.02499305,0.00028702,-0.00009876,0
 .00023550,-0.00012315,-0.00077492,-0.00017701,0.00000839,-0.09941237,-
 0.10904900,-0.01270146,0.00852339,0.01343267,0.00061109,0.00155837,0.0
 0139034,-0.00433210,-0.00090206,0.00053183,-0.00026677,-0.00033862,-0.
 00000182,0.00042127,0.00003492,-0.00008221,0.00004158,-0.00003122,0.00
 000435,-0.00005069,0.00000157,-0.00001708,0.00002200,-0.00034785,0.000
 83335,0.00223036,0.10028442,-0.00115047,0.00201613,0.00084737,0.000372
 59,0.00004628,0.00048108,0.00030216,-0.00052781,0.00093036,-0.00015239
 ,0.00002530,-0.00013703,-0.00012771,-0.00009273,-0.00014969,-0.1092329
 3,-0.29061387,-0.00253783,-0.01173475,-0.01677661,-0.00274522,0.002138
 35,-0.00131973,0.00392229,0.00068637,0.00022889,0.00015142,0.00012908,
 0.00016071,-0.00012944,-0.00003455,-0.00003170,0.00000995,0.00002229,-
 0.00000206,-0.00000482,-0.00000930,0.00002440,-0.00001751,0.00048803,0
 .00038838,-0.00092247,0.11832392,0.30673634,-0.00567231,0.00141568,0.0
 0336318,-0.00024377,-0.00089005,0.00074724,-0.00662048,-0.01655044,0.0
 0192977,-0.00011016,0.00009579,-0.00008109,-0.00045879,-0.00022783,-0.
 00042503,-0.01268478,-0.00246399,-0.04397107,0.00792070,0.01492739,0.0
 0323834,-0.00473892,0.00343992,0.00290890,-0.00018410,0.00008634,-0.00
 094070,0.00046754,0.00001323,-0.00059995,0.00003775,0.00008073,0.00004
 379,-0.00000368,0.00000967,0.00002730,-0.00002944,0.00003571,-0.000046
 12,0.00236639,-0.00068173,-0.00211012,0.01769711,0.00127707,0.03766312
 ,0.00062830,0.00018703,0.00029404,-0.00042882,0.00029999,0.00070025,0.
 00253750,0.00137973,-0.00371575,0.00000532,-0.00011645,-0.00007982,-0.
 00008423,-0.00011814,-0.00008171,-0.00674226,-0.00412543,-0.00551544,-
 0.24628853,-0.03648842,-0.13388620,-0.00711728,0.00065477,-0.00704549,
 0.00236590,-0.00320014,-0.00258628,-0.00027067,0.00080449,-0.00015912,
 -0.00007051,-0.00026692,0.00009354,-0.00000353,0.00000303,-0.00007022,
 -0.00001872,-0.00001006,0.00002940,-0.00036695,-0.00026305,-0.00011319
 ,-0.00054918,0.00061939,0.00190328,0.25686882,0.00016068,-0.00162305,0
 .00061008,0.00005291,-0.00043654,-0.00008400,0.00101727,-0.00303353,0.
 00378346,0.00002220,0.00030073,-0.00009421,0.00006708,0.00030045,-0.00
 009265,0.02097386,0.00755239,0.01320268,-0.03645749,-0.06317197,-0.017
 95520,-0.02454999,-0.00018578,-0.01611314,-0.00315147,-0.00479897,0.00
 103953,-0.00090271,0.00131933,-0.00055914,0.00000170,-0.00034067,0.000
 25757,-0.00002870,-0.00000871,-0.00005625,0.00000763,-0.00001517,0.000
 04384,0.00101230,0.00035623,0.00051404,0.00017378,0.00071557,-0.001112
 14,0.04052709,0.06278475,0.00051203,0.00041205,0.00034228,0.00049518,-
 0.00031571,-0.00122058,-0.00367169,0.00419195,0.00361361,-0.00017583,-
 0.00009171,0.00006251,-0.00003641,0.00013720,0.00011517,-0.01282767,-0
 .00433109,-0.00467932,-0.13378357,-0.01793895,-0.12547661,0.00001335,0
 .00115804,0.00263439,-0.00236160,0.00114319,0.00533739,0.00022385,0.00
 030565,-0.00004697,-0.00000980,-0.00003160,0.00009464,0.00000609,-0.00
 001142,0.00000164,0.00000573,0.00001658,-0.00001045,-0.00048357,-0.000
 32437,-0.00030855,0.00202665,-0.00077795,-0.00191946,0.14830551,0.0174
 5321,0.12370011,-0.00003860,-0.00097088,-0.00124774,-0.00449610,-0.003
 85141,-0.00030371,-0.00124147,-0.00099633,0.00050022,0.00098820,0.0014
 9377,-0.00098104,0.00051782,0.00491559,0.00008171,0.00093134,-0.001054
 29,0.00084835,0.00117322,0.00143390,0.00068273,-0.00145120,0.00150274,
 -0.00079196,0.01943072,-0.00317549,0.00127704,-0.12014183,0.07948169,0
 .12827015,0.00225809,0.01535567,0.04648920,0.00303667,-0.00232439,0.00
 609255,-0.00144348,0.00424019,-0.00561776,-0.00032657,-0.00010284,0.00
 015248,0.00007686,-0.00000721,-0.00001658,0.00008321,0.00022949,-0.000
 07576,0.10059666,-0.00168553,0.00142275,-0.00194853,-0.00279037,-0.001
 93592,-0.00314777,-0.00154653,-0.00077802,0.00165389,0.00129372,0.0002
 6579,0.00109244,0.00288732,0.00075123,0.00087219,0.00056504,-0.0010283
 5,0.00020018,-0.00231000,0.00138485,0.00141614,0.00120354,-0.00451826,
 0.00238430,0.00570346,-0.03279989,-0.03934895,0.08705321,-0.31449421,-
 0.28646551,0.00331492,0.03334977,-0.00926034,-0.00239477,0.00101623,0.
 00426518,0.00515402,0.00014416,-0.00373333,-0.00030186,-0.00034510,0.0
 0005433,0.00018637,-0.00013054,-0.00027160,-0.00033940,-0.00054834,-0.
 00013322,-0.09623217,0.31838207,-0.00389180,0.00058101,-0.00415099,-0.
 00159406,-0.00275180,-0.00009033,-0.00017535,-0.00204711,0.00130589,0.
 00090914,0.00032978,-0.00012901,-0.00003685,0.00319611,0.00157606,0.00
 083687,-0.00003674,0.00033306,-0.00047411,0.00038106,-0.00003020,0.001
 16173,0.00080843,0.00297996,0.00376034,-0.03351790,-0.00386264,0.13335
 865,-0.27625817,-0.46590940,0.03665933,-0.02619694,-0.07378936,0.00617
 429,0.00463203,-0.00159523,-0.00077582,-0.00286743,0.00105609,-0.00034
 680,-0.00046718,-0.00001653,0.00004862,-0.00005981,-0.00003148,-0.0000
 5537,-0.00020729,-0.00013885,-0.17571615,0.33430819,0.54326785,-0.0014
 6856,-0.00277384,-0.00452013,0.00067570,0.00129227,-0.00058914,-0.0005
 9608,-0.00061033,-0.00004871,-0.00075439,0.00011803,-0.00036421,-0.000
 18791,-0.00028131,0.00001986,0.00112552,-0.00343694,-0.00292752,0.0086
 2532,-0.01180236,0.00744976,-0.10038150,0.08832189,-0.06752490,-0.0088
 3952,0.01971939,-0.01368129,-0.00083004,0.00248493,0.00077140,0.000250
 21,-0.00073714,0.00078590,-0.00036493,0.00011682,-0.00022685,0.0000512
 0,-0.00024493,0.00026099,-0.00023202,0.00020912,0.00044805,0.00039308,
 -0.00063285,0.00037024,-0.00054837,0.00084437,0.00183751,0.00004647,0.
 00023900,0.00015735,0.10303583,-0.00179642,0.00097958,0.00030883,-0.00
 061907,0.00043327,-0.00017237,-0.00089334,-0.00010703,-0.00064962,-0.0
 0003872,-0.00000236,-0.00015293,0.00010181,0.00005080,-0.00002271,-0.0
 0411577,-0.00337781,-0.00000665,0.01403945,-0.01673897,0.01468979,0.08
 855483,-0.22088931,0.10888157,-0.00399267,0.00671072,-0.00337058,-0.00
 001596,0.00056960,-0.00140214,-0.00002854,0.00029835,-0.00015505,0.000
 12963,0.00002872,0.00008602,0.00006850,0.00002931,-0.00005514,0.000226
 14,-0.00001337,-0.00012513,0.00069181,-0.00084695,0.00081627,0.0004524
 7,0.00083329,-0.00086184,0.00006199,-0.00013821,0.00017377,-0.09282612
 ,0.23218039,-0.00501470,-0.00037700,0.00329451,-0.00013096,0.00101543,
 0.00043772,-0.00022226,-0.00060858,-0.00012510,-0.00013582,-0.00000997
 ,-0.00049543,-0.00007215,-0.00012451,-0.00004958,-0.00251361,0.0005216
 0,0.00504741,0.00045319,-0.00201837,0.00337588,-0.06768011,0.10790296,
 -0.11171485,-0.00731934,0.01198032,-0.00453002,0.00196553,0.00225165,-
 0.00199145,0.00012271,0.00024400,0.00011650,0.00013992,0.00000853,0.00
 013525,-0.00014502,0.00004684,-0.00015946,0.00046899,-0.00014513,-0.00
 065938,-0.00003693,-0.00013775,0.00020339,0.00198258,-0.00063036,-0.00
 210094,0.00035628,-0.00193760,-0.00077489,0.07778170,-0.11798207,0.109
 99047\\-0.00000637,0.00000445,0.00000159,0.00000839,-0.00000458,-0.000
 00085,0.00002672,-0.00003294,0.00000274,0.00000505,0.00000199,-0.00000
 171,-0.00001608,0.00001111,-0.00000449,-0.00000870,-0.00001964,-0.0000
 0383,-0.00001233,0.00000576,0.00000324,0.00000532,-0.00002753,0.000021
 32,0.00000438,-0.00000802,-0.00000454,0.00002271,0.00002095,0.00000166
 ,-0.00003467,-0.00002195,0.00002286,0.00001025,-0.00000369,-0.00000790
 ,0.00001404,-0.00000070,0.00001511,-0.00002886,0.00002690,-0.00001598,
 0.00000416,0.00001818,-0.00000254,0.00000165,0.00000565,0.00000137,0.0
 0001282,-0.00000790,-0.00000253,-0.00000848,0.00003197,-0.00002552\\\@
 Job cpu time:       0 days 20 hours 44 minutes  3.4 seconds.
 File lengths (MBytes):  RWF=  83545 Int=      0 D2E=      0 Chk=    108 Scr=      1
 Normal termination of Gaussian 09 at Thu Aug 26 04:56:19 2021.
