 Entering Gaussian System, Link 0=g09
 Input=G4.ONITAN02.gjf
 Output=G4.ONITAN02.log
 Initial command:
 /public/home/users/caep010/software/Gaussian09/g09/l1.exe "/public/home/users/caep010/.cache/gau_scr/Gau-60643.inp" -scrdir="/public/home/users/caep010/.cache/gau_scr/"
 Entering Link 1 = /public/home/users/caep010/software/Gaussian09/g09/l1.exe PID=     60644.
  
 Copyright (c) 1988,1990,1992,1993,1995,1998,2003,2009,2015,
            Gaussian, Inc.  All Rights Reserved.
  
 This is part of the Gaussian(R) 09 program.  It is based on
 the Gaussian(R) 03 system (copyright 2003, Gaussian, Inc.),
 the Gaussian(R) 98 system (copyright 1998, Gaussian, Inc.),
 the Gaussian(R) 94 system (copyright 1995, Gaussian, Inc.),
 the Gaussian 92(TM) system (copyright 1992, Gaussian, Inc.),
 the Gaussian 90(TM) system (copyright 1990, Gaussian, Inc.),
 the Gaussian 88(TM) system (copyright 1988, Gaussian, Inc.),
 the Gaussian 86(TM) system (copyright 1986, Carnegie Mellon
 University), and the Gaussian 82(TM) system (copyright 1983,
 Carnegie Mellon University). Gaussian is a federally registered
 trademark of Gaussian, Inc.
  
 This software contains proprietary and confidential information,
 including trade secrets, belonging to Gaussian, Inc.
  
 This software is provided under written license and may be
 used, copied, transmitted, or stored only in accord with that
 written license.
  
 The following legend is applicable only to US Government
 contracts under FAR:
  
                    RESTRICTED RIGHTS LEGEND
  
 Use, reproduction and disclosure by the US Government is
 subject to restrictions as set forth in subparagraphs (a)
 and (c) of the Commercial Computer Software - Restricted
 Rights clause in FAR 52.227-19.
  
 Gaussian, Inc.
 340 Quinnipiac St., Bldg. 40, Wallingford CT 06492
  
  
 ---------------------------------------------------------------
 Warning -- This program may not be used in any manner that
 competes with the business of Gaussian, Inc. or will provide
 assistance to any competitor of Gaussian, Inc.  The licensee
 of this program is prohibited from giving any competitor of
 Gaussian, Inc. access to this program.  By using this program,
 the user acknowledges that Gaussian, Inc. is engaged in the
 business of creating and licensing software in the field of
 computational chemistry and represents and warrants to the
 licensee that it is not a competitor of Gaussian, Inc. and that
 it will not use this program in any manner prohibited above.
 ---------------------------------------------------------------
  

 Cite this work as:
 Gaussian 09, Revision E.01,
 M. J. Frisch, G. W. Trucks, H. B. Schlegel, G. E. Scuseria, 
 M. A. Robb, J. R. Cheeseman, G. Scalmani, V. Barone, B. Mennucci, 
 G. A. Petersson, H. Nakatsuji, M. Caricato, X. Li, H. P. Hratchian, 
 A. F. Izmaylov, J. Bloino, G. Zheng, J. L. Sonnenberg, M. Hada, 
 M. Ehara, K. Toyota, R. Fukuda, J. Hasegawa, M. Ishida, T. Nakajima, 
 Y. Honda, O. Kitao, H. Nakai, T. Vreven, J. A. Montgomery, Jr., 
 J. E. Peralta, F. Ogliaro, M. Bearpark, J. J. Heyd, E. Brothers, 
 K. N. Kudin, V. N. Staroverov, T. Keith, R. Kobayashi, J. Normand, 
 K. Raghavachari, A. Rendell, J. C. Burant, S. S. Iyengar, J. Tomasi, 
 M. Cossi, N. Rega, J. M. Millam, M. Klene, J. E. Knox, J. B. Cross, 
 V. Bakken, C. Adamo, J. Jaramillo, R. Gomperts, R. E. Stratmann, 
 O. Yazyev, A. J. Austin, R. Cammi, C. Pomelli, J. W. Ochterski, 
 R. L. Martin, K. Morokuma, V. G. Zakrzewski, G. A. Voth, 
 P. Salvador, J. J. Dannenberg, S. Dapprich, A. D. Daniels, 
 O. Farkas, J. B. Foresman, J. V. Ortiz, J. Cioslowski, 
 and D. J. Fox, Gaussian, Inc., Wallingford CT, 2013.
 
 ******************************************
 Gaussian 09:  ES64L-G09RevE.01 30-Nov-2015
                24-Aug-2021 
 ******************************************
 %nproc=32
 Will use up to   32 processors via shared memory.
 %mem=180GB
 -----
 #P G4
 -----
 1/14=-1,18=20,19=15,26=3,38=1/1,3;
 2/9=110,12=2,17=6,18=5,40=1/2;
 3/5=35,7=104,11=2,16=1,25=1,30=1,71=1,74=-5/1,2,3;
 4//1;
 5/5=2,38=5/2;
 6/7=2,8=2,9=2,10=2,28=1/1;
 7//1,2,3,16;
 1/14=-1,18=20,19=15,26=3/3(2);
 2/9=110/2;
 99//99;
 2/9=110/2;
 3/5=35,7=104,11=2,16=1,25=1,30=1,71=1,74=-5/1,2,3;
 4/5=5,16=3,69=1/1;
 5/5=2,38=5/2;
 7//1,2,3,16;
 1/14=-1,18=20,19=15,26=3/3(-5);
 2/9=110/2;
 6/7=2,8=2,9=2,10=2,19=2,28=1/1;
 99/9=1/99;
 Leave Link    1 at Tue Aug 24 14:54:50 2021, MaxMem= 24159191040 cpu:         2.7
 (Enter /public/home/users/caep010/software/Gaussian09/g09/l101.exe)
 --------
 ONITAN02
 --------
 Symbolic Z-matrix:
 Charge =  0 Multiplicity = 1
 C                     8.1846    7.0756   -3.3672 
 C                     7.3047    8.1423   -3.6888 
 C                     6.8228    8.2644   -4.9921 
 H                     6.2982    9.0599   -5.197 
 C                     7.1549    7.3873   -5.9568 
 H                     6.836     7.3792   -6.8128 
 C                     8.0018    6.3236   -5.6595 
 H                     8.3097    5.6425   -6.3371 
 C                     8.5019    6.188    -4.4163 
 N                     8.7173    6.8696   -2.1544 
 H                     8.5394    7.2098   -1.5608 
 N                     6.8629    9.0938   -2.7252 
 O                     7.2902    9.0143   -1.565 
 O                     6.077     9.9482   -3.0649 
 H                     9.3162    6.0908   -2.0538 
 H                     9.082     5.5551   -4.1163 
 
 NAtoms=     16 NQM=       16 NQMF=       0 NMMI=      0 NMMIF=      0
                NMic=       0 NMicF=      0.
                    Isotopes and Nuclear Properties:
 (Nuclear quadrupole moments (NQMom) in fm**2, nuclear magnetic moments (NMagM)
  in nuclear magnetons)

  Atom         1           2           3           4           5           6           7           8           9          10
 IAtWgt=          12          12          12           1          12           1          12           1          12          14
 AtmWgt=  12.0000000  12.0000000  12.0000000   1.0078250  12.0000000   1.0078250  12.0000000   1.0078250  12.0000000  14.0030740
 NucSpn=           0           0           0           1           0           1           0           1           0           2
 AtZEff=   0.0000000   0.0000000   0.0000000   0.0000000   0.0000000   0.0000000   0.0000000   0.0000000   0.0000000   0.0000000
 NQMom=    0.0000000   0.0000000   0.0000000   0.0000000   0.0000000   0.0000000   0.0000000   0.0000000   0.0000000   2.0440000
 NMagM=    0.0000000   0.0000000   0.0000000   2.7928460   0.0000000   2.7928460   0.0000000   2.7928460   0.0000000   0.4037610
 AtZNuc=   6.0000000   6.0000000   6.0000000   1.0000000   6.0000000   1.0000000   6.0000000   1.0000000   6.0000000   7.0000000

  Atom        11          12          13          14          15          16
 IAtWgt=           1          14          16          16           1           1
 AtmWgt=   1.0078250  14.0030740  15.9949146  15.9949146   1.0078250   1.0078250
 NucSpn=           1           2           0           0           1           1
 AtZEff=   0.0000000   0.0000000   0.0000000   0.0000000   0.0000000   0.0000000
 NQMom=    0.0000000   2.0440000   0.0000000   0.0000000   0.0000000   0.0000000
 NMagM=    2.7928460   0.4037610   0.0000000   0.0000000   2.7928460   2.7928460
 AtZNuc=   1.0000000   7.0000000   8.0000000   8.0000000   1.0000000   1.0000000
 Leave Link  101 at Tue Aug 24 14:54:50 2021, MaxMem= 24159191040 cpu:        10.2
 (Enter /public/home/users/caep010/software/Gaussian09/g09/l103.exe)

 GradGradGradGradGradGradGradGradGradGradGradGradGradGradGradGradGradGrad
 Berny optimization.
 Initialization pass.
                           ----------------------------
                           !    Initial Parameters    !
                           ! (Angstroms and Degrees)  !
 --------------------------                            --------------------------
 ! Name  Definition              Value          Derivative Info.                !
 --------------------------------------------------------------------------------
 ! R1    R(1,2)                  1.4197         estimate D2E/DX2                !
 ! R2    R(1,9)                  1.4104         estimate D2E/DX2                !
 ! R3    R(1,10)                 1.3406         estimate D2E/DX2                !
 ! R4    R(2,3)                  1.3949         estimate D2E/DX2                !
 ! R5    R(2,12)                 1.4245         estimate D2E/DX2                !
 ! R6    R(3,4)                  0.9747         estimate D2E/DX2                !
 ! R7    R(3,5)                  1.3455         estimate D2E/DX2                !
 ! R8    R(5,6)                  0.9135         estimate D2E/DX2                !
 ! R9    R(5,7)                  1.3918         estimate D2E/DX2                !
 ! R10   R(7,8)                  1.0089         estimate D2E/DX2                !
 ! R11   R(7,9)                  1.3469         estimate D2E/DX2                !
 ! R12   R(9,16)                 0.9094         estimate D2E/DX2                !
 ! R13   R(10,11)                0.7069         estimate D2E/DX2                !
 ! R14   R(10,15)                0.9876         estimate D2E/DX2                !
 ! R15   R(12,13)                1.2389         estimate D2E/DX2                !
 ! R16   R(12,14)                1.2096         estimate D2E/DX2                !
 ! A1    A(2,1,9)              116.3465         estimate D2E/DX2                !
 ! A2    A(2,1,10)             124.5196         estimate D2E/DX2                !
 ! A3    A(9,1,10)             119.1339         estimate D2E/DX2                !
 ! A4    A(1,2,3)              119.4422         estimate D2E/DX2                !
 ! A5    A(1,2,12)             122.7437         estimate D2E/DX2                !
 ! A6    A(3,2,12)             117.8028         estimate D2E/DX2                !
 ! A7    A(2,3,4)              116.9879         estimate D2E/DX2                !
 ! A8    A(2,3,5)              121.8428         estimate D2E/DX2                !
 ! A9    A(4,3,5)              120.9424         estimate D2E/DX2                !
 ! A10   A(3,5,6)              126.2623         estimate D2E/DX2                !
 ! A11   A(3,5,7)              119.687          estimate D2E/DX2                !
 ! A12   A(6,5,7)              113.9417         estimate D2E/DX2                !
 ! A13   A(5,7,8)              123.9313         estimate D2E/DX2                !
 ! A14   A(5,7,9)              120.0036         estimate D2E/DX2                !
 ! A15   A(8,7,9)              116.0181         estimate D2E/DX2                !
 ! A16   A(1,9,7)              122.6635         estimate D2E/DX2                !
 ! A17   A(1,9,16)             109.6396         estimate D2E/DX2                !
 ! A18   A(7,9,16)             127.6904         estimate D2E/DX2                !
 ! A19   A(1,10,11)            125.8537         estimate D2E/DX2                !
 ! A20   A(1,10,15)            117.0208         estimate D2E/DX2                !
 ! A21   A(11,10,15)           116.524          estimate D2E/DX2                !
 ! A22   A(2,12,13)            118.9238         estimate D2E/DX2                !
 ! A23   A(2,12,14)            118.9061         estimate D2E/DX2                !
 ! A24   A(13,12,14)           122.1687         estimate D2E/DX2                !
 ! D1    D(9,1,2,3)             -0.6594         estimate D2E/DX2                !
 ! D2    D(9,1,2,12)           178.0935         estimate D2E/DX2                !
 ! D3    D(10,1,2,3)           179.3318         estimate D2E/DX2                !
 ! D4    D(10,1,2,12)           -1.9153         estimate D2E/DX2                !
 ! D5    D(2,1,9,7)             -0.3727         estimate D2E/DX2                !
 ! D6    D(2,1,9,16)           178.7625         estimate D2E/DX2                !
 ! D7    D(10,1,9,7)           179.6356         estimate D2E/DX2                !
 ! D8    D(10,1,9,16)           -1.2292         estimate D2E/DX2                !
 ! D9    D(2,1,10,11)            9.178          estimate D2E/DX2                !
 ! D10   D(2,1,10,15)          179.9384         estimate D2E/DX2                !
 ! D11   D(9,1,10,11)         -170.831          estimate D2E/DX2                !
 ! D12   D(9,1,10,15)           -0.0706         estimate D2E/DX2                !
 ! D13   D(1,2,3,4)           -173.7306         estimate D2E/DX2                !
 ! D14   D(1,2,3,5)              0.8428         estimate D2E/DX2                !
 ! D15   D(12,2,3,4)             7.4553         estimate D2E/DX2                !
 ! D16   D(12,2,3,5)          -177.9713         estimate D2E/DX2                !
 ! D17   D(1,2,12,13)            2.0718         estimate D2E/DX2                !
 ! D18   D(1,2,12,14)         -177.5128         estimate D2E/DX2                !
 ! D19   D(3,2,12,13)         -179.156          estimate D2E/DX2                !
 ! D20   D(3,2,12,14)            1.2594         estimate D2E/DX2                !
 ! D21   D(2,3,5,6)            175.9824         estimate D2E/DX2                !
 ! D22   D(2,3,5,7)              0.0189         estimate D2E/DX2                !
 ! D23   D(4,3,5,6)             -9.6563         estimate D2E/DX2                !
 ! D24   D(4,3,5,7)            174.3802         estimate D2E/DX2                !
 ! D25   D(3,5,7,8)           -178.4642         estimate D2E/DX2                !
 ! D26   D(3,5,7,9)             -1.0602         estimate D2E/DX2                !
 ! D27   D(6,5,7,8)              5.0964         estimate D2E/DX2                !
 ! D28   D(6,5,7,9)           -177.4997         estimate D2E/DX2                !
 ! D29   D(5,7,9,1)              1.244          estimate D2E/DX2                !
 ! D30   D(5,7,9,16)          -177.7268         estimate D2E/DX2                !
 ! D31   D(8,7,9,1)            178.8472         estimate D2E/DX2                !
 ! D32   D(8,7,9,16)            -0.1235         estimate D2E/DX2                !
 --------------------------------------------------------------------------------
 Trust Radius=3.00D-01 FncErr=1.00D-07 GrdErr=1.00D-06
 Number of steps in this run=     82 maximum allowed number of steps=    100.
 GradGradGradGradGradGradGradGradGradGradGradGradGradGradGradGradGradGrad

 Leave Link  103 at Tue Aug 24 14:54:50 2021, MaxMem= 24159191040 cpu:         0.5
 (Enter /public/home/users/caep010/software/Gaussian09/g09/l202.exe)
                          Input orientation:                          
 ---------------------------------------------------------------------
 Center     Atomic      Atomic             Coordinates (Angstroms)
 Number     Number       Type             X           Y           Z
 ---------------------------------------------------------------------
      1          6           0        8.184600    7.075600   -3.367200
      2          6           0        7.304700    8.142300   -3.688800
      3          6           0        6.822800    8.264400   -4.992100
      4          1           0        6.298200    9.059900   -5.197000
      5          6           0        7.154900    7.387300   -5.956800
      6          1           0        6.836000    7.379200   -6.812800
      7          6           0        8.001800    6.323600   -5.659500
      8          1           0        8.309700    5.642500   -6.337100
      9          6           0        8.501900    6.188000   -4.416300
     10          7           0        8.717300    6.869600   -2.154400
     11          1           0        8.539400    7.209800   -1.560800
     12          7           0        6.862900    9.093800   -2.725200
     13          8           0        7.290200    9.014300   -1.565000
     14          8           0        6.077000    9.948200   -3.064900
     15          1           0        9.316200    6.090800   -2.053800
     16          1           0        9.082000    5.555100   -4.116300
 ---------------------------------------------------------------------
                    Distance matrix (angstroms):
                    1          2          3          4          5
     1  C    0.000000
     2  C    1.419683   0.000000
     3  C    2.430647   1.394893   0.000000
     4  H    3.293041   2.032166   0.974684   0.000000
     5  C    2.804187   2.395055   1.345452   2.027023   0.000000
     6  H    3.712554   3.249827   2.024525   2.392654   0.913509
     7  C    2.419413   2.770790   2.366890   3.256301   1.391792
     8  H    3.299959   3.777899   3.300645   4.126086   2.126621
     9  C    1.410363   2.404544   2.731732   3.703187   2.371892
    10  N    1.340556   2.443274   3.686074   4.461712   4.143350
    11  H    1.845799   2.631050   3.979035   4.654868   4.612284
    12  N    2.496435   1.424452   2.414197   2.535711   3.666148
    13  O    2.794000   2.295892   3.539185   3.765311   4.685439
    14  O    3.575639   2.271073   2.665614   2.320314   4.010382
    15  H    1.993833   3.305754   4.424386   5.272910   4.646024
    16  H    1.917915   3.167831   3.634738   4.604463   3.233900
                    6          7          8          9         10
     6  H    0.000000
     7  C    1.950252   0.000000
     8  H    2.326845   1.008881   0.000000
     9  C    3.152363   1.346861   2.005987   0.000000
    10  N    5.049720   3.618810   4.378001   2.372165   0.000000
    11  H    5.523927   4.227731   5.032120   3.033045   0.706927
    12  N    4.432725   4.192996   5.201012   3.740296   2.951555
    13  O    5.515365   4.950876   5.931387   4.193578   2.642678
    14  O    4.606799   4.855361   5.850752   4.673920   4.156678
    15  H    5.519008   3.844856   4.422745   2.500788   0.987588
    16  H    3.955119   2.034426   2.352879   0.909439   2.389554
                   11         12         13         14         15
    11  H    0.000000
    12  N    2.777757   0.000000
    13  O    2.194707   1.238939   0.000000
    14  O    3.978010   1.209560   2.143297   0.000000
    15  H    1.448664   3.935412   3.590328   5.137536   0.000000
    16  H    3.092414   4.402495   4.656795   5.425384   2.143765
                   16
    16  H    0.000000
 Stoichiometry    C6H6N2O2
 Framework group  C1[X(C6H6N2O2)]
 Deg. of freedom    42
 Full point group                 C1      NOp   1
 Largest Abelian subgroup         C1      NOp   1
 Largest concise Abelian subgroup C1      NOp   1
                         Standard orientation:                         
 ---------------------------------------------------------------------
 Center     Atomic      Atomic             Coordinates (Angstroms)
 Number     Number       Type             X           Y           Z
 ---------------------------------------------------------------------
      1          6           0       -0.449503    0.977702    0.007346
      2          6           0        0.249155   -0.258109    0.019449
      3          6           0       -0.470879   -1.452774    0.026684
      4          1           0        0.039926   -2.276464    0.129748
      5          6           0       -1.816045   -1.470977    0.005711
      6          1           0       -2.345679   -2.213703   -0.042707
      7          6           0       -2.521253   -0.271455   -0.024522
      8          1           0       -3.528240   -0.209907   -0.018977
      9          6           0       -1.857630    0.900491   -0.011091
     10          7           0        0.138049    2.182628    0.012487
     11          1           0        0.829107    2.306669   -0.069962
     12          7           0        1.671127   -0.339506   -0.001426
     13          8           0        2.331518    0.708716    0.007785
     14          8           0        2.193916   -1.429727   -0.035239
     15          1           0       -0.455981    2.971517    0.001838
     16          1           0       -2.209905    1.738846    0.000806
 ---------------------------------------------------------------------
 Rotational constants (GHZ):      2.3980754      1.2958231      0.8414414
 Leave Link  202 at Tue Aug 24 14:54:50 2021, MaxMem= 24159191040 cpu:         0.9
 (Enter /public/home/users/caep010/software/Gaussian09/g09/l301.exe)
 Standard basis: GTBas3 (6D, 7F)
 Ernie: Thresh=  0.10000D-02 Tol=  0.10000D-05 Strict=F.
 There are   340 symmetry adapted cartesian basis functions of A   symmetry.
 There are   310 symmetry adapted basis functions of A   symmetry.
   310 basis functions,   482 primitive gaussians,   340 cartesian basis functions
    36 alpha electrons       36 beta electrons
       nuclear repulsion energy       518.3935504013 Hartrees.
 IExCor=  402 DFT=T Ex+Corr=B3LYP ExCW=0 ScaHFX=  0.200000
 ScaDFX=  0.800000  0.720000  1.000000  0.810000 ScalE2=  1.000000  1.000000
 IRadAn=      0 IRanWt=     -1 IRanGd=            0 ICorTp=0 IEmpDi=  4
 NAtoms=   16 NActive=   16 NUniq=   16 SFac= 1.00D+00 NAtFMM=   60 NAOKFM=F Big=F
 Integral buffers will be    131072 words long.
 Raffenetti 2 integral format.
 Two-electron integral symmetry is turned on.
 Leave Link  301 at Tue Aug 24 14:54:51 2021, MaxMem= 24159191040 cpu:         2.5
 (Enter /public/home/users/caep010/software/Gaussian09/g09/l302.exe)
 NPDir=0 NMtPBC=     1 NCelOv=     1 NCel=       1 NClECP=     1 NCelD=      1
         NCelK=      1 NCelE2=     1 NClLst=     1 CellRange=     0.0.
 One-electron integrals computed using PRISM.
 NBasis=   310 RedAO= T EigKep=  9.48D-05  NBF=   310
 NBsUse=   310 1.00D-06 EigRej= -1.00D+00 NBFU=   310
 Precomputing XC quadrature grid using
 IXCGrd= 4 IRadAn=           0 IRanWt=          -1 IRanGd=           0 AccXCQ= 0.00D+00.
 Generated NRdTot=       0 NPtTot=           0 NUsed=           0 NTot=          32
 NSgBfM=   340   340   340   340   340 MxSgAt=    16 MxSgA2=    16.
 Leave Link  302 at Tue Aug 24 14:54:51 2021, MaxMem= 24159191040 cpu:        16.7
 (Enter /public/home/users/caep010/software/Gaussian09/g09/l303.exe)
 DipDrv:  MaxL=1.
 Leave Link  303 at Tue Aug 24 14:54:51 2021, MaxMem= 24159191040 cpu:         1.9
 (Enter /public/home/users/caep010/software/Gaussian09/g09/l401.exe)
 ExpMin= 1.61D-01 ExpMax= 5.48D+03 ExpMxC= 8.25D+02 IAcc=1 IRadAn=         1 AccDes= 0.00D+00
 Harris functional with IExCor=  402 and IRadAn=       1 diagonalized for initial guess.
 HarFok:  IExCor=  402 AccDes= 0.00D+00 IRadAn=         1 IDoV= 1 UseB2=F ITyADJ=14
 ICtDFT=  3500011 ScaDFX=  1.000000  1.000000  1.000000  1.000000
 FoFCou: FMM=F IPFlag=           0 FMFlag=      100000 FMFlg1=           0
         NFxFlg=           0 DoJE=T BraDBF=F KetDBF=T FulRan=T
         wScrn=  0.000000 ICntrl=     500 IOpCl=  0 I1Cent=   200000004 NGrid=           0
         NMat0=    1 NMatS0=      1 NMatT0=    0 NMatD0=    1 NMtDS0=    0 NMtDT0=    0
 Petite list used in FoFCou.
 Harris En= -492.040443189029    
 JPrj=0 DoOrth=F DoCkMO=F.
 Leave Link  401 at Tue Aug 24 14:54:52 2021, MaxMem= 24159191040 cpu:        26.0
 (Enter /public/home/users/caep010/software/Gaussian09/g09/l502.exe)
 Closed shell SCF:
 Using DIIS extrapolation, IDIIS=  1040.
 Integral symmetry usage will be decided dynamically.
 Keep R1 ints in memory in canonical form, NReq=1182089545.
 IVT=      378690 IEndB=      378690 NGot= 24159191040 MDV= 22996927236
 LenX= 22996927236 LenY= 22996811195
 Requested convergence on RMS density matrix=1.00D-08 within 128 cycles.
 Requested convergence on MAX density matrix=1.00D-06.
 Requested convergence on             energy=1.00D-06.
 No special actions if energy rises.
 FoFCou: FMM=F IPFlag=           0 FMFlag=           0 FMFlg1=           0
         NFxFlg=           0 DoJE=F BraDBF=F KetDBF=F FulRan=T
         wScrn=  0.000000 ICntrl=     600 IOpCl=  0 I1Cent=           0 NGrid=           0
         NMat0=    1 NMatS0=  48205 NMatT0=    0 NMatD0=    1 NMtDS0=    0 NMtDT0=    0
 Symmetry not used in FoFCou.
 Integral accuracy reduced to 1.0D-05 until final iterations.

 Cycle   1  Pass 0  IDiag  1:
 E= -491.510287379301    
 DIIS: error= 3.93D-02 at cycle   1 NSaved=   1.
 NSaved= 1 IEnMin= 1 EnMin= -491.510287379301     IErMin= 1 ErrMin= 3.93D-02
 ErrMax= 3.93D-02  0.00D+00 EMaxC= 1.00D-01 BMatC= 4.89D-01 BMatP= 4.89D-01
 IDIUse=3 WtCom= 6.07D-01 WtEn= 3.93D-01
 Coeff-Com:  0.100D+01
 Coeff-En:   0.100D+01
 Coeff:      0.100D+01
 Gap=     0.125 Goal=   None    Shift=    0.000
 GapD=    0.125 DampG=1.000 DampE=0.500 DampFc=0.5000 IDamp=-1.
 Damping current iteration by 5.00D-01
 RMSDP=4.52D-03 MaxDP=2.69D-01              OVMax= 3.63D-01

 Cycle   2  Pass 0  IDiag  1:
 E= -491.607545552362     Delta-E=       -0.097258173061 Rises=F Damp=T
 DIIS: error= 2.05D-02 at cycle   2 NSaved=   2.
 NSaved= 2 IEnMin= 2 EnMin= -491.607545552362     IErMin= 2 ErrMin= 2.05D-02
 ErrMax= 2.05D-02  0.00D+00 EMaxC= 1.00D-01 BMatC= 7.85D-02 BMatP= 4.89D-01
 IDIUse=3 WtCom= 7.95D-01 WtEn= 2.05D-01
 Coeff-Com:  0.226D+00 0.774D+00
 Coeff-En:   0.371D+00 0.629D+00
 Coeff:      0.255D+00 0.745D+00
 Gap=     0.151 Goal=   None    Shift=    0.000
 RMSDP=1.56D-03 MaxDP=9.35D-02 DE=-9.73D-02 OVMax= 3.60D-01

 Cycle   3  Pass 0  IDiag  1:
 E= -491.882307579813     Delta-E=       -0.274762027451 Rises=F Damp=F
 DIIS: error= 1.01D-02 at cycle   3 NSaved=   3.
 NSaved= 3 IEnMin= 3 EnMin= -491.882307579813     IErMin= 3 ErrMin= 1.01D-02
 ErrMax= 1.01D-02  0.00D+00 EMaxC= 1.00D-01 BMatC= 3.05D-02 BMatP= 7.85D-02
 IDIUse=3 WtCom= 8.99D-01 WtEn= 1.01D-01
 Coeff-Com:  0.670D-01 0.378D+00 0.555D+00
 Coeff-En:   0.000D+00 0.000D+00 0.100D+01
 Coeff:      0.602D-01 0.340D+00 0.600D+00
 Gap=     0.151 Goal=   None    Shift=    0.000
 RMSDP=9.06D-04 MaxDP=4.45D-02 DE=-2.75D-01 OVMax= 9.16D-02

 Cycle   4  Pass 0  IDiag  1:
 E= -491.906127440137     Delta-E=       -0.023819860324 Rises=F Damp=F
 DIIS: error= 3.95D-03 at cycle   4 NSaved=   4.
 NSaved= 4 IEnMin= 4 EnMin= -491.906127440137     IErMin= 4 ErrMin= 3.95D-03
 ErrMax= 3.95D-03  0.00D+00 EMaxC= 1.00D-01 BMatC= 6.79D-03 BMatP= 3.05D-02
 IDIUse=3 WtCom= 9.61D-01 WtEn= 3.95D-02
 Coeff-Com:  0.201D-01 0.992D-01 0.334D+00 0.547D+00
 Coeff-En:   0.000D+00 0.000D+00 0.181D+00 0.819D+00
 Coeff:      0.193D-01 0.953D-01 0.328D+00 0.557D+00
 Gap=     0.151 Goal=   None    Shift=    0.000
 RMSDP=3.41D-04 MaxDP=1.58D-02 DE=-2.38D-02 OVMax= 3.98D-02

 Cycle   5  Pass 0  IDiag  1:
 E= -491.911121653721     Delta-E=       -0.004994213584 Rises=F Damp=F
 DIIS: error= 2.26D-03 at cycle   5 NSaved=   5.
 NSaved= 5 IEnMin= 5 EnMin= -491.911121653721     IErMin= 5 ErrMin= 2.26D-03
 ErrMax= 2.26D-03  0.00D+00 EMaxC= 1.00D-01 BMatC= 2.03D-03 BMatP= 6.79D-03
 IDIUse=3 WtCom= 9.77D-01 WtEn= 2.26D-02
 Coeff-Com:  0.564D-02 0.212D-01 0.164D+00 0.401D+00 0.408D+00
 Coeff-En:   0.000D+00 0.000D+00 0.000D+00 0.211D+00 0.789D+00
 Coeff:      0.551D-02 0.207D-01 0.160D+00 0.397D+00 0.417D+00
 Gap=     0.153 Goal=   None    Shift=    0.000
 RMSDP=1.64D-04 MaxDP=1.24D-02 DE=-4.99D-03 OVMax= 2.58D-02

 Cycle   6  Pass 0  IDiag  1:
 E= -491.912571371399     Delta-E=       -0.001449717678 Rises=F Damp=F
 DIIS: error= 9.58D-04 at cycle   6 NSaved=   6.
 NSaved= 6 IEnMin= 6 EnMin= -491.912571371399     IErMin= 6 ErrMin= 9.58D-04
 ErrMax= 9.58D-04  0.00D+00 EMaxC= 1.00D-01 BMatC= 3.50D-04 BMatP= 2.03D-03
 IDIUse=3 WtCom= 9.90D-01 WtEn= 9.58D-03
 Coeff-Com:  0.151D-02 0.314D-02 0.720D-01 0.212D+00 0.311D+00 0.401D+00
 Coeff-En:   0.000D+00 0.000D+00 0.000D+00 0.000D+00 0.154D+00 0.846D+00
 Coeff:      0.150D-02 0.311D-02 0.714D-01 0.210D+00 0.309D+00 0.405D+00
 Gap=     0.154 Goal=   None    Shift=    0.000
 RMSDP=6.35D-05 MaxDP=4.75D-03 DE=-1.45D-03 OVMax= 9.50D-03

 Cycle   7  Pass 0  IDiag  1:
 E= -491.912838827122     Delta-E=       -0.000267455723 Rises=F Damp=F
 DIIS: error= 1.95D-04 at cycle   7 NSaved=   7.
 NSaved= 7 IEnMin= 7 EnMin= -491.912838827122     IErMin= 7 ErrMin= 1.95D-04
 ErrMax= 1.95D-04  0.00D+00 EMaxC= 1.00D-01 BMatC= 1.70D-05 BMatP= 3.50D-04
 IDIUse=3 WtCom= 9.98D-01 WtEn= 1.95D-03
 Coeff-Com:  0.105D-03-0.177D-02 0.171D-01 0.606D-01 0.117D+00 0.235D+00
 Coeff-Com:  0.572D+00
 Coeff-En:   0.000D+00 0.000D+00 0.000D+00 0.000D+00 0.000D+00 0.150D-01
 Coeff-En:   0.985D+00
 Coeff:      0.105D-03-0.177D-02 0.171D-01 0.605D-01 0.117D+00 0.234D+00
 Coeff:      0.573D+00
 Gap=     0.154 Goal=   None    Shift=    0.000
 RMSDP=1.52D-05 MaxDP=7.35D-04 DE=-2.67D-04 OVMax= 1.62D-03

 Cycle   8  Pass 0  IDiag  1:
 E= -491.912853771736     Delta-E=       -0.000014944614 Rises=F Damp=F
 DIIS: error= 5.38D-05 at cycle   8 NSaved=   8.
 NSaved= 8 IEnMin= 8 EnMin= -491.912853771736     IErMin= 8 ErrMin= 5.38D-05
 ErrMax= 5.38D-05  0.00D+00 EMaxC= 1.00D-01 BMatC= 1.02D-06 BMatP= 1.70D-05
 IDIUse=1 WtCom= 1.00D+00 WtEn= 0.00D+00
 Coeff-Com: -0.417D-04-0.134D-02 0.414D-02 0.177D-01 0.395D-01 0.960D-01
 Coeff-Com:  0.296D+00 0.548D+00
 Coeff:     -0.417D-04-0.134D-02 0.414D-02 0.177D-01 0.395D-01 0.960D-01
 Coeff:      0.296D+00 0.548D+00
 Gap=     0.154 Goal=   None    Shift=    0.000
 RMSDP=3.82D-06 MaxDP=2.68D-04 DE=-1.49D-05 OVMax= 4.79D-04

 Initial convergence to 1.0D-05 achieved.  Increase integral accuracy.
 Cycle   9  Pass 1  IDiag  1:
 E= -491.912792814320     Delta-E=        0.000060957416 Rises=F Damp=F
 DIIS: error= 2.67D-05 at cycle   1 NSaved=   1.
 NSaved= 1 IEnMin= 1 EnMin= -491.912792814320     IErMin= 1 ErrMin= 2.67D-05
 ErrMax= 2.67D-05  0.00D+00 EMaxC= 1.00D-01 BMatC= 3.49D-07 BMatP= 3.49D-07
 IDIUse=1 WtCom= 1.00D+00 WtEn= 0.00D+00
 Coeff-Com:  0.100D+01
 Coeff:      0.100D+01
 Gap=     0.154 Goal=   None    Shift=    0.000
 RMSDP=3.82D-06 MaxDP=2.68D-04 DE= 6.10D-05 OVMax= 3.12D-04

 Cycle  10  Pass 1  IDiag  1:
 E= -491.912792968177     Delta-E=       -0.000000153857 Rises=F Damp=F
 DIIS: error= 2.07D-05 at cycle   2 NSaved=   2.
 NSaved= 2 IEnMin= 2 EnMin= -491.912792968177     IErMin= 2 ErrMin= 2.07D-05
 ErrMax= 2.07D-05  0.00D+00 EMaxC= 1.00D-01 BMatC= 1.71D-07 BMatP= 3.49D-07
 IDIUse=1 WtCom= 1.00D+00 WtEn= 0.00D+00
 Coeff-Com:  0.376D+00 0.624D+00
 Coeff:      0.376D+00 0.624D+00
 Gap=     0.154 Goal=   None    Shift=    0.000
 RMSDP=2.50D-06 MaxDP=1.34D-04 DE=-1.54D-07 OVMax= 3.22D-04

 Cycle  11  Pass 1  IDiag  1:
 E= -491.912793041596     Delta-E=       -0.000000073419 Rises=F Damp=F
 DIIS: error= 1.41D-05 at cycle   3 NSaved=   3.
 NSaved= 3 IEnMin= 3 EnMin= -491.912793041596     IErMin= 3 ErrMin= 1.41D-05
 ErrMax= 1.41D-05  0.00D+00 EMaxC= 1.00D-01 BMatC= 1.01D-07 BMatP= 1.71D-07
 IDIUse=1 WtCom= 1.00D+00 WtEn= 0.00D+00
 Coeff-Com:  0.262D-01 0.428D+00 0.546D+00
 Coeff:      0.262D-01 0.428D+00 0.546D+00
 Gap=     0.154 Goal=   None    Shift=    0.000
 RMSDP=1.22D-06 MaxDP=8.76D-05 DE=-7.34D-08 OVMax= 1.61D-04

 Cycle  12  Pass 1  IDiag  1:
 E= -491.912793120448     Delta-E=       -0.000000078853 Rises=F Damp=F
 DIIS: error= 7.41D-06 at cycle   4 NSaved=   4.
 NSaved= 4 IEnMin= 4 EnMin= -491.912793120448     IErMin= 4 ErrMin= 7.41D-06
 ErrMax= 7.41D-06  0.00D+00 EMaxC= 1.00D-01 BMatC= 2.23D-08 BMatP= 1.01D-07
 IDIUse=1 WtCom= 1.00D+00 WtEn= 0.00D+00
 Coeff-Com: -0.113D-01 0.260D+00 0.397D+00 0.354D+00
 Coeff:     -0.113D-01 0.260D+00 0.397D+00 0.354D+00
 Gap=     0.154 Goal=   None    Shift=    0.000
 RMSDP=5.22D-07 MaxDP=4.09D-05 DE=-7.89D-08 OVMax= 7.70D-05

 Cycle  13  Pass 1  IDiag  1:
 E= -491.912793136555     Delta-E=       -0.000000016107 Rises=F Damp=F
 DIIS: error= 1.91D-06 at cycle   5 NSaved=   5.
 NSaved= 5 IEnMin= 5 EnMin= -491.912793136555     IErMin= 5 ErrMin= 1.91D-06
 ErrMax= 1.91D-06  0.00D+00 EMaxC= 1.00D-01 BMatC= 1.43D-09 BMatP= 2.23D-08
 IDIUse=1 WtCom= 1.00D+00 WtEn= 0.00D+00
 Coeff-Com: -0.964D-02 0.138D+00 0.220D+00 0.247D+00 0.405D+00
 Coeff:     -0.964D-02 0.138D+00 0.220D+00 0.247D+00 0.405D+00
 Gap=     0.154 Goal=   None    Shift=    0.000
 RMSDP=1.26D-07 MaxDP=5.89D-06 DE=-1.61D-08 OVMax= 1.58D-05

 Cycle  14  Pass 1  IDiag  1:
 E= -491.912793137873     Delta-E=       -0.000000001318 Rises=F Damp=F
 DIIS: error= 3.61D-07 at cycle   6 NSaved=   6.
 NSaved= 6 IEnMin= 6 EnMin= -491.912793137873     IErMin= 6 ErrMin= 3.61D-07
 ErrMax= 3.61D-07  0.00D+00 EMaxC= 1.00D-01 BMatC= 4.36D-11 BMatP= 1.43D-09
 IDIUse=1 WtCom= 1.00D+00 WtEn= 0.00D+00
 Coeff-Com: -0.385D-02 0.462D-01 0.751D-01 0.955D-01 0.206D+00 0.582D+00
 Coeff:     -0.385D-02 0.462D-01 0.751D-01 0.955D-01 0.206D+00 0.582D+00
 Gap=     0.154 Goal=   None    Shift=    0.000
 RMSDP=2.40D-08 MaxDP=1.30D-06 DE=-1.32D-09 OVMax= 2.50D-06

 Cycle  15  Pass 1  IDiag  1:
 E= -491.912793137904     Delta-E=       -0.000000000031 Rises=F Damp=F
 DIIS: error= 1.01D-07 at cycle   7 NSaved=   7.
 NSaved= 7 IEnMin= 7 EnMin= -491.912793137904     IErMin= 7 ErrMin= 1.01D-07
 ErrMax= 1.01D-07  0.00D+00 EMaxC= 1.00D-01 BMatC= 3.70D-12 BMatP= 4.36D-11
 IDIUse=1 WtCom= 1.00D+00 WtEn= 0.00D+00
 Coeff-Com: -0.944D-03 0.897D-02 0.149D-01 0.227D-01 0.576D-01 0.269D+00
 Coeff-Com:  0.628D+00
 Coeff:     -0.944D-03 0.897D-02 0.149D-01 0.227D-01 0.576D-01 0.269D+00
 Coeff:      0.628D+00
 Gap=     0.154 Goal=   None    Shift=    0.000
 RMSDP=7.28D-09 MaxDP=4.31D-07 DE=-3.08D-11 OVMax= 7.36D-07

 SCF Done:  E(RB3LYP) =  -491.912793138     A.U. after   15 cycles
            NFock= 15  Conv=0.73D-08     -V/T= 2.0021
 KE= 4.908642642880D+02 PE=-2.186623413284D+03 EE= 6.854528054570D+02
 Leave Link  502 at Tue Aug 24 14:55:28 2021, MaxMem= 24159191040 cpu:       242.7
 (Enter /public/home/users/caep010/software/Gaussian09/g09/l601.exe)
 Copying SCF densities to generalized density rwf, IOpCl= 0 IROHF=0.

 **********************************************************************

            Population analysis using the SCF density.

 **********************************************************************

 Orbital symmetries:
       Occupied  (A) (A) (A) (A) (A) (A) (A) (A) (A) (A) (A) (A)
                 (A) (A) (A) (A) (A) (A) (A) (A) (A) (A) (A) (A)
                 (A) (A) (A) (A) (A) (A) (A) (A) (A) (A) (A) (A)
       Virtual   (A) (A) (A) (A) (A) (A) (A) (A) (A) (A) (A) (A)
                 (A) (A) (A) (A) (A) (A) (A) (A) (A) (A) (A) (A)
                 (A) (A) (A) (A) (A) (A) (A) (A) (A) (A) (A) (A)
                 (A) (A) (A) (A) (A) (A) (A) (A) (A) (A) (A) (A)
                 (A) (A) (A) (A) (A) (A) (A) (A) (A) (A) (A) (A)
                 (A) (A) (A) (A) (A) (A) (A) (A) (A) (A) (A) (A)
                 (A) (A) (A) (A) (A) (A) (A) (A) (A) (A) (A) (A)
                 (A) (A) (A) (A) (A) (A) (A) (A) (A) (A) (A) (A)
                 (A) (A) (A) (A) (A) (A) (A) (A) (A) (A) (A) (A)
                 (A) (A) (A) (A) (A) (A) (A) (A) (A) (A) (A) (A)
                 (A) (A) (A) (A) (A) (A) (A) (A) (A) (A) (A) (A)
                 (A) (A) (A) (A) (A) (A) (A) (A) (A) (A) (A) (A)
                 (A) (A) (A) (A) (A) (A) (A) (A) (A) (A) (A) (A)
                 (A) (A) (A) (A) (A) (A) (A) (A) (A) (A) (A) (A)
                 (A) (A) (A) (A) (A) (A) (A) (A) (A) (A) (A) (A)
                 (A) (A) (A) (A) (A) (A) (A) (A) (A) (A) (A) (A)
                 (A) (A) (A) (A) (A) (A) (A) (A) (A) (A) (A) (A)
                 (A) (A) (A) (A) (A) (A) (A) (A) (A) (A) (A) (A)
                 (A) (A) (A) (A) (A) (A) (A) (A) (A) (A) (A) (A)
                 (A) (A) (A) (A) (A) (A) (A) (A) (A) (A) (A) (A)
                 (A) (A) (A) (A) (A) (A) (A) (A) (A) (A) (A) (A)
                 (A) (A) (A) (A) (A) (A) (A) (A) (A) (A) (A) (A)
                 (A) (A) (A) (A) (A) (A) (A) (A) (A) (A)
 The electronic state is 1-A.
 Alpha  occ. eigenvalues --  -19.15477 -19.15210 -14.55081 -14.33775 -10.25742
 Alpha  occ. eigenvalues --  -10.23244 -10.19551 -10.19051 -10.17865 -10.17119
 Alpha  occ. eigenvalues --   -1.21758  -1.03646  -0.99113  -0.88255  -0.81382
 Alpha  occ. eigenvalues --   -0.77994  -0.70934  -0.65294  -0.64183  -0.57002
 Alpha  occ. eigenvalues --   -0.56579  -0.53908  -0.52535  -0.50212  -0.49748
 Alpha  occ. eigenvalues --   -0.46287  -0.45322  -0.41140  -0.40353  -0.37363
 Alpha  occ. eigenvalues --   -0.34189  -0.29799  -0.29485  -0.27794  -0.27464
 Alpha  occ. eigenvalues --   -0.22717
 Alpha virt. eigenvalues --   -0.07323  -0.00203   0.01795   0.08270   0.12078
 Alpha virt. eigenvalues --    0.16053   0.16894   0.17419   0.18981   0.21339
 Alpha virt. eigenvalues --    0.22218   0.25543   0.27066   0.28266   0.31360
 Alpha virt. eigenvalues --    0.32862   0.34928   0.37678   0.38476   0.41520
 Alpha virt. eigenvalues --    0.44879   0.46100   0.47942   0.48655   0.49587
 Alpha virt. eigenvalues --    0.51116   0.51578   0.53454   0.56327   0.56584
 Alpha virt. eigenvalues --    0.57092   0.58734   0.59040   0.60301   0.61791
 Alpha virt. eigenvalues --    0.66570   0.67085   0.68386   0.70615   0.72244
 Alpha virt. eigenvalues --    0.73494   0.74544   0.76244   0.76483   0.78530
 Alpha virt. eigenvalues --    0.80791   0.81898   0.82490   0.83453   0.84327
 Alpha virt. eigenvalues --    0.85666   0.87248   0.87466   0.90677   0.90973
 Alpha virt. eigenvalues --    0.91527   0.94752   0.94893   0.97008   0.98819
 Alpha virt. eigenvalues --    1.00198   1.00269   1.01321   1.02056   1.04521
 Alpha virt. eigenvalues --    1.05947   1.07817   1.11730   1.14615   1.16221
 Alpha virt. eigenvalues --    1.19074   1.23914   1.25484   1.25987   1.27464
 Alpha virt. eigenvalues --    1.28874   1.34890   1.37034   1.38687   1.39728
 Alpha virt. eigenvalues --    1.41629   1.42130   1.43891   1.44551   1.47039
 Alpha virt. eigenvalues --    1.48195   1.50017   1.54376   1.55856   1.56884
 Alpha virt. eigenvalues --    1.57153   1.58937   1.64108   1.69611   1.70362
 Alpha virt. eigenvalues --    1.71929   1.76749   1.76951   1.78201   1.81127
 Alpha virt. eigenvalues --    1.85343   1.87236   1.90661   1.93387   1.94491
 Alpha virt. eigenvalues --    1.96233   1.98421   2.02335   2.13320   2.15197
 Alpha virt. eigenvalues --    2.17728   2.19989   2.22376   2.28782   2.29954
 Alpha virt. eigenvalues --    2.33947   2.35233   2.36799   2.42065   2.43988
 Alpha virt. eigenvalues --    2.50884   2.51998   2.59980   2.73168   2.76530
 Alpha virt. eigenvalues --    2.79367   2.84653   2.85116   2.88496   2.90631
 Alpha virt. eigenvalues --    2.92439   2.97225   3.02979   3.05154   3.05487
 Alpha virt. eigenvalues --    3.06323   3.07262   3.08210   3.09346   3.12145
 Alpha virt. eigenvalues --    3.13353   3.16908   3.20157   3.21079   3.21384
 Alpha virt. eigenvalues --    3.26620   3.27835   3.30613   3.30873   3.32081
 Alpha virt. eigenvalues --    3.35971   3.37473   3.41778   3.43781   3.44992
 Alpha virt. eigenvalues --    3.45245   3.47105   3.49004   3.51889   3.54025
 Alpha virt. eigenvalues --    3.57508   3.61114   3.62922   3.64769   3.65071
 Alpha virt. eigenvalues --    3.67828   3.71408   3.72920   3.75837   3.76500
 Alpha virt. eigenvalues --    3.77447   3.83216   3.84529   3.86509   3.87320
 Alpha virt. eigenvalues --    3.93080   3.96665   4.01997   4.04584   4.05863
 Alpha virt. eigenvalues --    4.06892   4.09869   4.12139   4.13908   4.15806
 Alpha virt. eigenvalues --    4.17180   4.20192   4.23581   4.26420   4.28099
 Alpha virt. eigenvalues --    4.29112   4.30815   4.32848   4.33451   4.38775
 Alpha virt. eigenvalues --    4.43344   4.45953   4.46643   4.48506   4.48767
 Alpha virt. eigenvalues --    4.49686   4.51659   4.54177   4.55505   4.57490
 Alpha virt. eigenvalues --    4.57934   4.58536   4.60424   4.61645   4.62419
 Alpha virt. eigenvalues --    4.64376   4.68428   4.69070   4.70491   4.72967
 Alpha virt. eigenvalues --    4.73871   4.80981   4.84225   4.85414   4.90477
 Alpha virt. eigenvalues --    4.95033   4.96902   5.00493   5.03351   5.04771
 Alpha virt. eigenvalues --    5.06563   5.08696   5.10118   5.11437   5.12857
 Alpha virt. eigenvalues --    5.16195   5.18598   5.22160   5.23789   5.35201
 Alpha virt. eigenvalues --    5.38363   5.38634   5.43075   5.46374   5.56088
 Alpha virt. eigenvalues --    5.60495   5.62489   5.63756   5.64323   5.71195
 Alpha virt. eigenvalues --    5.80082   5.84801   5.90940   5.98697   6.00489
 Alpha virt. eigenvalues --    6.05609   6.07037   6.19592   6.25482   6.27479
 Alpha virt. eigenvalues --    6.35609   6.43223   6.64383   6.76487   6.95992
 Alpha virt. eigenvalues --    7.10239   9.31809   9.63147  10.53656  10.57911
 Alpha virt. eigenvalues --   11.26899  11.35433  11.60298  11.77532  12.80171
 Alpha virt. eigenvalues --   13.00375  13.26617  14.85660  20.45488
          Condensed to atoms (all electrons):
               1          2          3          4          5          6
     1  C    4.706500   0.345589  -0.047815   0.006097  -0.060149   0.003434
     2  C    0.345589   4.996607   0.422574  -0.028724   0.020366   0.001849
     3  C   -0.047815   0.422574   4.918064   0.336085   0.544898  -0.016050
     4  H    0.006097  -0.028724   0.336085   0.583250  -0.031260  -0.003784
     5  C   -0.060149   0.020366   0.544898  -0.031260   4.739823   0.330959
     6  H    0.003434   0.001849  -0.016050  -0.003784   0.330959   0.627002
     7  C    0.048460  -0.065099   0.034323   0.002768   0.525940  -0.031019
     8  H    0.003000   0.002173   0.001650  -0.000339  -0.035997  -0.003104
     9  C    0.455568  -0.004604  -0.061536   0.001642   0.028954  -0.000663
    10  N    0.500365  -0.046520   0.000632  -0.000078   0.001129   0.000008
    11  H   -0.003365  -0.027418  -0.000733  -0.000015  -0.000082  -0.000001
    12  N   -0.023734   0.362966  -0.013298  -0.016361   0.001408  -0.000094
    13  O   -0.023608  -0.100287   0.008907   0.000592   0.000039   0.000001
    14  O    0.004590  -0.128673  -0.001822   0.029302   0.001423  -0.000007
    15  H   -0.037615   0.005099  -0.000047   0.000005  -0.000010  -0.000001
    16  H   -0.044389   0.008940   0.003083   0.000067   0.005005  -0.000703
               7          8          9         10         11         12
     1  C    0.048460   0.003000   0.455568   0.500365  -0.003365  -0.023734
     2  C   -0.065099   0.002173  -0.004604  -0.046520  -0.027418   0.362966
     3  C    0.034323   0.001650  -0.061536   0.000632  -0.000733  -0.013298
     4  H    0.002768  -0.000339   0.001642  -0.000078  -0.000015  -0.016361
     5  C    0.525940  -0.035997   0.028954   0.001129  -0.000082   0.001408
     6  H   -0.031019  -0.003104  -0.000663   0.000008  -0.000001  -0.000094
     7  C    4.731200   0.350146   0.592491   0.001088  -0.000134   0.000295
     8  H    0.350146   0.612524  -0.026561  -0.000106   0.000009   0.000006
     9  C    0.592491  -0.026561   4.742040  -0.026887   0.014208   0.000492
    10  N    0.001088  -0.000106  -0.026887   6.249714   0.363630  -0.007357
    11  H   -0.000134   0.000009   0.014208   0.363630   0.507834   0.002202
    12  N    0.000295   0.000006   0.000492  -0.007357   0.002202   5.289545
    13  O   -0.000051  -0.000000   0.000613  -0.010815   0.043053   0.493724
    14  O   -0.000023   0.000000  -0.000041   0.000065   0.000467   0.546056
    15  H    0.000023  -0.000038  -0.011015   0.363575  -0.033056   0.000032
    16  H   -0.044290  -0.006748   0.327634  -0.017105  -0.000734  -0.000122
              13         14         15         16
     1  C   -0.023608   0.004590  -0.037615  -0.044389
     2  C   -0.100287  -0.128673   0.005099   0.008940
     3  C    0.008907  -0.001822  -0.000047   0.003083
     4  H    0.000592   0.029302   0.000005   0.000067
     5  C    0.000039   0.001423  -0.000010   0.005005
     6  H    0.000001  -0.000007  -0.000001  -0.000703
     7  C   -0.000051  -0.000023   0.000023  -0.044290
     8  H   -0.000000   0.000000  -0.000038  -0.006748
     9  C    0.000613  -0.000041  -0.011015   0.327634
    10  N   -0.010815   0.000065   0.363575  -0.017105
    11  H    0.043053   0.000467  -0.033056  -0.000734
    12  N    0.493724   0.546056   0.000032  -0.000122
    13  O    8.104590  -0.102303   0.000789   0.000017
    14  O   -0.102303   8.008518   0.000004   0.000001
    15  H    0.000789   0.000004   0.455010   0.008216
    16  H    0.000017   0.000001   0.008216   0.703103
 Mulliken charges:
               1
     1  C    0.167073
     2  C    0.235162
     3  C   -0.128915
     4  H    0.120755
     5  C   -0.072446
     6  H    0.092171
     7  C   -0.146118
     8  H    0.103384
     9  C   -0.032336
    10  N   -0.371337
    11  H    0.134135
    12  N    0.364240
    13  O   -0.415262
    14  O   -0.357557
    15  H    0.249028
    16  H    0.058024
 Sum of Mulliken charges =  -0.00000
 Mulliken charges with hydrogens summed into heavy atoms:
               1
     1  C    0.167073
     2  C    0.235162
     3  C   -0.008161
     5  C    0.019725
     7  C   -0.042734
     9  C    0.025688
    10  N    0.011825
    12  N    0.364240
    13  O   -0.415262
    14  O   -0.357557
 Electronic spatial extent (au):  <R**2>=           1286.2983
 Charge=             -0.0000 electrons
 Dipole moment (field-independent basis, Debye):
    X=             -4.4763    Y=              2.2518    Z=             -0.0640  Tot=              5.0112
 Quadrupole moment (field-independent basis, Debye-Ang):
   XX=            -60.4272   YY=            -47.3837   ZZ=            -56.8577
   XY=              0.9775   XZ=              0.0547   YZ=             -0.5544
 Traceless Quadrupole moment (field-independent basis, Debye-Ang):
   XX=             -5.5376   YY=              7.5058   ZZ=             -1.9682
   XY=              0.9775   XZ=              0.0547   YZ=             -0.5544
 Octapole moment (field-independent basis, Debye-Ang**2):
  XXX=            -23.5297  YYY=             29.2640  ZZZ=             -0.2475  XYY=             -6.5687
  XXY=              4.5434  XXZ=             -0.1163  XZZ=             11.3540  YZZ=              0.3165
  YYZ=             -0.5336  XYZ=             -0.8760
 Hexadecapole moment (field-independent basis, Debye-Ang**3):
 XXXX=           -977.7274 YYYY=           -463.9843 ZZZZ=            -52.0456 XXXY=              9.0949
 XXXZ=              0.9381 YYYX=             -0.1006 YYYZ=             -3.1715 ZZZX=             -0.3838
 ZZZY=             -0.1287 XXYY=           -255.6373 XXZZ=           -173.3369 YYZZ=           -108.6398
 XXYZ=              0.0515 YYXZ=             -0.1524 ZZXY=             -3.3945
 N-N= 5.183935504013D+02 E-N=-2.186623434334D+03  KE= 4.908642642880D+02
 No NMR shielding tensors so no spin-rotation constants.
 Leave Link  601 at Tue Aug 24 14:55:29 2021, MaxMem= 24159191040 cpu:        14.5
 (Enter /public/home/users/caep010/software/Gaussian09/g09/l701.exe)
 Compute integral first derivatives.
 ... and contract with generalized density number  0.
 Leave Link  701 at Tue Aug 24 14:55:30 2021, MaxMem= 24159191040 cpu:        14.8
 (Enter /public/home/users/caep010/software/Gaussian09/g09/l702.exe)
 L702 exits ... SP integral derivatives will be done elsewhere.
 Leave Link  702 at Tue Aug 24 14:55:30 2021, MaxMem= 24159191040 cpu:         0.8
 (Enter /public/home/users/caep010/software/Gaussian09/g09/l703.exe)
 Compute integral first derivatives, UseDBF=F ICtDFT=           0.
 Integral derivatives from FoFJK, PRISM(SPDF).
 Calling FoFJK, ICntrl=      2127 FMM=F ISym2X=0 I1Cent= 0 IOpClX= 0 NMat=1 NMatS=1 NMatT=0.
 FoFJK:  IHMeth= 1 ICntrl=    2127 DoSepK=F KAlg= 0 I1Cent=   0 FoldK=F
 IRaf=         0 NMat=   1 IRICut=       1 DoRegI=T DoRafI=F ISym2E= 0.
 FoFCou: FMM=F IPFlag=           0 FMFlag=      100000 FMFlg1=         800
         NFxFlg=           0 DoJE=F BraDBF=F KetDBF=F FulRan=T
         wScrn=  0.000000 ICntrl=    2127 IOpCl=  0 I1Cent=           0 NGrid=           0
         NMat0=    1 NMatS0=      1 NMatT0=    0 NMatD0=    1 NMtDS0=    0 NMtDT0=    0
 Symmetry not used in FoFCou.
 Leave Link  703 at Tue Aug 24 14:55:35 2021, MaxMem= 24159191040 cpu:       148.2
 (Enter /public/home/users/caep010/software/Gaussian09/g09/l716.exe)
 Dipole        =-1.76109783D+00 8.85929964D-01-2.51844454D-02
 ***** Axes restored to original set *****
 -------------------------------------------------------------------
 Center     Atomic                   Forces (Hartrees/Bohr)
 Number     Number              X              Y              Z
 -------------------------------------------------------------------
      1        6          -0.019019450    0.020219563   -0.007520694
      2        6           0.009685495   -0.017505891   -0.003514003
      3        6           0.045412270   -0.052031988    0.031026284
      4        1          -0.060847032    0.080490310   -0.019820914
      5        6           0.069554964   -0.028192339    0.144840206
      6        1          -0.072824378    0.014165920   -0.180613376
      7        6          -0.010363139    0.032166433    0.036073957
      8        1           0.013285449   -0.040739807   -0.049907719
      9        6          -0.108725593    0.137547343   -0.020784379
     10        7           0.198770086   -0.377623292   -0.641878580
     11        1          -0.202152477    0.388177120    0.653923554
     12        7           0.009413521   -0.002830447    0.019494288
     13        8           0.005214815   -0.007380270    0.000167737
     14        8          -0.016371728    0.017559830   -0.011461176
     15        1           0.010002154   -0.013715004    0.000549669
     16        1           0.128965044   -0.150307480    0.049425146
 -------------------------------------------------------------------
 Cartesian Forces:  Max     0.653923554 RMS     0.169357074
 Leave Link  716 at Tue Aug 24 14:55:35 2021, MaxMem= 24159191040 cpu:         1.2
 (Enter /public/home/users/caep010/software/Gaussian09/g09/l103.exe)

 GradGradGradGradGradGradGradGradGradGradGradGradGradGradGradGradGradGrad
 Berny optimization.
 FormGI is forming the generalized inverse of G from B-inverse, IUseBI=4.
 Internal  Forces:  Max     0.786770579 RMS     0.099917145
 Search for a local minimum.
 Step number   1 out of a maximum of   82
 All quantities printed in internal units (Hartrees-Bohrs-Radians)
 RMS Force = .99917D-01 SwitMx=.10000D-02 MixMth= 1
 Mixed Optimization -- RFO/linear search
 Second derivative matrix not updated -- first step.
 ITU=  0
     Eigenvalues ---    0.01368   0.01369   0.01807   0.01929   0.02108
     Eigenvalues ---    0.02317   0.02356   0.02478   0.02480   0.02511
     Eigenvalues ---    0.02551   0.02555   0.02648   0.15929   0.15970
     Eigenvalues ---    0.15987   0.15998   0.16000   0.16000   0.22001
     Eigenvalues ---    0.22468   0.24458   0.24994   0.25000   0.25000
     Eigenvalues ---    0.25000   0.40579   0.41797   0.42055   0.44924
     Eigenvalues ---    0.46160   0.46300   0.49939   0.52431   0.53463
     Eigenvalues ---    0.55132   0.57081   0.66807   0.67941   0.87461
     Eigenvalues ---    1.00163   1.82053
 RFO step:  Lambda=-3.80542298D-01 EMin= 1.36832281D-02
 Linear search not attempted -- first point.
 Maximum step size (   0.300) exceeded in Quadratic search.
    -- Step size scaled by   0.628
 Iteration  1 RMS(Cart)=  0.03992917 RMS(Int)=  0.00290866
 Iteration  2 RMS(Cart)=  0.00278514 RMS(Int)=  0.00000714
 Iteration  3 RMS(Cart)=  0.00000620 RMS(Int)=  0.00000376
 Iteration  4 RMS(Cart)=  0.00000000 RMS(Int)=  0.00000376
 ITry= 1 IFail=0 DXMaxC= 1.82D-01 DCOld= 1.00D+10 DXMaxT= 3.00D-01 DXLimC= 3.00D+00 Rises=F
 Variable       Old X    -DE/DX   Delta X   Delta X   Delta X     New X
                                 (Linear)    (Quad)   (Total)
    R1        2.68281  -0.00387   0.00000  -0.00367  -0.00367   2.67914
    R2        2.66520   0.01180   0.00000   0.00876   0.00876   2.67396
    R3        2.53328   0.01451   0.00000   0.00958   0.00958   2.54286
    R4        2.63597   0.00978   0.00000   0.00696   0.00695   2.64292
    R5        2.69182   0.01100   0.00000   0.00865   0.00865   2.70048
    R6        1.84189   0.10261   0.00000   0.07123   0.07123   1.91311
    R7        2.54254   0.03074   0.00000   0.02079   0.02079   2.56333
    R8        1.72628   0.19454   0.00000   0.11653   0.11653   1.84281
    R9        2.63011   0.01801   0.00000   0.01392   0.01392   2.64403
   R10        1.90651   0.06508   0.00000   0.04854   0.04854   1.95505
   R11        2.54520   0.03197   0.00000   0.02171   0.02171   2.56691
   R12        1.71859   0.20317   0.00000   0.12039   0.12039   1.83898
   R13        1.33590   0.78677   0.00000   0.22452   0.22452   1.56042
   R14        1.86627   0.01694   0.00000   0.01209   0.01209   1.87836
   R15        2.34126   0.00243   0.00000   0.00122   0.00122   2.34247
   R16        2.28574   0.02626   0.00000   0.01193   0.01193   2.29767
    A1        2.03063   0.00474   0.00000   0.00356   0.00355   2.03418
    A2        2.17328  -0.00729   0.00000  -0.00668  -0.00667   2.16660
    A3        2.07928   0.00255   0.00000   0.00312   0.00312   2.08240
    A4        2.08466   0.01063   0.00000   0.00940   0.00940   2.09406
    A5        2.14228  -0.01268   0.00000  -0.01204  -0.01204   2.13024
    A6        2.05605   0.00206   0.00000   0.00264   0.00265   2.05869
    A7        2.04182   0.00206   0.00000   0.00212   0.00212   2.04394
    A8        2.12656  -0.00457   0.00000  -0.00468  -0.00467   2.12188
    A9        2.11084   0.00268   0.00000   0.00283   0.00282   2.11367
   A10        2.20369  -0.01056   0.00000  -0.01333  -0.01334   2.19036
   A11        2.08893  -0.00635   0.00000  -0.00524  -0.00523   2.08370
   A12        1.98866   0.01695   0.00000   0.01864   0.01864   2.00730
   A13        2.16301  -0.01048   0.00000  -0.01271  -0.01271   2.15030
   A14        2.09446   0.00312   0.00000   0.00471   0.00471   2.09917
   A15        2.02490   0.00740   0.00000   0.00807   0.00807   2.03297
   A16        2.14088  -0.00757   0.00000  -0.00774  -0.00775   2.13314
   A17        1.91357   0.02071   0.00000   0.02354   0.02354   1.93712
   A18        2.22862  -0.01314   0.00000  -0.01579  -0.01579   2.21283
   A19        2.19656  -0.00931   0.00000  -0.01079  -0.01079   2.18577
   A20        2.04240   0.00353   0.00000   0.00413   0.00413   2.04653
   A21        2.03373   0.00593   0.00000   0.00692   0.00692   2.04065
   A22        2.07561  -0.01040   0.00000  -0.01036  -0.01036   2.06525
   A23        2.07530   0.00045   0.00000   0.00045   0.00045   2.07576
   A24        2.13225   0.00995   0.00000   0.00991   0.00991   2.14216
    D1       -0.01151   0.00008   0.00000   0.00014   0.00014  -0.01137
    D2        3.10832   0.00035   0.00000   0.00052   0.00051   3.10883
    D3        3.12993  -0.00032   0.00000  -0.00047  -0.00046   3.12947
    D4       -0.03343  -0.00006   0.00000  -0.00009  -0.00009  -0.03352
    D5       -0.00651   0.00014   0.00000   0.00024   0.00024  -0.00626
    D6        3.11999   0.00030   0.00000   0.00054   0.00055   3.12054
    D7        3.13523   0.00052   0.00000   0.00082   0.00082   3.13605
    D8       -0.02145   0.00068   0.00000   0.00112   0.00113  -0.02033
    D9        0.16019  -0.00211   0.00000  -0.00327  -0.00327   0.15692
   D10        3.14052  -0.00028   0.00000  -0.00045  -0.00045   3.14007
   D11       -2.98156  -0.00252   0.00000  -0.00390  -0.00389  -2.98546
   D12       -0.00123  -0.00070   0.00000  -0.00108  -0.00107  -0.00231
   D13       -3.03217  -0.00231   0.00000  -0.00363  -0.00363  -3.03580
   D14        0.01471  -0.00014   0.00000  -0.00024  -0.00024   0.01447
   D15        0.13012  -0.00238   0.00000  -0.00380  -0.00380   0.12632
   D16       -3.10619  -0.00021   0.00000  -0.00040  -0.00041  -3.10659
   D17        0.03616  -0.00070   0.00000  -0.00105  -0.00105   0.03511
   D18       -3.09818  -0.00109   0.00000  -0.00166  -0.00166  -3.09984
   D19       -3.12686  -0.00033   0.00000  -0.00060  -0.00060  -3.12746
   D20        0.02198  -0.00072   0.00000  -0.00121  -0.00121   0.02077
   D21        3.07147   0.00149   0.00000   0.00214   0.00213   3.07361
   D22        0.00033   0.00002   0.00000  -0.00004  -0.00004   0.00030
   D23       -0.16853   0.00369   0.00000   0.00561   0.00560  -0.16293
   D24        3.04351   0.00222   0.00000   0.00343   0.00343   3.04694
   D25       -3.11479  -0.00109   0.00000  -0.00155  -0.00154  -3.11633
   D26       -0.01850   0.00029   0.00000   0.00045   0.00046  -0.01805
   D27        0.08895  -0.00144   0.00000  -0.00235  -0.00235   0.08660
   D28       -3.09795  -0.00006   0.00000  -0.00034  -0.00035  -3.09831
   D29        0.02171  -0.00032   0.00000  -0.00054  -0.00055   0.02117
   D30       -3.10192  -0.00084   0.00000  -0.00127  -0.00127  -3.10319
   D31        3.12147   0.00050   0.00000   0.00079   0.00079   3.12227
   D32       -0.00216  -0.00001   0.00000   0.00006   0.00007  -0.00209
         Item               Value     Threshold  Converged?
 Maximum Force            0.786771     0.000450     NO 
 RMS     Force            0.099917     0.000300     NO 
 Maximum Displacement     0.181690     0.001800     NO 
 RMS     Displacement     0.041868     0.001200     NO 
 Predicted change in Energy=-1.811044D-01
 Lowest energy point so far.  Saving SCF results.
 GradGradGradGradGradGradGradGradGradGradGradGradGradGradGradGradGradGrad

 Leave Link  103 at Tue Aug 24 14:55:35 2021, MaxMem= 24159191040 cpu:         4.5
 (Enter /public/home/users/caep010/software/Gaussian09/g09/l202.exe)
                          Input orientation:                          
 ---------------------------------------------------------------------
 Center     Atomic      Atomic             Coordinates (Angstroms)
 Number     Number       Type             X           Y           Z
 ---------------------------------------------------------------------
      1          6           0        8.186795    7.073219   -3.370269
      2          6           0        7.307571    8.137536   -3.693041
      3          6           0        6.818046    8.268784   -4.996554
      4          1           0        6.270458    9.094956   -5.202695
      5          6           0        7.150322    7.386909   -5.972187
      6          1           0        6.801728    7.392119   -6.882911
      7          6           0        8.002625    6.318922   -5.671142
      8          1           0        8.311430    5.625113   -6.373706
      9          6           0        8.509140    6.179106   -4.418540
     10          7           0        8.717256    6.875768   -2.149478
     11          1           0        8.501505    7.283577   -1.464654
     12          7           0        6.873030    9.085214   -2.715694
     13          8           0        7.314440    8.984571   -1.561747
     14          8           0        6.083844    9.949660   -3.044735
     15          1           0        9.321548    6.094679   -2.036601
     16          1           0        9.129862    5.494266   -4.114045
 ---------------------------------------------------------------------
                    Distance matrix (angstroms):
                    1          2          3          4          5
     1  C    0.000000
     2  C    1.417740   0.000000
     3  C    2.438781   1.398574   0.000000
     4  H    3.334299   2.066715   1.012376   0.000000
     5  C    2.818271   2.404719   1.356455   2.069710   0.000000
     6  H    3.789295   3.314634   2.080180   2.450515   0.975174
     7  C    2.428352   2.775489   2.379129   3.305481   1.399159
     8  H    3.336641   3.808669   3.334027   4.192450   2.147863
     9  C    1.414997   2.409474   2.749665   3.758827   2.391442
    10  N    1.345625   2.441691   3.695042   4.498194   4.162890
    11  H    1.942849   2.668414   4.034723   4.715042   4.706828
    12  N    2.490496   1.429030   2.423202   2.558978   3.683189
    13  O    2.772187   2.293454   3.543538   3.789273   4.693766
    14  O    3.578029   2.280702   2.678432   2.328549   4.034234
    15  H    2.005960   3.312576   4.444725   5.323059   4.676849
    16  H    1.983852   3.238034   3.717696   4.725073   3.309588
                    6          7          8          9         10
     6  H    0.000000
     7  C    2.015512   0.000000
     8  H    2.379243   1.034567   0.000000
     9  C    3.234158   1.358350   2.041732   0.000000
    10  N    5.132373   3.636329   4.424130   2.382707   0.000000
    11  H    5.679660   4.344419   5.185115   3.153627   0.825737
    12  N    4.498595   4.202740   5.236635   3.744597   2.933159
    13  O    5.577954   4.946353   5.952721   4.178422   2.600071
    14  O    4.667759   4.874627   5.894565   4.688975   4.145499
    15  H    5.614229   3.872948   4.477869   2.518088   0.993987
    16  H    4.085177   2.091715   2.406869   0.973149   2.436865
                   11         12         13         14         15
    11  H    0.000000
    12  N    2.731836   0.000000
    13  O    2.076519   1.239583   0.000000
    14  O    3.930616   1.215874   2.155230   0.000000
    15  H    1.553407   3.924246   3.550414   5.134193   0.000000
    16  H    3.258180   4.465824   4.689585   5.502017   2.170947
                   16
    16  H    0.000000
 Stoichiometry    C6H6N2O2
 Framework group  C1[X(C6H6N2O2)]
 Deg. of freedom    42
 Full point group                 C1      NOp   1
 RotChk:  IX=0 Diff= 2.28D-02
 Largest Abelian subgroup         C1      NOp   1
 Largest concise Abelian subgroup C1      NOp   1
                         Standard orientation:                         
 ---------------------------------------------------------------------
 Center     Atomic      Atomic             Coordinates (Angstroms)
 Number     Number       Type             X           Y           Z
 ---------------------------------------------------------------------
      1          6           0       -0.434752    0.980448    0.007579
      2          6           0        0.241350   -0.265640    0.019291
      3          6           0       -0.490166   -1.457632    0.026221
      4          1           0        0.032007   -2.318762    0.129646
      5          6           0       -1.846459   -1.458759    0.005300
      6          1           0       -2.411349   -2.252048   -0.045241
      7          6           0       -2.533681   -0.240361   -0.024296
      8          1           0       -3.565969   -0.171908   -0.019424
      9          6           0       -1.848821    0.932627   -0.010824
     10          7           0        0.183978    2.175371    0.013784
     11          1           0        0.995977    2.291894   -0.080676
     12          7           0        1.667435   -0.354954   -0.001509
     13          8           0        2.322917    0.697103    0.007656
     14          8           0        2.187576   -1.453462   -0.034417
     15          1           0       -0.391247    2.985931    0.002954
     16          1           0       -2.228077    1.828751    0.001280
 ---------------------------------------------------------------------
 Rotational constants (GHZ):      2.3801171      1.2904944      0.8369834
 Leave Link  202 at Tue Aug 24 14:55:35 2021, MaxMem= 24159191040 cpu:         0.3
 (Enter /public/home/users/caep010/software/Gaussian09/g09/l301.exe)
 Standard basis: GTBas3 (6D, 7F)
 Ernie: Thresh=  0.10000D-02 Tol=  0.10000D-05 Strict=F.
 There are   340 symmetry adapted cartesian basis functions of A   symmetry.
 There are   310 symmetry adapted basis functions of A   symmetry.
   310 basis functions,   482 primitive gaussians,   340 cartesian basis functions
    36 alpha electrons       36 beta electrons
       nuclear repulsion energy       515.1929314627 Hartrees.
 IExCor=  402 DFT=T Ex+Corr=B3LYP ExCW=0 ScaHFX=  0.200000
 ScaDFX=  0.800000  0.720000  1.000000  0.810000 ScalE2=  1.000000  1.000000
 IRadAn=      0 IRanWt=     -1 IRanGd=            0 ICorTp=0 IEmpDi=  4
 NAtoms=   16 NActive=   16 NUniq=   16 SFac= 1.00D+00 NAtFMM=   60 NAOKFM=F Big=F
 Integral buffers will be    131072 words long.
 Raffenetti 2 integral format.
 Two-electron integral symmetry is turned on.
 Leave Link  301 at Tue Aug 24 14:55:36 2021, MaxMem= 24159191040 cpu:         1.8
 (Enter /public/home/users/caep010/software/Gaussian09/g09/l302.exe)
 NPDir=0 NMtPBC=     1 NCelOv=     1 NCel=       1 NClECP=     1 NCelD=      1
         NCelK=      1 NCelE2=     1 NClLst=     1 CellRange=     0.0.
 One-electron integrals computed using PRISM.
 NBasis=   310 RedAO= T EigKep=  9.88D-05  NBF=   310
 NBsUse=   310 1.00D-06 EigRej= -1.00D+00 NBFU=   310
 Precomputing XC quadrature grid using
 IXCGrd= 4 IRadAn=           0 IRanWt=          -1 IRanGd=           0 AccXCQ= 0.00D+00.
 Generated NRdTot=       0 NPtTot=           0 NUsed=           0 NTot=          32
 NSgBfM=   340   340   340   340   340 MxSgAt=    16 MxSgA2=    16.
 Leave Link  302 at Tue Aug 24 14:55:36 2021, MaxMem= 24159191040 cpu:        16.0
 (Enter /public/home/users/caep010/software/Gaussian09/g09/l303.exe)
 DipDrv:  MaxL=1.
 Leave Link  303 at Tue Aug 24 14:55:36 2021, MaxMem= 24159191040 cpu:         0.9
 (Enter /public/home/users/caep010/software/Gaussian09/g09/l401.exe)
 Initial guess from the checkpoint file:  "/public/home/users/caep010/.cache/gau_scr/Gau-60644.chk"
 B after Tr=    -0.000000   -0.000000   -0.000000
         Rot=    0.999980   -0.000048    0.000036    0.006276 Ang=  -0.72 deg.
 Guess basis will be translated and rotated to current coordinates.
 JPrj=2 DoOrth=T DoCkMO=T.
 Generating alternative initial guess.
 ExpMin= 1.61D-01 ExpMax= 5.48D+03 ExpMxC= 8.25D+02 IAcc=1 IRadAn=         1 AccDes= 0.00D+00
 Harris functional with IExCor=  402 and IRadAn=       1 diagonalized for initial guess.
 HarFok:  IExCor=  402 AccDes= 0.00D+00 IRadAn=         1 IDoV= 1 UseB2=F ITyADJ=14
 ICtDFT=  3500011 ScaDFX=  1.000000  1.000000  1.000000  1.000000
 FoFCou: FMM=F IPFlag=           0 FMFlag=      100000 FMFlg1=           0
         NFxFlg=           0 DoJE=T BraDBF=F KetDBF=T FulRan=T
         wScrn=  0.000000 ICntrl=     500 IOpCl=  0 I1Cent=   200000004 NGrid=           0
         NMat0=    1 NMatS0=      1 NMatT0=    0 NMatD0=    1 NMtDS0=    0 NMtDT0=    0
 Petite list used in FoFCou.
 Harris En= -492.153238960063    
 Leave Link  401 at Tue Aug 24 14:55:37 2021, MaxMem= 24159191040 cpu:        19.1
 (Enter /public/home/users/caep010/software/Gaussian09/g09/l502.exe)
 Closed shell SCF:
 Using DIIS extrapolation, IDIIS=  1040.
 Integral symmetry usage will be decided dynamically.
 Keep R1 ints in memory in canonical form, NReq=1182089545.
 IVT=      378690 IEndB=      378690 NGot= 24159191040 MDV= 22996927236
 LenX= 22996927236 LenY= 22996811195
 Requested convergence on RMS density matrix=1.00D-08 within 128 cycles.
 Requested convergence on MAX density matrix=1.00D-06.
 Requested convergence on             energy=1.00D-06.
 No special actions if energy rises.
 FoFCou: FMM=F IPFlag=           0 FMFlag=           0 FMFlg1=           0
         NFxFlg=           0 DoJE=F BraDBF=F KetDBF=F FulRan=T
         wScrn=  0.000000 ICntrl=     600 IOpCl=  0 I1Cent=           0 NGrid=           0
         NMat0=    1 NMatS0=  48205 NMatT0=    0 NMatD0=    1 NMtDS0=    0 NMtDT0=    0
 Symmetry not used in FoFCou.
 Integral accuracy reduced to 1.0D-05 until final iterations.

 Cycle   1  Pass 0  IDiag  1:
 E= -492.067390514049    
 DIIS: error= 7.45D-03 at cycle   1 NSaved=   1.
 NSaved= 1 IEnMin= 1 EnMin= -492.067390514049     IErMin= 1 ErrMin= 7.45D-03
 ErrMax= 7.45D-03  0.00D+00 EMaxC= 1.00D-01 BMatC= 1.17D-02 BMatP= 1.17D-02
 IDIUse=3 WtCom= 9.25D-01 WtEn= 7.45D-02
 Coeff-Com:  0.100D+01
 Coeff-En:   0.100D+01
 Coeff:      0.100D+01
 Gap=     1.018 Goal=   None    Shift=    0.000
 GapD=    1.018 DampG=2.000 DampE=1.000 DampFc=2.0000 IDamp=-1.
 RMSDP=7.58D-04 MaxDP=4.22D-02              OVMax= 2.84D-02

 Cycle   2  Pass 0  IDiag  1:
 E= -492.073067677421     Delta-E=       -0.005677163372 Rises=F Damp=F
 DIIS: error= 2.77D-03 at cycle   2 NSaved=   2.
 NSaved= 2 IEnMin= 2 EnMin= -492.073067677421     IErMin= 2 ErrMin= 2.77D-03
 ErrMax= 2.77D-03  0.00D+00 EMaxC= 1.00D-01 BMatC= 3.00D-03 BMatP= 1.17D-02
 IDIUse=3 WtCom= 9.72D-01 WtEn= 2.77D-02
 Coeff-Com:  0.281D+00 0.719D+00
 Coeff-En:   0.000D+00 0.100D+01
 Coeff:      0.273D+00 0.727D+00
 Gap=     0.158 Goal=   None    Shift=    0.000
 RMSDP=2.73D-04 MaxDP=2.79D-02 DE=-5.68D-03 OVMax= 3.61D-02

 Cycle   3  Pass 0  IDiag  1:
 E= -492.073761295115     Delta-E=       -0.000693617693 Rises=F Damp=F
 DIIS: error= 2.04D-03 at cycle   3 NSaved=   3.
 NSaved= 3 IEnMin= 3 EnMin= -492.073761295115     IErMin= 3 ErrMin= 2.04D-03
 ErrMax= 2.04D-03  0.00D+00 EMaxC= 1.00D-01 BMatC= 2.25D-03 BMatP= 3.00D-03
 IDIUse=3 WtCom= 9.80D-01 WtEn= 2.04D-02
 Coeff-Com:  0.426D-01 0.460D+00 0.497D+00
 Coeff-En:   0.000D+00 0.433D+00 0.567D+00
 Coeff:      0.417D-01 0.460D+00 0.499D+00
 Gap=     0.151 Goal=   None    Shift=    0.000
 RMSDP=1.47D-04 MaxDP=1.24D-02 DE=-6.94D-04 OVMax= 1.84D-02

 Cycle   4  Pass 0  IDiag  1:
 E= -492.075536773346     Delta-E=       -0.001775478231 Rises=F Damp=F
 DIIS: error= 6.14D-04 at cycle   4 NSaved=   4.
 NSaved= 4 IEnMin= 4 EnMin= -492.075536773346     IErMin= 4 ErrMin= 6.14D-04
 ErrMax= 6.14D-04  0.00D+00 EMaxC= 1.00D-01 BMatC= 1.36D-04 BMatP= 2.25D-03
 IDIUse=3 WtCom= 9.94D-01 WtEn= 6.14D-03
 Coeff-Com:  0.133D-01 0.250D+00 0.301D+00 0.436D+00
 Coeff-En:   0.000D+00 0.000D+00 0.000D+00 0.100D+01
 Coeff:      0.133D-01 0.248D+00 0.299D+00 0.439D+00
 Gap=     0.151 Goal=   None    Shift=    0.000
 RMSDP=5.06D-05 MaxDP=3.75D-03 DE=-1.78D-03 OVMax= 8.03D-03

 Cycle   5  Pass 0  IDiag  1:
 E= -492.075608789211     Delta-E=       -0.000072015865 Rises=F Damp=F
 DIIS: error= 3.99D-04 at cycle   5 NSaved=   5.
 NSaved= 5 IEnMin= 5 EnMin= -492.075608789211     IErMin= 5 ErrMin= 3.99D-04
 ErrMax= 3.99D-04  0.00D+00 EMaxC= 1.00D-01 BMatC= 4.95D-05 BMatP= 1.36D-04
 IDIUse=3 WtCom= 9.96D-01 WtEn= 3.99D-03
 Coeff-Com: -0.276D-03 0.822D-01 0.109D+00 0.358D+00 0.451D+00
 Coeff-En:   0.000D+00 0.000D+00 0.000D+00 0.308D+00 0.692D+00
 Coeff:     -0.275D-03 0.819D-01 0.108D+00 0.358D+00 0.452D+00
 Gap=     0.151 Goal=   None    Shift=    0.000
 RMSDP=2.25D-05 MaxDP=1.75D-03 DE=-7.20D-05 OVMax= 3.41D-03

 Cycle   6  Pass 0  IDiag  1:
 E= -492.075644570748     Delta-E=       -0.000035781537 Rises=F Damp=F
 DIIS: error= 1.13D-04 at cycle   6 NSaved=   6.
 NSaved= 6 IEnMin= 6 EnMin= -492.075644570748     IErMin= 6 ErrMin= 1.13D-04
 ErrMax= 1.13D-04  0.00D+00 EMaxC= 1.00D-01 BMatC= 3.02D-06 BMatP= 4.95D-05
 IDIUse=3 WtCom= 9.99D-01 WtEn= 1.13D-03
 Coeff-Com: -0.143D-02 0.275D-01 0.381D-01 0.185D+00 0.287D+00 0.464D+00
 Coeff-En:   0.000D+00 0.000D+00 0.000D+00 0.000D+00 0.290D-01 0.971D+00
 Coeff:     -0.143D-02 0.275D-01 0.381D-01 0.185D+00 0.286D+00 0.465D+00
 Gap=     0.151 Goal=   None    Shift=    0.000
 RMSDP=6.36D-06 MaxDP=3.30D-04 DE=-3.58D-05 OVMax= 9.79D-04

 Initial convergence to 1.0D-05 achieved.  Increase integral accuracy.
 Cycle   7  Pass 1  IDiag  1:
 E= -492.075554333783     Delta-E=        0.000090236965 Rises=F Damp=F
 DIIS: error= 3.71D-05 at cycle   1 NSaved=   1.
 NSaved= 1 IEnMin= 1 EnMin= -492.075554333783     IErMin= 1 ErrMin= 3.71D-05
 ErrMax= 3.71D-05  0.00D+00 EMaxC= 1.00D-01 BMatC= 4.61D-07 BMatP= 4.61D-07
 IDIUse=1 WtCom= 1.00D+00 WtEn= 0.00D+00
 Coeff-Com:  0.100D+01
 Coeff:      0.100D+01
 Gap=     0.151 Goal=   None    Shift=    0.000
 RMSDP=6.36D-06 MaxDP=3.30D-04 DE= 9.02D-05 OVMax= 5.24D-04

 Cycle   8  Pass 1  IDiag  1:
 E= -492.075554037407     Delta-E=        0.000000296376 Rises=F Damp=F
 DIIS: error= 5.28D-05 at cycle   2 NSaved=   2.
 NSaved= 2 IEnMin= 1 EnMin= -492.075554333783     IErMin= 1 ErrMin= 3.71D-05
 ErrMax= 5.28D-05  0.00D+00 EMaxC= 1.00D-01 BMatC= 7.24D-07 BMatP= 4.61D-07
 IDIUse=1 WtCom= 1.00D+00 WtEn= 0.00D+00
 Coeff-Com:  0.572D+00 0.428D+00
 Coeff:      0.572D+00 0.428D+00
 Gap=     0.151 Goal=   None    Shift=    0.000
 RMSDP=3.52D-06 MaxDP=1.80D-04 DE= 2.96D-07 OVMax= 4.76D-04

 Cycle   9  Pass 1  IDiag  1:
 E= -492.075554636302     Delta-E=       -0.000000598894 Rises=F Damp=F
 DIIS: error= 1.96D-05 at cycle   3 NSaved=   3.
 NSaved= 3 IEnMin= 3 EnMin= -492.075554636302     IErMin= 3 ErrMin= 1.96D-05
 ErrMax= 1.96D-05  0.00D+00 EMaxC= 1.00D-01 BMatC= 1.56D-07 BMatP= 4.61D-07
 IDIUse=1 WtCom= 1.00D+00 WtEn= 0.00D+00
 Coeff-Com:  0.102D+00 0.304D+00 0.594D+00
 Coeff:      0.102D+00 0.304D+00 0.594D+00
 Gap=     0.151 Goal=   None    Shift=    0.000
 RMSDP=1.67D-06 MaxDP=1.20D-04 DE=-5.99D-07 OVMax= 2.60D-04

 Cycle  10  Pass 1  IDiag  1:
 E= -492.075554714898     Delta-E=       -0.000000078597 Rises=F Damp=F
 DIIS: error= 1.44D-05 at cycle   4 NSaved=   4.
 NSaved= 4 IEnMin= 4 EnMin= -492.075554714898     IErMin= 4 ErrMin= 1.44D-05
 ErrMax= 1.44D-05  0.00D+00 EMaxC= 1.00D-01 BMatC= 7.57D-08 BMatP= 1.56D-07
 IDIUse=1 WtCom= 1.00D+00 WtEn= 0.00D+00
 Coeff-Com: -0.794D-02 0.179D+00 0.476D+00 0.353D+00
 Coeff:     -0.794D-02 0.179D+00 0.476D+00 0.353D+00
 Gap=     0.151 Goal=   None    Shift=    0.000
 RMSDP=8.24D-07 MaxDP=6.19D-05 DE=-7.86D-08 OVMax= 1.20D-04

 Cycle  11  Pass 1  IDiag  1:
 E= -492.075554775348     Delta-E=       -0.000000060449 Rises=F Damp=F
 DIIS: error= 1.23D-06 at cycle   5 NSaved=   5.
 NSaved= 5 IEnMin= 5 EnMin= -492.075554775348     IErMin= 5 ErrMin= 1.23D-06
 ErrMax= 1.23D-06  0.00D+00 EMaxC= 1.00D-01 BMatC= 8.10D-10 BMatP= 7.57D-08
 IDIUse=1 WtCom= 1.00D+00 WtEn= 0.00D+00
 Coeff-Com: -0.871D-02 0.767D-01 0.216D+00 0.182D+00 0.533D+00
 Coeff:     -0.871D-02 0.767D-01 0.216D+00 0.182D+00 0.533D+00
 Gap=     0.151 Goal=   None    Shift=    0.000
 RMSDP=1.14D-07 MaxDP=5.19D-06 DE=-6.04D-08 OVMax= 1.17D-05

 Cycle  12  Pass 1  IDiag  1:
 E= -492.075554776007     Delta-E=       -0.000000000659 Rises=F Damp=F
 DIIS: error= 4.27D-07 at cycle   6 NSaved=   6.
 NSaved= 6 IEnMin= 6 EnMin= -492.075554776007     IErMin= 6 ErrMin= 4.27D-07
 ErrMax= 4.27D-07  0.00D+00 EMaxC= 1.00D-01 BMatC= 9.26D-11 BMatP= 8.10D-10
 IDIUse=1 WtCom= 1.00D+00 WtEn= 0.00D+00
 Coeff-Com: -0.444D-02 0.318D-01 0.914D-01 0.808D-01 0.315D+00 0.486D+00
 Coeff:     -0.444D-02 0.318D-01 0.914D-01 0.808D-01 0.315D+00 0.486D+00
 Gap=     0.151 Goal=   None    Shift=    0.000
 RMSDP=3.02D-08 MaxDP=1.74D-06 DE=-6.59D-10 OVMax= 2.89D-06

 Cycle  13  Pass 1  IDiag  1:
 E= -492.075554776088     Delta-E=       -0.000000000081 Rises=F Damp=F
 DIIS: error= 1.19D-07 at cycle   7 NSaved=   7.
 NSaved= 7 IEnMin= 7 EnMin= -492.075554776088     IErMin= 7 ErrMin= 1.19D-07
 ErrMax= 1.19D-07  0.00D+00 EMaxC= 1.00D-01 BMatC= 6.31D-12 BMatP= 9.26D-11
 IDIUse=1 WtCom= 1.00D+00 WtEn= 0.00D+00
 Coeff-Com: -0.147D-02 0.924D-02 0.270D-01 0.247D-01 0.116D+00 0.256D+00
 Coeff-Com:  0.568D+00
 Coeff:     -0.147D-02 0.924D-02 0.270D-01 0.247D-01 0.116D+00 0.256D+00
 Coeff:      0.568D+00
 Gap=     0.151 Goal=   None    Shift=    0.000
 RMSDP=9.96D-09 MaxDP=3.62D-07 DE=-8.07D-11 OVMax= 1.04D-06

 SCF Done:  E(RB3LYP) =  -492.075554776     A.U. after   13 cycles
            NFock= 13  Conv=0.10D-07     -V/T= 2.0044
 KE= 4.899155514400D+02 PE=-2.179918043724D+03 EE= 6.827340060455D+02
 Leave Link  502 at Tue Aug 24 14:56:09 2021, MaxMem= 24159191040 cpu:       220.0
 (Enter /public/home/users/caep010/software/Gaussian09/g09/l701.exe)
 Compute integral first derivatives.
 ... and contract with generalized density number  0.
 Leave Link  701 at Tue Aug 24 14:56:09 2021, MaxMem= 24159191040 cpu:        15.2
 (Enter /public/home/users/caep010/software/Gaussian09/g09/l702.exe)
 L702 exits ... SP integral derivatives will be done elsewhere.
 Leave Link  702 at Tue Aug 24 14:56:09 2021, MaxMem= 24159191040 cpu:         0.5
 (Enter /public/home/users/caep010/software/Gaussian09/g09/l703.exe)
 Compute integral first derivatives, UseDBF=F ICtDFT=           0.
 Integral derivatives from FoFJK, PRISM(SPDF).
 Calling FoFJK, ICntrl=      2127 FMM=F ISym2X=0 I1Cent= 0 IOpClX= 0 NMat=1 NMatS=1 NMatT=0.
 FoFJK:  IHMeth= 1 ICntrl=    2127 DoSepK=F KAlg= 0 I1Cent=   0 FoldK=F
 IRaf=         0 NMat=   1 IRICut=       1 DoRegI=T DoRafI=F ISym2E= 0.
 FoFCou: FMM=F IPFlag=           0 FMFlag=      100000 FMFlg1=         800
         NFxFlg=           0 DoJE=F BraDBF=F KetDBF=F FulRan=T
         wScrn=  0.000000 ICntrl=    2127 IOpCl=  0 I1Cent=           0 NGrid=           0
         NMat0=    1 NMatS0=      1 NMatT0=    0 NMatD0=    1 NMtDS0=    0 NMtDT0=    0
 Symmetry not used in FoFCou.
 Leave Link  703 at Tue Aug 24 14:56:14 2021, MaxMem= 24159191040 cpu:       145.2
 (Enter /public/home/users/caep010/software/Gaussian09/g09/l716.exe)
 Dipole        =-1.67481779D+00 9.14802606D-01-2.98580500D-02
 ***** Axes restored to original set *****
 -------------------------------------------------------------------
 Center     Atomic                   Forces (Hartrees/Bohr)
 Number     Number              X              Y              Z
 -------------------------------------------------------------------
      1        6          -0.013627713    0.013791965   -0.004305362
      2        6           0.005573440   -0.012420598   -0.005100472
      3        6           0.026725285   -0.026511874    0.017165794
      4        1          -0.037220016    0.045589348   -0.010480392
      5        6           0.039138571   -0.024417851    0.071477104
      6        1          -0.039963709    0.013164374   -0.093994811
      7        6          -0.003912199    0.019448108    0.025350859
      8        1           0.006520992   -0.024359729   -0.031987838
      9        6          -0.054818745    0.075368795   -0.000526475
     10        7           0.082630713   -0.151516157   -0.236251123
     11        1          -0.082140502    0.155609050    0.242524411
     12        7           0.006242157   -0.001550691    0.012714694
     13        8           0.000993031   -0.001962884    0.000237174
     14        8          -0.009546529    0.010990508   -0.006264350
     15        1           0.006319454   -0.009400435    0.000261544
     16        1           0.067085771   -0.081821928    0.019179245
 -------------------------------------------------------------------
 Cartesian Forces:  Max     0.242524411 RMS     0.068105973
 Leave Link  716 at Tue Aug 24 14:56:14 2021, MaxMem= 24159191040 cpu:         0.6
 (Enter /public/home/users/caep010/software/Gaussian09/g09/l103.exe)

 GradGradGradGradGradGradGradGradGradGradGradGradGradGradGradGradGradGrad
 Berny optimization.
 Using GEDIIS/GDIIS optimizer.
 FormGI is forming the generalized inverse of G from B-inverse, IUseBI=4.
 Internal  Forces:  Max     0.299450534 RMS     0.040669531
 Search for a local minimum.
 Step number   2 out of a maximum of   82
 All quantities printed in internal units (Hartrees-Bohrs-Radians)
 RMS Force = .40670D-01 SwitMx=.10000D-02 MixMth= 1
 Mixed Optimization -- RFO/linear search
 Update second derivatives using D2CorX and points    1    2
 DE= -1.63D-01 DEPred=-1.81D-01 R= 8.99D-01
 TightC=F SS=  1.41D+00  RLast= 3.00D-01 DXNew= 5.0454D-01 9.0060D-01
 Trust test= 8.99D-01 RLast= 3.00D-01 DXMaxT set to 5.05D-01
 ITU=  1  0
 Use linear search instead of GDIIS.
 Linear search step of   0.600 exceeds DXMaxT=   0.505 but not scaled.
 Quartic linear search produced a step of  2.00000.
 Iteration  1 RMS(Cart)=  0.06293550 RMS(Int)=  0.02986520
 Iteration  2 RMS(Cart)=  0.02338123 RMS(Int)=  0.00565252
 Iteration  3 RMS(Cart)=  0.00534688 RMS(Int)=  0.00002240
 Iteration  4 RMS(Cart)=  0.00000172 RMS(Int)=  0.00002237
 Iteration  5 RMS(Cart)=  0.00000000 RMS(Int)=  0.00002237
 ITry= 1 IFail=0 DXMaxC= 3.49D-01 DCOld= 1.00D+10 DXMaxT= 5.05D-01 DXLimC= 3.00D+00 Rises=F
 Variable       Old X    -DE/DX   Delta X   Delta X   Delta X     New X
                                 (Linear)    (Quad)   (Total)
    R1        2.67914   0.00086  -0.00734   0.00000  -0.00736   2.67178
    R2        2.67396   0.00678   0.01751   0.00000   0.01750   2.69146
    R3        2.54286   0.00939   0.01916   0.00000   0.01916   2.56202
    R4        2.64292   0.00561   0.01391   0.00000   0.01391   2.65683
    R5        2.70048   0.01024   0.01730   0.00000   0.01730   2.71778
    R6        1.91311   0.05947   0.14246   0.00000   0.14246   2.05557
    R7        2.56333   0.01863   0.04159   0.00000   0.04160   2.60493
    R8        1.84281   0.10214   0.23306   0.00000   0.23306   2.07587
    R9        2.64403   0.00936   0.02784   0.00000   0.02786   2.67189
   R10        1.95505   0.04001   0.09708   0.00000   0.09708   2.05212
   R11        2.56691   0.01856   0.04342   0.00000   0.04343   2.61034
   R12        1.83898   0.10637   0.24079   0.00000   0.24079   2.07977
[...]
 Quadrupole moment (field-independent basis, Debye-Ang):
   XX=            -62.3445   YY=            -49.2748   ZZ=            -61.1692
   XY=              1.8816   XZ=             -0.0209   YZ=             -0.4993
 Traceless Quadrupole moment (field-independent basis, Debye-Ang):
   XX=             -4.7484   YY=              8.3214   ZZ=             -3.5730
   XY=              1.8816   XZ=             -0.0209   YZ=             -0.4993
 Octapole moment (field-independent basis, Debye-Ang**2):
  XXX=            -31.3401  YYY=             25.7771  ZZZ=             -0.1309  XYY=             -6.0281
  XXY=              7.5432  XXZ=             -0.0517  XZZ=             13.9239  YZZ=             -0.2985
  YYZ=             -1.5772  XYZ=             -0.0776
 Hexadecapole moment (field-independent basis, Debye-Ang**3):
 XXXX=          -1032.5282 YYYY=           -496.1690 ZZZZ=            -65.7514 XXXY=             14.3280
 XXXZ=              0.3089 YYYX=              2.2020 YYYZ=             -4.6503 ZZZX=             -0.1748
 ZZZY=             -0.4910 XXYY=           -267.8310 XXZZ=           -194.1076 YYZZ=           -125.7241
 XXYZ=             -0.1129 YYXZ=             -0.2757 ZZXY=             -5.2139
 N-N= 5.094434549791D+02 E-N=-2.165873779144D+03  KE= 4.887043218947D+02
 No NMR shielding tensors so no spin-rotation constants.
 Leave Link  601 at Tue Aug 24 16:53:26 2021, MaxMem= 24159191040 cpu:        43.0
 (Enter /public/home/users/caep010/software/Gaussian09/g09/l9999.exe)
 1\1\GINC-B1424\SP\RHF\GFHFB2\C6H6N2O2\ROOT\24-Aug-2021\0\\#P Geom=AllC
 heck Guess=TCheck SCRF=Check HF/GFHFB2 SCF=Tight\\ONITAN02\\0,1\C,0,8.
 2034155522,7.0513876429,-3.3579694995\C,0,7.3167640657,8.1113366276,-3
 .6894667148\C,0,6.8108579023,8.2573415714,-4.9886656196\H,0,6.14186454
 31,9.0871345288,-5.1703685473\C,0,7.1573003959,7.3722487891,-5.9864437
 024\H,0,6.7619366567,7.4914289695,-6.9875802197\C,0,8.02925938,6.31640
 53035,-5.6799483805\H,0,8.313411633,5.6079840035,-6.4514218255\C,0,8.5
 353803081,6.1611218148,-4.4081686084\N,0,8.7379062994,6.8652226557,-2.
 1284146271\H,0,8.4490577779,7.4758198701,-1.3811936407\N,0,6.890554061
 1,9.086665578,-2.704747757\O,0,7.3071312688,8.9835020676,-1.5407495967
 \O,0,6.1301553864,9.980842054,-3.0564104579\H,0,9.3040432792,6.0551298
 125,-1.9517948455\H,0,9.2105614903,5.3408287109,-4.1846559573\\Version
 =ES64L-G09RevE.01\State=1-A\HF=-489.4194971\RMSD=3.051e-09\Dipole=0.87
 61546,-1.6268022,-0.8063383\Quadrupole=-0.5529534,-1.4498647,2.0028182
 ,-1.7075158,3.6295773,-3.4196005\PG=C01 [X(C6H6N2O2)]\\@


 IF THERE IS ONE WAY BETTER THAN ANOTHER IT IS THE WAY OF NATURE.

                          -- ARISTOTLE
 Diagonal vibrational polarizability:
        0.0000000       0.0000000       0.0000000

 Temperature=              298.150000 Pressure=                      1.000000
 E(ZPE)=                     0.117581 E(Thermal)=                    0.126107
 E(CCSD(T))=              -490.752417 E(Empiric)=                   -0.180622
 DE(Plus)=                  -0.035634 DE(2DF)=                      -0.356812
 E(Delta-G3XP)=             -0.630879 DE(HF)=                       -0.048883
 G4(0 K)=                 -491.887666 G4 Energy=                  -491.879140
 G4 Enthalpy=             -491.878196 G4 Free Energy=             -491.921768
 1\1\GINC-B1424\Mixed\G4\G4\C6H6N2O2\ROOT\24-Aug-2021\0\\#P Geom=AllChe
 ck Guess=TCheck SCRF=Check HF/GFHFB2 SCF=Tight\\ONITAN02\\0,1\C,0,8.20
 34155522,7.0513876429,-3.3579694995\C,0,7.3167640657,8.1113366276,-3.6
 894667148\C,0,6.8108579023,8.2573415714,-4.9886656196\H,0,6.1418645431
 ,9.0871345288,-5.1703685473\C,0,7.1573003959,7.3722487891,-5.986443702
 4\H,0,6.7619366567,7.4914289695,-6.9875802197\C,0,8.02925938,6.3164053
 035,-5.6799483805\H,0,8.313411633,5.6079840035,-6.4514218255\C,0,8.535
 3803081,6.1611218148,-4.4081686084\N,0,8.7379062994,6.8652226557,-2.12
 84146271\H,0,8.4490577779,7.4758198701,-1.3811936407\N,0,6.8905540611,
 9.086665578,-2.704747757\O,0,7.3071312688,8.9835020676,-1.5407495967\O
 ,0,6.1301553864,9.980842054,-3.0564104579\H,0,9.3040432792,6.055129812
 5,-1.9517948455\H,0,9.2105614903,5.3408287109,-4.1846559573\\Version=E
 S64L-G09RevE.01\State=1-A\MP2/GTBas1=-490.660627\MP4/GTBas1=-490.76501
 28\CCSD(T)/G3Bas1=-490.7524173\MP2/GTBas2=-490.694671\MP4/GTBas2=-490.
 800647\MP2/GTBas3=-490.9987924\MP4/GTBas3=-491.1218246\HF/GTLargeXP=-4
 89.3724613\MP2/GTLargeXP=-491.6637153\HF/GFHFB1=-489.411918\HF/GFHFB2=
 -489.4194971\G4=-491.887666\FreqCoord=15.5022087479,13.3251915019,-6.3
 456427166,13.8266802632,15.3282047978,-6.9720816674,12.8706561654,15.6
 041141556,-9.4272117897,11.6064419317,17.1721955922,-9.7705805605,13.5
 253375991,13.931531195,-11.3127391075,12.7782084091,14.1567490963,-13.
 2046129468,15.1731012781,11.9362761678,-10.7335468881,15.7100712163,10
 .5975539243,-12.1914204179,16.1295312223,11.6428329014,-8.3302314175,1
 6.5122498806,12.9733906606,-4.0221207425,15.9664052811,14.1272521732,-
 2.6100777174,13.0212600793,17.1713094035,-5.1112325193,13.808476915,16
 .976358622,-2.911594777,11.5843148323,18.8610580576,-5.775778715,17.58
 20937262,11.4425370447,-3.6883577257,17.4054387467,10.0927035863,-7.90
 78537197\PG=C01 [X(C6H6N2O2)]\NImag=0\\0.37047033,-0.22024742,0.486199
 05,0.13184811,0.04565419,0.70791495,-0.14318166,0.08678205,-0.04467637
 ,0.34257286,0.09456059,-0.18135577,0.03127903,-0.22467302,0.43273227,-
 0.02476464,0.00328233,-0.13652745,0.14614106,-0.00355560,0.60189365,-0
 .01040764,0.01086090,-0.02029477,-0.11092367,0.03222263,-0.09440669,0.
 36888115,0.00348618,0.01320238,0.03295063,0.04221423,-0.09669960,0.044
 27569,-0.28066939,0.55530180,-0.03841267,0.05774481,0.01672824,-0.0705
 7509,0.01203313,-0.25901808,0.08331055,0.09522956,0.63681255,0.0023985
 1,0.00086212,-0.00258916,-0.00295081,0.00974443,-0.00266052,-0.1573300
 2,0.14538767,-0.03698897,0.15843572,0.00127542,0.00205454,-0.00017834,
 0.00326925,0.00092911,0.00072061,0.14603342,-0.21957280,0.03981295,-0.
 16180079,0.22972399,-0.00172855,-0.00138439,-0.00515165,-0.01814151,0.
 02168908,-0.00161186,-0.03539749,0.03754058,-0.06366433,0.03972408,-0.
 03822294,0.06410145,-0.01617676,0.02191681,0.01665876,0.02026333,-0.01
 162187,0.01838592,-0.09687365,0.06081515,0.01386983,0.00034172,0.01099
 826,0.01454564,0.32949592,0.02010580,-0.04188329,-0.02158378,-0.022035
 77,0.01559654,-0.04914997,0.07585622,-0.20017501,-0.09901484,0.0038926
 4,-0.00885869,-0.01785479,-0.24017178,0.47432818,0.01301003,-0.0164242
 7,-0.00280275,-0.00690890,-0.01472276,-0.05232872,0.05008642,-0.148020
 33,-0.24857216,-0.00240567,0.00502196,0.00842946,0.12393108,0.08179606
 ,0.71432359,-0.00057332,0.00042577,0.00046741,0.00441185,0.00427902,-0
 .00020383,0.00404586,-0.00182902,0.00968696,-0.00237654,-0.00243866,0.
 00070304,-0.07829112,0.02389036,-0.10156603,0.07745614,0.00038181,-0.0
 0108816,-0.00044246,0.00468441,0.00015738,-0.00269623,-0.00946860,0.00
 406734,-0.02041461,-0.00233086,-0.00074898,0.00116662,0.02394479,-0.05
 129534,0.02573891,-0.02751797,0.05003853,0.00034017,-0.00027815,0.0000
 7223,0.00080208,-0.00412273,0.00032400,-0.00869685,0.00453143,-0.01769
 553,0.00095726,0.00080973,0.00066680,-0.10136500,0.02547746,-0.2983463
 8,0.10920059,-0.02627091,0.31609686,0.02258509,-0.03475992,-0.01227882
 ,-0.01832492,0.00646298,-0.02454244,-0.00472167,0.03183290,0.04129874,
 0.00517419,0.00368176,-0.00053178,-0.15616727,0.10933097,-0.05763678,-
 0.00550735,0.00710342,0.00017827,0.34317736,-0.02506853,0.03198709,-0.
 00643855,0.01115090,-0.01130111,0.02401784,0.02081878,-0.03843774,-0.0
 3924169,0.00375499,0.00143648,-0.00385534,0.12472355,-0.20699913,0.048
 80722,-0.00058991,-0.00001985,-0.00113776,-0.24196088,0.50690670,0.010
 78558,-0.03823562,-0.05493236,-0.01308403,0.00845587,-0.02830224,0.014
 77652,-0.00326514,0.04619431,-0.00045003,-0.00400500,-0.00289857,-0.02
 075395,-0.00124786,-0.12839278,-0.01824117,0.02387298,-0.00246726,0.09
 612061,0.10278995,0.69328312,0.00451984,0.00410948,-0.00411344,-0.0002
 3396,0.00000529,-0.00090055,0.00139247,0.00558952,-0.00251552,-0.00025
 714,0.00033440,0.00079836,-0.00070490,0.01170827,0.01523919,-0.0013227
 9,-0.00191333,0.00051733,-0.06570443,0.05660619,0.04822128,0.05917301,
 0.00404341,0.00359470,0.00053243,0.00015563,0.00026138,0.00101992,0.00
 576117,-0.00097914,0.00132743,-0.00003312,-0.00056217,-0.00085888,0.00
 422827,-0.01031498,-0.01863504,-0.00174499,-0.00023008,0.00068896,0.05
 640071,-0.17064699,-0.13191866,-0.06542296,0.17511924,-0.00423944,0.00
 070838,-0.00311077,-0.00056266,0.00053294,-0.00049244,-0.00212637,0.00
 079307,0.00127988,-0.00009264,0.00035077,0.00029664,-0.00260230,0.0056
 0020,0.00815524,0.00091837,0.00014569,0.00044149,0.04768163,-0.1311890
 3,-0.19788314,-0.04968583,0.14343864,0.20804622,-0.10269370,0.06126553
 ,0.03914586,0.00114608,0.01347615,0.01256551,-0.00435029,-0.00319902,-
 0.00358622,0.00011158,-0.00057051,-0.00009240,-0.00944295,0.01602223,-
 0.02232181,0.00139810,0.00489400,-0.00124187,-0.11479841,0.03524342,-0
 .11648510,0.00599276,-0.00018225,0.00896639,0.35705650,0.04795065,-0.1
 7620977,-0.10101071,0.01996986,-0.02100847,-0.00323973,-0.00219924,-0.
 00870367,-0.01446666,-0.00040707,0.00023498,-0.00010441,0.00654000,0.0
 1243907,0.02880199,0.00523210,-0.00163549,0.00024007,0.04938463,-0.103
 47356,0.03964357,-0.00772385,0.00510796,-0.02038443,-0.26443600,0.4911
 6478,0.00560869,-0.05566286,-0.18496169,0.02814735,-0.02432633,0.04053
 659,-0.00119933,-0.01781574,-0.05240949,0.00031421,-0.00062047,-0.0008
 3614,-0.04547089,0.06020339,0.00595854,-0.00041620,-0.00089547,0.00189
 687,-0.08180191,-0.00693537,-0.33538414,-0.00911736,0.00414313,-0.0165
 1042,0.14435827,0.03709029,0.67162612,-0.11144561,0.05253001,-0.100155
 18,-0.01315967,0.01625627,-0.02639340,0.00176213,0.00289576,0.00158641
 ,0.00010457,0.00019435,-0.00078449,-0.00165776,0.00042036,-0.00259251,
 -0.00014946,-0.00043587,0.00010656,0.00197723,0.00452169,0.00342414,0.
 00029334,-0.00034678,0.00078387,0.01358821,-0.00377273,-0.00041258,0.3
 1493718,0.05820975,-0.10742486,0.02744115,0.01777397,-0.00128100,0.035
 02854,0.00333294,-0.00423047,-0.00796412,0.00067633,0.00007782,0.00107
 366,-0.00301610,0.00444337,0.00249766,-0.00039801,0.00019248,0.0001366
 1,0.00737723,-0.00591973,0.00071911,-0.00059821,0.00014203,-0.00123949
 ,-0.01028216,0.01004356,-0.03378703,-0.38740119,0.60819875,-0.10320631
 ,0.01500348,-0.32461753,-0.01944053,0.02390691,0.00218219,0.00131549,-
 0.00673772,-0.00863696,0.00020563,-0.00037532,0.00021447,-0.00840897,0
 .01086443,-0.00200531,0.00002626,0.00020647,0.00015056,0.00890499,-0.0
 0848267,0.01305940,-0.00001487,-0.00020329,-0.00083026,-0.01717066,-0.
 00986337,-0.06539757,0.10391183,0.11487019,0.74878393,0.00731269,-0.01
 559114,-0.00634007,-0.00197598,0.00202821,0.00334988,-0.00069430,-0.00
 038487,-0.00177914,-0.00002814,-0.00009594,-0.00021619,-0.00120098,0.0
 0189973,0.00053822,-0.00014450,0.00000251,0.00008687,0.00302740,-0.000
 90155,0.00082773,-0.00034167,-0.00016205,-0.00019634,0.00030862,0.0018
 2136,-0.00610116,-0.05639481,0.09761224,0.07208251,0.05763508,-0.01163
 000,0.00902002,-0.00625428,0.00165918,-0.00572711,-0.00378530,0.000424
 64,0.00026170,0.00296379,-0.00000895,0.00011164,0.00037862,0.00222968,
 -0.00317920,-0.00055137,-0.00003046,-0.00015444,-0.00005430,-0.0015790
 6,0.00302062,-0.00311283,-0.00017416,-0.00011087,0.00025950,0.00284118
 ,0.00294605,0.00666421,0.09500605,-0.18067488,-0.17335283,-0.08540449,
 0.18212698,0.00895655,-0.01832049,-0.02643082,0.00144011,-0.00163173,0
 .00025262,0.00013527,-0.00012062,0.00009564,0.00001426,0.00004298,0.00
 014146,0.00047493,-0.00051485,0.00026552,0.00002511,0.00004111,0.00000
 339,-0.00021632,-0.00112568,-0.00110013,-0.00011026,0.00016991,-0.0003
 2536,-0.00340720,0.00298388,-0.00096663,0.06870988,-0.17999667,-0.2820
 3277,-0.07379874,0.18942463,0.30113953,-0.00842160,0.01389912,0.018368
 06,-0.09586752,0.01802547,-0.00422181,0.00781940,-0.01098806,0.0101707
 2,-0.00438561,-0.00094186,-0.00238861,0.00509543,-0.00059844,-0.008760
 47,0.00141913,0.00009686,-0.00117563,-0.00382316,0.00265301,-0.0027321
 4,-0.00095910,-0.00040333,0.00008253,0.00150610,0.00699245,-0.00170362
 ,0.00197476,-0.00331087,0.00177299,-0.00428110,0.00187414,-0.00244630,
 0.48531933,0.01434884,-0.02613355,-0.00873545,0.01854781,-0.10868354,-
 0.00704362,-0.01133664,-0.00134684,-0.03244591,0.00035011,-0.00268056,
 0.00519468,-0.00188086,0.01379803,0.00921829,0.00064308,0.00123645,0.0
 0065105,0.00591640,-0.00628169,0.00667121,-0.00031738,-0.00066555,0.00
 046934,0.00683464,-0.00316703,-0.00277825,-0.00670125,0.00084819,-0.01
 224446,-0.00296447,0.00438385,0.00480354,-0.26338849,0.58238010,0.0200
 7473,-0.00949575,0.03720480,-0.00314878,-0.00864027,-0.11258165,0.0092
 1343,-0.03083006,-0.04857129,0.00071963,0.00093390,0.00026560,-0.01204
 071,0.01378165,0.00109905,0.00012281,-0.00113454,-0.00037999,0.0052709
 6,-0.00413043,0.00632183,0.00029137,0.00018214,0.00010572,-0.00219327,
 -0.00218277,-0.00547820,-0.00524280,-0.00608926,-0.02609786,-0.0150465
 9,0.02252772,0.00122191,0.17705139,-0.03858677,0.74556454,-0.00490862,
 0.00175342,-0.00871114,0.02094113,-0.00490665,-0.00716742,0.00208309,0
 .00368226,0.00245962,0.00045548,0.00038216,0.00101765,0.00151958,-0.00
 342041,-0.00023166,-0.00050720,-0.00026510,0.00028981,-0.00150987,0.00
 177064,-0.00196568,0.00005520,0.00000309,0.00000116,-0.00023965,0.0009
 1082,0.00300886,-0.00379940,0.01120916,0.00572905,-0.00024916,-0.00262
 339,0.00345823,-0.13078707,0.03237503,-0.10276186,0.13150937,0.0014841
 0,-0.00040560,0.00563526,-0.00561757,0.01737632,-0.02436910,0.00444951
 ,-0.00258240,-0.00166865,-0.00006508,0.00011064,-0.00096639,-0.0017568
 4,0.00098011,-0.00108009,-0.00025112,-0.00058613,-0.00028944,0.0006358
 8,-0.00025794,0.00052453,0.00002501,0.00000740,-0.00005118,-0.00039722
 ,-0.00053142,-0.00139068,0.00906063,-0.01181553,-0.00134516,0.00030799
 ,-0.00569241,-0.00571916,0.02583565,-0.11483695,-0.00622430,-0.0707516
 7,0.11478176,-0.01060512,0.00721688,-0.01671619,-0.00937920,-0.0213089
 9,-0.06537590,0.00449660,-0.00443569,0.00807258,-0.00004714,0.00056471
 ,0.00158856,0.00381038,-0.00664695,-0.00434369,0.00036034,-0.00039928,
 -0.00059093,-0.00474109,0.00427727,-0.00482896,0.00005782,-0.00012241,
 -0.00005379,-0.00008668,0.00283447,0.00608808,0.00331912,0.00390311,0.
 01865035,0.01065470,-0.01567402,-0.00483836,-0.11853698,0.01522987,-0.
 44368032,0.17061712,-0.02849672,0.54010814,0.00513771,0.00059274,0.002
 09976,-0.00973412,0.04311808,0.00668345,-0.00127981,-0.00014549,-0.009
 10734,0.00074858,-0.00002855,0.00256914,-0.00122469,0.00208498,0.00273
 069,-0.00006986,0.00002599,0.00016716,0.00124279,-0.00140822,0.0008379
 1,0.00026907,-0.00001358,0.00013513,-0.00113188,-0.00085042,-0.0002333
 9,-0.00237402,0.00246564,-0.00062397,0.00283616,-0.00133971,-0.0000814
 6,-0.25452313,0.20628130,-0.07340422,-0.01434087,0.03566087,-0.0491241
 8,0.27492736,-0.00168369,0.00354082,-0.00809418,0.04482858,-0.04510244
 ,-0.00976310,0.00352315,-0.00026311,0.00774680,0.00025784,-0.00207681,
 -0.00395475,0.00148657,-0.00345399,-0.00220246,-0.00005196,-0.00010127
 ,-0.00021823,-0.00133789,0.00127217,-0.00118444,-0.00000001,0.00011402
 ,-0.00024157,-0.00016533,-0.00089668,0.00121835,0.00295147,-0.00224037
 ,0.00239010,-0.00002592,0.00154609,-0.00070736,0.20947739,-0.33758461,
 0.07159229,0.02764914,0.00492096,0.04212506,-0.28617595,0.38095114,-0.
 00330945,-0.00109592,-0.00851960,0.01137411,-0.01614777,0.01812831,-0.
 00011041,-0.00445888,-0.00979625,0.00331428,-0.00498001,-0.00123386,0.
 00133989,-0.00031783,0.00304232,-0.00004812,0.00005862,-0.00007669,0.0
 0093238,-0.00133980,-0.00028986,0.00016898,-0.00029395,0.00007573,0.00
 136974,-0.00086965,0.00076801,-0.00085389,0.00311957,0.00428494,0.0034
 3599,-0.00584238,-0.00057426,-0.06558616,0.06114202,-0.15161989,-0.068
 71105,0.06886680,-0.03628022,0.11641418,-0.09809013,0.18133666,-0.0122
 2509,0.00956020,-0.00508942,0.00387835,-0.00121457,-0.00263894,0.00037
 150,0.00162367,0.00043380,0.00003058,-0.00000100,-0.00023541,0.0005464
 8,-0.00091522,0.00025187,0.00007457,0.00003779,-0.00003367,-0.00128842
 ,0.00010913,-0.00080604,0.00010950,0.00010923,0.00000036,-0.00050572,-
 0.00101651,0.00387767,-0.14491008,0.20860612,-0.04516770,-0.00533519,-
 0.00089974,-0.00348120,0.00005254,0.00144620,0.00198910,-0.00040086,0.
 00142684,-0.00110914,-0.00032218,-0.00092547,0.00002999,0.15948855,-0.
 00114175,-0.00250630,0.00249717,-0.00033496,0.00344412,-0.00069990,0.0
 0076173,0.00004873,-0.00083931,0.00001165,0.00009579,0.00001679,-0.000
 73353,0.00078698,-0.00006124,0.00002421,-0.00000833,0.00001176,0.00058
 505,-0.00086686,0.00100840,0.00007173,0.00003078,-0.00005964,-0.002722
 08,0.00056210,-0.00287818,0.21672696,-0.31107557,0.04356846,0.00222269
 ,-0.00761351,0.01074715,0.00026438,-0.00106969,-0.00297621,0.00237865,
 -0.00157675,0.00131248,-0.00047640,-0.00010761,0.00062754,-0.21790520,
 0.31985832,-0.01863009,0.02990789,-0.00335322,-0.00137103,-0.00135704,
 -0.00464762,-0.00111056,0.00100790,0.00071561,-0.00016335,-0.00003679,
 -0.00042809,0.00016843,-0.00008847,-0.00000614,0.00006918,-0.00011634,
 0.00002304,0.00029041,-0.00020570,-0.00013830,-0.00001487,-0.00001835,
 0.00004603,-0.00076109,0.00224756,0.00147243,-0.04703702,0.04070843,-0
 .07991944,0.01229913,-0.01368779,0.01311542,-0.00061543,-0.00059571,-0
 .00346491,0.00289975,-0.00338209,0.00203649,0.00068182,-0.00022573,0.0
 0096421,0.05246875,-0.05276196,0.07410837,-0.00239018,0.00604033,-0.00
 433959,0.00313870,0.00223699,0.00077443,0.00022544,-0.00031148,0.00014
 833,-0.00047268,-0.00029171,0.00015852,0.00447761,0.00193008,-0.003363
 68,0.00013650,0.00076016,-0.00013308,-0.00533856,0.00857679,-0.0004756
 0,-0.00228120,-0.00239245,0.00093615,-0.14794535,0.14160395,-0.0388586
 3,-0.00074660,-0.00225684,0.00008427,-0.00047411,-0.00034489,0.0003271
 3,-0.00013841,-0.00015433,-0.00089519,0.00017886,-0.00004699,0.0003134
 6,-0.00016111,0.00019207,0.00023952,0.00043549,0.00026689,0.00082598,0
 .15135561,0.01392484,-0.01259130,0.00674789,0.00162543,0.00066191,-0.0
 0404237,-0.00037122,0.00010882,-0.00080269,-0.00029191,-0.00027496,0.0
 0014185,0.00229792,0.00378736,-0.00018453,0.00035757,0.00017588,-0.000
 17555,0.00092583,-0.00041847,-0.00071607,-0.00229998,-0.00086774,0.000
 86682,0.14137742,-0.20687242,0.03777102,-0.00190572,0.00071620,0.00179
 476,-0.00036430,-0.00026455,-0.00007663,0.00051257,-0.00019661,0.00127
 267,-0.00014713,0.00010795,-0.00037979,0.00020871,-0.00051832,-0.00037
 825,-0.00004147,-0.00000222,-0.00139580,-0.15580856,0.21644845,0.01427
 242,-0.01862048,0.00520383,-0.00061661,-0.00208374,-0.00243139,0.00000
 819,-0.00064466,-0.00153472,0.00014811,0.00016128,0.00012007,-0.002543
 04,-0.00130385,-0.00447578,-0.00110473,0.00113945,-0.00011845,-0.01892
 884,0.02418973,-0.00224092,0.00117837,0.00054800,0.00075924,-0.0390594
 6,0.03827990,-0.06640237,0.00163007,-0.00042145,0.00221186,0.00020322,
 0.00009664,0.00003286,0.00072147,-0.00094986,0.00009066,0.00006755,-0.
 00004364,0.00016415,0.00025532,-0.00039067,-0.00020956,-0.00049002,0.0
 0048668,-0.00052387,0.04425799,-0.04044332,0.06935439\\0.00004302,-0.0
 0000315,-0.00000963,-0.00003482,0.00002837,-0.00000772,0.00001021,-0.0
 0001775,0.00002514,0.00000405,0.00000207,-0.00000775,0.00000499,-0.000
 00996,0.00005142,0.00000188,-0.00000685,-0.00002713,-0.00002664,0.0000
 2142,-0.00003533,0.00000870,-0.00000038,0.00001820,-0.00001202,0.00001
 558,0.00000147,-0.00005868,-0.00002722,0.00001669,0.00000688,0.0000072
 4,-0.00000710,-0.00000552,0.00002904,-0.00004115,0.00000444,-0.0000071
 0,0.00002808,0.00000866,-0.00003018,-0.00001313,0.00002401,0.00001132,
 -0.00000696,0.00002084,-0.00001245,0.00001491\\\@
 Job cpu time:       0 days 13 hours 44 minutes 27.2 seconds.
 File lengths (MBytes):  RWF=  35491 Int=      0 D2E=      0 Chk=     71 Scr=      1
 Normal termination of Gaussian 09 at Tue Aug 24 16:53:26 2021.
