 Entering Gaussian System, Link 0=g09
 Input=G4.PEMCAM06.gjf
 Output=G4.PEMCAM06.log
 Initial command:
 /public/home/users/caep010/software/Gaussian09/g09/l1.exe "/public/home/users/caep010/.cache/gau_scr/Gau-84824.inp" -scrdir="/public/home/users/caep010/.cache/gau_scr/"
 Entering Link 1 = /public/home/users/caep010/software/Gaussian09/g09/l1.exe PID=     84825.
  
 Copyright (c) 1988,1990,1992,1993,1995,1998,2003,2009,2015,
            Gaussian, Inc.  All Rights Reserved.
  
 This is part of the Gaussian(R) 09 program.  It is based on
 the Gaussian(R) 03 system (copyright 2003, Gaussian, Inc.),
 the Gaussian(R) 98 system (copyright 1998, Gaussian, Inc.),
 the Gaussian(R) 94 system (copyright 1995, Gaussian, Inc.),
 the Gaussian 92(TM) system (copyright 1992, Gaussian, Inc.),
 the Gaussian 90(TM) system (copyright 1990, Gaussian, Inc.),
 the Gaussian 88(TM) system (copyright 1988, Gaussian, Inc.),
 the Gaussian 86(TM) system (copyright 1986, Carnegie Mellon
 University), and the Gaussian 82(TM) system (copyright 1983,
 Carnegie Mellon University). Gaussian is a federally registered
 trademark of Gaussian, Inc.
  
 This software contains proprietary and confidential information,
 including trade secrets, belonging to Gaussian, Inc.
  
 This software is provided under written license and may be
 used, copied, transmitted, or stored only in accord with that
 written license.
  
 The following legend is applicable only to US Government
 contracts under FAR:
  
                    RESTRICTED RIGHTS LEGEND
  
 Use, reproduction and disclosure by the US Government is
 subject to restrictions as set forth in subparagraphs (a)
 and (c) of the Commercial Computer Software - Restricted
 Rights clause in FAR 52.227-19.
  
 Gaussian, Inc.
 340 Quinnipiac St., Bldg. 40, Wallingford CT 06492
  
  
 ---------------------------------------------------------------
 Warning -- This program may not be used in any manner that
 competes with the business of Gaussian, Inc. or will provide
 assistance to any competitor of Gaussian, Inc.  The licensee
 of this program is prohibited from giving any competitor of
 Gaussian, Inc. access to this program.  By using this program,
 the user acknowledges that Gaussian, Inc. is engaged in the
 business of creating and licensing software in the field of
 computational chemistry and represents and warrants to the
 licensee that it is not a competitor of Gaussian, Inc. and that
 it will not use this program in any manner prohibited above.
 ---------------------------------------------------------------
  

 Cite this work as:
 Gaussian 09, Revision E.01,
 M. J. Frisch, G. W. Trucks, H. B. Schlegel, G. E. Scuseria, 
 M. A. Robb, J. R. Cheeseman, G. Scalmani, V. Barone, B. Mennucci, 
 G. A. Petersson, H. Nakatsuji, M. Caricato, X. Li, H. P. Hratchian, 
 A. F. Izmaylov, J. Bloino, G. Zheng, J. L. Sonnenberg, M. Hada, 
 M. Ehara, K. Toyota, R. Fukuda, J. Hasegawa, M. Ishida, T. Nakajima, 
 Y. Honda, O. Kitao, H. Nakai, T. Vreven, J. A. Montgomery, Jr., 
 J. E. Peralta, F. Ogliaro, M. Bearpark, J. J. Heyd, E. Brothers, 
 K. N. Kudin, V. N. Staroverov, T. Keith, R. Kobayashi, J. Normand, 
 K. Raghavachari, A. Rendell, J. C. Burant, S. S. Iyengar, J. Tomasi, 
 M. Cossi, N. Rega, J. M. Millam, M. Klene, J. E. Knox, J. B. Cross, 
 V. Bakken, C. Adamo, J. Jaramillo, R. Gomperts, R. E. Stratmann, 
 O. Yazyev, A. J. Austin, R. Cammi, C. Pomelli, J. W. Ochterski, 
 R. L. Martin, K. Morokuma, V. G. Zakrzewski, G. A. Voth, 
 P. Salvador, J. J. Dannenberg, S. Dapprich, A. D. Daniels, 
 O. Farkas, J. B. Foresman, J. V. Ortiz, J. Cioslowski, 
 and D. J. Fox, Gaussian, Inc., Wallingford CT, 2013.
 
 ******************************************
 Gaussian 09:  ES64L-G09RevE.01 30-Nov-2015
                25-Aug-2021 
 ******************************************
 %nproc=32
 Will use up to   32 processors via shared memory.
 %mem=180GB
 ----------------
 #P G4 OPT=calcfc
 ----------------
 1/10=4,14=-1,18=20,19=15,26=3,38=1/1,3;
 2/9=110,12=2,17=6,18=5,40=1/2;
 3/5=35,7=104,11=2,16=1,25=1,30=1,71=2,74=-5,140=1/1,2,3;
 4//1;
 5/5=2,38=5/2;
 8/6=4,10=90,11=11/1;
 11/6=1,8=1,9=11,15=111,16=1/1,2,10;
 10/6=1,13=1/2;
 6/7=2,8=2,9=2,10=2,28=1/1;
 7/10=1,18=20,25=1/1,2,3,16;
 1/10=4,14=-1,18=20,19=15,26=3/3(2);
 2/9=110/2;
 99//99;
 2/9=110/2;
 3/5=35,7=104,11=2,16=1,25=1,30=1,71=1,74=-5/1,2,3;
 4/5=5,16=3,69=1/1;
 5/5=2,38=5/2;
 7//1,2,3,16;
 1/14=-1,18=20,19=15,26=3/3(-5);
 2/9=110/2;
 6/7=2,8=2,9=2,10=2,19=2,28=1/1;
 99/9=1/99;
 Leave Link    1 at Wed Aug 25 09:20:37 2021, MaxMem= 24159191040 cpu:         2.4
 (Enter /public/home/users/caep010/software/Gaussian09/g09/l101.exe)
 --------
 PEMCAM06
 --------
 Symbolic Z-matrix:
 Charge =  0 Multiplicity = 1
 N                     9.2507    1.6775    17.1578 
 C                     8.2979    0.9096    17.9419 
 C                     9.2847    1.5753    15.8027 
 C                     8.3835    0.7798    15.0698 
 C                     8.4485    0.7224    13.6841 
 C                     9.3868    1.4389    12.9542 
 H                     7.7369    0.2863    15.5199 
 H                     8.4186    1.1057    18.8746 
 H                     8.4412   -0.0276    17.791 
 H                     7.8421    0.1842    13.2287 
 C                     10.2809   2.1889    13.6813 
 H                     10.9377   2.6616    13.2236 
 H                     7.4049    1.1429    17.677 
 C                     10.252    2.2724    15.0414 
 H                     10.881    2.7995    15.4794 
 C                     10.2767   2.3984    17.8869 
 H                     10.086    2.3626    18.8265 
 H                     10.2912   3.3132    17.5985 
 H                     11.1316   1.9958    17.7175 
 C                     9.5178    1.4605    11.4574 
 C                     8.8156    0.8462    10.6447 
 N                     9.0579    0.964     9.2274 
 O                     9.9612    1.6477    8.7289 
 H                     8.1247    0.3042    10.95 
 H                     10.1973   1.9899    11.107 
 O                     8.2917    0.2952    8.5534 
 
 NAtoms=     26 NQM=       26 NQMF=       0 NMMI=      0 NMMIF=      0
                NMic=       0 NMicF=      0.
                    Isotopes and Nuclear Properties:
 (Nuclear quadrupole moments (NQMom) in fm**2, nuclear magnetic moments (NMagM)
  in nuclear magnetons)

  Atom         1           2           3           4           5           6           7           8           9          10
 IAtWgt=          14          12          12          12          12          12           1           1           1           1
 AtmWgt=  14.0030740  12.0000000  12.0000000  12.0000000  12.0000000  12.0000000   1.0078250   1.0078250   1.0078250   1.0078250
 NucSpn=           2           0           0           0           0           0           1           1           1           1
 AtZEff=   0.0000000   0.0000000   0.0000000   0.0000000   0.0000000   0.0000000   0.0000000   0.0000000   0.0000000   0.0000000
 NQMom=    2.0440000   0.0000000   0.0000000   0.0000000   0.0000000   0.0000000   0.0000000   0.0000000   0.0000000   0.0000000
 NMagM=    0.4037610   0.0000000   0.0000000   0.0000000   0.0000000   0.0000000   2.7928460   2.7928460   2.7928460   2.7928460
 AtZNuc=   7.0000000   6.0000000   6.0000000   6.0000000   6.0000000   6.0000000   1.0000000   1.0000000   1.0000000   1.0000000

  Atom        11          12          13          14          15          16          17          18          19          20
 IAtWgt=          12           1           1          12           1          12           1           1           1          12
 AtmWgt=  12.0000000   1.0078250   1.0078250  12.0000000   1.0078250  12.0000000   1.0078250   1.0078250   1.0078250  12.0000000
 NucSpn=           0           1           1           0           1           0           1           1           1           0
 AtZEff=   0.0000000   0.0000000   0.0000000   0.0000000   0.0000000   0.0000000   0.0000000   0.0000000   0.0000000   0.0000000
 NQMom=    0.0000000   0.0000000   0.0000000   0.0000000   0.0000000   0.0000000   0.0000000   0.0000000   0.0000000   0.0000000
 NMagM=    0.0000000   2.7928460   2.7928460   0.0000000   2.7928460   0.0000000   2.7928460   2.7928460   2.7928460   0.0000000
 AtZNuc=   6.0000000   1.0000000   1.0000000   6.0000000   1.0000000   6.0000000   1.0000000   1.0000000   1.0000000   6.0000000

  Atom        21          22          23          24          25          26
 IAtWgt=          12          14          16           1           1          16
 AtmWgt=  12.0000000  14.0030740  15.9949146   1.0078250   1.0078250  15.9949146
 NucSpn=           0           2           0           1           1           0
 AtZEff=   0.0000000   0.0000000   0.0000000   0.0000000   0.0000000   0.0000000
 NQMom=    0.0000000   2.0440000   0.0000000   0.0000000   0.0000000   0.0000000
 NMagM=    0.0000000   0.4037610   0.0000000   2.7928460   2.7928460   0.0000000
 AtZNuc=   6.0000000   7.0000000   8.0000000   1.0000000   1.0000000   8.0000000
 Leave Link  101 at Wed Aug 25 09:20:37 2021, MaxMem= 24159191040 cpu:        10.3
 (Enter /public/home/users/caep010/software/Gaussian09/g09/l103.exe)

 GradGradGradGradGradGradGradGradGradGradGradGradGradGradGradGradGradGrad
 Berny optimization.
 Initialization pass.
                           ----------------------------
                           !    Initial Parameters    !
                           ! (Angstroms and Degrees)  !
 --------------------------                            --------------------------
 ! Name  Definition              Value          Derivative Info.                !
 --------------------------------------------------------------------------------
 ! R1    R(1,2)                  1.4534         calculate D2E/DX2 analytically  !
 ! R2    R(1,3)                  1.3594         calculate D2E/DX2 analytically  !
 ! R3    R(1,16)                 1.4505         calculate D2E/DX2 analytically  !
 ! R4    R(2,8)                  0.9607         calculate D2E/DX2 analytically  !
 ! R5    R(2,9)                  0.96           calculate D2E/DX2 analytically  !
 ! R6    R(2,13)                 0.9602         calculate D2E/DX2 analytically  !
 ! R7    R(3,4)                  1.4079         calculate D2E/DX2 analytically  !
 ! R8    R(3,14)                 1.4146         calculate D2E/DX2 analytically  !
 ! R9    R(4,5)                  1.3884         calculate D2E/DX2 analytically  !
 ! R10   R(4,7)                  0.9296         calculate D2E/DX2 analytically  !
 ! R11   R(5,6)                  1.388          calculate D2E/DX2 analytically  !
 ! R12   R(5,10)                 0.9299         calculate D2E/DX2 analytically  !
 ! R13   R(6,11)                 1.375          calculate D2E/DX2 analytically  !
 ! R14   R(6,20)                 1.5027         calculate D2E/DX2 analytically  !
 ! R15   R(11,12)                0.9297         calculate D2E/DX2 analytically  !
 ! R16   R(11,14)                1.363          calculate D2E/DX2 analytically  !
 ! R17   R(14,15)                0.9302         calculate D2E/DX2 analytically  !
 ! R18   R(16,17)                0.9594         calculate D2E/DX2 analytically  !
 ! R19   R(16,18)                0.9593         calculate D2E/DX2 analytically  !
 ! R20   R(16,19)                0.96           calculate D2E/DX2 analytically  !
 ! R21   R(20,21)                1.2373         calculate D2E/DX2 analytically  !
 ! R22   R(20,25)                0.9299         calculate D2E/DX2 analytically  !
 ! R23   R(21,22)                1.4427         calculate D2E/DX2 analytically  !
 ! R24   R(21,24)                0.9297         calculate D2E/DX2 analytically  !
 ! R25   R(22,23)                1.2377         calculate D2E/DX2 analytically  !
 ! R26   R(22,26)                1.2201         calculate D2E/DX2 analytically  !
 ! A1    A(2,1,3)              120.9627         calculate D2E/DX2 analytically  !
 ! A2    A(2,1,16)             117.073          calculate D2E/DX2 analytically  !
 ! A3    A(3,1,16)             121.3823         calculate D2E/DX2 analytically  !
 ! A4    A(1,2,8)              109.4851         calculate D2E/DX2 analytically  !
 ! A5    A(1,2,9)              109.4592         calculate D2E/DX2 analytically  !
 ! A6    A(1,2,13)             109.4188         calculate D2E/DX2 analytically  !
 ! A7    A(8,2,9)              109.458          calculate D2E/DX2 analytically  !
 ! A8    A(8,2,13)             109.5771         calculate D2E/DX2 analytically  !
 ! A9    A(9,2,13)             109.429          calculate D2E/DX2 analytically  !
 ! A10   A(1,3,4)              123.0523         calculate D2E/DX2 analytically  !
 ! A11   A(1,3,14)             121.0993         calculate D2E/DX2 analytically  !
 ! A12   A(4,3,14)             115.8478         calculate D2E/DX2 analytically  !
 ! A13   A(3,4,5)              120.8603         calculate D2E/DX2 analytically  !
 ! A14   A(3,4,7)              119.5465         calculate D2E/DX2 analytically  !
 ! A15   A(5,4,7)              119.5932         calculate D2E/DX2 analytically  !
 ! A16   A(4,5,6)              122.3538         calculate D2E/DX2 analytically  !
 ! A17   A(4,5,10)             118.8264         calculate D2E/DX2 analytically  !
 ! A18   A(6,5,10)             118.8198         calculate D2E/DX2 analytically  !
 ! A19   A(5,6,11)             116.3003         calculate D2E/DX2 analytically  !
 ! A20   A(5,6,20)             126.1686         calculate D2E/DX2 analytically  !
 ! A21   A(11,6,20)            117.5297         calculate D2E/DX2 analytically  !
 ! A22   A(6,11,12)            118.45           calculate D2E/DX2 analytically  !
 ! A23   A(6,11,14)            123.1834         calculate D2E/DX2 analytically  !
 ! A24   A(12,11,14)           118.3665         calculate D2E/DX2 analytically  !
 ! A25   A(3,14,11)            121.422          calculate D2E/DX2 analytically  !
 ! A26   A(3,14,15)            119.2217         calculate D2E/DX2 analytically  !
 ! A27   A(11,14,15)           119.3563         calculate D2E/DX2 analytically  !
 ! A28   A(1,16,17)            109.4587         calculate D2E/DX2 analytically  !
 ! A29   A(1,16,18)            109.4828         calculate D2E/DX2 analytically  !
 ! A30   A(1,16,19)            109.4369         calculate D2E/DX2 analytically  !
 ! A31   A(17,16,18)           109.4518         calculate D2E/DX2 analytically  !
 ! A32   A(17,16,19)           109.5215         calculate D2E/DX2 analytically  !
 ! A33   A(18,16,19)           109.4757         calculate D2E/DX2 analytically  !
 ! A34   A(6,20,21)            126.7017         calculate D2E/DX2 analytically  !
 ! A35   A(6,20,25)            116.5651         calculate D2E/DX2 analytically  !
 ! A36   A(21,20,25)           116.7332         calculate D2E/DX2 analytically  !
 ! A37   A(20,21,22)           120.6251         calculate D2E/DX2 analytically  !
 ! A38   A(20,21,24)           119.7031         calculate D2E/DX2 analytically  !
 ! A39   A(22,21,24)           119.6718         calculate D2E/DX2 analytically  !
 ! A40   A(21,22,23)           124.2883         calculate D2E/DX2 analytically  !
 ! A41   A(21,22,26)           113.1082         calculate D2E/DX2 analytically  !
 ! A42   A(23,22,26)           122.5899         calculate D2E/DX2 analytically  !
 ! D1    D(3,1,2,8)            179.9074         calculate D2E/DX2 analytically  !
 ! D2    D(3,1,2,9)             59.9224         calculate D2E/DX2 analytically  !
 ! D3    D(3,1,2,13)           -59.9865         calculate D2E/DX2 analytically  !
 ! D4    D(16,1,2,8)             8.5371         calculate D2E/DX2 analytically  !
 ! D5    D(16,1,2,9)          -111.4478         calculate D2E/DX2 analytically  !
 ! D6    D(16,1,2,13)          128.6432         calculate D2E/DX2 analytically  !
 ! D7    D(2,1,3,4)              2.7121         calculate D2E/DX2 analytically  !
 ! D8    D(2,1,3,14)          -176.9667         calculate D2E/DX2 analytically  !
 ! D9    D(16,1,3,4)           173.7082         calculate D2E/DX2 analytically  !
 ! D10   D(16,1,3,14)           -5.9707         calculate D2E/DX2 analytically  !
 ! D11   D(2,1,16,17)           -8.6634         calculate D2E/DX2 analytically  !
 ! D12   D(2,1,16,18)         -128.639          calculate D2E/DX2 analytically  !
 ! D13   D(2,1,16,19)          111.3695         calculate D2E/DX2 analytically  !
 ! D14   D(3,1,16,17)         -179.995          calculate D2E/DX2 analytically  !
 ! D15   D(3,1,16,18)           60.0294         calculate D2E/DX2 analytically  !
 ! D16   D(3,1,16,19)          -59.9621         calculate D2E/DX2 analytically  !
 ! D17   D(1,3,4,5)            179.1495         calculate D2E/DX2 analytically  !
 ! D18   D(1,3,4,7)             -0.8836         calculate D2E/DX2 analytically  !
 ! D19   D(14,3,4,5)            -1.156          calculate D2E/DX2 analytically  !
 ! D20   D(14,3,4,7)           178.8109         calculate D2E/DX2 analytically  !
 ! D21   D(1,3,14,11)         -179.1068         calculate D2E/DX2 analytically  !
 ! D22   D(1,3,14,15)            0.8369         calculate D2E/DX2 analytically  !
 ! D23   D(4,3,14,11)            1.1923         calculate D2E/DX2 analytically  !
 ! D24   D(4,3,14,15)         -178.864          calculate D2E/DX2 analytically  !
 ! D25   D(3,4,5,6)             -0.2782         calculate D2E/DX2 analytically  !
 ! D26   D(3,4,5,10)           179.6775         calculate D2E/DX2 analytically  !
 ! D27   D(7,4,5,6)            179.7549         calculate D2E/DX2 analytically  !
 ! D28   D(7,4,5,10)            -0.2894         calculate D2E/DX2 analytically  !
 ! D29   D(4,5,6,11)             1.6741         calculate D2E/DX2 analytically  !
 ! D30   D(4,5,6,20)          -178.7862         calculate D2E/DX2 analytically  !
 ! D31   D(10,5,6,11)         -178.2816         calculate D2E/DX2 analytically  !
 ! D32   D(10,5,6,20)            1.2581         calculate D2E/DX2 analytically  !
 ! D33   D(5,6,11,12)          178.2849         calculate D2E/DX2 analytically  !
 ! D34   D(5,6,11,14)           -1.6592         calculate D2E/DX2 analytically  !
 ! D35   D(20,6,11,12)          -1.2961         calculate D2E/DX2 analytically  !
 ! D36   D(20,6,11,14)         178.7598         calculate D2E/DX2 analytically  !
 ! D37   D(5,6,20,21)           -0.0753         calculate D2E/DX2 analytically  !
 ! D38   D(5,6,20,25)          179.973          calculate D2E/DX2 analytically  !
 ! D39   D(11,6,20,21)         179.4593         calculate D2E/DX2 analytically  !
 ! D40   D(11,6,20,25)          -0.4924         calculate D2E/DX2 analytically  !
 ! D41   D(6,11,14,3)            0.2334         calculate D2E/DX2 analytically  !
 ! D42   D(6,11,14,15)        -179.7102         calculate D2E/DX2 analytically  !
 ! D43   D(12,11,14,3)        -179.7107         calculate D2E/DX2 analytically  !
 ! D44   D(12,11,14,15)          0.3456         calculate D2E/DX2 analytically  !
 ! D45   D(6,20,21,22)         179.9421         calculate D2E/DX2 analytically  !
 ! D46   D(6,20,21,24)           0.0042         calculate D2E/DX2 analytically  !
 ! D47   D(25,20,21,22)         -0.1062         calculate D2E/DX2 analytically  !
 ! D48   D(25,20,21,24)        179.9558         calculate D2E/DX2 analytically  !
 ! D49   D(20,21,22,23)          0.9083         calculate D2E/DX2 analytically  !
 ! D50   D(20,21,22,26)        179.5913         calculate D2E/DX2 analytically  !
 ! D51   D(24,21,22,23)       -179.1537         calculate D2E/DX2 analytically  !
 ! D52   D(24,21,22,26)         -0.4707         calculate D2E/DX2 analytically  !
 --------------------------------------------------------------------------------
 Trust Radius=3.00D-01 FncErr=1.00D-07 GrdErr=1.00D-06
 Number of steps in this run=    130 maximum allowed number of steps=    156.
 GradGradGradGradGradGradGradGradGradGradGradGradGradGradGradGradGradGrad

 Leave Link  103 at Wed Aug 25 09:20:38 2021, MaxMem= 24159191040 cpu:         0.5
 (Enter /public/home/users/caep010/software/Gaussian09/g09/l202.exe)
                          Input orientation:                          
 ---------------------------------------------------------------------
 Center     Atomic      Atomic             Coordinates (Angstroms)
 Number     Number       Type             X           Y           Z
 ---------------------------------------------------------------------
      1          7           0        9.250700    1.677500   17.157800
      2          6           0        8.297900    0.909600   17.941900
      3          6           0        9.284700    1.575300   15.802700
      4          6           0        8.383500    0.779800   15.069800
      5          6           0        8.448500    0.722400   13.684100
      6          6           0        9.386800    1.438900   12.954200
      7          1           0        7.736900    0.286300   15.519900
      8          1           0        8.418600    1.105700   18.874600
      9          1           0        8.441200   -0.027600   17.791000
     10          1           0        7.842100    0.184200   13.228700
     11          6           0       10.280900    2.188900   13.681300
     12          1           0       10.937700    2.661600   13.223600
     13          1           0        7.404900    1.142900   17.677000
     14          6           0       10.252000    2.272400   15.041400
     15          1           0       10.881000    2.799500   15.479400
     16          6           0       10.276700    2.398400   17.886900
     17          1           0       10.086000    2.362600   18.826500
     18          1           0       10.291200    3.313200   17.598500
     19          1           0       11.131600    1.995800   17.717500
     20          6           0        9.517800    1.460500   11.457400
     21          6           0        8.815600    0.846200   10.644700
     22          7           0        9.057900    0.964000    9.227400
     23          8           0        9.961200    1.647700    8.728900
     24          1           0        8.124700    0.304200   10.950000
     25          1           0       10.197300    1.989900   11.107000
     26          8           0        8.291700    0.295200    8.553400
 ---------------------------------------------------------------------
                    Distance matrix (angstroms):
                    1          2          3          4          5
     1  N    0.000000
     2  C    1.453379   0.000000
     3  C    1.359374   2.448082   0.000000
     4  C    2.432621   2.876306   1.407879   0.000000
     5  C    3.690844   4.264573   2.432105   1.388411   0.000000
     6  C    4.212565   5.132544   2.853591   2.432445   1.387996
     7  H    2.628639   2.563066   2.034006   0.929636   2.016611
     8  H    1.991670   0.960704   3.226023   3.818893   5.204719
     9  H    1.990879   0.960026   2.689631   2.839041   4.174827
    10  H    4.433049   4.790429   3.262166   2.009354   0.929930
    11  C    3.661816   4.870484   2.422655   2.741099   2.346981
    12  H    4.392306   5.683344   3.250264   3.670635   3.188836
    13  H    1.990564   0.960234   2.689539   2.808379   4.148394
    14  C    2.415710   3.753483   1.414636   2.391642   2.738134
    15  H    2.594954   4.038321   2.037489   3.237973   3.668038
    16  C    1.450503   2.476934   2.450601   3.760336   4.880043
    17  H    1.987875   2.468001   3.225723   4.417755   5.640562
    18  H    1.988057   3.141411   2.694111   4.056077   5.042848
    19  H    1.988055   3.043032   2.693384   4.005125   5.008881
    20  C    5.710779   6.621207   4.353062   3.847002   2.578059
    21  C    6.580338   7.315816   5.230354   4.446642   3.063991
    22  N    7.964766   8.747747   6.607548   5.884079   4.504655
    23  O    8.458845   9.390992   7.106444   6.591616   5.262932
    24  H    6.456827   7.020198   5.148786   4.155229   2.784787
    25  H    6.132359   7.175697   4.801493   4.523052   3.362485
    26  O    8.767333   9.408584   7.428126   6.535039   5.150842
                    6          7          8          9         10
     6  C    0.000000
     7  H    3.260901   0.000000
     8  H    6.008292   3.519964   0.000000
     9  H    5.141927   2.398430   1.568142   0.000000
    10  H    2.008910   2.295885   5.749583   4.606339   0.000000
    11  C    1.374987   3.670459   5.622441   5.018665   3.189265
    12  H    1.993204   4.600018   6.379694   5.858793   3.964880
    13  H    5.130340   2.344583   1.569464   1.567477   4.571392
    14  C    2.408256   3.240260   4.406355   4.016130   3.667980
    15  H    3.234270   4.025317   4.523246   4.391880   4.597864
    16  C    5.103341   4.063772   2.469648   3.043638   5.703401
    17  H    5.985483   4.556632   2.088620   3.080695   6.412166
    18  H    5.089250   4.472935   3.163561   3.823676   5.906258
    19  H    5.103282   4.390424   3.080832   3.367165   5.852523
    20  C    1.502677   4.588492   7.506596   6.594543   2.752166
    21  C    2.451806   5.024406   8.243555   7.209251   2.839543
    22  N    3.771305   6.465282   9.669398   8.642849   4.254017
    23  O    4.269273   7.274517  10.276605   9.340165   5.184652
    24  H    2.626263   4.586360   7.970449   6.856351   2.299290
    25  H    2.091090   5.331933   8.017555   7.199309   3.648168
    26  O    4.677001   6.988562  10.353752   9.244447   4.698180
                   11         12         13         14         15
    11  C    0.000000
    12  H    0.929689   0.000000
    13  H    5.033002   5.883868   0.000000
    14  C    1.362967   1.981428   4.040809   0.000000
    15  H    1.991511   2.260722   4.433626   0.930225   0.000000
    16  C    4.210817   4.717262   3.141269   2.848395   2.514382
    17  H    5.151819   5.675146   3.161853   3.789812   3.467850
    18  H    4.075367   4.470156   3.612076   2.761080   2.258835
    19  H    4.129393   4.547090   3.823267   2.830497   2.391198
    20  C    2.461426   2.564804   6.576370   3.747437   4.452833
    21  C    3.629172   3.801278   7.178534   4.840275   5.608528
    22  N    4.778424   4.731290   8.611629   6.077860   6.766111
    23  O    4.992131   4.709976   9.319763   6.349998   6.909553
    24  H    3.957435   4.317356   6.817188   5.013858   5.859964
    25  H    2.583333   2.340805   7.188867   3.944908   4.498975
    26  O    5.817076   5.866169   9.205709   7.060187   7.806758
                   16         17         18         19         20
    16  C    0.000000
    17  H    0.959425   0.000000
    18  H    0.959293   1.566439   0.000000
    19  H    0.960019   1.567706   1.567155   0.000000
    20  C    6.541717   7.445822   6.460941   6.486891   0.000000
    21  C    7.549410   8.417555   7.524548   7.530600   1.237308
    22  N    8.861711   9.754783   8.781520   8.800377   2.330433
    23  O    9.194132  10.123645   9.030648   9.071160   2.770624
    24  H    7.558926   8.373945   7.612513   7.596184   1.880216
    25  H    6.792659   7.729293   6.625671   6.676201   0.929927
    26  O    9.771279  10.631568   9.742698   9.743603   3.360723
                   21         22         23         24         25
    21  C    0.000000
    22  N    1.442680   0.000000
    23  O    2.371727   1.237699   0.000000
    24  H    0.929685   2.067256   3.179781   0.000000
    25  H    1.852260   2.425613   2.414167   2.676173   0.000000
    26  O    2.225221   1.220095   2.155757   2.402428   3.608905
                   26
    26  O    0.000000
 Stoichiometry    C10H12N2O2
 Framework group  C1[X(C10H12N2O2)]
 Deg. of freedom    72
 Full point group                 C1      NOp   1
 Largest Abelian subgroup         C1      NOp   1
 Largest concise Abelian subgroup C1      NOp   1
                         Standard orientation:                         
 ---------------------------------------------------------------------
 Center     Atomic      Atomic             Coordinates (Angstroms)
 Number     Number       Type             X           Y           Z
 ---------------------------------------------------------------------
      1          7           0       -3.679740   -0.081132   -0.060767
      2          6           0       -4.369254   -1.359460   -0.008240
      3          6           0       -2.322343   -0.016720   -0.025845
      4          6           0       -1.499977   -1.159009    0.006002
      5          6           0       -0.116746   -1.040464    0.023413
      6          6           0        0.523519    0.190898    0.004924
      7          1           0       -1.888539   -2.003488    0.015957
      8          1           0       -5.318183   -1.213343   -0.041969
      9          1           0       -4.144043   -1.810991    0.808491
     10          1           0        0.399249   -1.813681    0.048984
     11          6           0       -0.289037    1.300105    0.004120
     12          1           0        0.108559    2.140395    0.016420
     13          1           0       -4.099925   -1.898422   -0.755923
     14          6           0       -1.649983    1.227851   -0.012730
     15          1           0       -2.148348    2.013305   -0.016480
     16          6           0       -4.495549    1.113724    0.042842
     17          1           0       -5.423056    0.872238   -0.000887
     18          1           0       -4.285749    1.708078   -0.680325
     19          1           0       -4.316962    1.551000    0.878626
     20          6           0        2.008900    0.418044   -0.004338
     21          6           0        2.889889   -0.450700    0.004307
     22          7           0        4.284849   -0.082918   -0.007822
     23          8           0        4.698377    1.083652   -0.010866
     24          1           0        2.650887   -1.349036    0.017880
     25          1           0        2.294206    1.303029   -0.017270
     26          8           0        5.034077   -1.045696    0.010852
 ---------------------------------------------------------------------
 Rotational constants (GHZ):      2.7658100      0.2402222      0.2215253
 Leave Link  202 at Wed Aug 25 09:20:38 2021, MaxMem= 24159191040 cpu:         0.6
 (Enter /public/home/users/caep010/software/Gaussian09/g09/l301.exe)
 Standard basis: GTBas3 (6D, 7F)
 Ernie: Thresh=  0.10000D-02 Tol=  0.10000D-05 Strict=F.
 There are   494 symmetry adapted cartesian basis functions of A   symmetry.
 There are   452 symmetry adapted basis functions of A   symmetry.
   452 basis functions,   700 primitive gaussians,   494 cartesian basis functions
    51 alpha electrons       51 beta electrons
       nuclear repulsion energy       830.8784189276 Hartrees.
 IExCor=  402 DFT=T Ex+Corr=B3LYP ExCW=0 ScaHFX=  0.200000
 ScaDFX=  0.800000  0.720000  1.000000  0.810000 ScalE2=  1.000000  1.000000
 IRadAn=      0 IRanWt=     -1 IRanGd=            0 ICorTp=0 IEmpDi=  4
 NAtoms=   26 NActive=   26 NUniq=   26 SFac= 1.00D+00 NAtFMM=   60 NAOKFM=F Big=F
 Integral buffers will be    131072 words long.
 Raffenetti 2 integral format.
 Two-electron integral symmetry is turned on.
 Leave Link  301 at Wed Aug 25 09:20:38 2021, MaxMem= 24159191040 cpu:         1.9
 (Enter /public/home/users/caep010/software/Gaussian09/g09/l302.exe)
 NPDir=0 NMtPBC=     1 NCelOv=     1 NCel=       1 NClECP=     1 NCelD=      1
         NCelK=      1 NCelE2=     1 NClLst=     1 CellRange=     0.0.
 One-electron integrals computed using PRISM.
 NBasis=   452 RedAO= T EigKep=  9.08D-05  NBF=   452
 NBsUse=   452 1.00D-06 EigRej= -1.00D+00 NBFU=   452
 Precomputing XC quadrature grid using
 IXCGrd= 4 IRadAn=           0 IRanWt=          -1 IRanGd=           0 AccXCQ= 0.00D+00.
 Generated NRdTot=       0 NPtTot=           0 NUsed=           0 NTot=          32
 NSgBfM=   488   488   489   490   490 MxSgAt=    26 MxSgA2=    26.
 Leave Link  302 at Wed Aug 25 09:20:38 2021, MaxMem= 24159191040 cpu:        20.4
 (Enter /public/home/users/caep010/software/Gaussian09/g09/l303.exe)
 DipDrv:  MaxL=1.
 Leave Link  303 at Wed Aug 25 09:20:39 2021, MaxMem= 24159191040 cpu:         1.7
 (Enter /public/home/users/caep010/software/Gaussian09/g09/l401.exe)
 ExpMin= 1.61D-01 ExpMax= 5.48D+03 ExpMxC= 8.25D+02 IAcc=1 IRadAn=         1 AccDes= 0.00D+00
 Harris functional with IExCor=  402 and IRadAn=       1 diagonalized for initial guess.
 HarFok:  IExCor=  402 AccDes= 0.00D+00 IRadAn=         1 IDoV= 1 UseB2=F ITyADJ=14
 ICtDFT=  3500011 ScaDFX=  1.000000  1.000000  1.000000  1.000000
 FoFCou: FMM=F IPFlag=           0 FMFlag=      100000 FMFlg1=           0
         NFxFlg=           0 DoJE=T BraDBF=F KetDBF=T FulRan=T
         wScrn=  0.000000 ICntrl=     500 IOpCl=  0 I1Cent=   200000004 NGrid=           0
         NMat0=    1 NMatS0=      1 NMatT0=    0 NMatD0=    1 NMtDS0=    0 NMtDT0=    0
 Petite list used in FoFCou.
 Harris En= -648.151613215826    
 JPrj=0 DoOrth=F DoCkMO=F.
 Leave Link  401 at Wed Aug 25 09:20:39 2021, MaxMem= 24159191040 cpu:        21.0
 (Enter /public/home/users/caep010/software/Gaussian09/g09/l502.exe)
 Closed shell SCF:
 Using DIIS extrapolation, IDIIS=  1040.
 Integral symmetry usage will be decided dynamically.
 Keep R1 ints in memory in canonical form, NReq=5302092125.
 IVT=      770054 IEndB=      770054 NGot= 24159191040 MDV= 18917742356
 LenX= 18917742356 LenY= 18917497826
 Requested convergence on RMS density matrix=1.00D-08 within 128 cycles.
 Requested convergence on MAX density matrix=1.00D-06.
 Requested convergence on             energy=1.00D-06.
 No special actions if energy rises.
 FoFCou: FMM=F IPFlag=           0 FMFlag=           0 FMFlg1=           0
         NFxFlg=           0 DoJE=F BraDBF=F KetDBF=F FulRan=T
         wScrn=  0.000000 ICntrl=     600 IOpCl=  0 I1Cent=           0 NGrid=           0
         NMat0=    1 NMatS0= 102378 NMatT0=    0 NMatD0=    1 NMtDS0=    0 NMtDT0=    0
 Symmetry not used in FoFCou.
 Integral accuracy reduced to 1.0D-05 until final iterations.

 Cycle   1  Pass 0  IDiag  1:
 E= -647.412651664121    
 DIIS: error= 3.56D-02 at cycle   1 NSaved=   1.
 NSaved= 1 IEnMin= 1 EnMin= -647.412651664121     IErMin= 1 ErrMin= 3.56D-02
 ErrMax= 3.56D-02  0.00D+00 EMaxC= 1.00D-01 BMatC= 5.83D-01 BMatP= 5.83D-01
 IDIUse=3 WtCom= 6.44D-01 WtEn= 3.56D-01
 Coeff-Com:  0.100D+01
 Coeff-En:   0.100D+01
 Coeff:      0.100D+01
 Gap=     0.131 Goal=   None    Shift=    0.000
 GapD=    0.131 DampG=1.000 DampE=0.500 DampFc=0.5000 IDamp=-1.
 Damping current iteration by 5.00D-01
 RMSDP=3.31D-03 MaxDP=2.49D-01              OVMax= 3.41D-01

 Cycle   2  Pass 0  IDiag  1:
 E= -647.609013696156     Delta-E=       -0.196362032035 Rises=F Damp=T
 DIIS: error= 1.43D-02 at cycle   2 NSaved=   2.
 NSaved= 2 IEnMin= 2 EnMin= -647.609013696156     IErMin= 2 ErrMin= 1.43D-02
 ErrMax= 1.43D-02  0.00D+00 EMaxC= 1.00D-01 BMatC= 6.90D-02 BMatP= 5.83D-01
 IDIUse=3 WtCom= 8.57D-01 WtEn= 1.43D-01
 Coeff-Com:  0.156D+00 0.844D+00
 Coeff-En:   0.224D+00 0.776D+00
 Coeff:      0.166D+00 0.834D+00
 Gap=     0.155 Goal=   None    Shift=    0.000
 RMSDP=1.03D-03 MaxDP=9.52D-02 DE=-1.96D-01 OVMax= 2.59D-01

 Cycle   3  Pass 0  IDiag  1:
 E= -647.890244596382     Delta-E=       -0.281230900226 Rises=F Damp=F
 DIIS: error= 1.47D-02 at cycle   3 NSaved=   3.
 NSaved= 3 IEnMin= 3 EnMin= -647.890244596382     IErMin= 2 ErrMin= 1.43D-02
 ErrMax= 1.47D-02  0.00D+00 EMaxC= 1.00D-01 BMatC= 5.37D-02 BMatP= 6.90D-02
 IDIUse=3 WtCom= 8.53D-01 WtEn= 1.47D-01
 Coeff-Com:  0.196D-01 0.463D+00 0.517D+00
 Coeff-En:   0.000D+00 0.000D+00 0.100D+01
 Coeff:      0.167D-01 0.395D+00 0.588D+00
 Gap=     0.135 Goal=   None    Shift=    0.000
 RMSDP=6.33D-04 MaxDP=5.46D-02 DE=-2.81D-01 OVMax= 7.41D-02

 Cycle   4  Pass 0  IDiag  1:
 E= -647.921403847791     Delta-E=       -0.031159251409 Rises=F Damp=F
 DIIS: error= 7.57D-03 at cycle   4 NSaved=   4.
 NSaved= 4 IEnMin= 4 EnMin= -647.921403847791     IErMin= 4 ErrMin= 7.57D-03
 ErrMax= 7.57D-03  0.00D+00 EMaxC= 1.00D-01 BMatC= 1.71D-02 BMatP= 5.37D-02
 IDIUse=3 WtCom= 9.24D-01 WtEn= 7.57D-02
 Coeff-Com:  0.102D-01 0.146D+00 0.373D+00 0.470D+00
 Coeff-En:   0.000D+00 0.000D+00 0.268D+00 0.732D+00
 Coeff:      0.940D-02 0.135D+00 0.365D+00 0.490D+00
 Gap=     0.128 Goal=   None    Shift=    0.000
 RMSDP=3.39D-04 MaxDP=3.70D-02 DE=-3.12D-02 OVMax= 5.96D-02

 Cycle   5  Pass 0  IDiag  1:
 E= -647.931954381652     Delta-E=       -0.010550533861 Rises=F Damp=F
 DIIS: error= 6.02D-03 at cycle   5 NSaved=   5.
 NSaved= 5 IEnMin= 5 EnMin= -647.931954381652     IErMin= 5 ErrMin= 6.02D-03
 ErrMax= 6.02D-03  0.00D+00 EMaxC= 1.00D-01 BMatC= 4.70D-03 BMatP= 1.71D-02
 IDIUse=3 WtCom= 9.40D-01 WtEn= 6.02D-02
 Coeff-Com:  0.608D-02 0.279D-01 0.204D+00 0.396D+00 0.365D+00
 Coeff-En:   0.000D+00 0.000D+00 0.000D+00 0.219D+00 0.781D+00
 Coeff:      0.571D-02 0.262D-01 0.192D+00 0.385D+00 0.390D+00
 Gap=     0.129 Goal=   None    Shift=    0.000
 RMSDP=1.67D-04 MaxDP=1.89D-02 DE=-1.06D-02 OVMax= 3.95D-02

 Cycle   6  Pass 0  IDiag  1:
 E= -647.935364736818     Delta-E=       -0.003410355166 Rises=F Damp=F
 DIIS: error= 1.55D-03 at cycle   6 NSaved=   6.
 NSaved= 6 IEnMin= 6 EnMin= -647.935364736818     IErMin= 6 ErrMin= 1.55D-03
 ErrMax= 1.55D-03  0.00D+00 EMaxC= 1.00D-01 BMatC= 4.19D-04 BMatP= 4.70D-03
 IDIUse=3 WtCom= 9.85D-01 WtEn= 1.55D-02
 Coeff-Com:  0.215D-02 0.159D-02 0.781D-01 0.185D+00 0.269D+00 0.464D+00
 Coeff-En:   0.000D+00 0.000D+00 0.000D+00 0.000D+00 0.983D-01 0.902D+00
 Coeff:      0.211D-02 0.157D-02 0.769D-01 0.182D+00 0.267D+00 0.471D+00
 Gap=     0.132 Goal=   None    Shift=    0.000
 RMSDP=5.01D-05 MaxDP=5.45D-03 DE=-3.41D-03 OVMax= 8.94D-03

 Cycle   7  Pass 0  IDiag  1:
 E= -647.935688540307     Delta-E=       -0.000323803489 Rises=F Damp=F
 DIIS: error= 2.21D-04 at cycle   7 NSaved=   7.
 NSaved= 7 IEnMin= 7 EnMin= -647.935688540307     IErMin= 7 ErrMin= 2.21D-04
 ErrMax= 2.21D-04  0.00D+00 EMaxC= 1.00D-01 BMatC= 1.57D-05 BMatP= 4.19D-04
 IDIUse=3 WtCom= 9.98D-01 WtEn= 2.21D-03
 Coeff-Com:  0.673D-03-0.179D-02 0.239D-01 0.638D-01 0.112D+00 0.253D+00
 Coeff-Com:  0.548D+00
 Coeff-En:   0.000D+00 0.000D+00 0.000D+00 0.000D+00 0.000D+00 0.000D+00
 Coeff-En:   0.100D+01
 Coeff:      0.671D-03-0.179D-02 0.238D-01 0.637D-01 0.112D+00 0.253D+00
 Coeff:      0.549D+00
 Gap=     0.131 Goal=   None    Shift=    0.000
 RMSDP=1.18D-05 MaxDP=7.12D-04 DE=-3.24D-04 OVMax= 1.99D-03

 Cycle   8  Pass 0  IDiag  1:
 E= -647.935700759668     Delta-E=       -0.000012219361 Rises=F Damp=F
 DIIS: error= 9.37D-05 at cycle   8 NSaved=   8.
 NSaved= 8 IEnMin= 8 EnMin= -647.935700759668     IErMin= 8 ErrMin= 9.37D-05
 ErrMax= 9.37D-05  0.00D+00 EMaxC= 1.00D-01 BMatC= 3.54D-06 BMatP= 1.57D-05
 IDIUse=1 WtCom= 1.00D+00 WtEn= 0.00D+00
 Coeff-Com:  0.228D-03-0.169D-02 0.624D-02 0.201D-01 0.427D-01 0.113D+00
 Coeff-Com:  0.363D+00 0.457D+00
 Coeff:      0.228D-03-0.169D-02 0.624D-02 0.201D-01 0.427D-01 0.113D+00
 Coeff:      0.363D+00 0.457D+00
 Gap=     0.131 Goal=   None    Shift=    0.000
 RMSDP=5.02D-06 MaxDP=2.57D-04 DE=-1.22D-05 OVMax= 8.36D-04

 Initial convergence to 1.0D-05 achieved.  Increase integral accuracy.
 Cycle   9  Pass 1  IDiag  1:
 E= -647.935652426212     Delta-E=        0.000048333456 Rises=F Damp=F
 DIIS: error= 1.75D-05 at cycle   1 NSaved=   1.
 NSaved= 1 IEnMin= 1 EnMin= -647.935652426212     IErMin= 1 ErrMin= 1.75D-05
 ErrMax= 1.75D-05  0.00D+00 EMaxC= 1.00D-01 BMatC= 3.03D-07 BMatP= 3.03D-07
 IDIUse=1 WtCom= 1.00D+00 WtEn= 0.00D+00
 Coeff-Com:  0.100D+01
 Coeff:      0.100D+01
 Gap=     0.131 Goal=   None    Shift=    0.000
 RMSDP=5.02D-06 MaxDP=2.57D-04 DE= 4.83D-05 OVMax= 5.36D-04

 Cycle  10  Pass 1  IDiag  1:
 E= -647.935652223552     Delta-E=        0.000000202660 Rises=F Damp=F
 DIIS: error= 3.58D-05 at cycle   2 NSaved=   2.
 NSaved= 2 IEnMin= 1 EnMin= -647.935652426212     IErMin= 1 ErrMin= 1.75D-05
 ErrMax= 3.58D-05  0.00D+00 EMaxC= 1.00D-01 BMatC= 4.65D-07 BMatP= 3.03D-07
 IDIUse=1 WtCom= 1.00D+00 WtEn= 0.00D+00
 Coeff-Com:  0.567D+00 0.433D+00
 Coeff:      0.567D+00 0.433D+00
 Gap=     0.131 Goal=   None    Shift=    0.000
 RMSDP=2.22D-06 MaxDP=1.63D-04 DE= 2.03D-07 OVMax= 4.70D-04

 Cycle  11  Pass 1  IDiag  1:
 E= -647.935652652536     Delta-E=       -0.000000428984 Rises=F Damp=F
 DIIS: error= 1.24D-05 at cycle   3 NSaved=   3.
 NSaved= 3 IEnMin= 3 EnMin= -647.935652652536     IErMin= 3 ErrMin= 1.24D-05
 ErrMax= 1.24D-05  0.00D+00 EMaxC= 1.00D-01 BMatC= 6.69D-08 BMatP= 3.03D-07
 IDIUse=1 WtCom= 1.00D+00 WtEn= 0.00D+00
 Coeff-Com:  0.611D-01 0.270D+00 0.669D+00
 Coeff:      0.611D-01 0.270D+00 0.669D+00
 Gap=     0.131 Goal=   None    Shift=    0.000
 RMSDP=6.69D-07 MaxDP=4.61D-05 DE=-4.29D-07 OVMax= 1.23D-04

 Cycle  12  Pass 1  IDiag  1:
 E= -647.935652711061     Delta-E=       -0.000000058525 Rises=F Damp=F
 DIIS: error= 5.80D-06 at cycle   4 NSaved=   4.
 NSaved= 4 IEnMin= 4 EnMin= -647.935652711061     IErMin= 4 ErrMin= 5.80D-06
 ErrMax= 5.80D-06  0.00D+00 EMaxC= 1.00D-01 BMatC= 1.11D-08 BMatP= 6.69D-08
 IDIUse=1 WtCom= 1.00D+00 WtEn= 0.00D+00
 Coeff-Com: -0.808D-02 0.137D+00 0.417D+00 0.454D+00
 Coeff:     -0.808D-02 0.137D+00 0.417D+00 0.454D+00
 Gap=     0.131 Goal=   None    Shift=    0.000
 RMSDP=2.87D-07 MaxDP=2.71D-05 DE=-5.85D-08 OVMax= 5.13D-05

 Cycle  13  Pass 1  IDiag  1:
 E= -647.935652718950     Delta-E=       -0.000000007889 Rises=F Damp=F
 DIIS: error= 4.30D-06 at cycle   5 NSaved=   5.
 NSaved= 5 IEnMin= 5 EnMin= -647.935652718950     IErMin= 5 ErrMin= 4.30D-06
 ErrMax= 4.30D-06  0.00D+00 EMaxC= 1.00D-01 BMatC= 2.42D-09 BMatP= 1.11D-08
 IDIUse=1 WtCom= 1.00D+00 WtEn= 0.00D+00
 Coeff-Com: -0.105D-01 0.818D-01 0.257D+00 0.341D+00 0.331D+00
 Coeff:     -0.105D-01 0.818D-01 0.257D+00 0.341D+00 0.331D+00
 Gap=     0.131 Goal=   None    Shift=    0.000
 RMSDP=1.09D-07 MaxDP=1.18D-05 DE=-7.89D-09 OVMax= 2.61D-05

 Cycle  14  Pass 1  IDiag  1:
 E= -647.935652720795     Delta-E=       -0.000000001845 Rises=F Damp=F
 DIIS: error= 6.34D-07 at cycle   6 NSaved=   6.
 NSaved= 6 IEnMin= 6 EnMin= -647.935652720795     IErMin= 6 ErrMin= 6.34D-07
 ErrMax= 6.34D-07  0.00D+00 EMaxC= 1.00D-01 BMatC= 9.71D-11 BMatP= 2.42D-09
 IDIUse=1 WtCom= 1.00D+00 WtEn= 0.00D+00
 Coeff-Com: -0.551D-02 0.324D-01 0.102D+00 0.149D+00 0.206D+00 0.516D+00
 Coeff:     -0.551D-02 0.324D-01 0.102D+00 0.149D+00 0.206D+00 0.516D+00
 Gap=     0.131 Goal=   None    Shift=    0.000
 RMSDP=2.37D-08 MaxDP=1.78D-06 DE=-1.85D-09 OVMax= 3.48D-06

 Cycle  15  Pass 1  IDiag  1:
 E= -647.935652720851     Delta-E=       -0.000000000056 Rises=F Damp=F
 DIIS: error= 1.07D-07 at cycle   7 NSaved=   7.
 NSaved= 7 IEnMin= 7 EnMin= -647.935652720851     IErMin= 7 ErrMin= 1.07D-07
 ErrMax= 1.07D-07  0.00D+00 EMaxC= 1.00D-01 BMatC= 6.38D-12 BMatP= 9.71D-11
 IDIUse=1 WtCom= 1.00D+00 WtEn= 0.00D+00
 Coeff-Com: -0.197D-02 0.991D-02 0.310D-01 0.487D-01 0.829D-01 0.271D+00
 Coeff-Com:  0.559D+00
 Coeff:     -0.197D-02 0.991D-02 0.310D-01 0.487D-01 0.829D-01 0.271D+00
 Coeff:      0.559D+00
 Gap=     0.131 Goal=   None    Shift=    0.000
 RMSDP=6.52D-09 MaxDP=4.18D-07 DE=-5.57D-11 OVMax= 9.93D-07

 SCF Done:  E(RB3LYP) =  -647.935652721     A.U. after   15 cycles
            NFock= 15  Conv=0.65D-08     -V/T= 2.0019
 KE= 6.467265469048D+02 PE=-3.173067491612D+03 EE= 1.047526873059D+03
 Leave Link  502 at Wed Aug 25 09:23:08 2021, MaxMem= 24159191040 cpu:       678.8
 (Enter /public/home/users/caep010/software/Gaussian09/g09/l801.exe)
 DoSCS=F DFT=T ScalE2(SS,OS)=  1.000000  1.000000
 Range of M.O.s used for correlation:     1   452
 NBasis=   452 NAE=    51 NBE=    51 NFC=     0 NFV=     0
 NROrb=    452 NOA=    51 NOB=    51 NVA=   401 NVB=   401

 **** Warning!!: The largest alpha MO coefficient is  0.59236582D+02

 Leave Link  801 at Wed Aug 25 09:23:09 2021, MaxMem= 24159191040 cpu:         0.6
 (Enter /public/home/users/caep010/software/Gaussian09/g09/l1101.exe)
 Using compressed storage, NAtomX=    26.
 Will process     27 centers per pass.
 Leave Link 1101 at Wed Aug 25 09:23:10 2021, MaxMem= 24159191040 cpu:        27.5
 (Enter /public/home/users/caep010/software/Gaussian09/g09/l1102.exe)
 Symmetrizing basis deriv contribution to polar:
 IMax=3 JMax=2 DiffMx= 0.00D+00
 Leave Link 1102 at Wed Aug 25 09:23:10 2021, MaxMem= 24159191040 cpu:         1.3
 (Enter /public/home/users/caep010/software/Gaussian09/g09/l1110.exe)
 Forming Gx(P) for the SCF density, NAtomX=    26.
 Integral derivatives from FoFJK, PRISM(SPDF).
 Do as many integral derivatives as possible in FoFJK.
 G2DrvN: MDV=   24159190728.
 G2DrvN: will do    27 centers at a time, making    1 passes.
 Calling FoFCou, ICntrl=  3107 FMM=F I1Cent=   0 AccDes= 0.00D+00.
 FoFJK:  IHMeth= 1 ICntrl=    3107 DoSepK=F KAlg= 0 I1Cent=   0 FoldK=F
 IRaf=         0 NMat=   1 IRICut=       1 DoRegI=T DoRafI=F ISym2E= 0.
 FoFCou: FMM=F IPFlag=           0 FMFlag=      100000 FMFlg1=           0
         NFxFlg=           0 DoJE=F BraDBF=F KetDBF=F FulRan=T
         wScrn=  0.000000 ICntrl=    3107 IOpCl=  0 I1Cent=           0 NGrid=           0
         NMat0=    1 NMatS0=      1 NMatT0=    0 NMatD0=    1 NMtDS0=    0 NMtDT0=    0
 Symmetry not used in FoFCou.
 End of G2Drv F.D. properties file   721 does not exist.
 End of G2Drv F.D. properties file   722 does not exist.
 End of G2Drv F.D. properties file   788 does not exist.
 Leave Link 1110 at Wed Aug 25 09:23:47 2021, MaxMem= 24159191040 cpu:      1159.2
 (Enter /public/home/users/caep010/software/Gaussian09/g09/l1002.exe)
 Minotr:  Closed shell wavefunction.
          IDoAtm=11111111111111111111111111
          Direct CPHF calculation.
          Differentiating once with respect to nuclear coordinates.
          Requested convergence is 1.0D-08 RMS, and 1.0D-07 maximum.
          Secondary convergence is 1.0D-12 RMS, and 1.0D-12 maximum.
          NewPWx=T KeepS1=F KeepF1=F KeepIn=T MapXYZ=F SortEE=F KeepMc=T.
          MDV=   24159190324 using IRadAn=       2.
 Generate precomputed XC quadrature information.
 Keep R1 ints in memory in canonical form, NReq=5301331272.
 FoFCou: FMM=F IPFlag=           0 FMFlag=           0 FMFlg1=           0
         NFxFlg=           0 DoJE=F BraDBF=F KetDBF=F FulRan=T
         wScrn=  0.000000 ICntrl=     600 IOpCl=  0 I1Cent=           0 NGrid=           0
         NMat0=    1 NMatS0= 102378 NMatT0=    0 NMatD0=    1 NMtDS0=    0 NMtDT0=    0
 Symmetry not used in FoFCou.
          Solving linear equations simultaneously, MaxMat=       0.
          There are    81 degrees of freedom in the 1st order CPHF.  IDoFFX=6 NUNeed=     0.
     75 vectors produced by pass  0 Test12= 2.52D-14 1.23D-09 XBig12= 2.76D-01 1.88D-01.
 AX will form    75 AO Fock derivatives at one time.
     75 vectors produced by pass  1 Test12= 2.52D-14 1.23D-09 XBig12= 2.29D-02 4.65D-02.
     75 vectors produced by pass  2 Test12= 2.52D-14 1.23D-09 XBig12= 2.69D-04 3.60D-03.
     75 vectors produced by pass  3 Test12= 2.52D-14 1.23D-09 XBig12= 8.06D-07 1.67D-04.
     75 vectors produced by pass  4 Test12= 2.52D-14 1.23D-09 XBig12= 2.03D-09 7.03D-06.
     66 vectors produced by pass  5 Test12= 2.52D-14 1.23D-09 XBig12= 3.59D-12 2.60D-07.
     23 vectors produced by pass  6 Test12= 2.52D-14 1.23D-09 XBig12= 4.78D-15 6.68D-09.
 InvSVY:  IOpt=1 It=  1 EMax= 6.66D-16
 Solved reduced A of dimension   464 with    81 vectors.
 End of Minotr F.D. properties file   721 does not exist.
 End of Minotr F.D. properties file   722 does not exist.
 End of Minotr F.D. properties file   788 does not exist.
 Leave Link 1002 at Wed Aug 25 09:25:11 2021, MaxMem= 24159191040 cpu:      2652.5
 (Enter /public/home/users/caep010/software/Gaussian09/g09/l601.exe)
 Copying SCF densities to generalized density rwf, IOpCl= 0 IROHF=0.

 **********************************************************************

            Population analysis using the SCF density.

 **********************************************************************

 Orbital symmetries:
       Occupied  (A) (A) (A) (A) (A) (A) (A) (A) (A) (A) (A) (A)
                 (A) (A) (A) (A) (A) (A) (A) (A) (A) (A) (A) (A)
                 (A) (A) (A) (A) (A) (A) (A) (A) (A) (A) (A) (A)
                 (A) (A) (A) (A) (A) (A) (A) (A) (A) (A) (A) (A)
                 (A) (A) (A)
       Virtual   (A) (A) (A) (A) (A) (A) (A) (A) (A) (A) (A) (A)
                 (A) (A) (A) (A) (A) (A) (A) (A) (A) (A) (A) (A)
                 (A) (A) (A) (A) (A) (A) (A) (A) (A) (A) (A) (A)
                 (A) (A) (A) (A) (A) (A) (A) (A) (A) (A) (A) (A)
                 (A) (A) (A) (A) (A) (A) (A) (A) (A) (A) (A) (A)
                 (A) (A) (A) (A) (A) (A) (A) (A) (A) (A) (A) (A)
                 (A) (A) (A) (A) (A) (A) (A) (A) (A) (A) (A) (A)
                 (A) (A) (A) (A) (A) (A) (A) (A) (A) (A) (A) (A)
                 (A) (A) (A) (A) (A) (A) (A) (A) (A) (A) (A) (A)
                 (A) (A) (A) (A) (A) (A) (A) (A) (A) (A) (A) (A)
                 (A) (A) (A) (A) (A) (A) (A) (A) (A) (A) (A) (A)
                 (A) (A) (A) (A) (A) (A) (A) (A) (A) (A) (A) (A)
                 (A) (A) (A) (A) (A) (A) (A) (A) (A) (A) (A) (A)
                 (A) (A) (A) (A) (A) (A) (A) (A) (A) (A) (A) (A)
                 (A) (A) (A) (A) (A) (A) (A) (A) (A) (A) (A) (A)
                 (A) (A) (A) (A) (A) (A) (A) (A) (A) (A) (A) (A)
                 (A) (A) (A) (A) (A) (A) (A) (A) (A) (A) (A) (A)
                 (A) (A) (A) (A) (A) (A) (A) (A) (A) (A) (A) (A)
                 (A) (A) (A) (A) (A) (A) (A) (A) (A) (A) (A) (A)
                 (A) (A) (A) (A) (A) (A) (A) (A) (A) (A) (A) (A)
                 (A) (A) (A) (A) (A) (A) (A) (A) (A) (A) (A) (A)
                 (A) (A) (A) (A) (A) (A) (A) (A) (A) (A) (A) (A)
                 (A) (A) (A) (A) (A) (A) (A) (A) (A) (A) (A) (A)
                 (A) (A) (A) (A) (A) (A) (A) (A) (A) (A) (A) (A)
                 (A) (A) (A) (A) (A) (A) (A) (A) (A) (A) (A) (A)
                 (A) (A) (A) (A) (A) (A) (A) (A) (A) (A) (A) (A)
                 (A) (A) (A) (A) (A) (A) (A) (A) (A) (A) (A) (A)
                 (A) (A) (A) (A) (A) (A) (A) (A) (A) (A) (A) (A)
                 (A) (A) (A) (A) (A) (A) (A) (A) (A) (A) (A) (A)
                 (A) (A) (A) (A) (A) (A) (A) (A) (A) (A) (A) (A)
                 (A) (A) (A) (A) (A) (A) (A) (A) (A) (A) (A) (A)
                 (A) (A) (A) (A) (A) (A) (A) (A) (A) (A) (A) (A)
                 (A) (A) (A) (A) (A) (A) (A) (A) (A) (A) (A) (A)
                 (A) (A) (A) (A) (A)
 The electronic state is 1-A.
 Alpha  occ. eigenvalues --  -19.14708 -19.14604 -14.54201 -14.35956 -10.23246
 Alpha  occ. eigenvalues --  -10.19847 -10.19288 -10.19267 -10.18928 -10.18510
 Alpha  occ. eigenvalues --  -10.17909 -10.17276 -10.17168 -10.16693  -1.20273
 Alpha  occ. eigenvalues --   -1.02344  -0.97081  -0.87452  -0.84613  -0.78553
 Alpha  occ. eigenvalues --   -0.77711  -0.76355  -0.71835  -0.67478  -0.64660
 Alpha  occ. eigenvalues --   -0.60596  -0.59519  -0.56095  -0.53563  -0.51346
 Alpha  occ. eigenvalues --   -0.51171  -0.50600  -0.50124  -0.49221  -0.47878
 Alpha  occ. eigenvalues --   -0.45840  -0.44947  -0.44637  -0.43284  -0.42202
 Alpha  occ. eigenvalues --   -0.40990  -0.38899  -0.37756  -0.35135  -0.33747
 Alpha  occ. eigenvalues --   -0.28771  -0.28586  -0.28551  -0.26578  -0.26030
 Alpha  occ. eigenvalues --   -0.19916
 Alpha virt. eigenvalues --   -0.06776  -0.00909   0.00781   0.07680   0.09334
 Alpha virt. eigenvalues --    0.11485   0.12770   0.13182   0.14028   0.15365
 Alpha virt. eigenvalues --    0.17016   0.17343   0.17552   0.18120   0.19226
 Alpha virt. eigenvalues --    0.19656   0.21732   0.22701   0.24811   0.25839
 Alpha virt. eigenvalues --    0.26390   0.27918   0.30017   0.31768   0.33031
 Alpha virt. eigenvalues --    0.33855   0.35250   0.37266   0.38254   0.40187
 Alpha virt. eigenvalues --    0.41033   0.42224   0.43986   0.46000   0.47125
 Alpha virt. eigenvalues --    0.47188   0.48275   0.50124   0.51487   0.51622
 Alpha virt. eigenvalues --    0.52105   0.52691   0.55254   0.55735   0.56217
 Alpha virt. eigenvalues --    0.56758   0.57126   0.57417   0.59299   0.60361
 Alpha virt. eigenvalues --    0.61345   0.61932   0.64206   0.64563   0.68041
 Alpha virt. eigenvalues --    0.68303   0.70692   0.71181   0.72501   0.73675
 Alpha virt. eigenvalues --    0.74286   0.75075   0.75552   0.76370   0.77337
 Alpha virt. eigenvalues --    0.78019   0.78388   0.78868   0.79621   0.80445
 Alpha virt. eigenvalues --    0.80985   0.82054   0.82929   0.83667   0.84540
 Alpha virt. eigenvalues --    0.85817   0.86293   0.87172   0.88539   0.88878
 Alpha virt. eigenvalues --    0.90628   0.91363   0.91933   0.92922   0.93910
 Alpha virt. eigenvalues --    0.94096   0.95686   0.96031   0.97113   0.98524
 Alpha virt. eigenvalues --    0.99087   1.00569   1.00591   1.01898   1.03085
 Alpha virt. eigenvalues --    1.05583   1.05744   1.07635   1.10161   1.11905
 Alpha virt. eigenvalues --    1.14864   1.16212   1.17497   1.19198   1.20064
 Alpha virt. eigenvalues --    1.22511   1.23909   1.27241   1.27820   1.28275
 Alpha virt. eigenvalues --    1.28999   1.30875   1.33038   1.33506   1.34119
 Alpha virt. eigenvalues --    1.35015   1.38968   1.40634   1.42141   1.43634
 Alpha virt. eigenvalues --    1.43767   1.43897   1.45244   1.45799   1.46202
 Alpha virt. eigenvalues --    1.47711   1.48778   1.51588   1.52819   1.52858
 Alpha virt. eigenvalues --    1.54807   1.56162   1.58695   1.60496   1.62768
 Alpha virt. eigenvalues --    1.64223   1.65551   1.66290   1.66940   1.71941
 Alpha virt. eigenvalues --    1.72561   1.73326   1.75893   1.76480   1.78975
 Alpha virt. eigenvalues --    1.80990   1.83885   1.88110   1.90061   1.92392
 Alpha virt. eigenvalues --    1.92827   1.94606   1.95209   1.97640   1.99004
 Alpha virt. eigenvalues --    2.00088   2.02211   2.03660   2.03993   2.06645
 Alpha virt. eigenvalues --    2.07366   2.09947   2.14985   2.15957   2.17665
 Alpha virt. eigenvalues --    2.22853   2.24119   2.25494   2.27447   2.27945
 Alpha virt. eigenvalues --    2.33382   2.33916   2.36951   2.37254   2.38366
 Alpha virt. eigenvalues --    2.43157   2.43740   2.48966   2.50298   2.53594
 Alpha virt. eigenvalues --    2.53835   2.55042   2.56129   2.58797   2.64464
 Alpha virt. eigenvalues --    2.66493   2.73394   2.75671   2.77322   2.81301
 Alpha virt. eigenvalues --    2.81589   2.85176   2.90312   2.93904   2.94963
 Alpha virt. eigenvalues --    2.96024   2.96722   2.98243   3.00521   3.00766
 Alpha virt. eigenvalues --    3.03148   3.04241   3.05450   3.07214   3.08188
 Alpha virt. eigenvalues --    3.08641   3.09950   3.10233   3.11260   3.13572
 Alpha virt. eigenvalues --    3.15200   3.15928   3.17002   3.18517   3.21510
 Alpha virt. eigenvalues --    3.21889   3.22650   3.23080   3.24064   3.24952
 Alpha virt. eigenvalues --    3.27650   3.28913   3.30552   3.30888   3.32730
 Alpha virt. eigenvalues --    3.34498   3.36108   3.37742   3.38215   3.38668
 Alpha virt. eigenvalues --    3.40045   3.43607   3.45078   3.46355   3.46541
 Alpha virt. eigenvalues --    3.48319   3.49985   3.51611   3.51709   3.52294
 Alpha virt. eigenvalues --    3.54481   3.55170   3.56382   3.56751   3.57680
 Alpha virt. eigenvalues --    3.59508   3.60048   3.62621   3.64143   3.64756
 Alpha virt. eigenvalues --    3.66663   3.67095   3.70671   3.72082   3.72849
 Alpha virt. eigenvalues --    3.73572   3.75350   3.77932   3.79532   3.81463
 Alpha virt. eigenvalues --    3.82395   3.83711   3.84523   3.84876   3.86603
 Alpha virt. eigenvalues --    3.89611   3.93315   3.93783   3.95358   4.00688
 Alpha virt. eigenvalues --    4.05237   4.06317   4.06739   4.08348   4.09293
 Alpha virt. eigenvalues --    4.11287   4.12686   4.14292   4.14717   4.19226
 Alpha virt. eigenvalues --    4.20258   4.20996   4.24972   4.27000   4.30656
 Alpha virt. eigenvalues --    4.31263   4.31890   4.32603   4.33226   4.34404
 Alpha virt. eigenvalues --    4.35248   4.36383   4.37021   4.38230   4.39168
 Alpha virt. eigenvalues --    4.39531   4.41962   4.45378   4.46863   4.47758
 Alpha virt. eigenvalues --    4.48372   4.49651   4.50684   4.52580   4.53125
 Alpha virt. eigenvalues --    4.54328   4.54552   4.56874   4.58102   4.59175
 Alpha virt. eigenvalues --    4.61139   4.62045   4.63119   4.64453   4.64609
 Alpha virt. eigenvalues --    4.65410   4.66672   4.68308   4.69667   4.71016
 Alpha virt. eigenvalues --    4.71749   4.76083   4.76942   4.80813   4.82279
 Alpha virt. eigenvalues --    4.84413   4.87083   4.91655   4.94035   4.94763
 Alpha virt. eigenvalues --    4.98765   4.99693   5.02072   5.02678   5.04050
 Alpha virt. eigenvalues --    5.04755   5.05500   5.06150   5.07190   5.08956
 Alpha virt. eigenvalues --    5.10528   5.12754   5.15610   5.17980   5.18458
 Alpha virt. eigenvalues --    5.21837   5.22823   5.23964   5.30280   5.32446
 Alpha virt. eigenvalues --    5.36372   5.38139   5.39204   5.39766   5.44433
 Alpha virt. eigenvalues --    5.47232   5.50930   5.54417   5.59206   5.62123
 Alpha virt. eigenvalues --    5.63567   5.69745   5.73088   5.78583   5.82754
 Alpha virt. eigenvalues --    5.86598   5.89964   5.92952   5.96301   6.03169
 Alpha virt. eigenvalues --    6.03870   6.08468   6.12779   6.27248   6.28851
 Alpha virt. eigenvalues --    6.32297   6.35412   6.37709   6.43482   6.72802
 Alpha virt. eigenvalues --    6.75545   6.84025   6.93534   7.10693   9.17655
 Alpha virt. eigenvalues --    9.67099  10.30517  10.50286  10.82390  11.03178
 Alpha virt. eigenvalues --   11.30035  11.45711  11.49851  11.64870  11.83205
 Alpha virt. eigenvalues --   11.97967  12.71994  12.90745  13.15102  14.31988
 Alpha virt. eigenvalues --   22.65195
          Condensed to atoms (all electrons):
               1          2          3          4          5          6
     1  N    6.167627   0.419523   0.452284  -0.032553  -0.000349   0.000973
     2  C    0.419523   4.803458  -0.058482  -0.012062   0.000297  -0.000068
     3  C    0.452284  -0.058482   4.432130   0.498232   0.012139  -0.026933
     4  C   -0.032553  -0.012062   0.498232   4.908567   0.545385   0.027734
     5  C   -0.000349   0.000297   0.012139   0.545385   4.863152   0.534370
     6  C    0.000973  -0.000068  -0.026933   0.027734   0.534370   4.536630
     7  H   -0.014785   0.009104  -0.020938   0.319078  -0.018583  -0.000957
     8  H   -0.020064   0.395218   0.005271  -0.000350  -0.000031   0.000001
     9  H   -0.032315   0.386943  -0.004809   0.006709   0.000232  -0.000006
    10  H   -0.000080  -0.000009   0.000696  -0.037577   0.314473  -0.010244
    11  C   -0.000545   0.000167   0.009616  -0.076470   0.013214   0.527582
    12  H   -0.000109   0.000005   0.001943   0.002795   0.005953  -0.024128
    13  H   -0.026386   0.391033  -0.007919   0.006867   0.000364  -0.000006
    14  C   -0.033524   0.006970   0.497951   0.009799  -0.076925   0.025960
    15  H   -0.014527  -0.000207  -0.027404   0.002741   0.003600  -0.000372
    16  C    0.422187  -0.075068  -0.059192   0.007022   0.000144  -0.000065
    17  H   -0.020492  -0.010728   0.005504  -0.000159   0.000002   0.000001
    18  H   -0.025892   0.005161  -0.008765  -0.000284  -0.000007  -0.000004
    19  H   -0.032463   0.004077  -0.004442   0.000030  -0.000015  -0.000006
    20  C   -0.000001  -0.000000   0.001120   0.004605  -0.046081   0.289726
    21  C    0.000000   0.000000  -0.000000   0.000014  -0.020116   0.030663
    22  N    0.000000  -0.000000   0.000000  -0.000002   0.000053   0.004439
    23  O    0.000000  -0.000000  -0.000000   0.000000   0.000012   0.000748
    24  H   -0.000000   0.000000  -0.000008   0.000136   0.006768  -0.034959
    25  H   -0.000000   0.000000  -0.000022  -0.000050   0.007986  -0.041033
    26  O   -0.000000  -0.000000  -0.000000   0.000000   0.000003  -0.000176
               7          8          9         10         11         12
     1  N   -0.014785  -0.020064  -0.032315  -0.000080  -0.000545  -0.000109
     2  C    0.009104   0.395218   0.386943  -0.000009   0.000167   0.000005
     3  C   -0.020938   0.005271  -0.004809   0.000696   0.009616   0.001943
     4  C    0.319078  -0.000350   0.006709  -0.037577  -0.076470   0.002795
     5  C   -0.018583  -0.000031   0.000232   0.314473   0.013214   0.005953
     6  C   -0.000957   0.000001  -0.000006  -0.010244   0.527582  -0.024128
     7  H    0.646344  -0.000231   0.001894  -0.004103   0.003687   0.000103
     8  H   -0.000231   0.583118  -0.040224  -0.000000   0.000001  -0.000000
     9  H    0.001894  -0.040224   0.612245   0.000001  -0.000009   0.000000
    10  H   -0.004103  -0.000000   0.000001   0.657053   0.006345  -0.000711
    11  C    0.003687   0.000001  -0.000009   0.006345   4.783554   0.323924
    12  H    0.000103  -0.000000   0.000000  -0.000711   0.323924   0.661692
    13  H    0.001224  -0.036168  -0.060475  -0.000002  -0.000008  -0.000000
    14  C    0.002380  -0.000178  -0.000030   0.002896   0.548777  -0.034698
    15  H   -0.000621   0.000003   0.000002   0.000106  -0.015203  -0.005921
    16  C   -0.000217  -0.010420   0.003995   0.000005   0.000404  -0.000007
    17  H    0.000003   0.004804   0.000270  -0.000000  -0.000039  -0.000000
    18  H   -0.000005   0.000560  -0.000635  -0.000000   0.000438   0.000000
    19  H    0.000003   0.000263   0.001056   0.000000   0.000276  -0.000000
    20  C   -0.000246   0.000000  -0.000000  -0.023657  -0.031843  -0.017920
    21  C    0.000001  -0.000000   0.000000   0.007423   0.003947   0.000635
    22  N   -0.000000  -0.000000   0.000000   0.000045  -0.000246  -0.000017
    23  O   -0.000000  -0.000000  -0.000000   0.000001  -0.000046  -0.000008
    24  H    0.000000  -0.000000   0.000000   0.002028   0.000300   0.000013
    25  H    0.000003   0.000000  -0.000000  -0.000298  -0.015813   0.004375
    26  O    0.000000   0.000000  -0.000000  -0.000020   0.000000  -0.000000
              13         14         15         16         17         18
     1  N   -0.026386  -0.033524  -0.014527   0.422187  -0.020492  -0.025892
     2  C    0.391033   0.006970  -0.000207  -0.075068  -0.010728   0.005161
     3  C   -0.007919   0.497951  -0.027404  -0.059192   0.005504  -0.008765
     4  C    0.006867   0.009799   0.002741   0.007022  -0.000159  -0.000284
     5  C    0.000364  -0.076925   0.003600   0.000144   0.000002  -0.000007
     6  C   -0.000006   0.025960  -0.000372  -0.000065   0.000001  -0.000004
     7  H    0.001224   0.002380  -0.000621  -0.000217   0.000003  -0.000005
     8  H   -0.036168  -0.000178   0.000003  -0.010420   0.004804   0.000560
     9  H   -0.060475  -0.000030   0.000002   0.003995   0.000270  -0.000635
    10  H   -0.000002   0.002896   0.000106   0.000005  -0.000000  -0.000000
    11  C   -0.000008   0.548777  -0.015203   0.000404  -0.000039   0.000438
    12  H   -0.000000  -0.034698  -0.005921  -0.000007  -0.000000   0.000000
    13  H    0.597607  -0.000209  -0.000008   0.005139   0.000571   0.000216
    14  C   -0.000209   4.911437   0.316847  -0.012394  -0.000391   0.007068
    15  H   -0.000008   0.316847   0.654357   0.009610  -0.000235   0.001134
    16  C    0.005139  -0.012394   0.009610   4.799282   0.394700   0.390293
    17  H    0.000571  -0.000391  -0.000235   0.394700   0.585590  -0.036372
    18  H    0.000216   0.007068   0.001134   0.390293  -0.036372   0.598190
    19  H   -0.000634   0.006874   0.002006   0.386998  -0.040506  -0.060803
    20  C   -0.000000   0.005125  -0.000328  -0.000000   0.000000   0.000000
    21  C    0.000000  -0.000181   0.000005   0.000000  -0.000000   0.000000
    22  N    0.000000   0.000000  -0.000000  -0.000000  -0.000000  -0.000000
    23  O   -0.000000  -0.000000   0.000000   0.000000  -0.000000  -0.000000
    24  H    0.000000   0.000030  -0.000000   0.000000   0.000000  -0.000000
    25  H   -0.000000   0.000210  -0.000018  -0.000000  -0.000000   0.000000
    26  O   -0.000000   0.000000   0.000000   0.000000   0.000000  -0.000000
              19         20         21         22         23         24
     1  N   -0.032463  -0.000001   0.000000   0.000000   0.000000  -0.000000
     2  C    0.004077  -0.000000   0.000000  -0.000000  -0.000000   0.000000
     3  C   -0.004442   0.001120  -0.000000   0.000000  -0.000000  -0.000008
     4  C    0.000030   0.004605   0.000014  -0.000002   0.000000   0.000136
     5  C   -0.000015  -0.046081  -0.020116   0.000053   0.000012   0.006768
     6  C   -0.000006   0.289726   0.030663   0.004439   0.000748  -0.034959
     7  H    0.000003  -0.000246   0.000001  -0.000000  -0.000000   0.000000
     8  H    0.000263   0.000000  -0.000000  -0.000000  -0.000000  -0.000000
     9  H    0.001056  -0.000000   0.000000   0.000000  -0.000000   0.000000
    10  H    0.000000  -0.023657   0.007423   0.000045   0.000001   0.002028
    11  C    0.000276  -0.031843   0.003947  -0.000246  -0.000046   0.000300
    12  H   -0.000000  -0.017920   0.000635  -0.000017  -0.000008   0.000013
    13  H   -0.000634  -0.000000   0.000000   0.000000  -0.000000   0.000000
    14  C    0.006874   0.005125  -0.000181   0.000000  -0.000000   0.000030
    15  H    0.002006  -0.000328   0.000005  -0.000000   0.000000  -0.000000
    16  C    0.386998  -0.000000   0.000000  -0.000000   0.000000   0.000000
    17  H   -0.040506   0.000000  -0.000000  -0.000000  -0.000000   0.000000
    18  H   -0.060803   0.000000   0.000000  -0.000000  -0.000000  -0.000000
    19  H    0.612388  -0.000000   0.000000  -0.000000  -0.000000  -0.000000
    20  C   -0.000000   5.124450   0.469568   0.003724   0.003359  -0.015890
    21  C    0.000000   0.469568   5.072469   0.327929  -0.099620   0.337172
    22  N   -0.000000   0.003724   0.327929   5.224637   0.536112  -0.040116
    23  O   -0.000000   0.003359  -0.099620   0.536112   8.010803   0.004573
    24  H   -0.000000  -0.015890   0.337172  -0.040116   0.004573   0.606178
    25  H    0.000000   0.316741  -0.035184  -0.026594   0.033564   0.015235
    26  O   -0.000000   0.010390  -0.106644   0.510572  -0.084564   0.009247
              25         26
     1  N   -0.000000  -0.000000
     2  C    0.000000  -0.000000
     3  C   -0.000022  -0.000000
     4  C   -0.000050   0.000000
     5  C    0.007986   0.000003
     6  C   -0.041033  -0.000176
     7  H    0.000003   0.000000
     8  H    0.000000   0.000000
     9  H   -0.000000  -0.000000
    10  H   -0.000298  -0.000020
    11  C   -0.015813   0.000000
    12  H    0.004375  -0.000000
    13  H   -0.000000  -0.000000
    14  C    0.000210   0.000000
    15  H   -0.000018   0.000000
    16  C   -0.000000   0.000000
    17  H   -0.000000   0.000000
    18  H    0.000000  -0.000000
    19  H    0.000000  -0.000000
    20  C    0.316741   0.010390
    21  C   -0.035184  -0.106644
    22  N   -0.026594   0.510572
    23  O    0.033564  -0.084564
    24  H    0.015235   0.009247
    25  H    0.652713   0.001366
    26  O    0.001366   8.026857
 Mulliken charges:
               1
     1  N   -0.208509
     2  C   -0.265332
     3  C    0.302031
     4  C   -0.180206
     5  C   -0.146038
     6  C    0.160128
     7  H    0.076862
     8  H    0.118426
     9  H    0.125155
    10  H    0.085630
    11  C   -0.082011
    12  H    0.082081
    13  H    0.128795
    14  C   -0.183796
    15  H    0.074434
    16  C   -0.262415
    17  H    0.117477
    18  H    0.129704
    19  H    0.124897
    20  C   -0.092841
    21  C    0.011920
    22  N    0.459463
    23  O   -0.404934
    24  H    0.109292
    25  H    0.086819
    26  O   -0.367032
 Sum of Mulliken charges =  -0.00000
 Mulliken charges with hydrogens summed into heavy atoms:
               1
     1  N   -0.208509
     2  C    0.107044
     3  C    0.302031
     4  C   -0.103344
     5  C   -0.060408
     6  C    0.160128
    11  C    0.000070
    14  C   -0.109362
    16  C    0.109663
    20  C   -0.006022
    21  C    0.121211
    22  N    0.459463
    23  O   -0.404934
    26  O   -0.367032
 APT charges:
               1
     1  N   -0.340537
     2  C   -0.687255
     3  C   -0.250586
     4  C   -0.295754
     5  C   -0.461127
     6  C   -0.632195
     7  H    0.413804
     8  H    0.771530
     9  H    0.194355
    10  H    0.323745
    11  C   -0.386502
    12  H    0.352788
    13  H    0.198649
    14  C   -0.249697
    15  H    0.434483
    16  C   -0.674040
    17  H    0.764284
    18  H    0.208875
    19  H    0.203328
    20  C   -0.454064
    21  C    0.030261
    22  N   -1.630114
    23  O    0.703555
    24  H    0.034073
    25  H    0.303233
    26  O    1.124908
 Sum of APT charges =  -0.00000
 APT charges with hydrogens summed into heavy atoms:
               1
     1  N   -0.340537
     2  C    0.477280
     3  C   -0.250586
     4  C    0.118050
     5  C   -0.137382
     6  C   -0.632195
    11  C   -0.033715
    14  C    0.184786
    16  C    0.502447
    20  C   -0.150831
    21  C    0.064334
    22  N   -1.630114
    23  O    0.703555
    26  O    1.124908
 Electronic spatial extent (au):  <R**2>=           4599.2624
 Charge=             -0.0000 electrons
 Dipole moment (field-independent basis, Debye):
    X=             -9.4531    Y=             -0.4407    Z=              0.1024  Tot=              9.4640
 Quadrupole moment (field-independent basis, Debye-Ang):
   XX=            -92.5161   YY=            -76.0637   ZZ=            -81.2439
   XY=             -0.3489   XZ=             -0.3915   YZ=              0.0163
 Traceless Quadrupole moment (field-independent basis, Debye-Ang):
   XX=             -9.2415   YY=              7.2108   ZZ=              2.0307
   XY=             -0.3489   XZ=             -0.3915   YZ=              0.0163
 Octapole moment (field-independent basis, Debye-Ang**2):
  XXX=           -276.9502  YYY=             -0.7916  ZZZ=              0.1657  XYY=            -16.5824
  XXY=             -2.4745  XXZ=              1.0146  XZZ=             13.8145  YZZ=             -0.3637
  YYZ=             -0.1587  XYZ=              0.0227
 Hexadecapole moment (field-independent basis, Debye-Ang**3):
 XXXX=          -5567.0015 YYYY=           -536.5905 ZZZZ=            -85.8560 XXXY=             22.9135
 XXXZ=             -5.1444 YYYX=              1.8395 YYYZ=             -0.1959 ZZZX=             -0.8890
 ZZZY=              0.1013 XXYY=           -958.0912 XXZZ=           -840.6972 YYZZ=           -108.5562
 XXYZ=              1.4792 YYXZ=              1.3675 ZZXY=             -0.1349
 N-N= 8.308784189276D+02 E-N=-3.173067496003D+03  KE= 6.467265469048D+02
  Exact polarizability:   0.000   0.000   0.000   0.000   0.000   0.000
 Approx polarizability: 383.657 -13.369 214.550   1.763  -0.812  93.161
 No NMR shielding tensors so no spin-rotation constants.
 Leave Link  601 at Wed Aug 25 09:25:11 2021, MaxMem= 24159191040 cpu:        17.9
 (Enter /public/home/users/caep010/software/Gaussian09/g09/l701.exe)
 Compute integral second derivatives.
 ... and contract with generalized density number  0.
 Leave Link  701 at Wed Aug 25 09:25:12 2021, MaxMem= 24159191040 cpu:        19.8
 (Enter /public/home/users/caep010/software/Gaussian09/g09/l702.exe)
 L702 exits ... SP integral derivatives will be done elsewhere.
 Leave Link  702 at Wed Aug 25 09:25:13 2021, MaxMem= 24159191040 cpu:         0.8
 (Enter /public/home/users/caep010/software/Gaussian09/g09/l703.exe)
 Compute integral second derivatives, UseDBF=F ICtDFT=           0.
 Integral derivatives from FoFJK, PRISM(SPDF).
 Calling FoFJK, ICntrl=    100147 FMM=F ISym2X=0 I1Cent= 0 IOpClX= 0 NMat=1 NMatS=1 NMatT=0.
 FoFJK:  IHMeth= 1 ICntrl=  100147 DoSepK=F KAlg= 0 I1Cent=   0 FoldK=F
 IRaf=         0 NMat=   1 IRICut=       1 DoRegI=T DoRafI=F ISym2E= 0.
 FoFCou: FMM=F IPFlag=           0 FMFlag=      100000 FMFlg1=         800
         NFxFlg=           0 DoJE=F BraDBF=F KetDBF=F FulRan=T
         wScrn=  0.000000 ICntrl=  100147 IOpCl=  0 I1Cent=           0 NGrid=           0
         NMat0=    1 NMatS0=      1 NMatT0=    0 NMatD0=    1 NMtDS0=    0 NMtDT0=    0
 Symmetry not used in FoFCou.
 Leave Link  703 at Wed Aug 25 09:26:16 2021, MaxMem= 24159191040 cpu:      2017.1
 (Enter /public/home/users/caep010/software/Gaussian09/g09/l716.exe)
 Dipole        =-3.71914901D+00-1.73393729D-01 4.02877246D-02
 Polarizability= 0.00000000D+00 0.00000000D+00 0.00000000D+00
                 0.00000000D+00 0.00000000D+00 0.00000000D+00
 ***** Axes restored to original set *****
 -------------------------------------------------------------------
 Center     Atomic                   Forces (Hartrees/Bohr)
 Number     Number              X              Y              Z
 -------------------------------------------------------------------
      1        7          -0.005440934   -0.000469435    0.004864904
      2        6           0.077845960    0.061859481   -0.070547500
      3        6           0.006614326    0.003887462   -0.009222749
      4        6           0.109533818    0.083747177   -0.078922948
      5        6           0.095303701    0.086578652    0.079728307
      6        6          -0.000243972   -0.003439329   -0.032511229
      7        1          -0.116848759   -0.089515257    0.078328249
      8        1           0.016037363    0.026627012    0.120721819
      9        1           0.016965424   -0.129002203   -0.017863425
     10        1          -0.111970298   -0.098185485   -0.079134123
     11        6          -0.097359667   -0.068514481    0.072790025
     12        1           0.119669584    0.087168483   -0.082136180
     13        1          -0.121800958    0.030133844   -0.033556584
     14        6          -0.107645302   -0.089001842   -0.053285094
     15        1           0.112589765    0.093976612    0.076726107
     16        6          -0.082554551   -0.059303862   -0.067167824
     17        1          -0.026425594   -0.004962260    0.123546397
     18        1           0.003875656    0.125671513   -0.036991158
     19        1           0.118656750   -0.052498955   -0.020606029
     20        6          -0.035480612   -0.019881834    0.174283578
     21        6           0.048308386    0.033828349   -0.118972530
     22        7           0.000847909   -0.004880972   -0.014790464
     23        8          -0.005840962   -0.001499984    0.022475719
     24        1          -0.128688416   -0.102278334    0.030019786
     25        1           0.126776823    0.099400242   -0.056526834
     26        8          -0.012725442   -0.009444595   -0.011250219
 -------------------------------------------------------------------
 Cartesian Forces:  Max     0.174283578 RMS     0.075213133
 FormGI is forming the generalized inverse of G from B-inverse, IUseBI=4.
 Leave Link  716 at Wed Aug 25 09:26:17 2021, MaxMem= 24159191040 cpu:         1.2
 (Enter /public/home/users/caep010/software/Gaussian09/g09/l103.exe)

 GradGradGradGradGradGradGradGradGradGradGradGradGradGradGradGradGradGrad
 Berny optimization.
 Red2BG is reusing G-inverse.
 Internal  Forces:  Max     0.170521699 RMS     0.050011874
 Search for a local minimum.
 Step number   1 out of a maximum of  130
 All quantities printed in internal units (Hartrees-Bohrs-Radians)
 RMS Force = .50012D-01 SwitMx=.10000D-02 MixMth= 1
 Mixed Optimization -- RFO/linear search
 Second derivative matrix not updated -- analytic derivatives used.
 ITU=  0
     Eigenvalues ---   -0.00057   0.00022   0.00298   0.00317   0.00564
     Eigenvalues ---    0.01374   0.01513   0.01653   0.01824   0.02140
     Eigenvalues ---    0.02250   0.02316   0.02457   0.02709   0.02874
     Eigenvalues ---    0.02960   0.03241   0.03488   0.06718   0.06765
     Eigenvalues ---    0.06909   0.06977   0.11007   0.11240   0.11474
     Eigenvalues ---    0.11866   0.12401   0.12945   0.13348   0.13852
     Eigenvalues ---    0.14294   0.15866   0.16645   0.17683   0.18157
     Eigenvalues ---    0.19081   0.19096   0.19289   0.19790   0.20250
     Eigenvalues ---    0.20814   0.21504   0.23563   0.24218   0.27356
     Eigenvalues ---    0.28170   0.30232   0.35588   0.38208   0.38771
     Eigenvalues ---    0.40829   0.41409   0.42637   0.47584   0.50632
     Eigenvalues ---    0.52925   0.55295   0.58752   0.71317   0.71436
     Eigenvalues ---    0.71632   0.71726   0.71937   0.72420   0.79304
     Eigenvalues ---    0.85119   0.85177   0.85224   0.85285   0.85510
     Eigenvalues ---    0.85557   1.03411
 Eigenvalue     1 is  -5.65D-04 should be greater than     0.000000 Eigenvector:
                          D4        D5        D6        D11       D13
   1                    0.43649   0.41684   0.41568  -0.31982  -0.30697
                          D12       D1        D2        D3        D10
   1                   -0.30530   0.18023   0.16058   0.15942  -0.15062
 RFO step:  Lambda=-2.78118282D-01 EMin=-5.65045805D-04
 Linear search not attempted -- first point.
 Maximum step size (   0.300) exceeded in Quadratic search.
    -- Step size scaled by   0.577
 Iteration  1 RMS(Cart)=  0.05402027 RMS(Int)=  0.00230478
 Iteration  2 RMS(Cart)=  0.00284201 RMS(Int)=  0.00031711
 Iteration  3 RMS(Cart)=  0.00001136 RMS(Int)=  0.00031697
 Iteration  4 RMS(Cart)=  0.00000000 RMS(Int)=  0.00031697
 ITry= 1 IFail=0 DXMaxC= 1.97D-01 DCOld= 1.00D+10 DXMaxT= 3.00D-01 DXLimC= 3.00D+00 Rises=F
 Variable       Old X    -DE/DX   Delta X   Delta X   Delta X     New X
                                 (Linear)    (Quad)   (Total)
    R1        2.74649   0.01199   0.00000   0.00616   0.00616   2.75265
    R2        2.56884   0.00232   0.00000   0.00217   0.00217   2.57101
    R3        2.74105   0.01341   0.00000   0.00700   0.00700   2.74806
    R4        1.81547   0.12465   0.00000   0.07234   0.07234   1.88780
    R5        1.81419   0.13127   0.00000   0.07544   0.07544   1.88963
    R6        1.81458   0.12985   0.00000   0.07624   0.07624   1.89082
    R7        2.66051   0.00950   0.00000   0.00726   0.00725   2.66776
    R8        2.67327   0.00434   0.00000   0.00226   0.00227   2.67554
    R9        2.62372  -0.00269   0.00000  -0.00443  -0.00444   2.61928
   R10        1.75676   0.16672   0.00000   0.08479   0.08479   1.84155
   R11        2.62293   0.01355   0.00000   0.01161   0.01161   2.63454
   R12        1.75731   0.16859   0.00000   0.08582   0.08582   1.84313
   R13        2.59835   0.02854   0.00000   0.02069   0.02069   2.61904
   R14        2.83965  -0.02580   0.00000  -0.03109  -0.03109   2.80856
   R15        1.75686   0.16930   0.00000   0.08627   0.08627   1.84312
   R16        2.57563   0.01862   0.00000   0.01330   0.01330   2.58894
   R17        1.75787   0.16551   0.00000   0.08448   0.08448   1.84235
   R18        1.81305   0.12643   0.00000   0.07305   0.07305   1.88610
   R19        1.81280   0.13102   0.00000   0.07653   0.07653   1.88933
   R20        1.81417   0.13132   0.00000   0.07567   0.07567   1.88984
   R21        2.33817   0.15829   0.00000   0.06941   0.06941   2.40758
   R22        1.75731   0.17052   0.00000   0.08676   0.08676   1.84407
   R23        2.72627  -0.00077   0.00000  -0.00290  -0.00290   2.72337
   R24        1.75685   0.16512   0.00000   0.08379   0.08379   1.84064
   R25        2.33891  -0.01415   0.00000  -0.00830  -0.00830   2.33061
   R26        2.30565   0.01939   0.00000   0.01009   0.01009   2.31574
    A1        2.11120  -0.00577   0.00000  -0.00243  -0.00431   2.10689
    A2        2.04331   0.01094   0.00000   0.02025   0.01840   2.06171
    A3        2.11852  -0.00515   0.00000  -0.00274  -0.00462   2.11390
    A4        1.91088  -0.00324   0.00000  -0.00172  -0.00173   1.90915
    A5        1.91042   0.00515   0.00000   0.00120   0.00119   1.91161
    A6        1.90972   0.00319   0.00000   0.01261   0.01258   1.92230
    A7        1.91040  -0.00125   0.00000  -0.00703  -0.00704   1.90336
    A8        1.91248  -0.00126   0.00000   0.00001  -0.00001   1.91247
    A9        1.90990  -0.00258   0.00000  -0.00506  -0.00508   1.90482
   A10        2.14767  -0.01043   0.00000  -0.01040  -0.01039   2.13727
   A11        2.11358  -0.00093   0.00000   0.00084   0.00084   2.11442
   A12        2.02193   0.01136   0.00000   0.00955   0.00955   2.03147
   A13        2.10941   0.00149   0.00000   0.00073   0.00071   2.11012
[...]
 .00014575,-0.00015391,0.00616564,-0.00055767,-0.00081165,-0.00132492,0
 .00002744,-0.00005358,0.00079133,0.00009895,0.00009067,-0.00116710,0.0
 0000219,0.00016464,0.00007468,-0.00000002,-0.00009586,-0.00005371,-0.0
 0008627,-0.00004985,-0.00007617,-0.00002844,0.00001757,-0.00002921,0.0
 0040626,0.00043748,0.00075947,0.00001470,-0.00000043,-0.00003992,-0.00
 119042,-0.00077134,0.00039938,0.00023372,-0.00017774,-0.00105806,0.000
 57738,0.00058710,-0.00007129,-0.25826256,0.07853864,0.04370883,-0.0041
 2290,0.00268021,0.00132022,-0.00242254,0.00259333,0.00214728,0.2915009
 5,-0.02481872,0.00575809,0.00196460,-0.00177102,0.00015227,-0.00147852
 ,-0.00018230,0.00092037,0.00205355,-0.00005768,-0.00065989,-0.00033609
 ,-0.00002384,-0.00016957,0.00032514,0.00020027,0.00013202,-0.00033771,
 -0.00006879,0.00006471,0.00001287,0.00003460,-0.00009984,-0.00000967,-
 0.00010035,-0.00004811,-0.00006853,-0.00004635,0.00003386,-0.00000492,
 -0.00019461,-0.00034923,-0.00012661,0.00001178,0.00000927,-0.00000072,
 -0.00081640,-0.00057473,0.00028781,0.00118944,0.00052719,-0.00013233,-
 0.00025681,-0.00025010,0.00006662,0.08034268,-0.07805458,-0.01625062,-
 0.00410512,0.00118732,0.00106955,0.02894796,-0.01069979,-0.00667280,-0
 .07821597,0.08212839,-0.02041451,0.00062232,0.00030398,-0.00087797,0.0
 0142118,-0.00160568,-0.00081967,0.00071367,0.00383812,-0.00019638,-0.0
 0088127,-0.00119529,-0.00037008,-0.00050850,0.00116470,0.00083648,0.00
 069335,-0.00004335,-0.00005936,0.00010294,0.00000963,0.00004055,-0.000
 18707,0.00049154,0.00008606,0.00006227,-0.00004425,-0.00004139,0.00005
 159,0.00001296,0.00010893,-0.00081722,-0.00106347,-0.00000663,-0.00002
 200,-0.00001353,-0.00046703,-0.00025354,0.00070652,0.00075976,0.000649
 50,0.00071733,-0.00099753,0.00118057,-0.00182161,0.04586327,-0.0158139
 7,-0.05837323,0.02859281,-0.01154209,-0.00392591,-0.00845875,0.0048468
 7,0.00199255,-0.04354301,0.01952909,0.05878657,0.00016586,0.00044709,0
 .00121191,0.00014499,0.00035573,-0.00021528,-0.00244131,-0.00162148,-0
 .00160642,-0.00074644,-0.00427997,0.00404136,0.00481531,0.00379517,0.0
 2244487,-0.08838574,-0.01898809,0.02987793,0.00029505,-0.00032567,0.00
 128737,0.00004013,0.00005352,0.00007292,-0.00004968,-0.00006040,-0.000
 15830,-0.00098980,0.00162742,-0.00080442,0.00124655,-0.00180424,-0.027
 56547,-0.00102233,0.00216223,-0.00162338,-0.00004024,-0.00008677,0.000
 04377,-0.00102186,-0.00546258,-0.00094967,0.00047104,-0.00049770,-0.00
 113174,-0.00039693,-0.00008303,-0.00034139,0.00004340,0.00005986,0.000
 03248,0.00006130,0.00012638,0.00017878,0.00017994,-0.00000955,-0.00003
 311,0.51464500,0.00035124,0.00006934,0.00174517,0.00053734,0.00007454,
 -0.00027098,-0.00158240,-0.00184041,-0.00197687,-0.00417607,0.00202968
 ,0.00368032,0.00341944,0.00528500,0.01508103,-0.02024737,-0.07674266,0
 .01188148,-0.00040987,0.00055263,0.00095736,0.00004538,0.00001725,0.00
 007792,-0.00011351,-0.00005130,0.00007686,0.00156733,-0.00194303,-0.00
 039775,-0.00085143,-0.00073453,-0.02423709,0.00239473,-0.00211408,-0.0
 0093652,-0.00010900,-0.00003893,-0.00018099,-0.00576055,0.00139464,-0.
 00046639,-0.00041694,0.00063782,-0.00095695,-0.00021652,-0.00051054,-0
 .00037044,0.00006136,0.00002010,0.00004712,0.00004960,0.00019829,-0.00
 009200,0.00014166,0.00006031,0.00019948,0.29144308,0.37635188,-0.00035
 811,0.00052982,0.01283155,0.00276966,0.00205709,-0.00201911,-0.0009649
 7,-0.00147961,-0.01238063,0.00574243,0.00500739,0.01378062,0.01628968,
 0.01028314,-0.03789915,0.00920372,-0.00423104,-0.24887352,-0.00009348,
 -0.00011891,0.00005617,-0.00006033,-0.00002597,0.00032468,-0.00043767,
 -0.00084199,-0.00006703,-0.00178872,-0.00116514,0.00061893,-0.01193117
 ,-0.01205070,-0.04376816,0.00219715,0.00204126,0.00146746,-0.00091631,
 -0.00022987,-0.00008839,-0.00583632,-0.00427744,0.01039220,0.00018964,
 0.00007261,-0.00020684,-0.00254137,-0.00208905,-0.00203984,0.00006137,
 0.00006948,0.00032455,0.00044298,0.00083408,-0.00000434,0.00092269,0.0
 0022415,0.00001683,0.05183226,0.07356718,0.68922979,-0.00000655,-0.000
 19753,-0.00207346,-0.00044977,-0.00032586,0.00035237,0.00068157,0.0008
 2536,0.00193425,-0.00159143,-0.00114204,-0.00291551,-0.00174891,-0.001
 09182,0.00547793,0.00950885,0.00160005,-0.01346203,0.00003910,-0.00005
 990,0.00003828,0.00000489,-0.00000174,-0.00006519,0.00008041,0.0001277
 7,0.00002102,-0.00025899,-0.00024118,0.00072006,0.00251403,0.00018232,
 0.00494980,0.00028318,0.00006060,0.00015510,0.00015398,0.00004785,0.00
 002382,0.00122627,0.00117176,-0.00126261,-0.00011721,0.00008351,0.0002
 0017,0.00044198,0.00032290,0.00035236,-0.00001989,-0.00001984,-0.00005
 779,-0.00008472,-0.00015161,-0.00003307,-0.00016838,-0.00003704,-0.000
 01189,-0.23017127,-0.14709696,-0.12925412,0.55950561,-0.00004228,-0.00
 008680,-0.00222263,-0.00047847,-0.00035556,0.00036394,0.00062901,0.000
 38947,0.00204410,-0.00115600,-0.00141218,-0.00258056,-0.00189519,-0.00
 110581,0.00477501,0.00116275,0.00645391,-0.01403748,-0.00005506,0.0000
 7698,0.00001500,0.00000577,0.00000251,-0.00006740,0.00008669,0.0001512
 5,0.00001387,-0.00024764,-0.00005648,0.00049585,0.00042113,0.00324345,
 0.00407628,0.00001254,0.00023421,0.00011626,0.00015150,0.00004984,0.00
 002259,0.00141690,0.00064156,-0.00143465,0.00006752,-0.00014776,0.0001
 3413,0.00042521,0.00041025,0.00036025,-0.00001716,-0.00001622,-0.00006
 252,-0.00007914,-0.00015861,0.00000818,-0.00017070,-0.00005214,-0.0000
 3499,-0.14736789,-0.17318731,-0.11175730,0.36099029,0.38888509,0.00045
 282,-0.00026009,-0.00987392,-0.00215752,-0.00159325,0.00146258,-0.0012
 8370,-0.00046180,0.00857889,-0.00314351,-0.00275890,-0.00541140,-0.007
 70616,-0.00550029,0.00837754,-0.02064666,-0.01963613,-0.05178937,0.000
 11793,0.00007707,-0.00012465,0.00005848,0.00002913,-0.00027026,0.00035
 796,0.00065172,0.00000481,0.00060996,0.00041017,-0.00096780,0.00886867
 ,0.00712998,0.00625233,-0.00063484,-0.00049969,0.00014141,0.00071893,0
 .00019039,0.00003263,0.00276454,0.00170535,-0.00777009,-0.00006067,-0.
 00006887,-0.00056761,0.00204326,0.00168055,0.00146294,-0.00001474,-0.0
 0002892,-0.00028609,-0.00035873,-0.00061414,0.00007193,-0.00068890,-0.
 00019347,0.00004756,-0.13370148,-0.11522351,-0.23249414,0.07606303,0.0
 8707281,0.55842009,-0.00003290,-0.00003806,-0.00220631,-0.00040216,-0.
 00034850,0.00030263,0.00018141,-0.00019522,0.00187364,-0.00072269,-0.0
 0070905,-0.00127124,-0.00141158,-0.00055930,0.00244429,-0.00032598,-0.
 00992140,-0.00474047,-0.00005051,0.00009841,0.00002233,0.00001067,0.00
 000301,-0.00005995,0.00007625,0.00013809,0.00002319,0.00010971,0.00031
 105,0.00001280,0.00241675,0.00054611,0.00035010,-0.00010985,-0.0003244
 5,-0.00006137,0.00013809,0.00004705,-0.00000333,-0.00002590,0.00067259
 ,-0.00138446,-0.00015000,0.00014308,-0.00019318,0.00051555,0.00039485,
 0.00035475,-0.00000467,-0.00001169,-0.00005661,-0.00007823,-0.00014184
 ,-0.00001892,-0.00018738,-0.00003521,0.00002790,0.01183002,0.01008017,
 -0.01082640,-0.09783562,-0.01450867,0.00825027,0.67092958,0.00007301,-
 0.00016459,-0.00102414,-0.00021245,-0.00008922,0.00013271,-0.00027692,
 0.00041534,0.00085150,-0.00043536,-0.00029123,-0.00064387,-0.00038696,
 -0.00070972,0.00155349,-0.00961314,0.00435687,-0.00303967,0.00008670,-
 0.00010467,0.00004590,0.00000443,0.00000414,-0.00002429,0.00003696,0.0
 0004776,-0.00001740,0.00031028,-0.00004600,0.00000772,0.00020839,0.001
 88869,-0.00027918,-0.00030677,0.00005772,-0.00007856,0.00007273,0.0000
 1708,0.00002560,0.00053865,-0.00061487,-0.00062440,0.00016282,-0.00022
 830,-0.00010842,0.00022630,0.00022443,0.00017285,-0.00000748,-0.000001
 19,-0.00002191,-0.00003863,-0.00009708,0.00003734,-0.00006535,-0.00002
 134,-0.00003611,0.00947535,0.00468213,-0.01234063,-0.01266805,-0.08826
 466,0.00298521,0.33785545,0.50400288,-0.00040427,0.00038728,0.01125246
 ,0.00253188,0.00187131,-0.00162544,0.00054481,-0.00018664,-0.00941170,
 0.00321561,0.00285354,0.00577609,0.00527476,0.00375962,-0.00626719,0.0
 0031748,0.00090261,0.02278888,-0.00016995,-0.00010386,0.00029320,-0.00
 003622,-0.00000595,0.00037000,-0.00042324,-0.00071183,-0.00005469,-0.0
 0000011,-0.00000259,-0.00032562,-0.00519477,-0.00460092,-0.00732523,0.
 00022789,0.00014721,-0.00020161,-0.00079032,-0.00024261,-0.00008563,-0
 .00358244,-0.00233828,0.00647089,0.00013290,0.00014539,0.00034254,-0.0
 0240630,-0.00198137,-0.00165927,0.00001324,0.00003254,0.00037156,0.000
 42316,0.00070254,-0.00008486,0.00078887,0.00023503,-0.00005097,-0.0207
 4988,-0.02007498,-0.06602248,0.03845545,0.02652635,-0.13509386,0.01349
 768,0.03662767,0.66690714,-0.00000359,0.00011717,0.00251900,0.00050704
 ,0.00039013,-0.00037100,0.00005502,0.00001269,-0.00209862,0.00097859,0
 .00092003,0.00136812,0.00103763,0.00068611,-0.00228820,0.00134344,0.00
 206543,0.00577326,-0.00001399,-0.00003640,-0.00001683,-0.00000906,-0.0
 0000202,0.00007821,-0.00009712,-0.00015767,-0.00000744,0.00016959,0.00
 001346,-0.00015949,-0.00165156,-0.00124954,-0.00172618,0.00016092,0.00
 018607,0.00003483,-0.00017068,-0.00005793,-0.00000963,-0.00068644,-0.0
 0053854,0.00163125,0.00003738,0.00000842,0.00009078,-0.00057864,-0.000
 47329,-0.00040856,0.00000971,0.00001249,0.00007593,0.00009511,0.000175
 82,-0.00000826,0.00020387,0.00004849,-0.00000431,-0.00620422,-0.006609
 25,-0.01337964,-0.00831451,-0.01900521,0.03759042,-0.32421708,-0.18309
 447,0.10579641,0.38864866,-0.00003421,0.00012800,0.00177585,0.00037137
 ,0.00025140,-0.00026360,0.00013464,-0.00011135,-0.00147410,0.00078890,
 0.00058062,0.00098985,0.00077476,0.00047536,-0.00175135,0.00178146,0.0
 0079793,0.00434987,-0.00003166,0.00000529,-0.00002332,-0.00000666,-0.0
 0000234,0.00005396,-0.00006858,-0.00010654,-0.00000049,0.00000853,0.00
 013923,-0.00011902,-0.00107256,-0.00109512,-0.00125001,0.00018139,0.00
 006872,0.00003826,-0.00012655,-0.00003934,-0.00000955,-0.00059146,-0.0
 0025825,0.00116950,-0.00000004,0.00003714,0.00006015,-0.00040595,-0.00
 033889,-0.00029265,0.00000786,0.00000890,0.00005231,0.00006888,0.00013
 495,-0.00000938,0.00013645,0.00003447,0.00000222,-0.00550096,-0.003692
 04,-0.01042592,-0.01897937,0.00582512,0.02634261,-0.18242494,-0.218558
 85,0.07580096,0.27024600,0.23626958,0.00006260,-0.00014029,-0.00302797
 ,-0.00067395,-0.00050001,0.00039702,-0.00010729,0.00007845,0.00252303,
 -0.00077980,-0.00068425,-0.00134719,-0.00083437,-0.00061834,0.00050145
 ,0.00111252,0.00071756,-0.00330889,0.00006079,0.00003714,-0.00013611,0
 .00000142,-0.00000585,-0.00011511,0.00011822,0.00017246,0.00002717,-0.
 00024002,-0.00018177,0.00022653,0.00117946,0.00101455,0.00138154,-0.00
 004082,-0.00002076,0.00010730,0.00019469,0.00007500,0.00003338,0.00075
 766,0.00048891,-0.00153990,-0.00004962,-0.00004919,-0.00014026,0.00068
 558,0.00056060,0.00041779,-0.00000039,-0.00000715,-0.00011336,-0.00011
 749,-0.00018489,0.00003086,-0.00020962,-0.00006699,0.00002299,0.004809
 25,0.00374930,0.00125260,0.03801735,0.02667502,-0.02945364,0.11677877,
 0.08436024,-0.19013046,-0.13380679,-0.09459569,0.19035078,0.00008497,-
 0.00002240,0.00021507,0.00004861,0.00003544,-0.00002639,-0.00015936,0.
 00011765,-0.00011141,0.00024978,0.00040116,0.00002018,-0.00042769,-0.0
 0010316,0.00004664,-0.00157633,0.00215188,0.00095079,0.00002908,-0.000
 05152,-0.00000595,0.00000103,0.00000327,0.00001012,-0.00000945,-0.0000
 0904,-0.00001189,0.00100498,-0.00003119,0.00013023,-0.00011747,-0.0000
 7469,-0.00024078,0.00012038,0.00000605,0.00001130,-0.00001126,-0.00000
 382,0.00000229,-0.00004975,0.00001212,0.00008184,0.00002874,-0.0000255
 1,-0.00000772,-0.00003952,-0.00006561,-0.00001746,0.00000320,0.0000028
 1,0.00001084,0.00000523,0.00001335,-0.00000144,0.00001607,0.00000532,-
 0.00000281,-0.00639016,-0.00741105,0.00542758,-0.22739854,-0.14947025,
 0.04944011,-0.00708072,-0.00454287,-0.00244225,0.00241844,-0.00093964,
 0.00141258,0.23495521,-0.00003145,0.00011549,0.00015168,0.00003499,0.0
 0002718,-0.00001947,0.00011983,-0.00022949,-0.00006218,0.00041489,0.00
 006165,0.00002734,-0.00015451,-0.00041111,0.00001916,0.00213847,-0.002
 53370,0.00103183,-0.00005121,0.00005398,-0.00001365,0.00000298,0.00000
 044,0.00000813,-0.00000431,-0.00000696,0.00000552,-0.00002497,0.001031
 52,-0.00006985,-0.00005220,-0.00009204,-0.00017854,0.00001300,0.000124
 09,0.00000730,-0.00000698,-0.00000728,-0.00001306,0.00001615,-0.000042
 45,0.00006349,-0.00002474,0.00004096,-0.00001001,-0.00006407,-0.000007
 56,-0.00001400,0.00000231,0.00000275,0.00000854,0.00000802,0.00001076,
 -0.00000311,0.00001040,0.00000035,-0.00000002,-0.00873294,-0.00297722,
 0.00467957,-0.15002021,-0.14641354,0.03680701,-0.00268219,-0.00368008,
 -0.00241473,-0.00091572,0.00304647,0.00041881,0.16315852,0.14640327,0.
 00006789,0.00003696,-0.00012992,-0.00003406,-0.00002541,0.00002015,-0.
 00007846,-0.00003658,0.00008366,0.00024750,0.00020468,-0.00006985,-0.0
 0080088,-0.00064162,-0.00057735,0.00073076,0.00086006,0.00050549,-0.00
 000084,-0.00000968,-0.00005338,0.00000522,0.00000432,0.00000177,0.0000
 0147,0.00001451,-0.00000396,0.00023552,0.00001235,-0.00175849,0.000129
 62,0.00011023,0.00011074,0.00012551,0.00009628,0.00008852,0.00001455,-
 0.00000204,-0.00000183,0.00014925,0.00011597,-0.00006545,0.00000468,-0
 .00000035,-0.00000466,0.00000821,0.00000598,0.00003600,0.00000215,0.00
 000175,0.00000158,-0.00000315,-0.00000513,0.00000043,-0.00000564,-0.00
 000152,0.00000007,-0.01626666,-0.01222710,0.01093169,0.04041092,0.0297
 7006,-0.06002654,0.02809463,0.02138379,-0.00983684,0.00180509,0.000724
 68,-0.00745910,-0.05199106,-0.03750986,0.07091345,-0.00000560,0.000028
 08,0.00002680,0.00002032,-0.00002579,-0.00000539,0.00019090,-0.0000400
 2,-0.00009051,-0.00011988,0.00006229,-0.00015948,0.00188296,-0.0014553
 3,-0.00038740,0.00151091,-0.00239318,0.00010669,-0.00016849,0.00024086
 ,-0.00000143,0.00000332,0.00000069,-0.00000169,-0.00000690,0.00000749,
 0.00001469,-0.00001936,0.00005303,-0.00006555,-0.00017778,0.00149856,-
 0.00178586,0.00039980,0.00009247,0.00022905,-0.00000637,0.00000004,-0.
 00001400,0.00016038,0.00003474,0.00019838,0.00000625,-0.00002166,0.000
 01624,-0.00001051,0.00000032,0.00000433,-0.00000007,-0.00000058,0.0000
 0194,0.00000312,-0.00000099,0.00000350,0.00000109,0.00000064,-0.000007
 33,-0.20121139,-0.11686155,0.07959753,-0.01177163,-0.01581132,0.007786
 55,-0.00604530,0.00238617,0.00173623,0.00213984,0.00178561,0.00177446,
 0.00283347,-0.00503446,-0.00187950,0.20923072,0.00002016,-0.00002242,0
 .00002265,-0.00002277,0.00003472,-0.00000884,-0.00003875,0.00020035,-0
 .00007529,0.00013877,-0.00011018,-0.00009899,-0.00149750,0.00250246,-0
 .00083468,-0.00109099,0.00368871,-0.00083692,0.00024043,-0.00029010,0.
 00000362,-0.00000016,0.00000210,-0.00000153,0.00000130,-0.00001066,-0.
 00001774,0.00005970,-0.00004835,-0.00003888,0.00171753,-0.00097240,-0.
 00115882,0.00001964,0.00032255,0.00013256,0.00000524,-0.00000703,0.000
 01944,0.00000581,0.00014455,0.00014397,-0.00002275,0.00001828,0.000011
 30,0.00000220,-0.00000858,0.00000422,-0.00000125,-0.00000005,0.0000017
 6,0.00000084,-0.00000022,-0.00000819,-0.00000140,0.00000393,0.00000533
 ,-0.11676029,-0.13245121,0.05883272,-0.01724072,-0.00392791,0.00629107
 ,0.00213878,-0.00718361,0.00198132,0.00176069,0.00142930,0.00114531,-0
 .00500002,0.00511409,-0.00222301,0.13538039,0.13036840,-0.00010278,-0.
 00007848,-0.00001218,0.00004406,0.00002964,-0.00002520,-0.00006846,-0.
 00005785,0.00016148,0.00109362,0.00087732,0.00019723,-0.00107755,-0.00
 137253,-0.00502013,0.02148431,0.01582312,-0.01052295,-0.00000885,-0.00
 000215,-0.00039967,-0.00001534,-0.00001219,-0.00000151,0.00000457,-0.0
 0002130,0.00000056,0.00004394,0.00004645,0.00010800,0.00180829,0.00164
 248,0.00158653,-0.00096634,-0.00079892,-0.00045379,-0.00002040,0.00001
 016,-0.00000360,-0.00027591,-0.00022576,-0.00004510,-0.00000184,-0.000
 00279,0.00001287,0.00003648,0.00002921,0.00000250,-0.00000931,-0.00000
 699,0.00000496,0.00000415,-0.00001355,0.00000458,-0.00001222,0.0000074
 0,0.00000245,0.08126062,0.06012931,-0.09756956,-0.01568158,-0.01199895
 ,0.01277399,-0.00232383,-0.00118261,0.00134358,0.00136803,0.00082854,-
 0.00391182,-0.00131648,-0.00178420,-0.00329892,-0.08705545,-0.06323449
 ,0.10440692,0.00012125,-0.00000943,-0.00152008,-0.00039419,-0.00027668
 ,0.00025877,-0.00019915,-0.00000790,0.00137121,-0.00021924,-0.00027535
 ,-0.00088460,-0.00108660,-0.00097996,0.00082439,-0.00046248,0.00109242
 ,-0.00365128,0.00002660,0.00001046,-0.00009679,0.00000830,0.00000369,-
 0.00005240,0.00006381,0.00011247,-0.00000410,0.00008838,0.00012883,-0.
 00001547,0.00054912,0.00101102,0.00127492,-0.00002386,0.00005520,0.000
 08657,0.00013008,0.00003244,0.00000580,0.00064700,0.00021948,-0.001013
 61,0.00002640,-0.00006032,-0.00004015,0.00028446,0.00026082,0.00023924
 ,0.00000041,-0.00000143,-0.00005599,-0.00006290,-0.00009515,0.00001723
 ,-0.00009841,-0.00004142,-0.00000400,0.00513280,0.00177114,0.00371190,
 0.00549757,-0.01506433,-0.02472603,-0.24752746,-0.13978878,-0.13675662
 ,-0.05585833,-0.06610326,-0.03010520,0.00146106,0.00188039,-0.00097270
 ,0.00116021,0.00018513,0.00178829,0.29073517,0.00009487,-0.00000133,-0
 .00143520,-0.00035056,-0.00027810,0.00023873,-0.00010287,-0.00008273,0
 .00128789,-0.00027966,-0.00020318,-0.00081966,-0.00114241,-0.00060937,
 0.00075264,0.00120860,-0.00139553,-0.00308391,0.00002069,0.00001648,-0
 .00008617,0.00000749,0.00000234,-0.00004975,0.00005850,0.00010986,0.00
 000320,0.00013185,0.00002493,0.00000284,0.00105058,0.00023870,0.001123
 71,0.00004746,-0.00004607,0.00008144,0.00011356,0.00003311,0.00000135,
 0.00034272,0.00049624,-0.00094260,-0.00006091,0.00005020,-0.00005062,0
 .00029872,0.00021600,0.00022391,0.00000218,-0.00000368,-0.00005257,-0.
 00005975,-0.00007875,-0.00000354,-0.00010445,-0.00003324,0.00001639,0.
 00203574,0.00490966,0.00283508,-0.01613852,0.00882132,-0.02453402,-0.1
 4052812,-0.19564162,-0.11930961,-0.06450297,-0.02502974,-0.02243815,0.
 00184318,0.00036843,-0.00065932,0.00007352,0.00120326,0.00136912,0.215
 94054,0.20691280,0.00017383,-0.00011763,-0.00409877,-0.00095744,-0.000
 70960,0.00058897,-0.00018219,0.00007822,0.00351777,-0.00095708,-0.0008
 7643,-0.00207272,-0.00184313,-0.00132629,0.00204307,-0.00174241,-0.001
 59635,-0.00606348,0.00007118,0.00004470,-0.00017071,0.00001051,-0.0000
 0066,-0.00014668,0.00016007,0.00026133,0.00002534,0.00003522,0.0000424
 2,0.00016642,0.00192392,0.00162964,0.00148951,-0.00004127,-0.00001829,
 0.00014112,0.00029106,0.00009397,0.00003587,0.00101361,0.00063762,-0.0
 0222092,-0.00004945,-0.00005776,-0.00021636,0.00086991,0.00071629,0.00
 058284,0.00000298,-0.00000661,-0.00014898,-0.00016127,-0.00024384,0.00
 003437,-0.00027777,-0.00009528,0.00002347,0.00805368,0.00621904,0.0022
 0613,-0.04235468,-0.03827321,-0.06349734,-0.14888689,-0.12876285,-0.28
 774048,-0.00384641,-0.00197371,0.04341136,-0.00158392,-0.00113567,0.00
 059273,-0.00004279,-0.00005787,0.00065876,0.19032070,0.16552882,0.3108
 5872\\0.00000132,0.00000073,0.00001073,-0.00001138,0.00001245,0.000015
 65,0.00000267,0.00000088,-0.00001711,0.00000108,0.00000153,-0.00000035
 ,-0.00000458,-0.00000549,-0.00000876,-0.00000282,-0.00000052,0.0000013
 3,-0.00000041,-0.00000075,-0.00000103,0.00000051,-0.00000321,-0.000005
 41,0.00000206,-0.00001268,-0.00000385,0.00000825,0.00000572,0.00000494
 ,0.00000871,0.00000506,-0.00001088,-0.00000802,-0.00000659,0.00000661,
 0.00000096,-0.00000054,-0.00000022,-0.00000287,-0.00000139,-0.00000369
 ,-0.00000016,0.00000068,-0.00000108,-0.00001719,0.00002344,0.00001574,
 -0.00000022,0.00000154,-0.00000541,-0.00000027,-0.00001825,0.00000354,
 0.00001674,-0.00000784,-0.00000166,-0.00003514,-0.00002976,-0.00005615
 ,0.00003969,0.00003327,0.00004400,0.00000584,0.00000593,-0.00000095,-0
 .00000097,-0.00000121,0.00000263,0.00000833,0.00000679,0.00000477,-0.0
 0001140,-0.00000857,0.00000769,-0.00000074,-0.00000120,-0.00000108\\\@
 Job cpu time:       1 days  4 hours 27 minutes  2.4 seconds.
 File lengths (MBytes):  RWF= 196135 Int=      0 D2E=      0 Chk=    169 Scr=      1
 Normal termination of Gaussian 09 at Thu Aug 26 01:44:04 2021.
