 Entering Gaussian System, Link 0=g09
 Input=G4.POQFOS.gjf
 Output=G4.POQFOS.log
 Initial command:
 /public/home/users/caep010/software/Gaussian09/g09/l1.exe "/public/home/users/caep010/.cache/gau_scr/Gau-106920.inp" -scrdir="/public/home/users/caep010/.cache/gau_scr/"
 Entering Link 1 = /public/home/users/caep010/software/Gaussian09/g09/l1.exe PID=    106921.
  
 Copyright (c) 1988,1990,1992,1993,1995,1998,2003,2009,2015,
            Gaussian, Inc.  All Rights Reserved.
  
 This is part of the Gaussian(R) 09 program.  It is based on
 the Gaussian(R) 03 system (copyright 2003, Gaussian, Inc.),
 the Gaussian(R) 98 system (copyright 1998, Gaussian, Inc.),
 the Gaussian(R) 94 system (copyright 1995, Gaussian, Inc.),
 the Gaussian 92(TM) system (copyright 1992, Gaussian, Inc.),
 the Gaussian 90(TM) system (copyright 1990, Gaussian, Inc.),
 the Gaussian 88(TM) system (copyright 1988, Gaussian, Inc.),
 the Gaussian 86(TM) system (copyright 1986, Carnegie Mellon
 University), and the Gaussian 82(TM) system (copyright 1983,
 Carnegie Mellon University). Gaussian is a federally registered
 trademark of Gaussian, Inc.
  
 This software contains proprietary and confidential information,
 including trade secrets, belonging to Gaussian, Inc.
  
 This software is provided under written license and may be
 used, copied, transmitted, or stored only in accord with that
 written license.
  
 The following legend is applicable only to US Government
 contracts under FAR:
  
                    RESTRICTED RIGHTS LEGEND
  
 Use, reproduction and disclosure by the US Government is
 subject to restrictions as set forth in subparagraphs (a)
 and (c) of the Commercial Computer Software - Restricted
 Rights clause in FAR 52.227-19.
  
 Gaussian, Inc.
 340 Quinnipiac St., Bldg. 40, Wallingford CT 06492
  
  
 ---------------------------------------------------------------
 Warning -- This program may not be used in any manner that
 competes with the business of Gaussian, Inc. or will provide
 assistance to any competitor of Gaussian, Inc.  The licensee
 of this program is prohibited from giving any competitor of
 Gaussian, Inc. access to this program.  By using this program,
 the user acknowledges that Gaussian, Inc. is engaged in the
 business of creating and licensing software in the field of
 computational chemistry and represents and warrants to the
 licensee that it is not a competitor of Gaussian, Inc. and that
 it will not use this program in any manner prohibited above.
 ---------------------------------------------------------------
  

 Cite this work as:
 Gaussian 09, Revision E.01,
 M. J. Frisch, G. W. Trucks, H. B. Schlegel, G. E. Scuseria, 
 M. A. Robb, J. R. Cheeseman, G. Scalmani, V. Barone, B. Mennucci, 
 G. A. Petersson, H. Nakatsuji, M. Caricato, X. Li, H. P. Hratchian, 
 A. F. Izmaylov, J. Bloino, G. Zheng, J. L. Sonnenberg, M. Hada, 
 M. Ehara, K. Toyota, R. Fukuda, J. Hasegawa, M. Ishida, T. Nakajima, 
 Y. Honda, O. Kitao, H. Nakai, T. Vreven, J. A. Montgomery, Jr., 
 J. E. Peralta, F. Ogliaro, M. Bearpark, J. J. Heyd, E. Brothers, 
 K. N. Kudin, V. N. Staroverov, T. Keith, R. Kobayashi, J. Normand, 
 K. Raghavachari, A. Rendell, J. C. Burant, S. S. Iyengar, J. Tomasi, 
 M. Cossi, N. Rega, J. M. Millam, M. Klene, J. E. Knox, J. B. Cross, 
 V. Bakken, C. Adamo, J. Jaramillo, R. Gomperts, R. E. Stratmann, 
 O. Yazyev, A. J. Austin, R. Cammi, C. Pomelli, J. W. Ochterski, 
 R. L. Martin, K. Morokuma, V. G. Zakrzewski, G. A. Voth, 
 P. Salvador, J. J. Dannenberg, S. Dapprich, A. D. Daniels, 
 O. Farkas, J. B. Foresman, J. V. Ortiz, J. Cioslowski, 
 and D. J. Fox, Gaussian, Inc., Wallingford CT, 2013.
 
 ******************************************
 Gaussian 09:  ES64L-G09RevE.01 30-Nov-2015
                27-Aug-2021 
 ******************************************
 %nproc=32
 Will use up to   32 processors via shared memory.
 %mem=180GB
 ----------------
 #P G4 OPT=calcfc
 ----------------
 1/10=4,14=-1,18=20,19=15,26=3,38=1/1,3;
 2/9=110,12=2,17=6,18=5,40=1/2;
 3/5=35,7=104,11=2,16=1,25=1,30=1,71=2,74=-5,140=1/1,2,3;
 4//1;
 5/5=2,38=5/2;
 8/6=4,10=90,11=11/1;
 11/6=1,8=1,9=11,15=111,16=1/1,2,10;
 10/6=1,13=1/2;
 6/7=2,8=2,9=2,10=2,28=1/1;
 7/10=1,18=20,25=1/1,2,3,16;
 1/10=4,14=-1,18=20,19=15,26=3/3(2);
 2/9=110/2;
 99//99;
 2/9=110/2;
 3/5=35,7=104,11=2,16=1,25=1,30=1,71=1,74=-5/1,2,3;
 4/5=5,16=3,69=1/1;
 5/5=2,38=5/2;
 7//1,2,3,16;
 1/14=-1,18=20,19=15,26=3/3(-5);
 2/9=110/2;
 6/7=2,8=2,9=2,10=2,19=2,28=1/1;
 99/9=1/99;
 Leave Link    1 at Fri Aug 27 07:47:49 2021, MaxMem= 24159191040 cpu:         2.9
 (Enter /public/home/users/caep010/software/Gaussian09/g09/l101.exe)
 ------
 POQFOS
 ------
 Symbolic Z-matrix:
 Charge =  0 Multiplicity = 1
 O                     4.8159    2.1301    17.5964 
 N                     3.8175    2.0695    16.8644 
 O                     3.3473    3.0568    16.328 
 C                     3.1914    0.7842    16.6505 
 C                     3.5511   -0.3191    17.4186 
 C                     2.8952   -1.5108    17.1483 
 H                     3.1053   -2.2687    17.6451 
 O                     4.4637   -0.3154    18.4193 
 H                     4.844     0.4998    18.4873 
 C                     2.2148    0.7121    15.6511 
 H                     1.9889    1.47      15.1627 
 C                     1.5915   -0.4842    15.3972 
 N                     0.6139   -0.6734    14.3904 
 C                     0.0088    0.267     13.6299 
 C                    -0.9869   -0.2557    12.6392 
 H                    -1.8213    0.2058    12.7502 
 H                    -1.1189   -1.1956    12.7833 
 H                    -0.6579   -0.1117    11.7481 
 H                     0.3324   -1.5484    14.2231 
 O                     0.2454    1.4637    13.7425 
 C                     1.9454   -1.5954    16.168 
 H                     1.5255   -2.4098    16.0104 
 
 NAtoms=     22 NQM=       22 NQMF=       0 NMMI=      0 NMMIF=      0
                NMic=       0 NMicF=      0.
                    Isotopes and Nuclear Properties:
 (Nuclear quadrupole moments (NQMom) in fm**2, nuclear magnetic moments (NMagM)
  in nuclear magnetons)

  Atom         1           2           3           4           5           6           7           8           9          10
 IAtWgt=          16          14          16          12          12          12           1          16           1          12
 AtmWgt=  15.9949146  14.0030740  15.9949146  12.0000000  12.0000000  12.0000000   1.0078250  15.9949146   1.0078250  12.0000000
 NucSpn=           0           2           0           0           0           0           1           0           1           0
 AtZEff=   0.0000000   0.0000000   0.0000000   0.0000000   0.0000000   0.0000000   0.0000000   0.0000000   0.0000000   0.0000000
 NQMom=    0.0000000   2.0440000   0.0000000   0.0000000   0.0000000   0.0000000   0.0000000   0.0000000   0.0000000   0.0000000
 NMagM=    0.0000000   0.4037610   0.0000000   0.0000000   0.0000000   0.0000000   2.7928460   0.0000000   2.7928460   0.0000000
 AtZNuc=   8.0000000   7.0000000   8.0000000   6.0000000   6.0000000   6.0000000   1.0000000   8.0000000   1.0000000   6.0000000

  Atom        11          12          13          14          15          16          17          18          19          20
 IAtWgt=           1          12          14          12          12           1           1           1           1          16
 AtmWgt=   1.0078250  12.0000000  14.0030740  12.0000000  12.0000000   1.0078250   1.0078250   1.0078250   1.0078250  15.9949146
 NucSpn=           1           0           2           0           0           1           1           1           1           0
 AtZEff=   0.0000000   0.0000000   0.0000000   0.0000000   0.0000000   0.0000000   0.0000000   0.0000000   0.0000000   0.0000000
 NQMom=    0.0000000   0.0000000   2.0440000   0.0000000   0.0000000   0.0000000   0.0000000   0.0000000   0.0000000   0.0000000
 NMagM=    2.7928460   0.0000000   0.4037610   0.0000000   0.0000000   2.7928460   2.7928460   2.7928460   2.7928460   0.0000000
 AtZNuc=   1.0000000   6.0000000   7.0000000   6.0000000   6.0000000   1.0000000   1.0000000   1.0000000   1.0000000   8.0000000

  Atom        21          22
 IAtWgt=          12           1
 AtmWgt=  12.0000000   1.0078250
 NucSpn=           0           1
 AtZEff=   0.0000000   0.0000000
 NQMom=    0.0000000   0.0000000
 NMagM=    0.0000000   2.7928460
 AtZNuc=   6.0000000   1.0000000
 Leave Link  101 at Fri Aug 27 07:47:50 2021, MaxMem= 24159191040 cpu:        10.1
 (Enter /public/home/users/caep010/software/Gaussian09/g09/l103.exe)

 GradGradGradGradGradGradGradGradGradGradGradGradGradGradGradGradGradGrad
 Berny optimization.
 Initialization pass.
                           ----------------------------
                           !    Initial Parameters    !
                           ! (Angstroms and Degrees)  !
 --------------------------                            --------------------------
 ! Name  Definition              Value          Derivative Info.                !
 --------------------------------------------------------------------------------
 ! R1    R(1,2)                  1.2395         calculate D2E/DX2 analytically  !
 ! R2    R(2,3)                  1.218          calculate D2E/DX2 analytically  !
 ! R3    R(2,4)                  1.4456         calculate D2E/DX2 analytically  !
 ! R4    R(4,5)                  1.3916         calculate D2E/DX2 analytically  !
 ! R5    R(4,10)                 1.3992         calculate D2E/DX2 analytically  !
 ! R6    R(5,6)                  1.3869         calculate D2E/DX2 analytically  !
 ! R7    R(5,8)                  1.3543         calculate D2E/DX2 analytically  !
 ! R8    R(6,7)                  0.9302         calculate D2E/DX2 analytically  !
 ! R9    R(6,21)                 1.3676         calculate D2E/DX2 analytically  !
 ! R10   R(8,9)                  0.9021         calculate D2E/DX2 analytically  !
 ! R11   R(10,11)                0.9295         calculate D2E/DX2 analytically  !
 ! R12   R(10,12)                1.3726         calculate D2E/DX2 analytically  !
 ! R13   R(12,13)                1.416          calculate D2E/DX2 analytically  !
 ! R14   R(12,21)                1.3979         calculate D2E/DX2 analytically  !
 ! R15   R(13,14)                1.3524         calculate D2E/DX2 analytically  !
 ! R16   R(13,19)                0.9343         calculate D2E/DX2 analytically  !
 ! R17   R(14,15)                1.4987         calculate D2E/DX2 analytically  !
 ! R18   R(14,20)                1.2251         calculate D2E/DX2 analytically  !
 ! R19   R(15,16)                0.96           calculate D2E/DX2 analytically  !
 ! R20   R(15,17)                0.96           calculate D2E/DX2 analytically  !
 ! R21   R(15,18)                0.9607         calculate D2E/DX2 analytically  !
 ! R22   R(21,22)                0.9297         calculate D2E/DX2 analytically  !
 ! A1    A(1,2,3)              122.1003         calculate D2E/DX2 analytically  !
 ! A2    A(1,2,4)              118.6674         calculate D2E/DX2 analytically  !
 ! A3    A(3,2,4)              119.2314         calculate D2E/DX2 analytically  !
 ! A4    A(2,4,5)              120.7493         calculate D2E/DX2 analytically  !
 ! A5    A(2,4,10)             116.9878         calculate D2E/DX2 analytically  !
 ! A6    A(5,4,10)             122.2619         calculate D2E/DX2 analytically  !
 ! A7    A(4,5,6)              116.8352         calculate D2E/DX2 analytically  !
 ! A8    A(4,5,8)              125.438          calculate D2E/DX2 analytically  !
 ! A9    A(6,5,8)              117.7123         calculate D2E/DX2 analytically  !
 ! A10   A(5,6,7)              119.2862         calculate D2E/DX2 analytically  !
 ! A11   A(5,6,21)             121.4209         calculate D2E/DX2 analytically  !
 ! A12   A(7,6,21)             119.2928         calculate D2E/DX2 analytically  !
 ! A13   A(5,8,9)              110.0128         calculate D2E/DX2 analytically  !
 ! A14   A(4,10,11)            120.1934         calculate D2E/DX2 analytically  !
 ! A15   A(4,10,12)            119.6022         calculate D2E/DX2 analytically  !
 ! A16   A(11,10,12)           120.2044         calculate D2E/DX2 analytically  !
 ! A17   A(10,12,13)           124.157          calculate D2E/DX2 analytically  !
 ! A18   A(10,12,21)           118.4138         calculate D2E/DX2 analytically  !
 ! A19   A(13,12,21)           117.4267         calculate D2E/DX2 analytically  !
 ! A20   A(12,13,14)           128.0121         calculate D2E/DX2 analytically  !
 ! A21   A(12,13,19)           117.4175         calculate D2E/DX2 analytically  !
 ! A22   A(14,13,19)           114.5665         calculate D2E/DX2 analytically  !
 ! A23   A(13,14,15)           115.2443         calculate D2E/DX2 analytically  !
 ! A24   A(13,14,20)           122.7642         calculate D2E/DX2 analytically  !
 ! A25   A(15,14,20)           121.9898         calculate D2E/DX2 analytically  !
 ! A26   A(14,15,16)           109.4734         calculate D2E/DX2 analytically  !
 ! A27   A(14,15,17)           109.4869         calculate D2E/DX2 analytically  !
 ! A28   A(14,15,18)           109.4712         calculate D2E/DX2 analytically  !
 ! A29   A(16,15,17)           109.5002         calculate D2E/DX2 analytically  !
 ! A30   A(16,15,18)           109.4414         calculate D2E/DX2 analytically  !
 ! A31   A(17,15,18)           109.4542         calculate D2E/DX2 analytically  !
 ! A32   A(6,21,12)            121.4599         calculate D2E/DX2 analytically  !
 ! A33   A(6,21,22)            119.2987         calculate D2E/DX2 analytically  !
 ! A34   A(12,21,22)           119.2414         calculate D2E/DX2 analytically  !
 ! D1    D(1,2,4,5)             10.8125         calculate D2E/DX2 analytically  !
 ! D2    D(1,2,4,10)          -169.5351         calculate D2E/DX2 analytically  !
 ! D3    D(3,2,4,5)           -168.8464         calculate D2E/DX2 analytically  !
 ! D4    D(3,2,4,10)            10.806          calculate D2E/DX2 analytically  !
 ! D5    D(2,4,5,6)            179.7529         calculate D2E/DX2 analytically  !
 ! D6    D(2,4,5,8)              1.1737         calculate D2E/DX2 analytically  !
 ! D7    D(10,4,5,6)             0.1192         calculate D2E/DX2 analytically  !
 ! D8    D(10,4,5,8)          -178.46           calculate D2E/DX2 analytically  !
 ! D9    D(2,4,10,11)           -0.4591         calculate D2E/DX2 analytically  !
 ! D10   D(2,4,10,12)          179.6042         calculate D2E/DX2 analytically  !
 ! D11   D(5,4,10,11)          179.1876         calculate D2E/DX2 analytically  !
 ! D12   D(5,4,10,12)           -0.7491         calculate D2E/DX2 analytically  !
 ! D13   D(4,5,6,7)           -179.6163         calculate D2E/DX2 analytically  !
 ! D14   D(4,5,6,21)             0.3238         calculate D2E/DX2 analytically  !
 ! D15   D(8,5,6,7)             -0.9239         calculate D2E/DX2 analytically  !
 ! D16   D(8,5,6,21)           179.0162         calculate D2E/DX2 analytically  !
 ! D17   D(4,5,8,9)             -3.277          calculate D2E/DX2 analytically  !
 ! D18   D(6,5,8,9)            178.1551         calculate D2E/DX2 analytically  !
 ! D19   D(5,6,21,12)           -0.1443         calculate D2E/DX2 analytically  !
 ! D20   D(5,6,21,22)          179.8575         calculate D2E/DX2 analytically  !
 ! D21   D(7,6,21,12)          179.7958         calculate D2E/DX2 analytically  !
 ! D22   D(7,6,21,22)           -0.2024         calculate D2E/DX2 analytically  !
 ! D23   D(4,10,12,13)        -178.5052         calculate D2E/DX2 analytically  !
 ! D24   D(4,10,12,21)           0.9095         calculate D2E/DX2 analytically  !
 ! D25   D(11,10,12,13)          1.5581         calculate D2E/DX2 analytically  !
 ! D26   D(11,10,12,21)       -179.0272         calculate D2E/DX2 analytically  !
 ! D27   D(10,12,13,14)         -8.6158         calculate D2E/DX2 analytically  !
 ! D28   D(10,12,13,19)        172.1444         calculate D2E/DX2 analytically  !
 ! D29   D(21,12,13,14)        171.9642         calculate D2E/DX2 analytically  !
 ! D30   D(21,12,13,19)         -7.2756         calculate D2E/DX2 analytically  !
 ! D31   D(10,12,21,6)          -0.4874         calculate D2E/DX2 analytically  !
 ! D32   D(10,12,21,22)        179.5108         calculate D2E/DX2 analytically  !
 ! D33   D(13,12,21,6)         178.9669         calculate D2E/DX2 analytically  !
 ! D34   D(13,12,21,22)         -1.0349         calculate D2E/DX2 analytically  !
 ! D35   D(12,13,14,15)        179.7651         calculate D2E/DX2 analytically  !
 ! D36   D(12,13,14,20)         -0.7008         calculate D2E/DX2 analytically  !
 ! D37   D(19,13,14,15)         -0.9769         calculate D2E/DX2 analytically  !
 ! D38   D(19,13,14,20)        178.5573         calculate D2E/DX2 analytically  !
 ! D39   D(13,14,15,16)        127.2375         calculate D2E/DX2 analytically  !
 ! D40   D(13,14,15,17)          7.191          calculate D2E/DX2 analytically  !
 ! D41   D(13,14,15,18)       -112.7977         calculate D2E/DX2 analytically  !
 ! D42   D(20,14,15,16)        -52.3006         calculate D2E/DX2 analytically  !
 ! D43   D(20,14,15,17)       -172.3471         calculate D2E/DX2 analytically  !
 ! D44   D(20,14,15,18)         67.6641         calculate D2E/DX2 analytically  !
 --------------------------------------------------------------------------------
 Trust Radius=3.00D-01 FncErr=1.00D-07 GrdErr=1.00D-06
 Number of steps in this run=    110 maximum allowed number of steps=    132.
 GradGradGradGradGradGradGradGradGradGradGradGradGradGradGradGradGradGrad

 Leave Link  103 at Fri Aug 27 07:47:50 2021, MaxMem= 24159191040 cpu:         0.5
 (Enter /public/home/users/caep010/software/Gaussian09/g09/l202.exe)
                          Input orientation:                          
 ---------------------------------------------------------------------
 Center     Atomic      Atomic             Coordinates (Angstroms)
 Number     Number       Type             X           Y           Z
 ---------------------------------------------------------------------
      1          8           0        4.815900    2.130100   17.596400
      2          7           0        3.817500    2.069500   16.864400
      3          8           0        3.347300    3.056800   16.328000
      4          6           0        3.191400    0.784200   16.650500
      5          6           0        3.551100   -0.319100   17.418600
      6          6           0        2.895200   -1.510800   17.148300
      7          1           0        3.105300   -2.268700   17.645100
      8          8           0        4.463700   -0.315400   18.419300
      9          1           0        4.844000    0.499800   18.487300
     10          6           0        2.214800    0.712100   15.651100
     11          1           0        1.988900    1.470000   15.162700
     12          6           0        1.591500   -0.484200   15.397200
     13          7           0        0.613900   -0.673400   14.390400
     14          6           0        0.008800    0.267000   13.629900
     15          6           0       -0.986900   -0.255700   12.639200
     16          1           0       -1.821300    0.205800   12.750200
     17          1           0       -1.118900   -1.195600   12.783300
     18          1           0       -0.657900   -0.111700   11.748100
     19          1           0        0.332400   -1.548400   14.223100
     20          8           0        0.245400    1.463700   13.742500
     21          6           0        1.945400   -1.595400   16.168000
     22          1           0        1.525500   -2.409800   16.010400
 ---------------------------------------------------------------------
                    Distance matrix (angstroms):
                    1          2          3          4          5
     1  O    0.000000
     2  N    1.239475   0.000000
     3  O    2.150441   1.218021   0.000000
     4  C    2.311963   1.445597   2.300657   0.000000
     5  C    2.762230   2.466479   3.553540   1.391629   0.000000
     6  C    4.140777   3.708070   4.662645   2.366974   1.386873
     7  H    4.719954   4.465053   5.491290   3.211984   2.012705
     8  O    2.604166   2.919424   4.122089   2.440598   1.354346
     9  H    1.858056   2.480215   3.666188   2.487128   1.866630
    10  C    3.544099   2.425547   2.690422   1.399195   2.443998
    11  H    3.788213   2.568844   2.391884   2.032210   3.275734
    12  C    4.697638   3.691766   4.060530   2.395679   2.820168
    13  N    5.982880   4.889502   5.013997   3.725071   4.233517
    14  C    6.504804   5.311986   5.119405   4.418197   5.219737
    15  C    7.996147   6.807432   6.585225   5.884735   6.590913
    16  H    8.440439   7.224686   6.902411   6.377621   7.136677
    17  H    8.333550   7.189179   7.112998   6.119929   6.638009
    18  H    8.318099   7.138863   6.859774   6.297084   7.064932
    19  H    6.709120   5.675525   5.893055   4.416693   4.699194
    20  O    6.015489   4.782588   4.341032   4.194890   5.255449
    21  C    4.915226   4.173874   4.861470   2.729069   2.402335
    22  H    5.826905   5.103598   5.770922   3.658768   3.233745
                    6          7          8          9         10
     6  C    0.000000
     7  H    0.930250   0.000000
     8  O    2.346191   2.502003   0.000000
     9  H    3.103749   3.375940   0.902110   0.000000
    10  C    2.765111   3.695158   3.711636   3.873215   0.000000
    11  H    3.694476   4.624558   4.462929   4.488413   0.929504
    12  C    2.412445   3.244855   4.172663   4.593009   1.372626
    13  N    3.675810   4.398310   5.584009   6.004559   2.464114
    14  C    4.885797   5.669208   6.566862   6.857674   3.024864
    15  C    6.080951   6.771802   7.944946   8.292795   4.501007
    16  H    6.673483   7.372556   8.480069   8.799260   4.996165
    17  H    5.938483   6.529357   7.981521   8.424142   4.793449
    18  H    6.613937   7.320446   8.412918   8.721333   4.915736
    19  H    3.889235   4.462946   6.016313   6.537053   3.269935
    20  O    5.241046   6.110657   6.544594   6.677526   2.843623
    21  C    1.367576   1.995125   3.612283   4.262734   2.379983
    22  H    1.994767   2.277701   4.338471   5.060953   3.217218
                   11         12         13         14         15
    11  H    0.000000
    12  C    2.007938   0.000000
    13  N    2.661059   1.416031   0.000000
    14  C    2.778035   2.488492   1.352353   0.000000
    15  C    4.266319   3.782449   2.409094   1.498706   0.000000
    16  H    4.683586   4.373776   3.064873   2.031473   0.959962
    17  H    4.735545   3.832079   2.420343   2.031659   0.960000
    18  H    4.600741   4.302846   2.985755   2.032012   0.960748
    19  H    3.568974   2.023948   0.934268   1.937080   2.433180
    20  O    2.248733   2.888656   2.263352   1.225051   2.385827
    21  C    3.226329   1.397907   2.404753   3.696066   4.779708
    22  H    3.998272   2.021956   2.543718   3.890041   4.724118
                   16         17         18         19         20
    16  H    0.000000
    17  H    1.567923   0.000000
    18  H    1.567964   1.568120   0.000000
    19  H    3.144054   2.074551   3.028271   0.000000
    20  O    2.614999   3.138990   2.697307   3.051441   0.000000
    21  C    5.395712   4.583227   5.339855   2.527175   4.258068
    22  H    5.354562   4.345263   5.311845   2.315154   4.667551
                   21         22
    21  C    0.000000
    22  H    0.929732   0.000000
 Stoichiometry    C8H8N2O4
 Framework group  C1[X(C8H8N2O4)]
 Deg. of freedom    60
 Full point group                 C1      NOp   1
 Largest Abelian subgroup         C1      NOp   1
 Largest concise Abelian subgroup C1      NOp   1
                         Standard orientation:                         
 ---------------------------------------------------------------------
 Center     Atomic      Atomic             Coordinates (Angstroms)
 Number     Number       Type             X           Y           Z
 ---------------------------------------------------------------------
      1          8           0        3.332491   -1.263594    0.216057
      2          7           0        2.111000   -1.374537    0.037312
      3          8           0        1.576379   -2.456724   -0.125864
      4          6           0        1.301721   -0.176897    0.015472
      5          6           0        1.894168    1.081372   -0.033489
      6          6           0        1.041064    2.174573   -0.056703
      7          1           0        1.400646    3.031666   -0.094869
      8          8           0        3.226121    1.320642   -0.087401
      9          1           0        3.681616    0.543496   -0.038711
     10          6           0       -0.086751   -0.348297    0.038154
     11          1           0       -0.451999   -1.202764    0.059551
     12          6           0       -0.906143    0.752876    0.027300
     13          7           0       -2.319949    0.692396    0.078673
     14          6           0       -3.110702   -0.400710   -0.014534
     15          6           0       -4.582485   -0.135040    0.082377
     16          1           0       -5.029117   -0.529464   -0.670269
     17          1           0       -4.737303    0.812386    0.086478
     18          1           0       -4.924385   -0.518650    0.894155
     19          1           0       -2.781646    1.498339    0.179417
     20          8           0       -2.664311   -1.530101   -0.175658
     21          6           0       -0.317357    2.019621   -0.025914
     22          1           0       -0.861694    2.773199   -0.040711
 ---------------------------------------------------------------------
 Rotational constants (GHZ):      1.3428736      0.4246801      0.3239703
 Leave Link  202 at Fri Aug 27 07:47:50 2021, MaxMem= 24159191040 cpu:         0.6
 (Enter /public/home/users/caep010/software/Gaussian09/g09/l301.exe)
 Standard basis: GTBas3 (6D, 7F)
 Ernie: Thresh=  0.10000D-02 Tol=  0.10000D-05 Strict=F.
 There are   474 symmetry adapted cartesian basis functions of A   symmetry.
 There are   432 symmetry adapted basis functions of A   symmetry.
   432 basis functions,   672 primitive gaussians,   474 cartesian basis functions
    51 alpha electrons       51 beta electrons
       nuclear repulsion energy       880.7470709927 Hartrees.
 IExCor=  402 DFT=T Ex+Corr=B3LYP ExCW=0 ScaHFX=  0.200000
 ScaDFX=  0.800000  0.720000  1.000000  0.810000 ScalE2=  1.000000  1.000000
 IRadAn=      0 IRanWt=     -1 IRanGd=            0 ICorTp=0 IEmpDi=  4
 NAtoms=   22 NActive=   22 NUniq=   22 SFac= 1.00D+00 NAtFMM=   60 NAOKFM=F Big=F
 Integral buffers will be    131072 words long.
 Raffenetti 2 integral format.
 Two-electron integral symmetry is turned on.
 Leave Link  301 at Fri Aug 27 07:47:50 2021, MaxMem= 24159191040 cpu:         2.3
 (Enter /public/home/users/caep010/software/Gaussian09/g09/l302.exe)
 NPDir=0 NMtPBC=     1 NCelOv=     1 NCel=       1 NClECP=     1 NCelD=      1
         NCelK=      1 NCelE2=     1 NClLst=     1 CellRange=     0.0.
 One-electron integrals computed using PRISM.
 NBasis=   432 RedAO= T EigKep=  9.18D-05  NBF=   432
 NBsUse=   432 1.00D-06 EigRej= -1.00D+00 NBFU=   432
 Precomputing XC quadrature grid using
 IXCGrd= 4 IRadAn=           0 IRanWt=          -1 IRanGd=           0 AccXCQ= 0.00D+00.
 Generated NRdTot=       0 NPtTot=           0 NUsed=           0 NTot=          32
 NSgBfM=   473   473   473   473   473 MxSgAt=    22 MxSgA2=    22.
 Leave Link  302 at Fri Aug 27 07:47:51 2021, MaxMem= 24159191040 cpu:        20.1
 (Enter /public/home/users/caep010/software/Gaussian09/g09/l303.exe)
 DipDrv:  MaxL=1.
 Leave Link  303 at Fri Aug 27 07:47:51 2021, MaxMem= 24159191040 cpu:         1.2
 (Enter /public/home/users/caep010/software/Gaussian09/g09/l401.exe)
 ExpMin= 1.61D-01 ExpMax= 5.48D+03 ExpMxC= 8.25D+02 IAcc=1 IRadAn=         1 AccDes= 0.00D+00
 Harris functional with IExCor=  402 and IRadAn=       1 diagonalized for initial guess.
 HarFok:  IExCor=  402 AccDes= 0.00D+00 IRadAn=         1 IDoV= 1 UseB2=F ITyADJ=14
 ICtDFT=  3500011 ScaDFX=  1.000000  1.000000  1.000000  1.000000
 FoFCou: FMM=F IPFlag=           0 FMFlag=      100000 FMFlg1=           0
         NFxFlg=           0 DoJE=T BraDBF=F KetDBF=T FulRan=T
         wScrn=  0.000000 ICntrl=     500 IOpCl=  0 I1Cent=   200000004 NGrid=           0
         NMat0=    1 NMatS0=      1 NMatT0=    0 NMatD0=    1 NMtDS0=    0 NMtDT0=    0
 Petite list used in FoFCou.
 Harris En= -720.059729759713    
 JPrj=0 DoOrth=F DoCkMO=F.
 Leave Link  401 at Fri Aug 27 07:47:52 2021, MaxMem= 24159191040 cpu:        19.8
 (Enter /public/home/users/caep010/software/Gaussian09/g09/l502.exe)
 Closed shell SCF:
 Using DIIS extrapolation, IDIIS=  1040.
 Integral symmetry usage will be decided dynamically.
 Keep R1 ints in memory in canonical form, NReq=4428087030.
 IVT=      711174 IEndB=      711174 NGot= 24159191040 MDV= 19784689711
 LenX= 19784689711 LenY= 19784464561
 Requested convergence on RMS density matrix=1.00D-08 within 128 cycles.
 Requested convergence on MAX density matrix=1.00D-06.
 Requested convergence on             energy=1.00D-06.
 No special actions if energy rises.
 FoFCou: FMM=F IPFlag=           0 FMFlag=           0 FMFlg1=           0
         NFxFlg=           0 DoJE=F BraDBF=F KetDBF=F FulRan=T
         wScrn=  0.000000 ICntrl=     600 IOpCl=  0 I1Cent=           0 NGrid=           0
         NMat0=    1 NMatS0=  93528 NMatT0=    0 NMatD0=    1 NMtDS0=    0 NMtDT0=    0
 Symmetry not used in FoFCou.
 Integral accuracy reduced to 1.0D-05 until final iterations.

 Cycle   1  Pass 0  IDiag  1:
 E= -719.428005643427    
 DIIS: error= 2.89D-02 at cycle   1 NSaved=   1.
 NSaved= 1 IEnMin= 1 EnMin= -719.428005643427     IErMin= 1 ErrMin= 2.89D-02
 ErrMax= 2.89D-02  0.00D+00 EMaxC= 1.00D-01 BMatC= 6.19D-01 BMatP= 6.19D-01
 IDIUse=3 WtCom= 7.11D-01 WtEn= 2.89D-01
 Coeff-Com:  0.100D+01
 Coeff-En:   0.100D+01
 Coeff:      0.100D+01
 Gap=     0.136 Goal=   None    Shift=    0.000
 GapD=    0.136 DampG=1.000 DampE=0.500 DampFc=0.5000 IDamp=-1.
 Damping current iteration by 5.00D-01
 RMSDP=4.49D-03 MaxDP=4.72D-01              OVMax= 9.17D-01

 Cycle   2  Pass 0  IDiag  1:
 E= -719.021522095788     Delta-E=        0.406483547639 Rises=F Damp=T
 DIIS: error= 1.95D-02 at cycle   2 NSaved=   2.
 NSaved= 2 IEnMin= 1 EnMin= -719.428005643427     IErMin= 2 ErrMin= 1.95D-02
 ErrMax= 1.95D-02  0.00D+00 EMaxC= 1.00D-01 BMatC= 3.02D-01 BMatP= 6.19D-01
 IDIUse=3 WtCom= 8.05D-01 WtEn= 1.95D-01
 Coeff-Com:  0.375D+00 0.625D+00
 Coeff-En:   0.701D+00 0.299D+00
 Coeff:      0.439D+00 0.561D+00
 Gap=    -0.446 Goal=   None    Shift=    0.000
 RMSDP=2.78D-03 MaxDP=2.17D-01 DE= 4.06D-01 OVMax= 6.43D-01

 Cycle   3  Pass 0  IDiag  1:
 E= -719.551082192335     Delta-E=       -0.529560096547 Rises=F Damp=F
 DIIS: error= 1.89D-02 at cycle   3 NSaved=   3.
 NSaved= 3 IEnMin= 3 EnMin= -719.551082192335     IErMin= 3 ErrMin= 1.89D-02
 ErrMax= 1.89D-02  0.00D+00 EMaxC= 1.00D-01 BMatC= 3.82D-01 BMatP= 3.02D-01
 IDIUse=2 WtCom= 0.00D+00 WtEn= 1.00D+00
 EnCoef did     2 forward-backward iterations
 Coeff-En:   0.245D+00 0.204D+00 0.552D+00
 Coeff:      0.245D+00 0.204D+00 0.552D+00
 Gap=     0.357 Goal=   None    Shift=    0.000
 RMSDP=3.46D-03 MaxDP=2.12D-01 DE=-5.30D-01 OVMax= 4.38D-01

 Cycle   4  Pass 0  IDiag  1:
 E= -719.642552958975     Delta-E=       -0.091470766640 Rises=F Damp=F
 DIIS: error= 2.31D-02 at cycle   4 NSaved=   4.
 NSaved= 4 IEnMin= 4 EnMin= -719.642552958975     IErMin= 3 ErrMin= 1.89D-02
 ErrMax= 2.31D-02  0.00D+00 EMaxC= 1.00D-01 BMatC= 3.13D-01 BMatP= 3.02D-01
 IDIUse=3 WtCom= 7.69D-01 WtEn= 2.31D-01
 EnCoef did     2 forward-backward iterations
 Coeff-Com:  0.173D+00 0.180D+00 0.359D+00 0.287D+00
 Coeff-En:   0.167D-01 0.000D+00 0.432D+00 0.551D+00
 Coeff:      0.137D+00 0.139D+00 0.376D+00 0.348D+00
 Gap=     0.156 Goal=   None    Shift=    0.000
 RMSDP=1.91D-03 MaxDP=1.30D-01 DE=-9.15D-02 OVMax= 3.38D-01

 Cycle   5  Pass 0  IDiag  1:
 E= -719.906350963261     Delta-E=       -0.263798004285 Rises=F Damp=F
 DIIS: error= 5.74D-03 at cycle   5 NSaved=   5.
 NSaved= 5 IEnMin= 5 EnMin= -719.906350963261     IErMin= 5 ErrMin= 5.74D-03
 ErrMax= 5.74D-03  0.00D+00 EMaxC= 1.00D-01 BMatC= 2.71D-02 BMatP= 3.02D-01
 IDIUse=3 WtCom= 9.43D-01 WtEn= 5.74D-02
 Coeff-Com: -0.478D-02 0.958D-01 0.733D-01 0.155D+00 0.680D+00
 Coeff-En:   0.000D+00 0.000D+00 0.000D+00 0.611D-01 0.939D+00
 Coeff:     -0.450D-02 0.904D-01 0.691D-01 0.150D+00 0.695D+00
 Gap=     0.156 Goal=   None    Shift=    0.000
 RMSDP=3.99D-04 MaxDP=3.63D-02 DE=-2.64D-01 OVMax= 4.10D-02

 Cycle   6  Pass 0  IDiag  1:
 E= -719.920285185219     Delta-E=       -0.013934221958 Rises=F Damp=F
 DIIS: error= 3.64D-03 at cycle   6 NSaved=   6.
 NSaved= 6 IEnMin= 6 EnMin= -719.920285185219     IErMin= 6 ErrMin= 3.64D-03
 ErrMax= 3.64D-03  0.00D+00 EMaxC= 1.00D-01 BMatC= 8.62D-03 BMatP= 2.71D-02
 IDIUse=3 WtCom= 9.64D-01 WtEn= 3.64D-02
 Coeff-Com: -0.442D-01 0.649D-01-0.517D-01 0.155D-01 0.509D+00 0.506D+00
 Coeff-En:   0.000D+00 0.000D+00 0.000D+00 0.000D+00 0.200D+00 0.800D+00
 Coeff:     -0.426D-01 0.626D-01-0.498D-01 0.149D-01 0.498D+00 0.517D+00
 Gap=     0.147 Goal=   None    Shift=    0.000
 RMSDP=2.94D-04 MaxDP=2.68D-02 DE=-1.39D-02 OVMax= 5.11D-02

 Cycle   7  Pass 0  IDiag  1:
 E= -719.926377152787     Delta-E=       -0.006091967568 Rises=F Damp=F
 DIIS: error= 2.54D-03 at cycle   7 NSaved=   7.
 NSaved= 7 IEnMin= 7 EnMin= -719.926377152787     IErMin= 7 ErrMin= 2.54D-03
 ErrMax= 2.54D-03  0.00D+00 EMaxC= 1.00D-01 BMatC= 2.78D-03 BMatP= 8.62D-03
 IDIUse=3 WtCom= 9.75D-01 WtEn= 2.54D-02
 Coeff-Com: -0.342D-01 0.431D-01-0.521D-01 0.134D-02 0.312D+00 0.393D+00
 Coeff-Com:  0.336D+00
 Coeff-En:   0.000D+00 0.000D+00 0.000D+00 0.000D+00 0.000D+00 0.147D+00
 Coeff-En:   0.853D+00
 Coeff:     -0.333D-01 0.420D-01-0.508D-01 0.130D-02 0.304D+00 0.387D+00
 Coeff:      0.350D+00
 Gap=     0.143 Goal=   None    Shift=    0.000
 RMSDP=1.08D-04 MaxDP=1.18D-02 DE=-6.09D-03 OVMax= 2.09D-02

 Cycle   8  Pass 0  IDiag  1:
 E= -719.928473487785     Delta-E=       -0.002096334998 Rises=F Damp=F
 DIIS: error= 7.27D-04 at cycle   8 NSaved=   8.
 NSaved= 8 IEnMin= 8 EnMin= -719.928473487785     IErMin= 8 ErrMin= 7.27D-04
 ErrMax= 7.27D-04  0.00D+00 EMaxC= 1.00D-01 BMatC= 4.14D-04 BMatP= 2.78D-03
 IDIUse=3 WtCom= 9.93D-01 WtEn= 7.27D-03
 Coeff-Com: -0.632D-02 0.726D-02-0.196D-01 0.366D-02-0.139D-01 0.122D-01
 Coeff-Com:  0.166D+00 0.851D+00
 Coeff-En:   0.000D+00 0.000D+00 0.000D+00 0.000D+00 0.000D+00 0.000D+00
 Coeff-En:   0.000D+00 0.100D+01
 Coeff:     -0.628D-02 0.721D-02-0.195D-01 0.363D-02-0.138D-01 0.121D-01
 Coeff:      0.165D+00 0.852D+00
 Gap=     0.142 Goal=   None    Shift=    0.000
 RMSDP=7.18D-05 MaxDP=4.82D-03 DE=-2.10D-03 OVMax= 8.26D-03

 Cycle   9  Pass 0  IDiag  1:
 E= -719.928822175385     Delta-E=       -0.000348687601 Rises=F Damp=F
 DIIS: error= 4.33D-04 at cycle   9 NSaved=   9.
 NSaved= 9 IEnMin= 9 EnMin= -719.928822175385     IErMin= 9 ErrMin= 4.33D-04
 ErrMax= 4.33D-04  0.00D+00 EMaxC= 1.00D-01 BMatC= 5.46D-05 BMatP= 4.14D-04
 IDIUse=3 WtCom= 9.96D-01 WtEn= 4.33D-03
 Coeff-Com:  0.405D-03-0.153D-03-0.546D-02 0.277D-02-0.530D-01-0.518D-01
 Coeff-Com:  0.516D-01 0.560D+00 0.496D+00
 Coeff-En:   0.000D+00 0.000D+00 0.000D+00 0.000D+00 0.000D+00 0.000D+00
 Coeff-En:   0.000D+00 0.000D+00 0.100D+01
 Coeff:      0.404D-03-0.153D-03-0.544D-02 0.276D-02-0.528D-01-0.516D-01
 Coeff:      0.514D-01 0.558D+00 0.498D+00
 Gap=     0.141 Goal=   None    Shift=    0.000
 RMSDP=2.23D-05 MaxDP=1.59D-03 DE=-3.49D-04 OVMax= 4.42D-03

 Cycle  10  Pass 0  IDiag  1:
 E= -719.928880252662     Delta-E=       -0.000058077277 Rises=F Damp=F
 DIIS: error= 7.99D-05 at cycle  10 NSaved=  10.
 NSaved=10 IEnMin=10 EnMin= -719.928880252662     IErMin=10 ErrMin= 7.99D-05
 ErrMax= 7.99D-05  0.00D+00 EMaxC= 1.00D-01 BMatC= 4.50D-06 BMatP= 5.46D-05
 IDIUse=1 WtCom= 1.00D+00 WtEn= 0.00D+00
 Coeff-Com:  0.664D-03-0.362D-03 0.156D-04 0.516D-03-0.167D-01-0.208D-01
 Coeff-Com:  0.154D-02 0.125D+00 0.265D+00 0.645D+00
 Coeff:      0.664D-03-0.362D-03 0.156D-04 0.516D-03-0.167D-01-0.208D-01
 Coeff:      0.154D-02 0.125D+00 0.265D+00 0.645D+00
 Gap=     0.141 Goal=   None    Shift=    0.000
 RMSDP=5.26D-06 MaxDP=2.96D-04 DE=-5.81D-05 OVMax= 8.26D-04

 Initial convergence to 1.0D-05 achieved.  Increase integral accuracy.
 Cycle  11  Pass 1  IDiag  1:
 E= -719.928893781222     Delta-E=       -0.000013528560 Rises=F Damp=F
 DIIS: error= 2.44D-05 at cycle   1 NSaved=   1.
 NSaved= 1 IEnMin= 1 EnMin= -719.928893781222     IErMin= 1 ErrMin= 2.44D-05
 ErrMax= 2.44D-05  0.00D+00 EMaxC= 1.00D-01 BMatC= 7.40D-07 BMatP= 7.40D-07
 IDIUse=1 WtCom= 1.00D+00 WtEn= 0.00D+00
 Coeff-Com:  0.100D+01
 Coeff:      0.100D+01
 Gap=     0.141 Goal=   None    Shift=    0.000
 RMSDP=5.26D-06 MaxDP=2.96D-04 DE=-1.35D-05 OVMax= 5.08D-04

 Cycle  12  Pass 1  IDiag  1:
 E= -719.928893173244     Delta-E=        0.000000607978 Rises=F Damp=F
 DIIS: error= 3.51D-05 at cycle   2 NSaved=   2.
 NSaved= 2 IEnMin= 1 EnMin= -719.928893781222     IErMin= 1 ErrMin= 2.44D-05
 ErrMax= 3.51D-05  0.00D+00 EMaxC= 1.00D-01 BMatC= 1.53D-06 BMatP= 7.40D-07
 IDIUse=1 WtCom= 1.00D+00 WtEn= 0.00D+00
 Coeff-Com:  0.601D+00 0.399D+00
 Coeff:      0.601D+00 0.399D+00
 Gap=     0.141 Goal=   None    Shift=    0.000
 RMSDP=3.20D-06 MaxDP=2.19D-04 DE= 6.08D-07 OVMax= 4.09D-04

 Cycle  13  Pass 1  IDiag  1:
 E= -719.928894372858     Delta-E=       -0.000001199614 Rises=F Damp=F
 DIIS: error= 9.31D-06 at cycle   3 NSaved=   3.
 NSaved= 3 IEnMin= 3 EnMin= -719.928894372858     IErMin= 3 ErrMin= 9.31D-06
 ErrMax= 9.31D-06  0.00D+00 EMaxC= 1.00D-01 BMatC= 7.26D-08 BMatP= 7.40D-07
 IDIUse=1 WtCom= 1.00D+00 WtEn= 0.00D+00
 Coeff-Com:  0.132D+00 0.191D+00 0.676D+00
 Coeff:      0.132D+00 0.191D+00 0.676D+00
 Gap=     0.141 Goal=   None    Shift=    0.000
 RMSDP=8.55D-07 MaxDP=7.12D-05 DE=-1.20D-06 OVMax= 1.02D-04

 Cycle  14  Pass 1  IDiag  1:
 E= -719.928894402920     Delta-E=       -0.000000030062 Rises=F Damp=F
 DIIS: error= 6.97D-06 at cycle   4 NSaved=   4.
 NSaved= 4 IEnMin= 4 EnMin= -719.928894402920     IErMin= 4 ErrMin= 6.97D-06
 ErrMax= 6.97D-06  0.00D+00 EMaxC= 1.00D-01 BMatC= 3.21D-08 BMatP= 7.26D-08
 IDIUse=1 WtCom= 1.00D+00 WtEn= 0.00D+00
 Coeff-Com: -0.820D-02 0.656D-01 0.466D+00 0.477D+00
 Coeff:     -0.820D-02 0.656D-01 0.466D+00 0.477D+00
 Gap=     0.141 Goal=   None    Shift=    0.000
 RMSDP=4.29D-07 MaxDP=2.92D-05 DE=-3.01D-08 OVMax= 4.68D-05

 Cycle  15  Pass 1  IDiag  1:
 E= -719.928894430276     Delta-E=       -0.000000027356 Rises=F Damp=F
 DIIS: error= 1.81D-06 at cycle   5 NSaved=   5.
 NSaved= 5 IEnMin= 5 EnMin= -719.928894430276     IErMin= 5 ErrMin= 1.81D-06
 ErrMax= 1.81D-06  0.00D+00 EMaxC= 1.00D-01 BMatC= 1.90D-09 BMatP= 3.21D-08
 IDIUse=1 WtCom= 1.00D+00 WtEn= 0.00D+00
 Coeff-Com: -0.101D-01 0.357D-01 0.273D+00 0.310D+00 0.392D+00
 Coeff:     -0.101D-01 0.357D-01 0.273D+00 0.310D+00 0.392D+00
 Gap=     0.141 Goal=   None    Shift=    0.000
 RMSDP=1.09D-07 MaxDP=1.18D-05 DE=-2.74D-08 OVMax= 2.18D-05

 Cycle  16  Pass 1  IDiag  1:
 E= -719.928894431707     Delta-E=       -0.000000001431 Rises=F Damp=F
 DIIS: error= 8.32D-07 at cycle   6 NSaved=   6.
 NSaved= 6 IEnMin= 6 EnMin= -719.928894431707     IErMin= 6 ErrMin= 8.32D-07
 ErrMax= 8.32D-07  0.00D+00 EMaxC= 1.00D-01 BMatC= 2.74D-10 BMatP= 1.90D-09
 IDIUse=1 WtCom= 1.00D+00 WtEn= 0.00D+00
 Coeff-Com: -0.636D-02 0.182D-01 0.140D+00 0.167D+00 0.285D+00 0.396D+00
 Coeff:     -0.636D-02 0.182D-01 0.140D+00 0.167D+00 0.285D+00 0.396D+00
 Gap=     0.141 Goal=   None    Shift=    0.000
 RMSDP=4.24D-08 MaxDP=4.48D-06 DE=-1.43D-09 OVMax= 7.74D-06

 Cycle  17  Pass 1  IDiag  1:
 E= -719.928894431879     Delta-E=       -0.000000000172 Rises=F Damp=F
 DIIS: error= 1.96D-07 at cycle   7 NSaved=   7.
 NSaved= 7 IEnMin= 7 EnMin= -719.928894431879     IErMin= 7 ErrMin= 1.96D-07
 ErrMax= 1.96D-07  0.00D+00 EMaxC= 1.00D-01 BMatC= 2.61D-11 BMatP= 2.74D-10
 IDIUse=1 WtCom= 1.00D+00 WtEn= 0.00D+00
 Coeff-Com: -0.265D-02 0.668D-02 0.488D-01 0.618D-01 0.128D+00 0.263D+00
 Coeff-Com:  0.494D+00
 Coeff:     -0.265D-02 0.668D-02 0.488D-01 0.618D-01 0.128D+00 0.263D+00
 Coeff:      0.494D+00
 Gap=     0.141 Goal=   None    Shift=    0.000
 RMSDP=1.29D-08 MaxDP=9.83D-07 DE=-1.72D-10 OVMax= 1.73D-06

 Cycle  18  Pass 1  IDiag  1:
 E= -719.928894431863     Delta-E=        0.000000000016 Rises=F Damp=F
 DIIS: error= 5.10D-08 at cycle   8 NSaved=   8.
 NSaved= 8 IEnMin= 7 EnMin= -719.928894431879     IErMin= 8 ErrMin= 5.10D-08
 ErrMax= 5.10D-08  0.00D+00 EMaxC= 1.00D-01 BMatC= 2.41D-12 BMatP= 2.61D-11
 IDIUse=1 WtCom= 1.00D+00 WtEn= 0.00D+00
 Coeff-Com: -0.162D-03 0.177D-03-0.167D-02 0.575D-03 0.144D-01 0.602D-01
 Coeff-Com:  0.265D+00 0.662D+00
 Coeff:     -0.162D-03 0.177D-03-0.167D-02 0.575D-03 0.144D-01 0.602D-01
 Coeff:      0.265D+00 0.662D+00
 Gap=     0.141 Goal=   None    Shift=    0.000
 RMSDP=4.90D-09 MaxDP=3.74D-07 DE= 1.64D-11 OVMax= 9.86D-07

 SCF Done:  E(RB3LYP) =  -719.928894432     A.U. after   18 cycles
            NFock= 18  Conv=0.49D-08     -V/T= 2.0039
 KE= 7.171151065316D+02 PE=-3.445780318719D+03 EE= 1.127989246763D+03
 Leave Link  502 at Fri Aug 27 07:50:21 2021, MaxMem= 24159191040 cpu:       658.2
 (Enter /public/home/users/caep010/software/Gaussian09/g09/l801.exe)
 DoSCS=F DFT=T ScalE2(SS,OS)=  1.000000  1.000000
 Range of M.O.s used for correlation:     1   432
 NBasis=   432 NAE=    51 NBE=    51 NFC=     0 NFV=     0
 NROrb=    432 NOA=    51 NOB=    51 NVA=   381 NVB=   381

 **** Warning!!: The largest alpha MO coefficient is  0.56917862D+02

 Leave Link  801 at Fri Aug 27 07:50:21 2021, MaxMem= 24159191040 cpu:         0.7
 (Enter /public/home/users/caep010/software/Gaussian09/g09/l1101.exe)
 Using compressed storage, NAtomX=    22.
 Will process     23 centers per pass.
 Leave Link 1101 at Fri Aug 27 07:50:22 2021, MaxMem= 24159191040 cpu:        24.7
 (Enter /public/home/users/caep010/software/Gaussian09/g09/l1102.exe)
 Symmetrizing basis deriv contribution to polar:
 IMax=3 JMax=2 DiffMx= 0.00D+00
 Leave Link 1102 at Fri Aug 27 07:50:22 2021, MaxMem= 24159191040 cpu:         2.0
 (Enter /public/home/users/caep010/software/Gaussian09/g09/l1110.exe)
 Forming Gx(P) for the SCF density, NAtomX=    22.
 Integral derivatives from FoFJK, PRISM(SPDF).
 Do as many integral derivatives as possible in FoFJK.
 G2DrvN: MDV=   24159190760.
 G2DrvN: will do    23 centers at a time, making    1 passes.
 Calling FoFCou, ICntrl=  3107 FMM=F I1Cent=   0 AccDes= 0.00D+00.
 FoFJK:  IHMeth= 1 ICntrl=    3107 DoSepK=F KAlg= 0 I1Cent=   0 FoldK=F
 IRaf=         0 NMat=   1 IRICut=       1 DoRegI=T DoRafI=F ISym2E= 0.
 FoFCou: FMM=F IPFlag=           0 FMFlag=      100000 FMFlg1=           0
         NFxFlg=           0 DoJE=F BraDBF=F KetDBF=F FulRan=T
         wScrn=  0.000000 ICntrl=    3107 IOpCl=  0 I1Cent=           0 NGrid=           0
         NMat0=    1 NMatS0=      1 NMatT0=    0 NMatD0=    1 NMtDS0=    0 NMtDT0=    0
 Symmetry not used in FoFCou.
 End of G2Drv F.D. properties file   721 does not exist.
 End of G2Drv F.D. properties file   722 does not exist.
 End of G2Drv F.D. properties file   788 does not exist.
 Leave Link 1110 at Fri Aug 27 07:50:56 2021, MaxMem= 24159191040 cpu:      1073.1
 (Enter /public/home/users/caep010/software/Gaussian09/g09/l1002.exe)
 Minotr:  Closed shell wavefunction.
          IDoAtm=1111111111111111111111
          Direct CPHF calculation.
          Differentiating once with respect to nuclear coordinates.
          Requested convergence is 1.0D-08 RMS, and 1.0D-07 maximum.
          Secondary convergence is 1.0D-12 RMS, and 1.0D-12 maximum.
          NewPWx=T KeepS1=F KeepF1=F KeepIn=T MapXYZ=F SortEE=F KeepMc=T.
          MDV=   24159190384 using IRadAn=       2.
 Generate precomputed XC quadrature information.
 Keep R1 ints in memory in canonical form, NReq=4427383925.
 FoFCou: FMM=F IPFlag=           0 FMFlag=           0 FMFlg1=           0
         NFxFlg=           0 DoJE=F BraDBF=F KetDBF=F FulRan=T
         wScrn=  0.000000 ICntrl=     600 IOpCl=  0 I1Cent=           0 NGrid=           0
         NMat0=    1 NMatS0=  93528 NMatT0=    0 NMatD0=    1 NMtDS0=    0 NMtDT0=    0
 Symmetry not used in FoFCou.
          Solving linear equations simultaneously, MaxMat=       0.
          There are    69 degrees of freedom in the 1st order CPHF.  IDoFFX=6 NUNeed=     0.
     63 vectors produced by pass  0 Test12= 2.82D-14 1.45D-09 XBig12= 2.32D-01 1.48D-01.
 AX will form    63 AO Fock derivatives at one time.
     63 vectors produced by pass  1 Test12= 2.82D-14 1.45D-09 XBig12= 7.26D-02 1.37D-01.
     63 vectors produced by pass  2 Test12= 2.82D-14 1.45D-09 XBig12= 8.00D-04 5.48D-03.
     63 vectors produced by pass  3 Test12= 2.82D-14 1.45D-09 XBig12= 5.90D-06 3.36D-04.
     63 vectors produced by pass  4 Test12= 2.82D-14 1.45D-09 XBig12= 3.69D-08 2.16D-05.
     63 vectors produced by pass  5 Test12= 2.82D-14 1.45D-09 XBig12= 7.57D-11 8.33D-07.
     28 vectors produced by pass  6 Test12= 2.82D-14 1.45D-09 XBig12= 1.28D-13 3.36D-08.
      1 vectors produced by pass  7 Test12= 2.82D-14 1.45D-09 XBig12= 5.16D-16 2.11D-09.
 InvSVY:  IOpt=1 It=  1 EMax= 6.11D-16
 Solved reduced A of dimension   407 with    69 vectors.
 End of Minotr F.D. properties file   721 does not exist.
 End of Minotr F.D. properties file   722 does not exist.
 End of Minotr F.D. properties file   788 does not exist.
 Leave Link 1002 at Fri Aug 27 07:52:15 2021, MaxMem= 24159191040 cpu:      2242.2
 (Enter /public/home/users/caep010/software/Gaussian09/g09/l601.exe)
 Copying SCF densities to generalized density rwf, IOpCl= 0 IROHF=0.

 **********************************************************************

            Population analysis using the SCF density.

 **********************************************************************

 Orbital symmetries:
       Occupied  (A) (A) (A) (A) (A) (A) (A) (A) (A) (A) (A) (A)
                 (A) (A) (A) (A) (A) (A) (A) (A) (A) (A) (A) (A)
                 (A) (A) (A) (A) (A) (A) (A) (A) (A) (A) (A) (A)
                 (A) (A) (A) (A) (A) (A) (A) (A) (A) (A) (A) (A)
                 (A) (A) (A)
       Virtual   (A) (A) (A) (A) (A) (A) (A) (A) (A) (A) (A) (A)
                 (A) (A) (A) (A) (A) (A) (A) (A) (A) (A) (A) (A)
                 (A) (A) (A) (A) (A) (A) (A) (A) (A) (A) (A) (A)
                 (A) (A) (A) (A) (A) (A) (A) (A) (A) (A) (A) (A)
                 (A) (A) (A) (A) (A) (A) (A) (A) (A) (A) (A) (A)
                 (A) (A) (A) (A) (A) (A) (A) (A) (A) (A) (A) (A)
                 (A) (A) (A) (A) (A) (A) (A) (A) (A) (A) (A) (A)
                 (A) (A) (A) (A) (A) (A) (A) (A) (A) (A) (A) (A)
                 (A) (A) (A) (A) (A) (A) (A) (A) (A) (A) (A) (A)
                 (A) (A) (A) (A) (A) (A) (A) (A) (A) (A) (A) (A)
                 (A) (A) (A) (A) (A) (A) (A) (A) (A) (A) (A) (A)
                 (A) (A) (A) (A) (A) (A) (A) (A) (A) (A) (A) (A)
                 (A) (A) (A) (A) (A) (A) (A) (A) (A) (A) (A) (A)
                 (A) (A) (A) (A) (A) (A) (A) (A) (A) (A) (A) (A)
                 (A) (A) (A) (A) (A) (A) (A) (A) (A) (A) (A) (A)
                 (A) (A) (A) (A) (A) (A) (A) (A) (A) (A) (A) (A)
                 (A) (A) (A) (A) (A) (A) (A) (A) (A) (A) (A) (A)
                 (A) (A) (A) (A) (A) (A) (A) (A) (A) (A) (A) (A)
                 (A) (A) (A) (A) (A) (A) (A) (A) (A) (A) (A) (A)
                 (A) (A) (A) (A) (A) (A) (A) (A) (A) (A) (A) (A)
                 (A) (A) (A) (A) (A) (A) (A) (A) (A) (A) (A) (A)
                 (A) (A) (A) (A) (A) (A) (A) (A) (A) (A) (A) (A)
                 (A) (A) (A) (A) (A) (A) (A) (A) (A) (A) (A) (A)
                 (A) (A) (A) (A) (A) (A) (A) (A) (A) (A) (A) (A)
                 (A) (A) (A) (A) (A) (A) (A) (A) (A) (A) (A) (A)
                 (A) (A) (A) (A) (A) (A) (A) (A) (A) (A) (A) (A)
                 (A) (A) (A) (A) (A) (A) (A) (A) (A) (A) (A) (A)
                 (A) (A) (A) (A) (A) (A) (A) (A) (A) (A) (A) (A)
                 (A) (A) (A) (A) (A) (A) (A) (A) (A) (A) (A) (A)
                 (A) (A) (A) (A) (A) (A) (A) (A) (A) (A) (A) (A)
                 (A) (A) (A) (A) (A) (A) (A) (A) (A) (A) (A) (A)
                 (A) (A) (A) (A) (A) (A) (A) (A) (A)
 The electronic state is 1-A.
 Alpha  occ. eigenvalues --  -19.17683 -19.17388 -19.17338 -19.11067 -14.56794
 Alpha  occ. eigenvalues --  -14.38047 -10.29177 -10.27578 -10.24913 -10.24904
 Alpha  occ. eigenvalues --  -10.20432 -10.19548 -10.19356 -10.16585  -1.23016
 Alpha  occ. eigenvalues --   -1.08814  -1.04925  -1.04645  -0.96366  -0.89264
 Alpha  occ. eigenvalues --   -0.82529  -0.79965  -0.76678  -0.72516  -0.66497
 Alpha  occ. eigenvalues --   -0.64321  -0.60915  -0.58377  -0.57388  -0.53862
 Alpha  occ. eigenvalues --   -0.53549  -0.51843  -0.49869  -0.48644  -0.48375
 Alpha  occ. eigenvalues --   -0.47766  -0.45918  -0.43657  -0.43068  -0.41998
 Alpha  occ. eigenvalues --   -0.41124  -0.40881  -0.38136  -0.36005  -0.31336
 Alpha  occ. eigenvalues --   -0.31173  -0.30441  -0.29485  -0.28457  -0.25748
 Alpha  occ. eigenvalues --   -0.23104
 Alpha virt. eigenvalues --   -0.08969  -0.02121  -0.00455   0.04358   0.06916
 Alpha virt. eigenvalues --    0.10460   0.13240   0.14611   0.15649   0.16110
 Alpha virt. eigenvalues --    0.17656   0.19014   0.19798   0.20265   0.22258
 Alpha virt. eigenvalues --    0.23415   0.25511   0.27128   0.28686   0.29017
 Alpha virt. eigenvalues --    0.31079   0.32826   0.33841   0.36320   0.37055
 Alpha virt. eigenvalues --    0.39702   0.41405   0.42565   0.44588   0.45559
 Alpha virt. eigenvalues --    0.46261   0.47027   0.47883   0.49231   0.49821
 Alpha virt. eigenvalues --    0.50731   0.50961   0.52561   0.54599   0.54908
 Alpha virt. eigenvalues --    0.56447   0.57153   0.57863   0.58229   0.58743
 Alpha virt. eigenvalues --    0.60071   0.61597   0.63062   0.64973   0.65612
 Alpha virt. eigenvalues --    0.68718   0.70935   0.71951   0.73106   0.73265
 Alpha virt. eigenvalues --    0.75210   0.75308   0.76005   0.76562   0.77787
 Alpha virt. eigenvalues --    0.78638   0.79026   0.80717   0.80882   0.81449
 Alpha virt. eigenvalues --    0.81688   0.82088   0.83917   0.85051   0.86508
 Alpha virt. eigenvalues --    0.86667   0.87780   0.88649   0.89950   0.91038
 Alpha virt. eigenvalues --    0.93238   0.95120   0.95373   0.96438   0.96769
 Alpha virt. eigenvalues --    0.97146   0.97879   0.98862   0.99228   1.01258
 Alpha virt. eigenvalues --    1.01983   1.02554   1.03642   1.04252   1.06312
 Alpha virt. eigenvalues --    1.09679   1.11249   1.13875   1.15323   1.16463
 Alpha virt. eigenvalues --    1.16817   1.19043   1.20374   1.21960   1.24586
 Alpha virt. eigenvalues --    1.25844   1.27346   1.28501   1.29824   1.31210
 Alpha virt. eigenvalues --    1.32708   1.36193   1.37256   1.37568   1.38189
 Alpha virt. eigenvalues --    1.38773   1.39653   1.40720   1.43995   1.44166
 Alpha virt. eigenvalues --    1.44799   1.47088   1.47831   1.49593   1.51054
 Alpha virt. eigenvalues --    1.52129   1.53604   1.54874   1.56200   1.57698
 Alpha virt. eigenvalues --    1.59121   1.59830   1.61498   1.63593   1.65701
 Alpha virt. eigenvalues --    1.67053   1.68837   1.69116   1.72370   1.73353
 Alpha virt. eigenvalues --    1.75775   1.78508   1.78930   1.81898   1.83275
 Alpha virt. eigenvalues --    1.86776   1.89452   1.90370   1.92642   1.92953
 Alpha virt. eigenvalues --    1.97159   1.99887   2.00978   2.01548   2.04202
 Alpha virt. eigenvalues --    2.08949   2.13120   2.15897   2.16301   2.17404
 Alpha virt. eigenvalues --    2.24577   2.26345   2.27881   2.28495   2.30746
 Alpha virt. eigenvalues --    2.36551   2.37892   2.40426   2.42907   2.45330
 Alpha virt. eigenvalues --    2.46394   2.48411   2.51371   2.55998   2.56767
 Alpha virt. eigenvalues --    2.58669   2.63139   2.69656   2.75076   2.77802
 Alpha virt. eigenvalues --    2.81043   2.84704   2.89672   2.92012   2.93080
 Alpha virt. eigenvalues --    2.95368   2.96306   2.97275   3.00860   3.01949
 Alpha virt. eigenvalues --    3.03741   3.06061   3.07290   3.08603   3.08828
 Alpha virt. eigenvalues --    3.09713   3.10333   3.12326   3.13913   3.14336
 Alpha virt. eigenvalues --    3.15463   3.19130   3.20437   3.21535   3.23382
 Alpha virt. eigenvalues --    3.23984   3.26414   3.26977   3.28816   3.29456
 Alpha virt. eigenvalues --    3.32706   3.32983   3.35242   3.36911   3.42157
 Alpha virt. eigenvalues --    3.43573   3.44217   3.45151   3.46225   3.47340
 Alpha virt. eigenvalues --    3.49690   3.50486   3.51270   3.53336   3.54646
 Alpha virt. eigenvalues --    3.55931   3.58320   3.62205   3.63070   3.64585
 Alpha virt. eigenvalues --    3.65670   3.67019   3.68710   3.72080   3.73357
 Alpha virt. eigenvalues --    3.74667   3.77888   3.79280   3.84548   3.84748
 Alpha virt. eigenvalues --    3.86305   3.87776   3.91734   3.94388   3.99175
 Alpha virt. eigenvalues --    4.02414   4.03073   4.03314   4.04340   4.05088
 Alpha virt. eigenvalues --    4.06144   4.07737   4.09285   4.10407   4.13193
 Alpha virt. eigenvalues --    4.14784   4.15772   4.18024   4.19165   4.20987
 Alpha virt. eigenvalues --    4.22056   4.23559   4.25240   4.27431   4.27958
 Alpha virt. eigenvalues --    4.29785   4.30416   4.31667   4.32921   4.34865
 Alpha virt. eigenvalues --    4.36675   4.37480   4.38297   4.40347   4.41447
 Alpha virt. eigenvalues --    4.42277   4.43878   4.45799   4.47439   4.48685
 Alpha virt. eigenvalues --    4.49643   4.51139   4.51274   4.52936   4.53382
 Alpha virt. eigenvalues --    4.55173   4.56538   4.58063   4.58896   4.59077
 Alpha virt. eigenvalues --    4.60508   4.61940   4.62601   4.63731   4.66672
 Alpha virt. eigenvalues --    4.69476   4.69822   4.71699   4.73867   4.75104
 Alpha virt. eigenvalues --    4.77418   4.81042   4.82505   4.86495   4.87955
 Alpha virt. eigenvalues --    4.91050   4.91576   4.93985   4.96552   4.98151
 Alpha virt. eigenvalues --    4.99638   5.02780   5.04017   5.05216   5.06490
 Alpha virt. eigenvalues --    5.07399   5.08180   5.09485   5.10293   5.11422
 Alpha virt. eigenvalues --    5.15949   5.17484   5.18421   5.20394   5.21762
 Alpha virt. eigenvalues --    5.23818   5.25235   5.31731   5.32385   5.35521
 Alpha virt. eigenvalues --    5.37380   5.42934   5.44991   5.49212   5.54373
 Alpha virt. eigenvalues --    5.56064   5.59764   5.60574   5.61812   5.63155
 Alpha virt. eigenvalues --    5.64131   5.70220   5.75175   5.76789   5.80724
 Alpha virt. eigenvalues --    5.85241   5.86800   5.89005   5.92989   5.99703
 Alpha virt. eigenvalues --    6.03711   6.04443   6.05100   6.11189   6.16501
 Alpha virt. eigenvalues --    6.23868   6.25186   6.31356   6.37965   6.41829
 Alpha virt. eigenvalues --    6.51026   6.54339   6.62603   6.74846   6.77663
 Alpha virt. eigenvalues --    6.94330   7.04554   7.06132   7.28942   9.31305
 Alpha virt. eigenvalues --    9.71085  10.57054  10.79608  10.93163  11.30340
 Alpha virt. eigenvalues --   11.31080  11.62827  11.82782  11.93438  12.77134
 Alpha virt. eigenvalues --   12.99233  13.10436  13.25279  13.62962  17.24780
 Alpha virt. eigenvalues --   21.36469
          Condensed to atoms (all electrons):
               1          2          3          4          5          6
     1  O    8.103297   0.476018  -0.086400  -0.100983  -0.010452   0.000795
     2  N    0.476018   5.273024   0.543557   0.377181  -0.032745  -0.000508
     3  O   -0.086400   0.543557   7.972671  -0.118253   0.004191  -0.000046
     4  C   -0.100983   0.377181  -0.118253   5.115801   0.319223   0.060315
     5  C   -0.010452  -0.032745   0.004191   0.319223   4.605346   0.454420
     6  C    0.000795  -0.000508  -0.000046   0.060315   0.454420   4.795627
     7  H    0.000023  -0.000036   0.000001   0.006071  -0.017074   0.327608
     8  O   -0.022570  -0.004903   0.000011  -0.064432   0.465787  -0.019043
     9  H    0.051233  -0.003626   0.000672  -0.003050  -0.063538   0.007558
    10  C    0.006871  -0.019549  -0.006309   0.335362   0.007495  -0.091896
    11  H    0.000625  -0.012446   0.029377  -0.036319   0.004934   0.000257
    12  C    0.000020   0.000556   0.000936   0.006889  -0.036924   0.033009
    13  N   -0.000000  -0.000005  -0.000007   0.001117   0.000392   0.000630
    14  C   -0.000000  -0.000013  -0.000006   0.001005   0.000025  -0.000072
    15  C    0.000000  -0.000000  -0.000000   0.000004   0.000001  -0.000005
    16  H   -0.000000  -0.000000  -0.000000   0.000000  -0.000000   0.000000
    17  H   -0.000000   0.000000   0.000000  -0.000000  -0.000000   0.000000
    18  H   -0.000000  -0.000000   0.000000  -0.000000  -0.000000   0.000000
    19  H   -0.000000  -0.000000  -0.000000   0.000113   0.000002  -0.000050
    20  O   -0.000000  -0.000025  -0.000015   0.001476   0.000025  -0.000022
    21  C   -0.000043   0.000289   0.000031  -0.072794   0.025882   0.551972
    22  H   -0.000000   0.000003   0.000000   0.002053   0.003163  -0.021387
               7          8          9         10         11         12
     1  O    0.000023  -0.022570   0.051233   0.006871   0.000625   0.000020
     2  N   -0.000036  -0.004903  -0.003626  -0.019549  -0.012446   0.000556
     3  O    0.000001   0.000011   0.000672  -0.006309   0.029377   0.000936
     4  C    0.006071  -0.064432  -0.003050   0.335362  -0.036319   0.006889
     5  C   -0.017074   0.465787  -0.063538   0.007495   0.004934  -0.036924
     6  C    0.327608  -0.019043   0.007558  -0.091896   0.000257   0.033009
     7  H    0.610742  -0.002398  -0.000307   0.002126   0.000059   0.000668
     8  O   -0.002398   7.699339   0.341506   0.002385  -0.000003   0.000035
     9  H   -0.000307   0.341506   0.383083  -0.000497  -0.000028  -0.000038
    10  C    0.002126   0.002385  -0.000497   5.183418   0.298944   0.488575
    11  H    0.000059  -0.000003  -0.000028   0.298944   0.550139  -0.007042
    12  C    0.000668   0.000035  -0.000038   0.488575  -0.007042   4.487490
    13  N   -0.000114  -0.000000   0.000000  -0.029525  -0.018997   0.370332
    14  C   -0.000000   0.000000  -0.000000  -0.004868   0.002921  -0.048119
    15  C   -0.000000   0.000000  -0.000000   0.000885   0.000918   0.007361
    16  H    0.000000   0.000000   0.000000   0.000001  -0.000010  -0.000181
    17  H    0.000000  -0.000000  -0.000000  -0.000079  -0.000045   0.000082
    18  H    0.000000   0.000000  -0.000000  -0.000001  -0.000013  -0.000179
    19  H   -0.000020   0.000000   0.000000   0.005929  -0.000340  -0.046680
    20  O   -0.000000   0.000000  -0.000000  -0.006620   0.039182  -0.017654
    21  C   -0.026742   0.001208  -0.000139   0.014016   0.006473   0.502520
    22  H   -0.005545  -0.000016   0.000007   0.005598  -0.000385  -0.030382
              13         14         15         16         17         18
     1  O   -0.000000  -0.000000   0.000000  -0.000000  -0.000000  -0.000000
     2  N   -0.000005  -0.000013  -0.000000  -0.000000   0.000000  -0.000000
     3  O   -0.000007  -0.000006  -0.000000  -0.000000   0.000000   0.000000
     4  C    0.001117   0.001005   0.000004   0.000000  -0.000000  -0.000000
     5  C    0.000392   0.000025   0.000001  -0.000000  -0.000000  -0.000000
     6  C    0.000630  -0.000072  -0.000005   0.000000   0.000000   0.000000
     7  H   -0.000114  -0.000000  -0.000000   0.000000   0.000000   0.000000
     8  O   -0.000000   0.000000   0.000000   0.000000  -0.000000   0.000000
     9  H    0.000000  -0.000000  -0.000000   0.000000  -0.000000  -0.000000
    10  C   -0.029525  -0.004868   0.000885   0.000001  -0.000079  -0.000001
    11  H   -0.018997   0.002921   0.000918  -0.000010  -0.000045  -0.000013
    12  C    0.370332  -0.048119   0.007361  -0.000181   0.000082  -0.000179
    13  N    6.529957   0.384274  -0.071130   0.000479   0.002729  -0.000804
    14  C    0.384274   4.244005   0.354924  -0.005849  -0.019680  -0.006582
    15  C   -0.071130   0.354924   5.051849   0.385603   0.356029   0.387072
    16  H    0.000479  -0.005849   0.385603   0.535455  -0.034170  -0.031356
    17  H    0.002729  -0.019680   0.356029  -0.034170   0.620837  -0.034747
    18  H   -0.000804  -0.006582   0.387072  -0.031356  -0.034747   0.536662
    19  H    0.357300  -0.023053  -0.001346  -0.000323   0.002976  -0.000193
    20  O   -0.077285   0.754034  -0.059229  -0.000157   0.003651  -0.000891
    21  C   -0.031211   0.004280  -0.000544   0.000007   0.000015   0.000010
    22  H   -0.011364   0.000086   0.000030  -0.000001  -0.000022   0.000000
              19         20         21         22
     1  O   -0.000000  -0.000000  -0.000043  -0.000000
     2  N   -0.000000  -0.000025   0.000289   0.000003
     3  O   -0.000000  -0.000015   0.000031   0.000000
     4  C    0.000113   0.001476  -0.072794   0.002053
     5  C    0.000002   0.000025   0.025882   0.003163
     6  C   -0.000050  -0.000022   0.551972  -0.021387
     7  H   -0.000020  -0.000000  -0.026742  -0.005545
     8  O    0.000000   0.000000   0.001208  -0.000016
     9  H    0.000000  -0.000000  -0.000139   0.000007
    10  C    0.005929  -0.006620   0.014016   0.005598
    11  H   -0.000340   0.039182   0.006473  -0.000385
    12  C   -0.046680  -0.017654   0.502520  -0.030382
    13  N    0.357300  -0.077285  -0.031211  -0.011364
    14  C   -0.023053   0.754034   0.004280   0.000086
    15  C   -0.001346  -0.059229  -0.000544   0.000030
    16  H   -0.000323  -0.000157   0.000007  -0.000001
    17  H    0.002976   0.003651   0.000015  -0.000022
    18  H   -0.000193  -0.000891   0.000010   0.000000
    19  H    0.464392   0.004036  -0.005911   0.005649
    20  O    0.004036   7.720926   0.000518   0.000010
    21  C   -0.005911   0.000518   4.833955   0.323721
    22  H    0.005649   0.000010   0.323721   0.642017
 Mulliken charges:
               1
     1  O   -0.418434
     2  N    0.403229
     3  O   -0.340412
     4  C    0.169220
     5  C    0.269848
     6  C   -0.099163
     7  H    0.104939
     8  O   -0.396907
     9  H    0.287163
    10  C   -0.192260
    11  H    0.141800
    12  C    0.288727
    13  N   -0.406765
    14  C    0.362687
    15  C   -0.412424
    16  H    0.150501
    17  H    0.102423
    18  H    0.151022
    19  H    0.237519
    20  O   -0.361962
    21  C   -0.127512
    22  H    0.086763
 Sum of Mulliken charges =  -0.00000
 Mulliken charges with hydrogens summed into heavy atoms:
               1
     1  O   -0.418434
     2  N    0.403229
     3  O   -0.340412
     4  C    0.169220
     5  C    0.269848
     6  C    0.005775
     8  O   -0.109744
    10  C   -0.050460
    12  C    0.288727
    13  N   -0.169247
    14  C    0.362687
    15  C   -0.008477
    20  O   -0.361962
    21  C   -0.040749
 APT charges:
               1
     1  O    0.602231
     2  N   -1.061201
     3  O    0.293951
     4  C   -0.109844
     5  C   -0.598969
     6  C   -0.151151
     7  H    0.551859
     8  O    0.116405
     9  H    0.517842
    10  C   -0.388243
    11  H    0.221882
    12  C   -0.347727
    13  N   -0.969532
    14  C    0.178598
    15  C   -0.791001
    16  H    0.560803
    17  H    0.263509
    18  H    0.519328
    19  H    0.735224
    20  O   -0.361435
    21  C   -0.234106
    22  H    0.451577
 Sum of APT charges =  -0.00000
 APT charges with hydrogens summed into heavy atoms:
               1
     1  O    0.602231
     2  N   -1.061201
     3  O    0.293951
     4  C   -0.109844
     5  C   -0.598969
     6  C    0.400707
     8  O    0.634247
    10  C   -0.166361
    12  C   -0.347727
    13  N   -0.234308
    14  C    0.178598
    15  C    0.552639
    20  O   -0.361435
    21  C    0.217470
 Electronic spatial extent (au):  <R**2>=           3177.7573
 Charge=              0.0000 electrons
 Dipole moment (field-independent basis, Debye):
    X=             -3.9056    Y=              5.6453    Z=              0.4437  Tot=              6.8790
 Quadrupole moment (field-independent basis, Debye-Ang):
   XX=            -71.3153   YY=            -83.2283   ZZ=            -77.4745
   XY=             -5.6249   XZ=             -2.0106   YZ=             -0.5934
 Traceless Quadrupole moment (field-independent basis, Debye-Ang):
   XX=              6.0241   YY=             -5.8889   ZZ=             -0.1351
   XY=             -5.6249   XZ=             -2.0106   YZ=             -0.5934
 Octapole moment (field-independent basis, Debye-Ang**2):
  XXX=            -66.4439  YYY=             26.8305  ZZZ=             -0.1527  XYY=             -9.2613
  XXY=             22.8987  XXZ=              1.2004  XZZ=              4.0957  YZZ=             -9.0261
  YYZ=              2.0805  XYZ=              1.9700
 Hexadecapole moment (field-independent basis, Debye-Ang**3):
 XXXX=          -2625.1358 YYYY=           -929.2264 ZZZZ=            -76.7196 XXXY=            -27.1140
 XXXZ=            -19.6690 YYYX=            -15.7913 YYYZ=             -3.9785 ZZZX=              1.1847
 ZZZY=              0.5879 XXYY=           -696.5762 XXZZ=           -477.7431 YYZZ=           -169.3403
 XXYZ=              2.9615 YYXZ=             -3.2829 ZZXY=             -3.3431
 N-N= 8.807470709927D+02 E-N=-3.445780312040D+03  KE= 7.171151065316D+02
  Exact polarizability:   0.000   0.000   0.000   0.000   0.000   0.000
 Approx polarizability: 248.979  10.490 232.310   3.391   3.347  84.207
 No NMR shielding tensors so no spin-rotation constants.
 Leave Link  601 at Fri Aug 27 07:52:15 2021, MaxMem= 24159191040 cpu:        17.8
 (Enter /public/home/users/caep010/software/Gaussian09/g09/l701.exe)
 Compute integral second derivatives.
 ... and contract with generalized density number  0.
 Leave Link  701 at Fri Aug 27 07:52:16 2021, MaxMem= 24159191040 cpu:        18.4
 (Enter /public/home/users/caep010/software/Gaussian09/g09/l702.exe)
 L702 exits ... SP integral derivatives will be done elsewhere.
 Leave Link  702 at Fri Aug 27 07:52:16 2021, MaxMem= 24159191040 cpu:         0.8
 (Enter /public/home/users/caep010/software/Gaussian09/g09/l703.exe)
 Compute integral second derivatives, UseDBF=F ICtDFT=           0.
 Integral derivatives from FoFJK, PRISM(SPDF).
 Calling FoFJK, ICntrl=    100147 FMM=F ISym2X=0 I1Cent= 0 IOpClX= 0 NMat=1 NMatS=1 NMatT=0.
 FoFJK:  IHMeth= 1 ICntrl=  100147 DoSepK=F KAlg= 0 I1Cent=   0 FoldK=F
 IRaf=         0 NMat=   1 IRICut=       1 DoRegI=T DoRafI=F ISym2E= 0.
 FoFCou: FMM=F IPFlag=           0 FMFlag=      100000 FMFlg1=         800
         NFxFlg=           0 DoJE=F BraDBF=F KetDBF=F FulRan=T
         wScrn=  0.000000 ICntrl=  100147 IOpCl=  0 I1Cent=           0 NGrid=           0
         NMat0=    1 NMatS0=      1 NMatT0=    0 NMatD0=    1 NMtDS0=    0 NMtDT0=    0
 Symmetry not used in FoFCou.
 Leave Link  703 at Fri Aug 27 07:53:18 2021, MaxMem= 24159191040 cpu:      1951.4
 (Enter /public/home/users/caep010/software/Gaussian09/g09/l716.exe)
 Dipole        =-1.53657758D+00 2.22104597D+00 1.74549374D-01
 Polarizability= 0.00000000D+00 0.00000000D+00 0.00000000D+00
                 0.00000000D+00 0.00000000D+00 0.00000000D+00
 ***** Axes restored to original set *****
 -------------------------------------------------------------------
 Center     Atomic                   Forces (Hartrees/Bohr)
 Number     Number              X              Y              Z
 -------------------------------------------------------------------
      1        8           0.002304928   -0.005437119    0.004324298
      2        7           0.002544930    0.009992311    0.002565386
      3        8          -0.004034862   -0.000170218   -0.005311245
      4        6          -0.003143056    0.005285635   -0.005090907
      5        6           0.015703769    0.004220649    0.015530240
      6        6          -0.034371987    0.120326727   -0.079791267
      7        1           0.039539981   -0.134055623    0.090535280
      8        8          -0.042406152   -0.080021108   -0.012262667
      9        1           0.033951979    0.077253025    0.001748669
     10        6           0.039993571   -0.118803191    0.081602478
     11        1          -0.037960743    0.136121435   -0.085112452
     12        6          -0.007455650   -0.008411209   -0.005672678
     13        7           0.032191283    0.063400000    0.023428983
     14        6           0.002691488    0.040181192    0.000557669
     15        6           0.077368149    0.029844559    0.079010807
     16        1          -0.109323332    0.063701773    0.015159592
     17        1          -0.021163556   -0.126251719    0.014986064
     18        1           0.044059308    0.020974882   -0.117507890
     19        1          -0.020561725   -0.080255257   -0.009649701
     20        8          -0.000878407   -0.008350206   -0.001857007
     21        6           0.066432453    0.138755988    0.020392091
     22        1          -0.075482372   -0.148302528   -0.027585740
 -------------------------------------------------------------------
 Cartesian Forces:  Max     0.148302528 RMS     0.060891240
 FormGI is forming the generalized inverse of G from B-inverse, IUseBI=4.
 Leave Link  716 at Fri Aug 27 07:53:18 2021, MaxMem= 24159191040 cpu:         1.0
 (Enter /public/home/users/caep010/software/Gaussian09/g09/l103.exe)

 GradGradGradGradGradGradGradGradGradGradGradGradGradGradGradGradGradGrad
 Berny optimization.
 Red2BG is reusing G-inverse.
 Internal  Forces:  Max     0.168672303 RMS     0.038591292
 Search for a local minimum.
 Step number   1 out of a maximum of  110
 All quantities printed in internal units (Hartrees-Bohrs-Radians)
 RMS Force = .38591D-01 SwitMx=.10000D-02 MixMth= 1
 Mixed Optimization -- RFO/linear search
 Second derivative matrix not updated -- analytic derivatives used.
 ITU=  0
     Eigenvalues ---   -0.00033   0.00326   0.00563   0.00687   0.01282
     Eigenvalues ---    0.01510   0.01824   0.01953   0.02156   0.02220
     Eigenvalues ---    0.02405   0.02723   0.02875   0.03042   0.03745
     Eigenvalues ---    0.03929   0.06083   0.06137   0.11179   0.11540
     Eigenvalues ---    0.11629   0.12591   0.12799   0.13014   0.14672
     Eigenvalues ---    0.15256   0.17715   0.18364   0.18567   0.19630
     Eigenvalues ---    0.20334   0.21598   0.23471   0.23898   0.24083
     Eigenvalues ---    0.25159   0.30236   0.33078   0.35136   0.38017
     Eigenvalues ---    0.39125   0.42716   0.44624   0.46855   0.48471
     Eigenvalues ---    0.50625   0.53161   0.55656   0.57964   0.71684
     Eigenvalues ---    0.71872   0.72207   0.74867   0.75209   0.78651
     Eigenvalues ---    0.79233   0.80569   0.85222   0.85304   0.86209
 Eigenvalue     1 is  -3.31D-04 should be greater than     0.000000 Eigenvector:
                          D41       D40       D39       D44       D43
   1                   -0.42127  -0.41595  -0.41259  -0.40308  -0.39776
                          D42       D35       D27       D29       D36
   1                   -0.39440   0.03632  -0.02025  -0.01871   0.01795
 RFO step:  Lambda=-1.58297367D-01 EMin=-3.31420756D-04
 Linear search not attempted -- first point.
 Maximum step size (   0.300) exceeded in Quadratic search.
    -- Step size scaled by   0.714
 Iteration  1 RMS(Cart)=  0.06857629 RMS(Int)=  0.00927294
 Iteration  2 RMS(Cart)=  0.01158630 RMS(Int)=  0.00020088
 Iteration  3 RMS(Cart)=  0.00021565 RMS(Int)=  0.00001404
 Iteration  4 RMS(Cart)=  0.00000007 RMS(Int)=  0.00001404
 ITry= 1 IFail=0 DXMaxC= 3.22D-01 DCOld= 1.00D+10 DXMaxT= 3.00D-01 DXLimC= 3.00D+00 Rises=F
 Variable       Old X    -DE/DX   Delta X   Delta X   Delta X     New X
                                 (Linear)    (Quad)   (Total)
    R1        2.34227   0.00414   0.00000   0.00537   0.00537   2.34764
    R2        2.30173   0.00376   0.00000   0.00088   0.00088   2.30261
    R3        2.73178   0.00449   0.00000   0.00708   0.00708   2.73886
    R4        2.62980   0.01220   0.00000   0.01600   0.01600   2.64580
    R5        2.64410   0.00154   0.00000   0.00080   0.00079   2.64489
    R6        2.62081   0.01258   0.00000   0.01455   0.01456   2.63537
    R7        2.55934  -0.01347   0.00000  -0.01803  -0.01803   2.54131
    R8        1.75792   0.16650   0.00000   0.11747   0.11747   1.87538
    R9        2.58434   0.01410   0.00000   0.01380   0.01381   2.59815
   R10        1.70474   0.08426   0.00000   0.06555   0.06555   1.77030
   R11        1.75651   0.16494   0.00000   0.11555   0.11555   1.87206
   R12        2.59389   0.01492   0.00000   0.01584   0.01584   2.60973
   R13        2.67591  -0.00640   0.00000  -0.00831  -0.00831   2.66760
   R14        2.64166   0.01071   0.00000   0.01112   0.01112   2.65278
   R15        2.55558   0.02265   0.00000   0.02584   0.02584   2.58141
   R16        1.76551   0.08309   0.00000   0.06520   0.06520   1.83071
   R17        2.83214   0.01563   0.00000   0.02220   0.02220   2.85434
   R18        2.31501  -0.00850   0.00000  -0.01014  -0.01014   2.30487
   R19        1.81406   0.12740   0.00000   0.10274   0.10274   1.91681
   R20        1.81414   0.12877   0.00000   0.10507   0.10507   1.91921
   R21        1.81555   0.12722   0.00000   0.10484   0.10484   1.92039
   R22        1.75694   0.16867   0.00000   0.11904   0.11904   1.87598
    A1        2.13105   0.00859   0.00000   0.00857   0.00857   2.13962
    A2        2.07114  -0.00525   0.00000  -0.00620  -0.00621   2.06493
    A3        2.08098  -0.00333   0.00000  -0.00236  -0.00236   2.07862
    A4        2.10747  -0.00134   0.00000  -0.00348  -0.00348   2.10399
    A5        2.04182   0.00006   0.00000   0.00138   0.00138   2.04320
    A6        2.13387   0.00128   0.00000   0.00210   0.00210   2.13597
    A7        2.03916   0.00395   0.00000   0.00286   0.00286   2.04202
    A8        2.18931  -0.00284   0.00000  -0.00456  -0.00456   2.18475
    A9        2.05447  -0.00110   0.00000   0.00175   0.00175   2.05622
   A10        2.08194  -0.00048   0.00000  -0.00541  -0.00542   2.07652
   A11        2.11920  -0.00428   0.00000  -0.00513  -0.00512   2.11407
   A12        2.08205   0.00476   0.00000   0.01054   0.01054   2.09259
   A13        1.92009  -0.00808   0.00000  -0.02210  -0.02210   1.89799
   A14        2.09777  -0.00099   0.00000  -0.00292  -0.00291   2.09486
   A15        2.08745  -0.00346   0.00000  -0.00365  -0.00366   2.08380
   A16        2.09796   0.00445   0.00000   0.00656   0.00657   2.10453
   A17        2.16695  -0.00481   0.00000  -0.00533  -0.00533   2.16162
   A18        2.06671   0.00523   0.00000   0.00475   0.00474   2.07146
   A19        2.04948  -0.00042   0.00000   0.00059   0.00060   2.05008
   A20        2.23423  -0.00297   0.00000   0.00027   0.00025   2.23449
   A21        2.04932  -0.00496   0.00000  -0.01283  -0.01285   2.03647
   A22        1.99956   0.00794   0.00000   0.01268   0.01266   2.01222
   A23        2.01139  -0.00284   0.00000  -0.00826  -0.00829   2.00311
   A24        2.14264   0.00173   0.00000   0.00445   0.00443   2.14707
   A25        2.12912   0.00111   0.00000   0.00390   0.00388   2.13300
   A26        1.91067  -0.00421   0.00000  -0.01076  -0.01075   1.89992
   A27        1.91091   0.00900   0.00000   0.01864   0.01864   1.92955
   A28        1.91063  -0.00303   0.00000   0.00129   0.00126   1.91189
   A29        1.91114  -0.00077   0.00000  -0.00034  -0.00031   1.91083
   A30        1.91011   0.00036   0.00000  -0.00129  -0.00131   1.90880
   A31        1.91034  -0.00136   0.00000  -0.00754  -0.00758   1.90275
   A32        2.11987  -0.00273   0.00000  -0.00092  -0.00091   2.11896
   A33        2.08216   0.00018   0.00000  -0.00138  -0.00138   2.08077
   A34        2.08116   0.00254   0.00000   0.00230   0.00230   2.08345
    D1        0.18871  -0.00123   0.00000  -0.00591  -0.00591   0.18280
    D2       -2.95895  -0.00131   0.00000  -0.00663  -0.00663  -2.96558
    D3       -2.94693  -0.00183   0.00000  -0.00737  -0.00737  -2.95429
    D4        0.18860  -0.00191   0.00000  -0.00809  -0.00809   0.18051
    D5        3.13728  -0.00063   0.00000  -0.00316  -0.00316   3.13412
    D6        0.02048  -0.00132   0.00000  -0.00569  -0.00569   0.01480
    D7        0.00208  -0.00054   0.00000  -0.00239  -0.00239  -0.00031
    D8       -3.11471  -0.00123   0.00000  -0.00492  -0.00492  -3.11964
    D9       -0.00801   0.00024   0.00000   0.00113   0.00113  -0.00688
   D10        3.13469   0.00065   0.00000   0.00304   0.00304   3.13772
   D11        3.12741   0.00015   0.00000   0.00037   0.00038   3.12779
   D12       -0.01307   0.00056   0.00000   0.00228   0.00228  -0.01079
   D13       -3.13490   0.00002   0.00000   0.00011   0.00011  -3.13478
   D14        0.00565   0.00026   0.00000   0.00097   0.00096   0.00661
   D15       -0.01612   0.00062   0.00000   0.00235   0.00235  -0.01377
   D16        3.12442   0.00086   0.00000   0.00320   0.00320   3.12763
   D17       -0.05719  -0.00086   0.00000  -0.00370  -0.00370  -0.06089
   D18        3.10939  -0.00163   0.00000  -0.00626  -0.00626   3.10313
   D19       -0.00252   0.00006   0.00000   0.00061   0.00061  -0.00191
   D20        3.13911  -0.00002   0.00000  -0.00010  -0.00010   3.13901
   D21        3.13803   0.00030   0.00000   0.00146   0.00146   3.13949
   D22       -0.00353   0.00022   0.00000   0.00075   0.00075  -0.00278
   D23       -3.11550  -0.00039   0.00000  -0.00211  -0.00211  -3.11761
   D24        0.01587  -0.00018   0.00000  -0.00059  -0.00059   0.01528
   D25        0.02719   0.00002   0.00000  -0.00019  -0.00019   0.02701
   D26       -3.12461   0.00023   0.00000   0.00132   0.00133  -3.12329
   D27       -0.15037   0.00067   0.00000   0.01321   0.01317  -0.13720
   D28        3.00449   0.00058   0.00000   0.00200   0.00203   3.00652
   D29        3.00134   0.00043   0.00000   0.01168   0.01165   3.01299
   D30       -0.12698   0.00034   0.00000   0.00048   0.00051  -0.12647
   D31       -0.00851  -0.00010   0.00000  -0.00080  -0.00080  -0.00931
   D32        3.13305  -0.00002   0.00000  -0.00009  -0.00009   3.13296
   D33        3.12356   0.00007   0.00000   0.00057   0.00058   3.12414
   D34       -0.01806   0.00015   0.00000   0.00129   0.00129  -0.01677
   D35        3.13749  -0.00003   0.00000  -0.01957  -0.01961   3.11788
   D36       -0.01223   0.00073   0.00000  -0.00698  -0.00701  -0.01924
   D37       -0.01705  -0.00002   0.00000  -0.00880  -0.00876  -0.02581
   D38        3.11641   0.00074   0.00000   0.00380   0.00384   3.12025
   D39        2.22071   0.00240   0.00000   0.22837   0.22835   2.44906
   D40        0.12551   0.00041   0.00000   0.22396   0.22399   0.34950
   D41       -1.96869  -0.00158   0.00000   0.22100   0.22099  -1.74771
   D42       -0.91282   0.00165   0.00000   0.21588   0.21586  -0.69696
   D43       -3.00802  -0.00035   0.00000   0.21147   0.21150  -2.79652
   D44        1.18096  -0.00234   0.00000   0.20850   0.20849   1.38946
         Item               Value     Threshold  Converged?
 Maximum Force            0.168672     0.000450     NO 
 RMS     Force            0.038591     0.000300     NO 
 Maximum Displacement     0.321811     0.001800     NO 
 RMS     Displacement     0.075267     0.001200     NO 
 Predicted change in Energy=-7.967053D-02
 Lowest energy point so far.  Saving SCF results.
 GradGradGradGradGradGradGradGradGradGradGradGradGradGradGradGradGradGrad

 Leave Link  103 at Fri Aug 27 07:53:18 2021, MaxMem= 24159191040 cpu:         5.3
 (Enter /public/home/users/caep010/software/Gaussian09/g09/l202.exe)
                          Input orientation:                          
 ---------------------------------------------------------------------
 Center     Atomic      Atomic             Coordinates (Angstroms)
 Number     Number       Type             X           Y           Z
 ---------------------------------------------------------------------
      1          8           0        4.808003    2.134826   17.623029
      2          7           0        3.808608    2.081928   16.886982
[...]
 464,0.00207407,0.05127275,0.04085655,0.04576203,-0.00213224,0.00175432
 ,-0.00114597,0.00929048,0.01059197,0.00728152,0.00007141,-0.00707836,0
 .00143434,-0.05369920,-0.29392593,-0.01144660,-0.01227273,-0.01582077,
 -0.00835679,0.07010631,0.67966406,0.00168341,-0.00069719,0.00131645,-0
 .00883332,-0.00307635,-0.00159294,0.00123896,0.00233545,0.00016343,-0.
 00793856,-0.02235132,-0.00228907,0.00340859,0.00927388,-0.00130332,-0.
 02194186,0.01586896,-0.02045715,-0.00560753,-0.00058195,0.00157208,0.0
 0095347,-0.00154566,0.00004324,-0.00029977,0.00064429,-0.00036055,-0.0
 5116783,-0.05514402,-0.10654690,0.00664832,0.01240362,0.01098884,0.256
 63526,-0.02906268,0.41542797,-0.00167512,-0.00148743,-0.00091947,0.001
 21141,0.00587539,-0.00105850,0.00066095,-0.00262051,0.00117393,0.00328
 742,-0.00144173,-0.00303395,0.00132971,-0.00200672,0.00256453,0.004268
 45,-0.00016252,-0.00019130,0.00003114,-0.00001325,-0.00062504,-0.00472
 250,-0.00074697,-0.00418904,0.00043693,0.00109611,0.00028357,-0.012541
 37,-0.01014107,-0.01496424,-0.00349955,0.00137697,0.00082025,-0.149883
 35,-0.01587329,-0.11125213,0.37508930,0.00050656,0.00020638,0.00038702
 ,-0.00204286,-0.00436865,-0.00104977,-0.00048357,0.00213289,-0.0009002
 3,0.00341540,-0.00399610,0.00547368,-0.00065057,0.00289607,-0.00135918
 ,-0.00226411,-0.00717372,-0.00011094,0.00115554,0.00016326,0.00126316,
 0.00099538,0.00047829,0.00084154,-0.00012208,-0.00032327,-0.00007454,-
 0.03250586,-0.00249910,-0.03222094,0.00337270,0.00114423,0.00239975,-0
 .03190112,-0.12568183,-0.01611496,0.09024508,0.79469705,-0.00129611,-0
 .00165828,-0.00152387,0.00044221,0.00707481,0.00028145,0.00077044,-0.0
 0309338,0.00137781,-0.00396895,0.00059298,0.00236927,0.00232076,-0.002
 76368,0.00209758,0.00018468,0.00202222,0.00432925,-0.00083603,0.000076
 44,-0.00023830,-0.00455008,-0.00095174,-0.00498351,0.00051706,0.001185
 84,0.00026263,-0.01057212,-0.00939837,-0.00538719,0.00037198,0.0003570
 4,-0.00414572,-0.10736628,0.00031628,-0.14937309,0.30958143,-0.0482179
 9,0.37462826,0.00092078,0.00079918,0.00077301,-0.00087226,-0.00262928,
 -0.00037683,0.00012171,0.00124804,-0.00006784,-0.00030252,0.00057349,0
 .00020115,-0.00086663,0.00007458,-0.00094780,0.00075112,0.00129232,-0.
 00105580,-0.00005498,-0.00008876,-0.00006722,0.00182858,0.00027750,0.0
 0185831,-0.00030411,-0.00035765,-0.00019282,0.00199517,0.00237104,-0.0
 0001737,-0.00024342,-0.00151306,0.00004495,-0.02120153,0.01657591,-0.0
 2053153,-0.12866872,0.04496803,-0.08800942,0.42014855,-0.00090711,-0.0
 0220099,-0.00050774,0.00007028,0.00913865,-0.00167872,0.00131961,-0.00
 448579,0.00219881,-0.00306822,-0.00428920,-0.00244056,0.00323552,-0.00
 026848,0.00338130,-0.00043039,-0.00051807,-0.00006603,-0.00050590,0.00
 006422,-0.00051386,-0.00449875,-0.00174586,-0.00428833,0.00042563,0.00
 162113,0.00011824,0.00133357,0.00331970,0.00110534,-0.00734289,-0.0010
 5795,-0.00726788,0.01743828,0.01701673,0.01379820,0.01714032,-0.180278
 22,0.04267301,0.12736327,0.93794983,0.00099971,0.00114837,0.00084200,-
 0.00078466,-0.00412402,-0.00006767,-0.00008517,0.00197765,-0.00050111,
 0.00088017,0.00128939,-0.00009341,-0.00136218,0.00019201,-0.00137907,-
 0.00082778,0.00154377,0.00032668,0.00000163,-0.00009347,0.00004612,0.0
 0248345,0.00054947,0.00242186,-0.00030439,-0.00061069,-0.00025068,0.00
 010558,0.00223952,0.00136839,0.00110161,-0.00128702,0.00146141,-0.0216
 0375,0.01300510,-0.02690920,-0.08191705,0.06916216,-0.14542256,0.17436
 740,-0.01236647,0.39244716,-0.00017310,-0.00013416,-0.00016480,0.00021
 611,0.00039301,0.00011279,-0.00006709,-0.00017315,0.00000588,-0.000357
 39,0.00012589,0.00033727,0.00018263,0.00002253,0.00027535,-0.00029269,
 0.00006395,0.00014055,-0.00007586,0.00000138,-0.00000840,-0.00028519,-
 0.00005954,-0.00045114,0.00005576,0.00006824,0.00004617,-0.00038034,-0
 .00046381,0.00001423,0.00053691,0.00001728,-0.00043429,0.00478798,0.00
 154254,-0.00050554,-0.01416178,-0.00125215,-0.02294266,-0.13202732,-0.
 01394743,-0.04183864,0.48796126,-0.00002251,0.00005420,-0.00004630,0.0
 0008394,-0.00026244,0.00018474,-0.00005993,0.00013685,-0.00010234,0.00
 020886,0.00059150,0.00001381,-0.00002615,-0.00007450,-0.00007101,-0.00
 004400,-0.00048559,0.00002802,0.00009111,0.00001584,0.00008944,-0.0000
 8392,0.00007254,-0.00004957,0.00001354,-0.00000636,0.00001471,-0.00029
 403,-0.00042950,-0.00034444,0.00050898,0.00013595,0.00076118,0.0011315
 3,-0.00342217,0.00117280,0.01949933,0.01076290,0.01718405,-0.01738426,
 -0.08811573,-0.01710406,-0.03153368,0.57761291,-0.00010486,-0.00008763
 ,-0.00008719,0.00005551,0.00025343,0.00006145,-0.00000509,-0.00012275,
 -0.00002437,0.00033434,-0.00026299,-0.00023893,0.00011177,0.00000060,0
 .00002537,0.00028504,0.00023579,-0.00022611,-0.00002072,-0.00001621,-0
 .00009310,-0.00017852,-0.00000111,-0.00002198,0.00002334,0.00000487,0.
 00002269,-0.00004686,-0.00033795,-0.00039942,-0.00047777,0.00011304,0.
 00036152,-0.00094396,0.00260257,0.00353893,-0.02799078,-0.00242014,-0.
 01598509,-0.04483330,-0.01353311,-0.12538690,-0.02462846,-0.03906216,0
 .52483050,-0.00002073,-0.00004347,-0.00001417,0.00000242,0.00015136,-0
 .00002468,0.00000751,-0.00007692,0.00003057,-0.00004132,-0.00013828,-0
 .00001848,0.00005432,0.00003274,0.00004088,-0.00001064,0.00010814,-0.0
 0003699,-0.00002591,-0.00000438,-0.00003141,-0.00005346,-0.00002567,-0
 .00003935,0.00000783,0.00001676,0.00000149,0.00000107,0.00007409,-0.00
 000085,-0.00008262,-0.00000224,-0.00007448,0.00010534,0.00090767,-0.00
 023075,-0.00374730,-0.00271437,-0.00414204,-0.00619914,0.01954085,-0.0
 1858380,-0.05348100,0.03414182,-0.03565780,0.05861885,0.00000836,-0.00
 000280,0.00000953,-0.00000736,0.00001676,-0.00001404,0.00000760,-0.000
 01352,0.00000866,0.00000274,0.00000774,0.00000210,0.00000167,0.0000101
 7,0.00001689,0.00000059,0.00004398,-0.00004528,-0.00000774,-0.00000178
 ,-0.00001302,-0.00000529,-0.00000675,-0.00001295,-0.00000182,0.0000074
 5,-0.00000083,0.00010139,0.00005697,0.00005133,0.00000085,0.00000096,-
 0.00000942,-0.00056073,0.00072787,-0.00011786,-0.00210700,-0.00077919,
 -0.00102996,-0.00180721,0.00803585,-0.00996710,0.03767768,-0.17875321,
 0.13686863,-0.03815961,0.18886201,-0.00004079,-0.00006233,-0.00002465,
 0.00003410,0.00023097,-0.00002147,0.00001788,-0.00011436,0.00003691,-0
 .00003784,-0.00011545,-0.00007752,0.00008712,0.00003172,0.00009404,0.0
 0000586,0.00003343,-0.00007033,-0.00001723,-0.00000436,-0.00002876,-0.
 00011705,-0.00004124,-0.00010845,0.00001357,0.00003745,0.00000861,0.00
 004928,0.00004061,0.00001247,-0.00011849,0.00001469,-0.00007436,-0.000
 07692,0.00095998,0.00074885,-0.00385798,-0.00231021,-0.00231934,-0.001
 90341,0.01711027,-0.01509444,-0.03770692,0.13191688,-0.18491980,0.0422
 5701,-0.14616304,0.19843267,-0.00003258,-0.00003337,-0.00003711,0.0000
 4178,0.00009632,0.00003337,-0.00000554,-0.00004408,-0.00000098,-0.0001
 2988,0.00008731,0.00001959,0.00007981,0.00002742,0.00010426,-0.0001450
 6,-0.00004179,-0.00004210,-0.00001921,0.00000182,-0.00000061,-0.000100
 41,-0.00002290,-0.00014132,0.00001216,0.00003159,0.00001352,0.00003775
 ,0.00008208,0.00008378,0.00013316,0.00001353,-0.00002367,0.00020917,0.
 00016386,-0.00110857,0.00125031,-0.00025126,-0.00186171,-0.01956034,-0
 .00450118,0.01383210,-0.23110211,-0.03665310,0.11743574,0.00634136,0.0
 0118846,-0.00369608,0.25023597,-0.00001747,-0.00001151,-0.00001706,0.0
 0002716,0.00002082,0.00002221,-0.00001025,-0.00001224,-0.00001335,-0.0
 0003444,0.00001624,0.00002733,-0.00000414,0.00001872,0.00001201,-0.000
 03556,0.00000339,-0.00000300,-0.00000333,0.00000060,0.00000076,0.00000
 633,-0.00000149,-0.00001781,0.00000231,0.00000033,0.00000614,-0.000018
 77,0.00000366,0.00000877,0.00014884,-0.00000045,0.00003539,-0.00010285
 ,-0.00004918,-0.00027592,0.00079173,0.00042603,0.00063276,-0.00997126,
 -0.00437567,0.00775899,-0.03806344,-0.04922273,0.02427889,-0.01939678,
 -0.00289666,0.01053897,0.04169986,0.05179465,-0.00003640,-0.00004123,-
 0.00002956,0.00004135,0.00013670,0.00000391,-0.00000027,-0.00006694,0.
 00002042,-0.00009392,0.00004869,0.00001958,0.00007983,0.00002107,0.000
 09587,-0.00013014,-0.00005958,-0.00000369,-0.00001430,0.00000370,0.000
 00103,-0.00011837,-0.00003145,-0.00015014,0.00001435,0.00003834,0.0000
 0884,-0.00002596,0.00005549,0.00005154,0.00011903,-0.00000759,-0.00005
 331,0.00064440,0.00002386,-0.00050429,0.00028903,0.00022416,-0.0014771
 8,-0.01891302,-0.00249471,0.01407547,0.11293628,0.02320250,-0.11488872
 ,0.01950310,0.00179116,-0.01132040,-0.12600303,-0.02448795,0.12409029,
 -0.00001617,-0.00001445,-0.00001524,0.00001279,0.00003398,0.00002554,-
 0.00000105,-0.00002024,-0.00000478,0.00006604,0.00006033,-0.00005158,0
 .00003957,0.00000166,0.00000865,-0.00001394,-0.00005560,-0.00005891,0.
 00000742,0.00000155,-0.00000116,-0.00006766,-0.00000007,-0.00003213,0.
 00000865,0.00001356,0.00000216,0.00001180,0.00002188,-0.00003149,0.000
 05999,0.00001853,0.00020675,-0.00014914,-0.00013952,0.00019224,-0.0002
 5879,0.00102106,0.00106397,0.01035903,-0.02114402,-0.00853351,-0.06470
 321,0.06670428,0.02912362,-0.00265245,0.00386574,0.00302825,-0.0070234
 9,0.02446078,0.01088862,0.06986020,-0.00003104,0.00001110,-0.00002032,
 0.00006158,-0.00006354,0.00004982,-0.00003253,0.00003740,-0.00003154,0
 .00006123,0.00012066,-0.00007292,0.00001378,-0.00000425,0.00000390,-0.
 00002772,0.00000182,-0.00004619,-0.00000053,-0.00000051,-0.00000349,-0
 .00002878,0.00001882,-0.00001541,0.00000926,-0.00000754,0.00000500,-0.
 00001867,-0.00008845,0.00005278,0.00011212,0.00004821,0.00016405,-0.00
 069674,0.00046292,-0.00007054,0.00031422,0.00088219,0.00161216,0.00495
 920,-0.01232082,-0.00059789,0.06612535,-0.24066059,-0.09725403,0.00569
 313,-0.01606337,-0.01084954,-0.00178295,0.00555344,0.00321034,-0.07159
 687,0.26106188,-0.00001327,0.00001035,-0.00001647,0.00002887,-0.000059
 05,0.00005192,-0.00001704,0.00003288,-0.00002845,0.00006120,0.00014592
 ,-0.00003484,0.00003735,-0.00000483,0.00002355,-0.00003096,-0.00003295
 ,-0.00007627,0.00000250,-0.00000082,-0.00000232,-0.00005921,0.00001377
 ,-0.00004259,0.00000738,0.00000487,0.00000553,0.00008767,-0.00004774,0
 .00003224,0.00007609,0.00003136,0.00017630,-0.00025836,0.00032710,0.00
 003532,-0.00088680,0.00135073,0.00097141,0.01147615,-0.01610288,-0.006
 00905,0.02976097,-0.09634770,-0.09745389,-0.00666191,0.01914995,0.0121
 2315,0.00416541,-0.01474579,-0.00744218,-0.03307929,0.10732850,0.10003
 015,-0.00009007,-0.00008001,0.00008874,-0.00020945,-0.00020762,-0.0004
 0889,-0.00005474,0.00009699,-0.00003608,0.00098717,-0.00089766,-0.0000
 7067,0.00020593,0.00010999,0.00011396,-0.00061060,0.00032553,0.0000419
 9,-0.00001201,-0.00000264,0.00003394,-0.00007097,0.00010404,-0.0000992
 3,0.00003314,0.00000227,-0.00000500,-0.00210723,0.00104944,-0.00377600
 ,-0.00024577,0.00015252,0.00020905,-0.00943004,-0.02332087,-0.00115652
 ,-0.07499021,-0.11718922,-0.04654894,0.00575998,0.01505745,0.00953217,
 -0.00118080,-0.00009423,-0.00014971,-0.00020937,-0.00025307,0.00036479
 ,-0.00099650,0.00037797,-0.00027135,0.00014181,0.00036292,-0.00076525,
 0.08047081,0.00007725,0.00003231,0.00004505,-0.00004353,-0.00012804,0.
 00001545,-0.00001512,0.00003443,-0.00002833,0.00000371,-0.00023817,0.0
 0026112,-0.00010131,0.00025411,-0.00013946,-0.00007675,-0.00035873,-0.
 00015475,0.00004125,-0.00000113,0.00003781,0.00027021,-0.00002436,0.00
 028421,-0.00003268,-0.00004255,-0.00001731,0.00090700,0.00177698,0.000
 90475,0.00021416,-0.00012724,0.00015240,-0.00113264,-0.00178701,-0.001
 41237,-0.11602727,-0.40452636,-0.04190732,-0.01078653,-0.02178977,-0.0
 0786215,-0.00001070,0.00128069,-0.00108085,-0.00043856,0.00014180,-0.0
 0035051,0.00035553,0.00000612,0.00016167,0.00002495,0.00077018,0.00028
 139,0.12147013,0.42305279,0.00005528,-0.00011748,-0.00007663,-0.000429
 99,-0.00014708,-0.00020437,-0.00001455,0.00008726,-0.00006746,-0.00022
 846,-0.00065375,0.00107324,0.00013933,0.00006444,0.00021779,0.00013200
 ,0.00027115,-0.00062851,0.00002498,-0.00001108,-0.00001559,-0.00011940
 ,0.00011551,-0.00014033,0.00000089,0.00001344,0.00003564,-0.00378602,0
 .00102530,-0.00261523,0.00019473,0.00008993,-0.00028413,-0.00578758,-0
 .02436159,-0.00482906,-0.04640115,-0.04222714,-0.04612062,0.01442195,0
 .01746649,0.00390546,-0.00066215,0.00117456,0.00004157,0.00040392,-0.0
 0067600,-0.00034468,0.00026564,-0.00012631,-0.00006892,-0.00062580,-0.
 00053789,-0.00166932,0.04815103,0.04440672,0.05080083,-0.00042961,-0.0
 0008998,-0.00044059,0.00083327,-0.00020077,0.00095857,-0.00042712,-0.0
 0001053,-0.00062649,0.00076538,0.00226064,-0.00047961,-0.00040720,-0.0
 0042154,-0.00029484,-0.00000569,0.00022938,0.00009309,0.00006575,0.000
 00927,0.00002275,-0.00014989,0.00045583,-0.00008981,0.00012163,-0.0001
 6899,0.00015157,-0.00424367,-0.00386416,-0.00415503,-0.00196728,0.0030
 5168,-0.00106506,0.00002163,-0.00155687,0.00362679,0.02580753,0.014205
 08,0.00460814,-0.13142397,-0.13971148,-0.02858455,0.00477729,-0.037073
 64,-0.01142530,0.00166900,0.00016619,0.00196890,0.00071240,0.00008820,
 0.00103681,-0.00573104,-0.00351739,-0.00393754,0.00177035,0.00324235,-
 0.00600220,0.10774153,0.00044748,0.00133171,0.00020599,0.00001520,-0.0
 0572982,0.00109706,-0.00082431,0.00288817,-0.00135535,0.00247969,0.002
 49067,0.00226509,-0.00166937,0.00062204,-0.00182559,-0.00011165,0.0008
 6422,-0.00032502,0.00015365,-0.00005805,0.00016483,0.00241221,0.000958
 20,0.00225351,-0.00022757,-0.00091763,-0.00005686,-0.00166499,-0.00094
 725,-0.00142800,0.00467072,-0.00104576,0.00461433,-0.01028600,0.000731
 99,-0.01098314,0.01265266,-0.09108481,0.03242642,-0.15333861,-0.654984
 44,-0.04216105,-0.02014902,-0.02970962,-0.01004899,0.00049053,0.000710
 92,-0.00076782,-0.00023789,-0.00125180,-0.00164783,-0.00326219,0.00030
 495,-0.00124602,0.00352193,-0.00074245,0.00517696,0.16228361,0.7753443
 1,-0.00052064,-0.00031460,-0.00045792,0.00089140,0.00077528,0.00071506
 ,-0.00047558,-0.00047645,-0.00021406,-0.00048110,0.00197042,-0.0001045
 8,-0.00009429,-0.00056660,-0.00005030,0.00019215,0.00009358,0.00003039
 ,0.00000314,0.00002591,0.00002915,-0.00038632,0.00027611,-0.00058142,0
 .00015351,-0.00002168,0.00016593,-0.00452004,-0.00372600,-0.00334559,-
 0.00138972,0.00301357,-0.00342659,0.00524453,-0.00226746,0.00245542,0.
 00506865,0.03443500,0.01756415,-0.02649873,-0.02957891,-0.09747192,-0.
 01362263,-0.02352430,0.01125199,0.00348967,0.00021925,0.00311667,-0.00
 304797,-0.00363881,-0.00239422,-0.00219829,-0.00293561,-0.00074354,-0.
 00599823,0.00473221,0.00033454,0.04416361,0.02089378,0.07319807,-0.002
 89666,0.00025184,-0.00333865,0.00169444,0.00724338,0.00143457,0.000273
 65,-0.00096312,0.00039453,-0.02208919,0.00701721,-0.01948828,-0.021063
 82,-0.04957413,-0.01258719,-0.21096537,0.00568087,-0.16643663,-0.00414
 495,-0.00208092,-0.00488651,0.00800525,0.00490197,0.00250139,0.0007206
 2,-0.00408268,-0.00011260,0.03254525,0.01279949,0.02142337,0.00143579,
 -0.00264830,-0.00402006,-0.10615786,0.01078169,-0.04385776,-0.01895966
 ,0.03007436,-0.03011385,0.00012619,-0.00718178,0.00074366,-0.00032428,
 0.00092213,-0.00085582,-0.00029574,-0.00011035,-0.00025428,0.00005010,
 0.00004268,0.00003716,0.00004095,0.00002841,0.00001674,0.00060368,0.00
 236072,0.00053923,0.00047056,0.00274448,0.00015331,0.42891901,0.002464
 35,-0.00020201,0.00262725,-0.00059823,-0.00490596,0.00012412,-0.001298
 26,0.00081467,-0.00147595,0.01524915,-0.01062006,0.01681751,-0.0182510
 6,0.03112963,-0.02456967,-0.03615721,-0.12373732,-0.02300923,0.0190835
 5,0.00569524,0.01869432,-0.00355404,-0.01035124,-0.00079947,-0.0013441
 0,0.00235681,-0.00152691,-0.01498712,-0.05313333,-0.00351109,-0.002838
 75,-0.00304670,-0.00121714,0.06064538,-0.23947214,0.09513155,0.0049002
 8,0.00537408,0.00496597,-0.00322590,-0.00020809,-0.00326549,-0.0002513
 4,0.00050033,-0.00013204,-0.00016080,-0.00012927,-0.00013517,-0.000204
 17,-0.00001402,-0.00009041,-0.00000248,-0.00008443,-0.00013328,-0.0019
 7263,0.00268731,-0.00259958,0.00051824,-0.00053517,0.00061803,0.077697
 32,0.67373518,-0.00375548,0.00035327,-0.00361038,0.00292546,0.00816494
 ,0.00039660,0.00045710,-0.00113430,0.00075275,-0.02104334,0.00837672,-
 0.02757162,-0.01852310,-0.05666143,-0.00785052,-0.15852157,0.01986953,
 -0.21619490,-0.00890636,-0.00302523,-0.00755820,0.00408881,0.00786927,
 0.00736941,-0.00063150,-0.00432772,0.00175937,0.02674091,0.02502990,0.
 03191376,-0.00399599,-0.00102105,0.00196799,-0.05338031,0.04400175,-0.
 12854785,-0.02533358,0.03087494,-0.02686874,-0.00005601,-0.00730061,0.
 00210930,-0.00060101,0.00092965,-0.00052203,-0.00022433,-0.00007043,-0
 .00018789,0.00001698,0.00000827,-0.00002726,0.00009622,0.00000618,0.00
 008392,0.00134166,0.00180735,0.00066460,0.00063239,0.00296429,-0.00011
 108,0.29351523,-0.02381547,0.43401356,-0.00002193,-0.00011378,0.000044
 80,-0.00044812,0.00045175,0.00044330,0.00022501,-0.00024970,0.00001498
 ,-0.00044106,0.00019118,-0.00059661,0.00217405,0.00047946,-0.00668614,
 -0.00537441,-0.02112913,-0.00440905,-0.00163992,0.00064951,0.00269261,
 -0.00052534,-0.00139070,-0.00023925,-0.00033062,0.00026289,-0.00007247
 ,0.00214069,0.00152078,-0.00263583,0.00001514,0.00041221,0.00026235,0.
 00614264,0.00803980,0.00004463,-0.00026479,0.00141797,0.00234751,-0.00
 028617,0.00031439,0.00037803,0.00009425,-0.00003607,-0.00005039,0.0000
 1199,-0.00000108,0.00000021,0.00001116,0.00001241,0.00001681,0.0000087
 0,-0.00000797,-0.00001069,0.00023490,-0.00030216,-0.00027164,0.0000291
 6,-0.00010058,-0.00012644,-0.08798797,-0.09571217,-0.03484217,0.086232
 65,-0.00004315,-0.00008152,-0.00003719,0.00011823,-0.00030680,-0.00000
 353,-0.00021552,-0.00004137,-0.00016442,0.00084814,0.00069791,0.000758
 19,-0.00005027,0.00201300,0.00119766,0.00054834,0.00121688,0.00086860,
 0.00041137,0.00069875,-0.00054277,-0.00033760,-0.00025088,-0.00030537,
 0.00007303,0.00020967,-0.00002349,0.00230504,-0.00343983,0.00385684,-0
 .00077537,-0.00067302,-0.00072672,-0.01313183,-0.01791216,-0.00919480,
 -0.00126432,0.00154786,-0.00209926,0.00059994,-0.00050705,0.00057300,0
 .00000055,-0.00002125,0.00000215,0.00000400,0.00002406,-0.00000095,0.0
 0002490,-0.00000825,0.00001003,0.00000714,0.00001995,0.00004422,0.0013
 8679,-0.00027090,0.00156615,0.00010486,0.00075963,-0.00000272,-0.09590
 527,-0.27585350,-0.05289983,0.10529100,0.29217882,0.00003406,-0.000108
 86,0.00001096,0.00050388,0.00032939,-0.00051019,0.00000753,-0.00019601
 ,0.00030223,-0.00071104,0.00008736,-0.00063664,-0.00658377,0.00175826,
 0.00151436,-0.00853420,-0.02137454,-0.00186359,0.00273857,-0.00029854,
 -0.00151838,-0.00044062,-0.00138799,-0.00022382,-0.00003686,0.00017305
 ,-0.00037899,-0.00278409,0.00304974,0.00097959,0.00048986,0.00048703,0
 .00009600,0.00407358,0.01254618,0.00642289,0.00283964,0.00059390,-0.00
 003661,0.00032817,0.00028818,-0.00041785,-0.00006285,-0.00002048,0.000
 11351,0.00001439,0.00000243,0.00001873,-0.00000724,-0.00000448,-0.0000
 0709,-0.00000384,0.00000266,-0.00001457,-0.00059147,-0.00013708,-0.000
 00884,-0.00016161,-0.00021657,0.00003986,-0.03480755,-0.05269786,-0.06
 198080,0.04369545,0.05712421,0.05809922\\0.00000025,-0.00000043,-0.000
 00035,0.00000084,-0.00000034,0.00000019,0.00000026,0.00000028,-0.00000
 079,0.00000005,-0.00000019,-0.00000018,-0.00000024,0.,-0.00000017,0.00
 000022,-0.00000138,0.00000103,-0.00000102,0.00000148,-0.00000043,0.000
 00015,0.00000092,0.00000041,-0.00000008,-0.00000073,-0.00000020,-0.000
 00095,0.00000267,-0.00000172,0.00000128,-0.00000286,0.00000126,-0.0000
 0026,-0.00000007,0.00000015,0.00000076,0.00000253,0.00000013,0.0000001
 5,-0.00000073,0.00000055,0.00000096,-0.00000122,-0.00000024,-0.0000001
 3,0.00000017,-0.00000051,-0.00000024,0.00000041,0.00000023,-0.00000050
 ,0.00000110,0.00000046,-0.00000108,-0.00000214,-0.00000005,0.00000028,
 0.00000017,-0.00000043,0.00000089,0.00000285,0.00000090,-0.00000158,-0
 .00000247,-0.00000025\\\@
 Job cpu time:       1 days  5 hours 46 minutes  3.6 seconds.
 File lengths (MBytes):  RWF= 194809 Int=      0 D2E=      0 Chk=    151 Scr=      1
 Normal termination of Gaussian 09 at Fri Aug 27 20:25:38 2021.
