 Entering Gaussian System, Link 0=g09
 Input=G4.RIYTID.gjf
 Output=G4.RIYTID.log
 Initial command:
 /public/home/users/caep010/software/Gaussian09/g09/l1.exe "/public/home/users/caep010/.cache/gau_scr/Gau-201460.inp" -scrdir="/public/home/users/caep010/.cache/gau_scr/"
 Entering Link 1 = /public/home/users/caep010/software/Gaussian09/g09/l1.exe PID=    201461.
  
 Copyright (c) 1988,1990,1992,1993,1995,1998,2003,2009,2015,
            Gaussian, Inc.  All Rights Reserved.
  
 This is part of the Gaussian(R) 09 program.  It is based on
 the Gaussian(R) 03 system (copyright 2003, Gaussian, Inc.),
 the Gaussian(R) 98 system (copyright 1998, Gaussian, Inc.),
 the Gaussian(R) 94 system (copyright 1995, Gaussian, Inc.),
 the Gaussian 92(TM) system (copyright 1992, Gaussian, Inc.),
 the Gaussian 90(TM) system (copyright 1990, Gaussian, Inc.),
 the Gaussian 88(TM) system (copyright 1988, Gaussian, Inc.),
 the Gaussian 86(TM) system (copyright 1986, Carnegie Mellon
 University), and the Gaussian 82(TM) system (copyright 1983,
 Carnegie Mellon University). Gaussian is a federally registered
 trademark of Gaussian, Inc.
  
 This software contains proprietary and confidential information,
 including trade secrets, belonging to Gaussian, Inc.
  
 This software is provided under written license and may be
 used, copied, transmitted, or stored only in accord with that
 written license.
  
 The following legend is applicable only to US Government
 contracts under FAR:
  
                    RESTRICTED RIGHTS LEGEND
  
 Use, reproduction and disclosure by the US Government is
 subject to restrictions as set forth in subparagraphs (a)
 and (c) of the Commercial Computer Software - Restricted
 Rights clause in FAR 52.227-19.
  
 Gaussian, Inc.
 340 Quinnipiac St., Bldg. 40, Wallingford CT 06492
  
  
 ---------------------------------------------------------------
 Warning -- This program may not be used in any manner that
 competes with the business of Gaussian, Inc. or will provide
 assistance to any competitor of Gaussian, Inc.  The licensee
 of this program is prohibited from giving any competitor of
 Gaussian, Inc. access to this program.  By using this program,
 the user acknowledges that Gaussian, Inc. is engaged in the
 business of creating and licensing software in the field of
 computational chemistry and represents and warrants to the
 licensee that it is not a competitor of Gaussian, Inc. and that
 it will not use this program in any manner prohibited above.
 ---------------------------------------------------------------
  

 Cite this work as:
 Gaussian 09, Revision E.01,
 M. J. Frisch, G. W. Trucks, H. B. Schlegel, G. E. Scuseria, 
 M. A. Robb, J. R. Cheeseman, G. Scalmani, V. Barone, B. Mennucci, 
 G. A. Petersson, H. Nakatsuji, M. Caricato, X. Li, H. P. Hratchian, 
 A. F. Izmaylov, J. Bloino, G. Zheng, J. L. Sonnenberg, M. Hada, 
 M. Ehara, K. Toyota, R. Fukuda, J. Hasegawa, M. Ishida, T. Nakajima, 
 Y. Honda, O. Kitao, H. Nakai, T. Vreven, J. A. Montgomery, Jr., 
 J. E. Peralta, F. Ogliaro, M. Bearpark, J. J. Heyd, E. Brothers, 
 K. N. Kudin, V. N. Staroverov, T. Keith, R. Kobayashi, J. Normand, 
 K. Raghavachari, A. Rendell, J. C. Burant, S. S. Iyengar, J. Tomasi, 
 M. Cossi, N. Rega, J. M. Millam, M. Klene, J. E. Knox, J. B. Cross, 
 V. Bakken, C. Adamo, J. Jaramillo, R. Gomperts, R. E. Stratmann, 
 O. Yazyev, A. J. Austin, R. Cammi, C. Pomelli, J. W. Ochterski, 
 R. L. Martin, K. Morokuma, V. G. Zakrzewski, G. A. Voth, 
 P. Salvador, J. J. Dannenberg, S. Dapprich, A. D. Daniels, 
 O. Farkas, J. B. Foresman, J. V. Ortiz, J. Cioslowski, 
 and D. J. Fox, Gaussian, Inc., Wallingford CT, 2013.
 
 ******************************************
 Gaussian 09:  ES64L-G09RevE.01 30-Nov-2015
                27-Aug-2021 
 ******************************************
 %nproc=32
 Will use up to   32 processors via shared memory.
 %mem=180GB
 ----------------
 #P G4 OPT=calcfc
 ----------------
 1/10=4,14=-1,18=20,19=15,26=3,38=1/1,3;
 2/9=110,12=2,17=6,18=5,40=1/2;
 3/5=35,7=104,11=2,16=1,25=1,30=1,71=2,74=-5,140=1/1,2,3;
 4//1;
 5/5=2,38=5/2;
 8/6=4,10=90,11=11/1;
 11/6=1,8=1,9=11,15=111,16=1/1,2,10;
 10/6=1,13=1/2;
 6/7=2,8=2,9=2,10=2,28=1/1;
 7/10=1,18=20,25=1/1,2,3,16;
 1/10=4,14=-1,18=20,19=15,26=3/3(2);
 2/9=110/2;
 99//99;
 2/9=110/2;
 3/5=35,7=104,11=2,16=1,25=1,30=1,71=1,74=-5/1,2,3;
 4/5=5,16=3,69=1/1;
 5/5=2,38=5/2;
 7//1,2,3,16;
 1/14=-1,18=20,19=15,26=3/3(-5);
 2/9=110/2;
 6/7=2,8=2,9=2,10=2,19=2,28=1/1;
 99/9=1/99;
 Leave Link    1 at Fri Aug 27 07:48:36 2021, MaxMem= 24159191040 cpu:         3.0
 (Enter /public/home/users/caep010/software/Gaussian09/g09/l101.exe)
 ------
 RIYTID
 ------
 Symbolic Z-matrix:
 Charge =  0 Multiplicity = 1
 N                     3.181     2.518     4.7815 
 C                     3.4577    3.7633    4.0586 
 C                     3.0891    3.8564    2.7322 
 H                     2.6772    3.1456    2.2974 
 O                     3.6645    2.3775    5.8894 
 O                     2.4701    1.6835    4.253 
 C                     4.0725    4.8093    4.7263 
 C                     4.3088    5.982     4.0492 
 H                     4.7109    6.6898    4.4982 
 C                     3.9642    6.1424    2.7114 
 H                     4.3212    4.72      5.6168 
 C                     4.2348    7.422     1.975 
 H                     4.6708    8.0435    2.562 
 C                     3.3546    5.0483    2.0692 
 C                     2.9657    5.1819    0.6837 
 N                     2.6503    5.3124   -0.4007 
 H                     3.4056    7.7976    1.6717 
 H                     4.8012    7.2433    1.2204 
 
 NAtoms=     18 NQM=       18 NQMF=       0 NMMI=      0 NMMIF=      0
                NMic=       0 NMicF=      0.
                    Isotopes and Nuclear Properties:
 (Nuclear quadrupole moments (NQMom) in fm**2, nuclear magnetic moments (NMagM)
  in nuclear magnetons)

  Atom         1           2           3           4           5           6           7           8           9          10
 IAtWgt=          14          12          12           1          16          16          12          12           1          12
 AtmWgt=  14.0030740  12.0000000  12.0000000   1.0078250  15.9949146  15.9949146  12.0000000  12.0000000   1.0078250  12.0000000
 NucSpn=           2           0           0           1           0           0           0           0           1           0
 AtZEff=   0.0000000   0.0000000   0.0000000   0.0000000   0.0000000   0.0000000   0.0000000   0.0000000   0.0000000   0.0000000
 NQMom=    2.0440000   0.0000000   0.0000000   0.0000000   0.0000000   0.0000000   0.0000000   0.0000000   0.0000000   0.0000000
 NMagM=    0.4037610   0.0000000   0.0000000   2.7928460   0.0000000   0.0000000   0.0000000   0.0000000   2.7928460   0.0000000
 AtZNuc=   7.0000000   6.0000000   6.0000000   1.0000000   8.0000000   8.0000000   6.0000000   6.0000000   1.0000000   6.0000000

  Atom        11          12          13          14          15          16          17          18
 IAtWgt=           1          12           1          12          12          14           1           1
 AtmWgt=   1.0078250  12.0000000   1.0078250  12.0000000  12.0000000  14.0030740   1.0078250   1.0078250
 NucSpn=           1           0           1           0           0           2           1           1
 AtZEff=   0.0000000   0.0000000   0.0000000   0.0000000   0.0000000   0.0000000   0.0000000   0.0000000
 NQMom=    0.0000000   0.0000000   0.0000000   0.0000000   0.0000000   2.0440000   0.0000000   0.0000000
 NMagM=    2.7928460   0.0000000   2.7928460   0.0000000   0.0000000   0.4037610   2.7928460   2.7928460
 AtZNuc=   1.0000000   6.0000000   1.0000000   6.0000000   6.0000000   7.0000000   1.0000000   1.0000000
 Leave Link  101 at Fri Aug 27 07:48:37 2021, MaxMem= 24159191040 cpu:        10.4
 (Enter /public/home/users/caep010/software/Gaussian09/g09/l103.exe)

 GradGradGradGradGradGradGradGradGradGradGradGradGradGradGradGradGradGrad
 Berny optimization.
 Initialization pass.
                           ----------------------------
                           !    Initial Parameters    !
                           ! (Angstroms and Degrees)  !
 --------------------------                            --------------------------
 ! Name  Definition              Value          Derivative Info.                !
 --------------------------------------------------------------------------------
 ! R1    R(1,2)                  1.4663         calculate D2E/DX2 analytically  !
 ! R2    R(1,5)                  1.2169         calculate D2E/DX2 analytically  !
 ! R3    R(1,6)                  1.217          calculate D2E/DX2 analytically  !
 ! R4    R(2,3)                  1.3798         calculate D2E/DX2 analytically  !
 ! R5    R(2,7)                  1.3849         calculate D2E/DX2 analytically  !
 ! R6    R(3,4)                  0.9295         calculate D2E/DX2 analytically  !
 ! R7    R(3,14)                 1.3895         calculate D2E/DX2 analytically  !
 ! R8    R(7,8)                  1.3746         calculate D2E/DX2 analytically  !
 ! R9    R(7,11)                 0.9289         calculate D2E/DX2 analytically  !
 ! R10   R(8,9)                  0.9297         calculate D2E/DX2 analytically  !
 ! R11   R(8,10)                 1.3908         calculate D2E/DX2 analytically  !
 ! R12   R(10,12)                1.501          calculate D2E/DX2 analytically  !
 ! R13   R(10,14)                1.4075         calculate D2E/DX2 analytically  !
 ! R14   R(12,13)                0.9596         calculate D2E/DX2 analytically  !
 ! R15   R(12,17)                0.9595         calculate D2E/DX2 analytically  !
 ! R16   R(12,18)                0.9603         calculate D2E/DX2 analytically  !
 ! R17   R(14,15)                1.4452         calculate D2E/DX2 analytically  !
 ! R18   R(15,16)                1.1369         calculate D2E/DX2 analytically  !
 ! A1    A(2,1,5)              118.1592         calculate D2E/DX2 analytically  !
 ! A2    A(2,1,6)              118.5876         calculate D2E/DX2 analytically  !
 ! A3    A(5,1,6)              123.2484         calculate D2E/DX2 analytically  !
 ! A4    A(1,2,3)              118.7398         calculate D2E/DX2 analytically  !
 ! A5    A(1,2,7)              119.1795         calculate D2E/DX2 analytically  !
 ! A6    A(3,2,7)              122.0798         calculate D2E/DX2 analytically  !
 ! A7    A(2,3,4)              121.0952         calculate D2E/DX2 analytically  !
 ! A8    A(2,3,14)             117.7438         calculate D2E/DX2 analytically  !
 ! A9    A(4,3,14)             121.1611         calculate D2E/DX2 analytically  !
 ! A10   A(2,7,8)              118.8935         calculate D2E/DX2 analytically  !
 ! A11   A(2,7,11)             120.5613         calculate D2E/DX2 analytically  !
 ! A12   A(8,7,11)             120.5452         calculate D2E/DX2 analytically  !
 ! A13   A(7,8,9)              119.0765         calculate D2E/DX2 analytically  !
 ! A14   A(7,8,10)             121.9801         calculate D2E/DX2 analytically  !
 ! A15   A(9,8,10)             118.9434         calculate D2E/DX2 analytically  !
 ! A16   A(8,10,12)            121.7081         calculate D2E/DX2 analytically  !
 ! A17   A(8,10,14)            117.1652         calculate D2E/DX2 analytically  !
 ! A18   A(12,10,14)           121.1258         calculate D2E/DX2 analytically  !
 ! A19   A(10,12,13)           109.5072         calculate D2E/DX2 analytically  !
 ! A20   A(10,12,17)           109.4514         calculate D2E/DX2 analytically  !
 ! A21   A(10,12,18)           109.4643         calculate D2E/DX2 analytically  !
 ! A22   A(13,12,17)           109.4188         calculate D2E/DX2 analytically  !
 ! A23   A(13,12,18)           109.4633         calculate D2E/DX2 analytically  !
 ! A24   A(17,12,18)           109.5223         calculate D2E/DX2 analytically  !
 ! A25   A(3,14,10)            122.1297         calculate D2E/DX2 analytically  !
 ! A26   A(3,14,15)            119.0328         calculate D2E/DX2 analytically  !
 ! A27   A(10,14,15)           118.8223         calculate D2E/DX2 analytically  !
 ! A28   L(14,15,16,17,-1)     178.7444         calculate D2E/DX2 analytically  !
 ! A29   L(14,15,16,17,-2)     180.6316         calculate D2E/DX2 analytically  !
 ! D1    D(5,1,2,3)            170.3816         calculate D2E/DX2 analytically  !
 ! D2    D(5,1,2,7)             -9.9435         calculate D2E/DX2 analytically  !
 ! D3    D(6,1,2,3)            -10.38           calculate D2E/DX2 analytically  !
 ! D4    D(6,1,2,7)            169.2948         calculate D2E/DX2 analytically  !
 ! D5    D(1,2,3,4)             -0.3415         calculate D2E/DX2 analytically  !
 ! D6    D(1,2,3,14)           179.6597         calculate D2E/DX2 analytically  !
 ! D7    D(7,2,3,4)            179.9936         calculate D2E/DX2 analytically  !
 ! D8    D(7,2,3,14)            -0.0052         calculate D2E/DX2 analytically  !
 ! D9    D(1,2,7,8)           -178.9186         calculate D2E/DX2 analytically  !
 ! D10   D(1,2,7,11)             1.0907         calculate D2E/DX2 analytically  !
 ! D11   D(3,2,7,8)              0.7449         calculate D2E/DX2 analytically  !
 ! D12   D(3,2,7,11)          -179.2458         calculate D2E/DX2 analytically  !
 ! D13   D(2,3,14,10)           -0.6963         calculate D2E/DX2 analytically  !
 ! D14   D(2,3,14,15)         -179.2631         calculate D2E/DX2 analytically  !
 ! D15   D(4,3,14,10)          179.3049         calculate D2E/DX2 analytically  !
 ! D16   D(4,3,14,15)            0.7381         calculate D2E/DX2 analytically  !
 ! D17   D(2,7,8,9)            179.1782         calculate D2E/DX2 analytically  !
 ! D18   D(2,7,8,10)            -0.8128         calculate D2E/DX2 analytically  !
 ! D19   D(11,7,8,9)            -0.831          calculate D2E/DX2 analytically  !
 ! D20   D(11,7,8,10)          179.178          calculate D2E/DX2 analytically  !
 ! D21   D(7,8,10,12)         -179.5141         calculate D2E/DX2 analytically  !
 ! D22   D(7,8,10,14)            0.1451         calculate D2E/DX2 analytically  !
 ! D23   D(9,8,10,12)            0.4949         calculate D2E/DX2 analytically  !
 ! D24   D(9,8,10,14)         -179.846          calculate D2E/DX2 analytically  !
 ! D25   D(8,10,12,13)           0.9933         calculate D2E/DX2 analytically  !
 ! D26   D(8,10,12,17)        -118.9523         calculate D2E/DX2 analytically  !
 ! D27   D(8,10,12,18)         121.0015         calculate D2E/DX2 analytically  !
 ! D28   D(14,10,12,13)       -178.6524         calculate D2E/DX2 analytically  !
 ! D29   D(14,10,12,17)         61.4019         calculate D2E/DX2 analytically  !
 ! D30   D(14,10,12,18)        -58.6443         calculate D2E/DX2 analytically  !
 ! D31   D(8,10,14,3)            0.6292         calculate D2E/DX2 analytically  !
 ! D32   D(8,10,14,15)         179.1989         calculate D2E/DX2 analytically  !
 ! D33   D(12,10,14,3)        -179.7096         calculate D2E/DX2 analytically  !
 ! D34   D(12,10,14,15)         -1.1399         calculate D2E/DX2 analytically  !
 --------------------------------------------------------------------------------
 Trust Radius=3.00D-01 FncErr=1.00D-07 GrdErr=1.00D-06
 Number of steps in this run=     91 maximum allowed number of steps=    108.
 GradGradGradGradGradGradGradGradGradGradGradGradGradGradGradGradGradGrad

 Leave Link  103 at Fri Aug 27 07:48:37 2021, MaxMem= 24159191040 cpu:         0.5
 (Enter /public/home/users/caep010/software/Gaussian09/g09/l202.exe)
                          Input orientation:                          
 ---------------------------------------------------------------------
 Center     Atomic      Atomic             Coordinates (Angstroms)
 Number     Number       Type             X           Y           Z
 ---------------------------------------------------------------------
      1          7           0        3.181000    2.518000    4.781500
      2          6           0        3.457700    3.763300    4.058600
      3          6           0        3.089100    3.856400    2.732200
      4          1           0        2.677200    3.145600    2.297400
      5          8           0        3.664500    2.377500    5.889400
      6          8           0        2.470100    1.683500    4.253000
      7          6           0        4.072500    4.809300    4.726300
      8          6           0        4.308800    5.982000    4.049200
      9          1           0        4.710900    6.689800    4.498200
     10          6           0        3.964200    6.142400    2.711400
     11          1           0        4.321200    4.720000    5.616800
     12          6           0        4.234800    7.422000    1.975000
     13          1           0        4.670800    8.043500    2.562000
     14          6           0        3.354600    5.048300    2.069200
     15          6           0        2.965700    5.181900    0.683700
     16          7           0        2.650300    5.312400   -0.400700
     17          1           0        3.405600    7.797600    1.671700
     18          1           0        4.801200    7.243300    1.220400
 ---------------------------------------------------------------------
                    Distance matrix (angstroms):
                    1          2          3          4          5
     1  N    0.000000
     2  C    1.466260   0.000000
     3  C    2.449365   1.379808   0.000000
     4  H    2.611216   2.023007   0.929489   0.000000
     5  O    1.216945   2.305436   3.533574   3.803578   0.000000
     6  O    1.216997   2.310566   2.723507   2.450510   2.141502
     7  C    2.459243   1.384889   2.418993   3.257962   2.726338
     8  C    3.715843   2.376361   2.782145   3.711615   4.098034
     9  H    4.452501   3.213746   3.711758   4.641208   4.650411
    10  C    4.246762   2.780577   2.447862   3.287640   4.935988
    11  H    2.616598   2.022101   3.253428   4.024908   2.448034
    12  C    5.747708   4.281514   3.820927   4.562637   6.410519
    13  H    6.138146   4.693776   4.479124   5.294703   6.647389
    14  C    3.713371   2.370563   1.389491   2.032539   4.671524
    15  C    4.892308   3.693838   2.443058   2.614150   5.954183
    16  N    5.911473   4.789255   3.482462   3.460562   7.014813
    17  H    6.131515   4.687812   4.093640   4.750071   6.872664
    18  H    6.134732   4.687299   4.085085   4.739457   6.838688
                    6          7          8          9         10
     6  O    0.000000
     7  C    3.544337   0.000000
     8  C    4.679685   1.374601   0.000000
     9  H    5.490387   1.998966   0.929659   0.000000
    10  C    4.948803   2.418410   1.390750   2.012427   0.000000
    11  H    3.808786   0.928879   2.012503   2.298531   3.254538
    12  C    6.421358   3.797656   2.526140   2.670080   1.500962
    13  H    6.939176   3.937284   2.567604   2.362833   2.033663
    14  C    4.107700   2.762731   2.388031   3.230188   1.407511
    15  C    5.022382   4.207903   3.710885   4.457566   2.455836
    16  N    5.904093   5.344333   4.795894   5.490221   3.478563
    17  H    6.702275   4.324959   3.124849   3.304562   2.032904
    18  H    6.748486   4.329745   3.136151   3.325431   2.033625
                   11         12         13         14         15
    11  H    0.000000
    12  C    4.535524   0.000000
    13  H    4.527657   0.959650   0.000000
    14  C    3.691553   2.533392   3.308543   0.000000
    15  C    5.136751   2.880298   3.824151   1.445234   0.000000
    16  N    6.273209   3.550353   4.507651   2.581897   1.136851
    17  H    5.086626   0.959499   1.566471   2.778355   2.830467
    18  H    5.091736   0.960294   1.567551   2.762451   2.811846
                   16         17         18
    16  N    0.000000
    17  H    3.322881   0.000000
    18  H    3.314017   1.567999   0.000000
 Stoichiometry    C8H6N2O2
 Framework group  C1[X(C8H6N2O2)]
 Deg. of freedom    48
 Full point group                 C1      NOp   1
 Largest Abelian subgroup         C1      NOp   1
 Largest concise Abelian subgroup C1      NOp   1
                         Standard orientation:                         
 ---------------------------------------------------------------------
 Center     Atomic      Atomic             Coordinates (Angstroms)
 Number     Number       Type             X           Y           Z
 ---------------------------------------------------------------------
      1          7           0       -2.540731    0.324289   -0.002052
      2          6           0       -1.138001   -0.102624   -0.005789
      3          6           0       -0.151188    0.861360   -0.034160
      4          1           0       -0.364164    1.765870   -0.055434
      5          8           0       -3.399603   -0.523911   -0.156483
      6          8           0       -2.790212    1.503131    0.168746
      7          6           0       -0.843891   -1.455549    0.026014
      8          6           0        0.473160   -1.848668    0.045029
      9          1           0        0.673424   -2.755900    0.078037
     10          6           0        1.516634   -0.929681    0.016554
     11          1           0       -1.525162   -2.086912    0.034231
     12          6           0        2.952711   -1.366102    0.026726
     13          1           0        2.996244   -2.324688    0.038777
     14          6           0        1.170918    0.433922   -0.029866
     15          6           0        2.227029    1.420412   -0.042861
     16          7           0        3.071250    2.181754   -0.033863
     17          1           0        3.387167   -1.017192    0.807847
     18          1           0        3.393150   -1.035663   -0.760031
 ---------------------------------------------------------------------
 Rotational constants (GHZ):      1.8882743      0.6283017      0.4733842
 Leave Link  202 at Fri Aug 27 07:48:37 2021, MaxMem= 24159191040 cpu:         0.5
 (Enter /public/home/users/caep010/software/Gaussian09/g09/l301.exe)
 Standard basis: GTBas3 (6D, 7F)
 Ernie: Thresh=  0.10000D-02 Tol=  0.10000D-05 Strict=F.
 There are   402 symmetry adapted cartesian basis functions of A   symmetry.
 There are   366 symmetry adapted basis functions of A   symmetry.
   366 basis functions,   570 primitive gaussians,   402 cartesian basis functions
    42 alpha electrons       42 beta electrons
       nuclear repulsion energy       635.0038899358 Hartrees.
 IExCor=  402 DFT=T Ex+Corr=B3LYP ExCW=0 ScaHFX=  0.200000
 ScaDFX=  0.800000  0.720000  1.000000  0.810000 ScalE2=  1.000000  1.000000
 IRadAn=      0 IRanWt=     -1 IRanGd=            0 ICorTp=0 IEmpDi=  4
 NAtoms=   18 NActive=   18 NUniq=   18 SFac= 1.00D+00 NAtFMM=   60 NAOKFM=F Big=F
 Integral buffers will be    131072 words long.
 Raffenetti 2 integral format.
 Two-electron integral symmetry is turned on.
 Leave Link  301 at Fri Aug 27 07:48:37 2021, MaxMem= 24159191040 cpu:         2.2
 (Enter /public/home/users/caep010/software/Gaussian09/g09/l302.exe)
 NPDir=0 NMtPBC=     1 NCelOv=     1 NCel=       1 NClECP=     1 NCelD=      1
         NCelK=      1 NCelE2=     1 NClLst=     1 CellRange=     0.0.
 One-electron integrals computed using PRISM.
 NBasis=   366 RedAO= T EigKep=  9.11D-05  NBF=   366
 NBsUse=   366 1.00D-06 EigRej= -1.00D+00 NBFU=   366
 Precomputing XC quadrature grid using
 IXCGrd= 4 IRadAn=           0 IRanWt=          -1 IRanGd=           0 AccXCQ= 0.00D+00.
 Generated NRdTot=       0 NPtTot=           0 NUsed=           0 NTot=          32
 NSgBfM=   401   401   401   401   401 MxSgAt=    18 MxSgA2=    18.
 Leave Link  302 at Fri Aug 27 07:48:38 2021, MaxMem= 24159191040 cpu:        21.4
 (Enter /public/home/users/caep010/software/Gaussian09/g09/l303.exe)
 DipDrv:  MaxL=1.
 Leave Link  303 at Fri Aug 27 07:48:38 2021, MaxMem= 24159191040 cpu:         1.1
 (Enter /public/home/users/caep010/software/Gaussian09/g09/l401.exe)
 ExpMin= 1.61D-01 ExpMax= 5.48D+03 ExpMxC= 8.25D+02 IAcc=1 IRadAn=         1 AccDes= 0.00D+00
 Harris functional with IExCor=  402 and IRadAn=       1 diagonalized for initial guess.
 HarFok:  IExCor=  402 AccDes= 0.00D+00 IRadAn=         1 IDoV= 1 UseB2=F ITyADJ=14
 ICtDFT=  3500011 ScaDFX=  1.000000  1.000000  1.000000  1.000000
 FoFCou: FMM=F IPFlag=           0 FMFlag=      100000 FMFlg1=           0
         NFxFlg=           0 DoJE=T BraDBF=F KetDBF=T FulRan=T
         wScrn=  0.000000 ICntrl=     500 IOpCl=  0 I1Cent=   200000004 NGrid=           0
         NMat0=    1 NMatS0=      1 NMatT0=    0 NMatD0=    1 NMtDS0=    0 NMtDT0=    0
 Petite list used in FoFCou.
 Harris En= -568.353338540488    
 JPrj=0 DoOrth=F DoCkMO=F.
 Leave Link  401 at Fri Aug 27 07:48:38 2021, MaxMem= 24159191040 cpu:        17.8
 (Enter /public/home/users/caep010/software/Gaussian09/g09/l502.exe)
 Closed shell SCF:
 Using DIIS extrapolation, IDIIS=  1040.
 Integral symmetry usage will be decided dynamically.
 Keep R1 ints in memory in canonical form, NReq=2288577883.
 IVT=      519130 IEndB=      519130 NGot= 24159191040 MDV= 21903338370
 LenX= 21903338370 LenY= 21903176325
 Requested convergence on RMS density matrix=1.00D-08 within 128 cycles.
 Requested convergence on MAX density matrix=1.00D-06.
 Requested convergence on             energy=1.00D-06.
 No special actions if energy rises.
 FoFCou: FMM=F IPFlag=           0 FMFlag=           0 FMFlg1=           0
         NFxFlg=           0 DoJE=F BraDBF=F KetDBF=F FulRan=T
         wScrn=  0.000000 ICntrl=     600 IOpCl=  0 I1Cent=           0 NGrid=           0
         NMat0=    1 NMatS0=  67161 NMatT0=    0 NMatD0=    1 NMtDS0=    0 NMtDT0=    0
 Symmetry not used in FoFCou.
 Integral accuracy reduced to 1.0D-05 until final iterations.

 Cycle   1  Pass 0  IDiag  1:
 E= -567.846368469120    
 DIIS: error= 3.49D-02 at cycle   1 NSaved=   1.
 NSaved= 1 IEnMin= 1 EnMin= -567.846368469120     IErMin= 1 ErrMin= 3.49D-02
 ErrMax= 3.49D-02  0.00D+00 EMaxC= 1.00D-01 BMatC= 4.69D-01 BMatP= 4.69D-01
 IDIUse=3 WtCom= 6.51D-01 WtEn= 3.49D-01
 Coeff-Com:  0.100D+01
 Coeff-En:   0.100D+01
 Coeff:      0.100D+01
 Gap=     0.208 Goal=   None    Shift=    0.000
 GapD=    0.208 DampG=1.000 DampE=0.500 DampFc=0.5000 IDamp=-1.
 Damping current iteration by 5.00D-01
 RMSDP=3.78D-03 MaxDP=2.46D-01              OVMax= 3.37D-01

 Cycle   2  Pass 0  IDiag  1:
 E= -567.956781145243     Delta-E=       -0.110412676123 Rises=F Damp=T
 DIIS: error= 1.22D-02 at cycle   2 NSaved=   2.
 NSaved= 2 IEnMin= 2 EnMin= -567.956781145243     IErMin= 2 ErrMin= 1.22D-02
 ErrMax= 1.22D-02  0.00D+00 EMaxC= 1.00D-01 BMatC= 8.14D-02 BMatP= 4.69D-01
 IDIUse=3 WtCom= 8.78D-01 WtEn= 1.22D-01
 Coeff-Com:  0.229D+00 0.771D+00
 Coeff-En:   0.339D+00 0.661D+00
 Coeff:      0.243D+00 0.757D+00
 Gap=     0.188 Goal=   None    Shift=    0.000
 RMSDP=1.18D-03 MaxDP=7.86D-02 DE=-1.10D-01 OVMax= 2.50D-01

 Cycle   3  Pass 0  IDiag  1:
 E= -568.200722185511     Delta-E=       -0.243941040268 Rises=F Damp=F
 DIIS: error= 1.10D-02 at cycle   3 NSaved=   3.
 NSaved= 3 IEnMin= 3 EnMin= -568.200722185511     IErMin= 3 ErrMin= 1.10D-02
 ErrMax= 1.10D-02  0.00D+00 EMaxC= 1.00D-01 BMatC= 4.21D-02 BMatP= 8.14D-02
 IDIUse=3 WtCom= 8.90D-01 WtEn= 1.10D-01
 Coeff-Com:  0.569D-01 0.413D+00 0.530D+00
 Coeff-En:   0.000D+00 0.000D+00 0.100D+01
 Coeff:      0.506D-01 0.368D+00 0.582D+00
 Gap=     0.194 Goal=   None    Shift=    0.000
 RMSDP=7.26D-04 MaxDP=4.01D-02 DE=-2.44D-01 OVMax= 7.80D-02

 Cycle   4  Pass 0  IDiag  1:
 E= -568.226018131518     Delta-E=       -0.025295946007 Rises=F Damp=F
 DIIS: error= 7.84D-03 at cycle   4 NSaved=   4.
 NSaved= 4 IEnMin= 4 EnMin= -568.226018131518     IErMin= 4 ErrMin= 7.84D-03
 ErrMax= 7.84D-03  0.00D+00 EMaxC= 1.00D-01 BMatC= 1.45D-02 BMatP= 4.21D-02
 IDIUse=3 WtCom= 9.22D-01 WtEn= 7.84D-02
 Coeff-Com:  0.229D-01 0.148D+00 0.383D+00 0.447D+00
 Coeff-En:   0.000D+00 0.000D+00 0.286D+00 0.714D+00
 Coeff:      0.211D-01 0.136D+00 0.375D+00 0.468D+00
 Gap=     0.193 Goal=   None    Shift=    0.000
 RMSDP=3.64D-04 MaxDP=2.90D-02 DE=-2.53D-02 OVMax= 4.50D-02

 Cycle   5  Pass 0  IDiag  1:
 E= -568.237358933685     Delta-E=       -0.011340802168 Rises=F Damp=F
 DIIS: error= 2.59D-03 at cycle   5 NSaved=   5.
 NSaved= 5 IEnMin= 5 EnMin= -568.237358933685     IErMin= 5 ErrMin= 2.59D-03
 ErrMax= 2.59D-03  0.00D+00 EMaxC= 1.00D-01 BMatC= 2.37D-03 BMatP= 1.45D-02
 IDIUse=3 WtCom= 9.74D-01 WtEn= 2.59D-02
 Coeff-Com:  0.726D-02 0.235D-01 0.176D+00 0.340D+00 0.454D+00
 Coeff-En:   0.000D+00 0.000D+00 0.000D+00 0.126D+00 0.874D+00
 Coeff:      0.707D-02 0.229D-01 0.171D+00 0.334D+00 0.465D+00
 Gap=     0.190 Goal=   None    Shift=    0.000
 RMSDP=1.29D-04 MaxDP=8.85D-03 DE=-1.13D-02 OVMax= 1.39D-02

 Cycle   6  Pass 0  IDiag  1:
 E= -568.239083473070     Delta-E=       -0.001724539385 Rises=F Damp=F
 DIIS: error= 6.55D-04 at cycle   6 NSaved=   6.
 NSaved= 6 IEnMin= 6 EnMin= -568.239083473070     IErMin= 6 ErrMin= 6.55D-04
 ErrMax= 6.55D-04  0.00D+00 EMaxC= 1.00D-01 BMatC= 2.36D-04 BMatP= 2.37D-03
 IDIUse=3 WtCom= 9.93D-01 WtEn= 6.55D-03
 Coeff-Com:  0.257D-02 0.121D-02 0.765D-01 0.175D+00 0.309D+00 0.436D+00
 Coeff-En:   0.000D+00 0.000D+00 0.000D+00 0.000D+00 0.706D-01 0.929D+00
 Coeff:      0.256D-02 0.120D-02 0.760D-01 0.174D+00 0.307D+00 0.439D+00
 Gap=     0.190 Goal=   None    Shift=    0.000
 RMSDP=5.14D-05 MaxDP=4.27D-03 DE=-1.72D-03 OVMax= 7.37D-03

 Cycle   7  Pass 0  IDiag  1:
 E= -568.239250310026     Delta-E=       -0.000166836956 Rises=F Damp=F
 DIIS: error= 3.40D-04 at cycle   7 NSaved=   7.
 NSaved= 7 IEnMin= 7 EnMin= -568.239250310026     IErMin= 7 ErrMin= 3.40D-04
 ErrMax= 3.40D-04  0.00D+00 EMaxC= 1.00D-01 BMatC= 4.28D-05 BMatP= 2.36D-04
 IDIUse=3 WtCom= 9.97D-01 WtEn= 3.40D-03
 Coeff-Com:  0.939D-03-0.229D-02 0.321D-01 0.816D-01 0.162D+00 0.323D+00
 Coeff-Com:  0.402D+00
 Coeff-En:   0.000D+00 0.000D+00 0.000D+00 0.000D+00 0.000D+00 0.160D+00
 Coeff-En:   0.840D+00
 Coeff:      0.936D-03-0.228D-02 0.320D-01 0.814D-01 0.162D+00 0.323D+00
 Coeff:      0.404D+00
 Gap=     0.190 Goal=   None    Shift=    0.000
 RMSDP=1.97D-05 MaxDP=1.79D-03 DE=-1.67D-04 OVMax= 3.11D-03

 Cycle   8  Pass 0  IDiag  1:
 E= -568.239281464915     Delta-E=       -0.000031154888 Rises=F Damp=F
 DIIS: error= 8.42D-05 at cycle   8 NSaved=   8.
 NSaved= 8 IEnMin= 8 EnMin= -568.239281464915     IErMin= 8 ErrMin= 8.42D-05
 ErrMax= 8.42D-05  0.00D+00 EMaxC= 1.00D-01 BMatC= 4.36D-06 BMatP= 4.28D-05
 IDIUse=1 WtCom= 1.00D+00 WtEn= 0.00D+00
 Coeff-Com:  0.284D-03-0.167D-02 0.110D-01 0.308D-01 0.656D-01 0.157D+00
 Coeff-Com:  0.280D+00 0.457D+00
 Coeff:      0.284D-03-0.167D-02 0.110D-01 0.308D-01 0.656D-01 0.157D+00
 Coeff:      0.280D+00 0.457D+00
 Gap=     0.190 Goal=   None    Shift=    0.000
 RMSDP=6.28D-06 MaxDP=4.05D-04 DE=-3.12D-05 OVMax= 7.24D-04

 Initial convergence to 1.0D-05 achieved.  Increase integral accuracy.
 Cycle   9  Pass 1  IDiag  1:
 E= -568.239250844376     Delta-E=        0.000030620539 Rises=F Damp=F
 DIIS: error= 3.33D-05 at cycle   1 NSaved=   1.
 NSaved= 1 IEnMin= 1 EnMin= -568.239250844376     IErMin= 1 ErrMin= 3.33D-05
 ErrMax= 3.33D-05  0.00D+00 EMaxC= 1.00D-01 BMatC= 5.02D-07 BMatP= 5.02D-07
 IDIUse=1 WtCom= 1.00D+00 WtEn= 0.00D+00
 Coeff-Com:  0.100D+01
 Coeff:      0.100D+01
 Gap=     0.190 Goal=   None    Shift=    0.000
 RMSDP=6.28D-06 MaxDP=4.05D-04 DE= 3.06D-05 OVMax= 6.43D-04

 Cycle  10  Pass 1  IDiag  1:
 E= -568.239249742873     Delta-E=        0.000001101503 Rises=F Damp=F
 DIIS: error= 6.48D-05 at cycle   2 NSaved=   2.
 NSaved= 2 IEnMin= 1 EnMin= -568.239250844376     IErMin= 1 ErrMin= 3.33D-05
 ErrMax= 6.48D-05  0.00D+00 EMaxC= 1.00D-01 BMatC= 1.54D-06 BMatP= 5.02D-07
 IDIUse=1 WtCom= 1.00D+00 WtEn= 0.00D+00
 Coeff-Com:  0.651D+00 0.349D+00
 Coeff:      0.651D+00 0.349D+00
 Gap=     0.190 Goal=   None    Shift=    0.000
 RMSDP=3.75D-06 MaxDP=1.96D-04 DE= 1.10D-06 OVMax= 4.60D-04

 Cycle  11  Pass 1  IDiag  1:
 E= -568.239251266660     Delta-E=       -0.000001523787 Rises=F Damp=F
 DIIS: error= 1.47D-05 at cycle   3 NSaved=   3.
 NSaved= 3 IEnMin= 3 EnMin= -568.239251266660     IErMin= 3 ErrMin= 1.47D-05
 ErrMax= 1.47D-05  0.00D+00 EMaxC= 1.00D-01 BMatC= 8.81D-08 BMatP= 5.02D-07
 IDIUse=1 WtCom= 1.00D+00 WtEn= 0.00D+00
 Coeff-Com:  0.225D+00 0.206D+00 0.569D+00
 Coeff:      0.225D+00 0.206D+00 0.569D+00
 Gap=     0.190 Goal=   None    Shift=    0.000
 RMSDP=1.24D-06 MaxDP=1.11D-04 DE=-1.52D-06 OVMax= 1.95D-04

 Cycle  12  Pass 1  IDiag  1:
 E= -568.239251289123     Delta-E=       -0.000000022463 Rises=F Damp=F
 DIIS: error= 1.16D-05 at cycle   4 NSaved=   4.
 NSaved= 4 IEnMin= 4 EnMin= -568.239251289123     IErMin= 4 ErrMin= 1.16D-05
 ErrMax= 1.16D-05  0.00D+00 EMaxC= 1.00D-01 BMatC= 5.73D-08 BMatP= 8.81D-08
 IDIUse=1 WtCom= 1.00D+00 WtEn= 0.00D+00
 Coeff-Com:  0.160D-01 0.803D-01 0.475D+00 0.429D+00
 Coeff:      0.160D-01 0.803D-01 0.475D+00 0.429D+00
 Gap=     0.190 Goal=   None    Shift=    0.000
 RMSDP=6.63D-07 MaxDP=5.18D-05 DE=-2.25D-08 OVMax= 1.01D-04

 Cycle  13  Pass 1  IDiag  1:
 E= -568.239251335870     Delta-E=       -0.000000046748 Rises=F Damp=F
 DIIS: error= 2.16D-06 at cycle   5 NSaved=   5.
 NSaved= 5 IEnMin= 5 EnMin= -568.239251335870     IErMin= 5 ErrMin= 2.16D-06
 ErrMax= 2.16D-06  0.00D+00 EMaxC= 1.00D-01 BMatC= 3.47D-09 BMatP= 5.73D-08
 IDIUse=1 WtCom= 1.00D+00 WtEn= 0.00D+00
 Coeff-Com: -0.919D-02 0.364D-01 0.270D+00 0.281D+00 0.421D+00
 Coeff:     -0.919D-02 0.364D-01 0.270D+00 0.281D+00 0.421D+00
 Gap=     0.190 Goal=   None    Shift=    0.000
 RMSDP=1.64D-07 MaxDP=1.29D-05 DE=-4.67D-08 OVMax= 1.74D-05

 Cycle  14  Pass 1  IDiag  1:
 E= -568.239251338425     Delta-E=       -0.000000002555 Rises=F Damp=F
 DIIS: error= 1.01D-06 at cycle   6 NSaved=   6.
 NSaved= 6 IEnMin= 6 EnMin= -568.239251338425     IErMin= 6 ErrMin= 1.01D-06
 ErrMax= 1.01D-06  0.00D+00 EMaxC= 1.00D-01 BMatC= 3.37D-10 BMatP= 3.47D-09
 IDIUse=1 WtCom= 1.00D+00 WtEn= 0.00D+00
 Coeff-Com: -0.734D-02 0.179D-01 0.145D+00 0.154D+00 0.285D+00 0.405D+00
 Coeff:     -0.734D-02 0.179D-01 0.145D+00 0.154D+00 0.285D+00 0.405D+00
 Gap=     0.190 Goal=   None    Shift=    0.000
 RMSDP=4.87D-08 MaxDP=4.13D-06 DE=-2.55D-09 OVMax= 5.37D-06

 Cycle  15  Pass 1  IDiag  1:
 E= -568.239251338678     Delta-E=       -0.000000000252 Rises=F Damp=F
 DIIS: error= 2.71D-07 at cycle   7 NSaved=   7.
 NSaved= 7 IEnMin= 7 EnMin= -568.239251338678     IErMin= 7 ErrMin= 2.71D-07
 ErrMax= 2.71D-07  0.00D+00 EMaxC= 1.00D-01 BMatC= 1.82D-11 BMatP= 3.37D-10
 IDIUse=1 WtCom= 1.00D+00 WtEn= 0.00D+00
 Coeff-Com: -0.291D-02 0.588D-02 0.516D-01 0.543D-01 0.112D+00 0.231D+00
 Coeff-Com:  0.548D+00
 Coeff:     -0.291D-02 0.588D-02 0.516D-01 0.543D-01 0.112D+00 0.231D+00
 Coeff:      0.548D+00
 Gap=     0.190 Goal=   None    Shift=    0.000
 RMSDP=1.34D-08 MaxDP=7.88D-07 DE=-2.52D-10 OVMax= 1.66D-06

 Cycle  16  Pass 1  IDiag  1:
 E= -568.239251338690     Delta-E=       -0.000000000012 Rises=F Damp=F
 DIIS: error= 1.30D-07 at cycle   8 NSaved=   8.
 NSaved= 8 IEnMin= 8 EnMin= -568.239251338690     IErMin= 8 ErrMin= 1.30D-07
 ErrMax= 1.30D-07  0.00D+00 EMaxC= 1.00D-01 BMatC= 5.27D-12 BMatP= 1.82D-11
 IDIUse=1 WtCom= 1.00D+00 WtEn= 0.00D+00
 Coeff-Com: -0.715D-03 0.812D-03 0.948D-02 0.948D-02 0.239D-01 0.862D-01
 Coeff-Com:  0.387D+00 0.484D+00
 Coeff:     -0.715D-03 0.812D-03 0.948D-02 0.948D-02 0.239D-01 0.862D-01
 Coeff:      0.387D+00 0.484D+00
 Gap=     0.190 Goal=   None    Shift=    0.000
 RMSDP=4.91D-09 MaxDP=3.90D-07 DE=-1.18D-11 OVMax= 5.32D-07

 SCF Done:  E(RB3LYP) =  -568.239251339     A.U. after   16 cycles
            NFock= 16  Conv=0.49D-08     -V/T= 2.0040
 KE= 5.660020379845D+02 PE=-2.595156313421D+03 EE= 8.259111341615D+02
 Leave Link  502 at Fri Aug 27 07:49:49 2021, MaxMem= 24159191040 cpu:       383.5
 (Enter /public/home/users/caep010/software/Gaussian09/g09/l801.exe)
 DoSCS=F DFT=T ScalE2(SS,OS)=  1.000000  1.000000
 Range of M.O.s used for correlation:     1   366
 NBasis=   366 NAE=    42 NBE=    42 NFC=     0 NFV=     0
 NROrb=    366 NOA=    42 NOB=    42 NVA=   324 NVB=   324

 **** Warning!!: The largest alpha MO coefficient is  0.68136035D+02

 Leave Link  801 at Fri Aug 27 07:49:49 2021, MaxMem= 24159191040 cpu:         0.7
 (Enter /public/home/users/caep010/software/Gaussian09/g09/l1101.exe)
 Using compressed storage, NAtomX=    18.
 Will process     19 centers per pass.
 Leave Link 1101 at Fri Aug 27 07:49:50 2021, MaxMem= 24159191040 cpu:        20.9
 (Enter /public/home/users/caep010/software/Gaussian09/g09/l1102.exe)
 Symmetrizing basis deriv contribution to polar:
 IMax=3 JMax=2 DiffMx= 0.00D+00
 Leave Link 1102 at Fri Aug 27 07:49:50 2021, MaxMem= 24159191040 cpu:         2.2
 (Enter /public/home/users/caep010/software/Gaussian09/g09/l1110.exe)
 Forming Gx(P) for the SCF density, NAtomX=    18.
 Integral derivatives from FoFJK, PRISM(SPDF).
 Do as many integral derivatives as possible in FoFJK.
 G2DrvN: MDV=   24159190792.
 G2DrvN: will do    19 centers at a time, making    1 passes.
 Calling FoFCou, ICntrl=  3107 FMM=F I1Cent=   0 AccDes= 0.00D+00.
 FoFJK:  IHMeth= 1 ICntrl=    3107 DoSepK=F KAlg= 0 I1Cent=   0 FoldK=F
 IRaf=         0 NMat=   1 IRICut=       1 DoRegI=T DoRafI=F ISym2E= 0.
 FoFCou: FMM=F IPFlag=           0 FMFlag=      100000 FMFlg1=           0
         NFxFlg=           0 DoJE=F BraDBF=F KetDBF=F FulRan=T
         wScrn=  0.000000 ICntrl=    3107 IOpCl=  0 I1Cent=           0 NGrid=           0
         NMat0=    1 NMatS0=      1 NMatT0=    0 NMatD0=    1 NMtDS0=    0 NMtDT0=    0
 Symmetry not used in FoFCou.
 End of G2Drv F.D. properties file   721 does not exist.
 End of G2Drv F.D. properties file   722 does not exist.
 End of G2Drv F.D. properties file   788 does not exist.
 Leave Link 1110 at Fri Aug 27 07:50:13 2021, MaxMem= 24159191040 cpu:       712.5
 (Enter /public/home/users/caep010/software/Gaussian09/g09/l1002.exe)
 Minotr:  Closed shell wavefunction.
          IDoAtm=111111111111111111
          Direct CPHF calculation.
          Differentiating once with respect to nuclear coordinates.
          Requested convergence is 1.0D-08 RMS, and 1.0D-07 maximum.
          Secondary convergence is 1.0D-12 RMS, and 1.0D-12 maximum.
          NewPWx=T KeepS1=F KeepF1=F KeepIn=T MapXYZ=F SortEE=F KeepMc=T.
          MDV=   24159190490 using IRadAn=       2.
 Generate precomputed XC quadrature information.
 Keep R1 ints in memory in canonical form, NReq=2288065405.
 FoFCou: FMM=F IPFlag=           0 FMFlag=           0 FMFlg1=           0
         NFxFlg=           0 DoJE=F BraDBF=F KetDBF=F FulRan=T
         wScrn=  0.000000 ICntrl=     600 IOpCl=  0 I1Cent=           0 NGrid=           0
         NMat0=    1 NMatS0=  67161 NMatT0=    0 NMatD0=    1 NMtDS0=    0 NMtDT0=    0
 Symmetry not used in FoFCou.
          Solving linear equations simultaneously, MaxMat=       0.
          There are    57 degrees of freedom in the 1st order CPHF.  IDoFFX=6 NUNeed=     0.
     51 vectors produced by pass  0 Test12= 2.39D-14 1.75D-09 XBig12= 3.23D-01 1.70D-01.
 AX will form    51 AO Fock derivatives at one time.
     51 vectors produced by pass  1 Test12= 2.39D-14 1.75D-09 XBig12= 4.96D-01 2.93D-01.
     51 vectors produced by pass  2 Test12= 2.39D-14 1.75D-09 XBig12= 4.90D-03 1.09D-02.
     51 vectors produced by pass  3 Test12= 2.39D-14 1.75D-09 XBig12= 2.55D-05 5.56D-04.
     51 vectors produced by pass  4 Test12= 2.39D-14 1.75D-09 XBig12= 1.14D-07 3.23D-05.
     48 vectors produced by pass  5 Test12= 2.39D-14 1.75D-09 XBig12= 2.16D-10 2.05D-06.
     21 vectors produced by pass  6 Test12= 2.39D-14 1.75D-09 XBig12= 3.19D-13 9.92D-08.
      1 vectors produced by pass  7 Test12= 2.39D-14 1.75D-09 XBig12= 8.87D-16 2.61D-09.
 InvSVY:  IOpt=1 It=  1 EMax= 8.06D-16
 Solved reduced A of dimension   325 with    57 vectors.
 End of Minotr F.D. properties file   721 does not exist.
 End of Minotr F.D. properties file   722 does not exist.
 End of Minotr F.D. properties file   788 does not exist.
 Leave Link 1002 at Fri Aug 27 07:50:56 2021, MaxMem= 24159191040 cpu:      1253.5
 (Enter /public/home/users/caep010/software/Gaussian09/g09/l601.exe)
 Copying SCF densities to generalized density rwf, IOpCl= 0 IROHF=0.

 **********************************************************************

            Population analysis using the SCF density.

 **********************************************************************

 Orbital symmetries:
       Occupied  (A) (A) (A) (A) (A) (A) (A) (A) (A) (A) (A) (A)
                 (A) (A) (A) (A) (A) (A) (A) (A) (A) (A) (A) (A)
                 (A) (A) (A) (A) (A) (A) (A) (A) (A) (A) (A) (A)
                 (A) (A) (A) (A) (A) (A)
       Virtual   (A) (A) (A) (A) (A) (A) (A) (A) (A) (A) (A) (A)
                 (A) (A) (A) (A) (A) (A) (A) (A) (A) (A) (A) (A)
                 (A) (A) (A) (A) (A) (A) (A) (A) (A) (A) (A) (A)
                 (A) (A) (A) (A) (A) (A) (A) (A) (A) (A) (A) (A)
                 (A) (A) (A) (A) (A) (A) (A) (A) (A) (A) (A) (A)
                 (A) (A) (A) (A) (A) (A) (A) (A) (A) (A) (A) (A)
                 (A) (A) (A) (A) (A) (A) (A) (A) (A) (A) (A) (A)
                 (A) (A) (A) (A) (A) (A) (A) (A) (A) (A) (A) (A)
                 (A) (A) (A) (A) (A) (A) (A) (A) (A) (A) (A) (A)
                 (A) (A) (A) (A) (A) (A) (A) (A) (A) (A) (A) (A)
                 (A) (A) (A) (A) (A) (A) (A) (A) (A) (A) (A) (A)
                 (A) (A) (A) (A) (A) (A) (A) (A) (A) (A) (A) (A)
                 (A) (A) (A) (A) (A) (A) (A) (A) (A) (A) (A) (A)
                 (A) (A) (A) (A) (A) (A) (A) (A) (A) (A) (A) (A)
                 (A) (A) (A) (A) (A) (A) (A) (A) (A) (A) (A) (A)
                 (A) (A) (A) (A) (A) (A) (A) (A) (A) (A) (A) (A)
                 (A) (A) (A) (A) (A) (A) (A) (A) (A) (A) (A) (A)
                 (A) (A) (A) (A) (A) (A) (A) (A) (A) (A) (A) (A)
                 (A) (A) (A) (A) (A) (A) (A) (A) (A) (A) (A) (A)
                 (A) (A) (A) (A) (A) (A) (A) (A) (A) (A) (A) (A)
                 (A) (A) (A) (A) (A) (A) (A) (A) (A) (A) (A) (A)
                 (A) (A) (A) (A) (A) (A) (A) (A) (A) (A) (A) (A)
                 (A) (A) (A) (A) (A) (A) (A) (A) (A) (A) (A) (A)
                 (A) (A) (A) (A) (A) (A) (A) (A) (A) (A) (A) (A)
                 (A) (A) (A) (A) (A) (A) (A) (A) (A) (A) (A) (A)
                 (A) (A) (A) (A) (A) (A) (A) (A) (A) (A) (A) (A)
                 (A) (A) (A) (A) (A) (A) (A) (A) (A) (A) (A) (A)
 The electronic state is 1-A.
 Alpha  occ. eigenvalues --  -19.17981 -19.17965 -14.57522 -14.34193 -10.26514
 Alpha  occ. eigenvalues --  -10.25724 -10.24634 -10.23227 -10.22753 -10.22096
 Alpha  occ. eigenvalues --  -10.21263 -10.17615  -1.24334  -1.06419  -0.93484
 Alpha  occ. eigenvalues --   -0.91566  -0.85072  -0.81939  -0.78184  -0.70512
 Alpha  occ. eigenvalues --   -0.69152  -0.64662  -0.57803  -0.54890  -0.54650
 Alpha  occ. eigenvalues --   -0.53494  -0.51528  -0.50764  -0.49591  -0.48339
 Alpha  occ. eigenvalues --   -0.45098  -0.41878  -0.41127  -0.40938  -0.37226
 Alpha  occ. eigenvalues --   -0.37163  -0.35408  -0.31956  -0.31910  -0.30221
 Alpha  occ. eigenvalues --   -0.29660  -0.28825
 Alpha virt. eigenvalues --   -0.09814  -0.06840  -0.01720   0.02918   0.07118
 Alpha virt. eigenvalues --    0.09004   0.12227   0.13721   0.14759   0.16329
 Alpha virt. eigenvalues --    0.17273   0.18858   0.19066   0.19906   0.21166
 Alpha virt. eigenvalues --    0.25388   0.27043   0.28086   0.29623   0.31349
 Alpha virt. eigenvalues --    0.35255   0.36142   0.39096   0.41185   0.41819
 Alpha virt. eigenvalues --    0.43093   0.43776   0.46014   0.46315   0.48302
 Alpha virt. eigenvalues --    0.48456   0.48745   0.51404   0.51666   0.53443
 Alpha virt. eigenvalues --    0.53808   0.57800   0.58860   0.60065   0.60339
 Alpha virt. eigenvalues --    0.61373   0.63514   0.63985   0.64657   0.66733
 Alpha virt. eigenvalues --    0.66887   0.67733   0.70329   0.71038   0.72441
 Alpha virt. eigenvalues --    0.73316   0.74904   0.75685   0.76329   0.78012
 Alpha virt. eigenvalues --    0.78538   0.78689   0.80349   0.81145   0.81339
 Alpha virt. eigenvalues --    0.83314   0.84013   0.84313   0.85696   0.87491
 Alpha virt. eigenvalues --    0.88069   0.89248   0.90806   0.92951   0.94314
 Alpha virt. eigenvalues --    0.95210   0.95385   0.97232   0.97813   0.99906
 Alpha virt. eigenvalues --    1.01580   1.02427   1.03759   1.06632   1.10626
 Alpha virt. eigenvalues --    1.12003   1.12943   1.13725   1.16132   1.16619
 Alpha virt. eigenvalues --    1.18903   1.21814   1.23092   1.26598   1.27540
 Alpha virt. eigenvalues --    1.30964   1.31772   1.33102   1.33706   1.34535
 Alpha virt. eigenvalues --    1.36843   1.38108   1.39605   1.40984   1.41894
 Alpha virt. eigenvalues --    1.43240   1.45040   1.47627   1.48062   1.50138
 Alpha virt. eigenvalues --    1.52042   1.54513   1.55452   1.55614   1.59712
 Alpha virt. eigenvalues --    1.61076   1.64571   1.64919   1.66645   1.67465
 Alpha virt. eigenvalues --    1.69658   1.75103   1.79458   1.81624   1.82452
 Alpha virt. eigenvalues --    1.83098   1.84260   1.86444   1.90198   1.92084
 Alpha virt. eigenvalues --    1.95160   2.00167   2.03211   2.03856   2.06663
 Alpha virt. eigenvalues --    2.08359   2.12324   2.14597   2.17231   2.20667
 Alpha virt. eigenvalues --    2.25224   2.25854   2.28819   2.30932   2.35053
 Alpha virt. eigenvalues --    2.36513   2.41412   2.46824   2.53363   2.54599
 Alpha virt. eigenvalues --    2.55850   2.57433   2.62721   2.69924   2.70381
 Alpha virt. eigenvalues --    2.75797   2.76995   2.80455   2.82305   2.85925
 Alpha virt. eigenvalues --    2.87046   2.89292   2.91845   2.97023   2.98480
 Alpha virt. eigenvalues --    3.00207   3.01509   3.01909   3.05804   3.06150
 Alpha virt. eigenvalues --    3.07402   3.10221   3.10430   3.12909   3.13194
 Alpha virt. eigenvalues --    3.14813   3.19013   3.19867   3.21585   3.22989
 Alpha virt. eigenvalues --    3.25420   3.27032   3.29151   3.29995   3.32969
 Alpha virt. eigenvalues --    3.34483   3.35758   3.41433   3.43001   3.44939
 Alpha virt. eigenvalues --    3.45856   3.47670   3.48595   3.49564   3.51858
 Alpha virt. eigenvalues --    3.53231   3.55955   3.57785   3.59030   3.60250
 Alpha virt. eigenvalues --    3.60925   3.63098   3.64288   3.66563   3.67186
 Alpha virt. eigenvalues --    3.69336   3.70212   3.71285   3.72400   3.73472
 Alpha virt. eigenvalues --    3.74159   3.76872   3.79289   3.83101   3.86458
 Alpha virt. eigenvalues --    3.87113   3.93480   3.94431   3.94926   3.97367
 Alpha virt. eigenvalues --    3.98765   4.03066   4.04039   4.05273   4.09057
 Alpha virt. eigenvalues --    4.10184   4.11927   4.13859   4.15559   4.18822
 Alpha virt. eigenvalues --    4.20980   4.22173   4.23942   4.25551   4.26707
 Alpha virt. eigenvalues --    4.29143   4.30772   4.33227   4.35349   4.37278
 Alpha virt. eigenvalues --    4.38301   4.39841   4.40404   4.41720   4.43006
 Alpha virt. eigenvalues --    4.44370   4.47117   4.47415   4.50673   4.51189
 Alpha virt. eigenvalues --    4.52734   4.53532   4.55403   4.56389   4.58319
 Alpha virt. eigenvalues --    4.58499   4.60299   4.61982   4.63195   4.63326
 Alpha virt. eigenvalues --    4.66940   4.68772   4.71364   4.72706   4.75311
 Alpha virt. eigenvalues --    4.79967   4.89033   4.90026   4.91446   4.94892
 Alpha virt. eigenvalues --    4.96811   4.98533   4.99561   5.02174   5.03387
 Alpha virt. eigenvalues --    5.05410   5.07381   5.07671   5.08257   5.10578
 Alpha virt. eigenvalues --    5.14697   5.15272   5.20524   5.21909   5.24423
 Alpha virt. eigenvalues --    5.34186   5.35521   5.39244   5.40366   5.43197
 Alpha virt. eigenvalues --    5.46395   5.49121   5.52176   5.59988   5.61010
 Alpha virt. eigenvalues --    5.68192   5.72852   5.76001   5.82892   5.84430
 Alpha virt. eigenvalues --    5.93064   5.98567   6.01553   6.04043   6.09143
 Alpha virt. eigenvalues --    6.22235   6.25821   6.34488   6.36560   6.43195
 Alpha virt. eigenvalues --    6.72530   6.90266   6.97141   7.04825   8.98047
 Alpha virt. eigenvalues --    9.66424  10.26199  10.57364  10.93339  11.30026
 Alpha virt. eigenvalues --   11.42128  11.57415  11.76120  12.01637  12.79766
 Alpha virt. eigenvalues --   12.95194  13.17083  16.64073  22.80984
          Condensed to atoms (all electrons):
               1          2          3          4          5          6
     1  N    5.274020   0.322662  -0.017566  -0.012572   0.550978   0.544145
     2  C    0.322662   4.926473   0.412315  -0.022654  -0.133663  -0.130505
     3  C   -0.017566   0.412315   5.111562   0.318141   0.007994   0.006206
     4  H   -0.012572  -0.022654   0.318141   0.556761   0.000553   0.026296
     5  O    0.550978  -0.133663   0.007994   0.000553   7.997348  -0.104720
     6  O    0.544145  -0.130505   0.006206   0.026296  -0.104720   7.999810
     7  C   -0.024912   0.440704   0.001792   0.004911   0.005914   0.008193
     8  C    0.000697   0.026557  -0.109291   0.001195   0.001072  -0.000019
     9  H   -0.000100  -0.001426   0.003584   0.000087  -0.000009   0.000001
    10  C    0.000813  -0.045331   0.032722   0.004194   0.000010   0.000027
    11  H   -0.013545  -0.024482   0.003814  -0.000386   0.025932   0.000566
    12  C    0.000004   0.000877   0.007805  -0.000177   0.000000   0.000000
    13  H   -0.000000  -0.000034  -0.000097   0.000004   0.000000  -0.000000
    14  C    0.000044  -0.007781   0.449897  -0.007904  -0.000020   0.001296
    15  C   -0.000129   0.003067  -0.053412  -0.006897  -0.000000  -0.000027
    16  N    0.000000   0.000159  -0.005494   0.000646  -0.000000   0.000000
    17  H    0.000000   0.000033  -0.000233  -0.000004  -0.000000  -0.000000
    18  H    0.000000   0.000030  -0.000241  -0.000004  -0.000000   0.000000
               7          8          9         10         11         12
     1  N   -0.024912   0.000697  -0.000100   0.000813  -0.013545   0.000004
     2  C    0.440704   0.026557  -0.001426  -0.045331  -0.024482   0.000877
     3  C    0.001792  -0.109291   0.003584   0.032722   0.003814   0.007805
     4  H    0.004911   0.001195   0.000087   0.004194  -0.000386  -0.000177
     5  O    0.005914   0.001072  -0.000009   0.000010   0.025932   0.000000
     6  O    0.008193  -0.000019   0.000001   0.000027   0.000566   0.000000
     7  C    4.928029   0.482787  -0.022980   0.020194   0.326306   0.005948
     8  C    0.482787   4.842076   0.322086   0.557441  -0.015851  -0.059959
     9  H   -0.022980   0.322086   0.604507  -0.009494  -0.001698  -0.010551
    10  C    0.020194   0.557441  -0.009494   4.493728  -0.000283   0.403972
    11  H    0.326306  -0.015851  -0.001698  -0.000283   0.572246  -0.000270
    12  C    0.005948  -0.059959  -0.010551   0.403972  -0.000270   4.985484
    13  H    0.000222  -0.008041   0.005493  -0.016567  -0.000006   0.381875
    14  C   -0.073110   0.051140   0.002639   0.530363   0.003069  -0.056575
    15  C    0.000580   0.006944  -0.000318  -0.050981   0.000041  -0.019443
    16  N   -0.000045   0.000022   0.000002  -0.011989  -0.000000   0.000201
    17  H   -0.000207   0.001768  -0.000008  -0.008023   0.000005   0.381437
    18  H   -0.000184   0.001644  -0.000048  -0.008527   0.000005   0.382590
              13         14         15         16         17         18
     1  N   -0.000000   0.000044  -0.000129   0.000000   0.000000   0.000000
     2  C   -0.000034  -0.007781   0.003067   0.000159   0.000033   0.000030
     3  C   -0.000097   0.449897  -0.053412  -0.005494  -0.000233  -0.000241
     4  H    0.000004  -0.007904  -0.006897   0.000646  -0.000004  -0.000004
     5  O    0.000000  -0.000020  -0.000000  -0.000000  -0.000000  -0.000000
     6  O   -0.000000   0.001296  -0.000027   0.000000  -0.000000   0.000000
     7  C    0.000222  -0.073110   0.000580  -0.000045  -0.000207  -0.000184
     8  C   -0.008041   0.051140   0.006944   0.000022   0.001768   0.001644
     9  H    0.005493   0.002639  -0.000318   0.000002  -0.000008  -0.000048
    10  C   -0.016567   0.530363  -0.050981  -0.011989  -0.008023  -0.008527
    11  H   -0.000006   0.003069   0.000041  -0.000000   0.000005   0.000005
    12  C    0.381875  -0.056575  -0.019443   0.000201   0.381437   0.382590
    13  H    0.582544   0.004241   0.000331   0.000108  -0.035823  -0.035568
    14  C    0.004241   4.686129   0.338907   0.009929  -0.008061  -0.008085
    15  C    0.000331   0.338907   4.575288   0.991607   0.006948   0.006891
    16  N    0.000108   0.009929   0.991607   6.325191   0.000192   0.000185
    17  H   -0.035823  -0.008061   0.006948   0.000192   0.547028  -0.035234
    18  H   -0.035568  -0.008085   0.006891   0.000185  -0.035234   0.546803
 Mulliken charges:
               1
     1  N    0.375460
     2  C    0.232999
     3  C   -0.169497
     4  H    0.137809
     5  O   -0.351388
     6  O   -0.351269
     7  C   -0.104142
     8  C   -0.102269
     9  H    0.108234
    10  C    0.107730
    11  H    0.124537
    12  C   -0.403218
    13  H    0.121318
    14  C    0.083881
    15  C    0.200606
    16  N   -0.310715
    17  H    0.150182
    18  H    0.149743
 Sum of Mulliken charges =  -0.00000
 Mulliken charges with hydrogens summed into heavy atoms:
               1
     1  N    0.375460
     2  C    0.232999
     3  C   -0.031688
     5  O   -0.351388
     6  O   -0.351269
     7  C    0.020395
     8  C    0.005965
    10  C    0.107730
    12  C    0.018025
    14  C    0.083881
    15  C    0.200606
    16  N   -0.310715
 APT charges:
               1
     1  N   -1.274293
     2  C   -0.280155
     3  C   -0.337309
     4  H    0.362073
     5  O    0.686179
     6  O    0.463508
     7  C   -0.284635
     8  C   -0.195930
     9  H    0.493767
    10  C   -0.375753
    11  H    0.453392
    12  C   -0.762826
    13  H    0.441718
    14  C   -0.556465
    15  C   -2.136476
    16  N    2.527962
    17  H    0.387392
    18  H    0.387850
 Sum of APT charges =  -0.00000
 APT charges with hydrogens summed into heavy atoms:
               1
     1  N   -1.274293
     2  C   -0.280155
     3  C    0.024764
     5  O    0.686179
     6  O    0.463508
     7  C    0.168758
     8  C    0.297837
    10  C   -0.375753
    12  C    0.454135
    14  C   -0.556465
    15  C   -2.136476
    16  N    2.527962
 Electronic spatial extent (au):  <R**2>=           2178.3432
 Charge=              0.0000 electrons
 Dipole moment (field-independent basis, Debye):
    X=              1.8624    Y=             -4.3912    Z=              0.0251  Tot=              4.7699
 Quadrupole moment (field-independent basis, Debye-Ang):
   XX=            -84.8543   YY=            -68.4508   ZZ=            -65.5711
   XY=             -8.9838   XZ=              0.0160   YZ=             -0.7833
 Traceless Quadrupole moment (field-independent basis, Debye-Ang):
   XX=            -11.8956   YY=              4.5079   ZZ=              7.3876
   XY=             -8.9838   XZ=              0.0160   YZ=             -0.7833
 Octapole moment (field-independent basis, Debye-Ang**2):
  XXX=              1.5954  YYY=            -30.1194  ZZZ=              0.1101  XYY=            -20.6605
  XXY=            -44.4412  XXZ=              1.5402  XZZ=             -9.4249  YZZ=              1.9683
  YYZ=             -0.0520  XYZ=              2.0504
 Hexadecapole moment (field-independent basis, Debye-Ang**3):
 XXXX=          -2205.6510 YYYY=           -733.6923 ZZZZ=            -66.3921 XXXY=           -137.4147
 XXXZ=             -2.1824 YYYX=            -69.3092 YYYZ=             -0.7907 ZZZX=              0.4519
 ZZZY=              1.2409 XXYY=           -534.7689 XXZZ=           -319.2647 YYZZ=           -134.9567
 XXYZ=             -3.9849 YYXZ=              2.5374 ZZXY=             -6.6878
 N-N= 6.350038899358D+02 E-N=-2.595156301762D+03  KE= 5.660020379845D+02
  Exact polarizability:   0.000   0.000   0.000   0.000   0.000   0.000
 Approx polarizability: 221.288  25.819 208.524   1.535   3.565  74.586
 No NMR shielding tensors so no spin-rotation constants.
 Leave Link  601 at Fri Aug 27 07:50:57 2021, MaxMem= 24159191040 cpu:        15.5
 (Enter /public/home/users/caep010/software/Gaussian09/g09/l701.exe)
 Compute integral second derivatives.
 ... and contract with generalized density number  0.
 Leave Link  701 at Fri Aug 27 07:50:57 2021, MaxMem= 24159191040 cpu:        18.2
 (Enter /public/home/users/caep010/software/Gaussian09/g09/l702.exe)
 L702 exits ... SP integral derivatives will be done elsewhere.
 Leave Link  702 at Fri Aug 27 07:50:57 2021, MaxMem= 24159191040 cpu:         0.5
 (Enter /public/home/users/caep010/software/Gaussian09/g09/l703.exe)
 Compute integral second derivatives, UseDBF=F ICtDFT=           0.
 Integral derivatives from FoFJK, PRISM(SPDF).
 Calling FoFJK, ICntrl=    100147 FMM=F ISym2X=0 I1Cent= 0 IOpClX= 0 NMat=1 NMatS=1 NMatT=0.
 FoFJK:  IHMeth= 1 ICntrl=  100147 DoSepK=F KAlg= 0 I1Cent=   0 FoldK=F
 IRaf=         0 NMat=   1 IRICut=       1 DoRegI=T DoRafI=F ISym2E= 0.
 FoFCou: FMM=F IPFlag=           0 FMFlag=      100000 FMFlg1=         800
         NFxFlg=           0 DoJE=F BraDBF=F KetDBF=F FulRan=T
         wScrn=  0.000000 ICntrl=  100147 IOpCl=  0 I1Cent=           0 NGrid=           0
         NMat0=    1 NMatS0=      1 NMatT0=    0 NMatD0=    1 NMtDS0=    0 NMtDT0=    0
 Symmetry not used in FoFCou.
 Leave Link  703 at Fri Aug 27 07:51:41 2021, MaxMem= 24159191040 cpu:      1376.4
 (Enter /public/home/users/caep010/software/Gaussian09/g09/l716.exe)
 Dipole        = 7.32733262D-01-1.72761872D+00 9.86185302D-03
 Polarizability= 0.00000000D+00 0.00000000D+00 0.00000000D+00
                 0.00000000D+00 0.00000000D+00 0.00000000D+00
 ***** Axes restored to original set *****
 -------------------------------------------------------------------
 Center     Atomic                   Forces (Hartrees/Bohr)
 Number     Number              X              Y              Z
 -------------------------------------------------------------------
      1        7          -0.001954998   -0.003795251    0.003561215
      2        6           0.000129259   -0.002148657    0.001584534
      3        6           0.070362195    0.121887467    0.075329564
      4        1          -0.074043355   -0.127662709   -0.077143084
      5        8           0.008964013    0.006706986    0.011118268
      6        8          -0.006735686   -0.003083611   -0.013749809
      7        6          -0.044254619    0.006401211   -0.149392528
      8        6          -0.067107251   -0.112002979   -0.082646945
      9        1           0.073094233    0.128050345    0.081176037
     10        6          -0.002509255   -0.009166126    0.000079103
     11        1           0.043794199   -0.018099991    0.161355356
     12        6          -0.020194867   -0.105361103    0.064781334
     13        1           0.058140919    0.083512446    0.077476186
     14        6          -0.002710036    0.007258626   -0.014033359
     15        6           0.015332800   -0.007324120    0.055632347
     16        7          -0.013658958    0.005774787   -0.049312716
     17        1          -0.110803420    0.051299035   -0.043436451
     18        1           0.074154825   -0.022246357   -0.102379052
 -------------------------------------------------------------------
 Cartesian Forces:  Max     0.161355356 RMS     0.065300856
 FormGI is forming the generalized inverse of G from B-inverse, IUseBI=4.
 Leave Link  716 at Fri Aug 27 07:51:41 2021, MaxMem= 24159191040 cpu:         1.1
 (Enter /public/home/users/caep010/software/Gaussian09/g09/l103.exe)

 GradGradGradGradGradGradGradGradGradGradGradGradGradGradGradGradGradGrad
 Berny optimization.
 Red2BG is reusing G-inverse.
 Internal  Forces:  Max     0.168312186 RMS     0.041255556
 Search for a local minimum.
 Step number   1 out of a maximum of   91
 All quantities printed in internal units (Hartrees-Bohrs-Radians)
 RMS Force = .41256D-01 SwitMx=.10000D-02 MixMth= 1
 Mixed Optimization -- RFO/linear search
 Second derivative matrix not updated -- analytic derivatives used.
 ITU=  0
     Eigenvalues ---    0.00056   0.00473   0.01677   0.01849   0.01976
     Eigenvalues ---    0.02042   0.02226   0.02538   0.02713   0.02973
     Eigenvalues ---    0.03066   0.06235   0.06244   0.07814   0.09330
     Eigenvalues ---    0.11082   0.11406   0.11516   0.12638   0.13416
     Eigenvalues ---    0.14851   0.15441   0.17596   0.18039   0.18309
     Eigenvalues ---    0.19867   0.20220   0.22456   0.25434   0.28964
     Eigenvalues ---    0.32275   0.32412   0.34655   0.40286   0.44053
     Eigenvalues ---    0.44804   0.47975   0.49623   0.53642   0.64223
     Eigenvalues ---    0.71818   0.72075   0.72177   0.83566   0.85450
     Eigenvalues ---    0.85840   0.86157   1.41500
 RFO step:  Lambda=-1.45223961D-01 EMin= 5.60500780D-04
 Linear search not attempted -- first point.
 Maximum step size (   0.300) exceeded in Quadratic search.
    -- Step size scaled by   0.761
 Iteration  1 RMS(Cart)=  0.03544734 RMS(Int)=  0.00016379
 Iteration  2 RMS(Cart)=  0.00020395 RMS(Int)=  0.00000852
 Iteration  3 RMS(Cart)=  0.00000006 RMS(Int)=  0.00000852
 ITry= 1 IFail=0 DXMaxC= 1.34D-01 DCOld= 1.00D+10 DXMaxT= 3.00D-01 DXLimC= 3.00D+00 Rises=F
 Variable       Old X    -DE/DX   Delta X   Delta X   Delta X     New X
                                 (Linear)    (Quad)   (Total)
    R1        2.77083   0.00055   0.00000   0.00423   0.00423   2.77506
    R2        2.29969   0.01291   0.00000   0.00858   0.00858   2.30827
    R3        2.29979   0.01202   0.00000   0.00804   0.00804   2.30783
    R4        2.60746   0.00640   0.00000   0.00716   0.00716   2.61462
    R5        2.61706   0.00407   0.00000   0.00479   0.00479   2.62185
    R6        1.75648   0.16653   0.00000   0.12641   0.12641   1.88288
    R7        2.62576   0.00745   0.00000   0.00892   0.00892   2.63467
    R8        2.59762   0.01630   0.00000   0.01826   0.01827   2.61588
    R9        1.75533   0.16815   0.00000   0.12714   0.12714   1.88247
   R10        1.75680   0.16831   0.00000   0.12797   0.12797   1.88477
   R11        2.62814   0.00737   0.00000   0.00727   0.00727   2.63541
   R12        2.83641   0.00812   0.00000   0.00941   0.00941   2.84582
   R13        2.65981   0.00293   0.00000   0.00464   0.00464   2.66446
   R14        1.81347   0.12789   0.00000   0.11262   0.11262   1.92610
   R15        1.81319   0.12956   0.00000   0.11422   0.11422   1.92741
   R16        1.81469   0.12832   0.00000   0.11355   0.11355   1.92824
   R17        2.73110  -0.00665   0.00000  -0.01286  -0.01286   2.71824
   R18        2.14834   0.05149   0.00000   0.02530   0.02530   2.17364
    A1        2.06227  -0.00636   0.00000  -0.00791  -0.00791   2.05436
    A2        2.06974  -0.00813   0.00000  -0.01101  -0.01101   2.05873
    A3        2.15109   0.01450   0.00000   0.01897   0.01896   2.17005
    A4        2.07240  -0.00095   0.00000  -0.00035  -0.00035   2.07205
    A5        2.08008  -0.00115   0.00000  -0.00072  -0.00072   2.07936
    A6        2.13070   0.00210   0.00000   0.00107   0.00107   2.13177
    A7        2.11351  -0.00117   0.00000  -0.00537  -0.00536   2.10814
    A8        2.05502   0.00094   0.00000   0.00425   0.00424   2.05926
    A9        2.11466   0.00023   0.00000   0.00112   0.00112   2.11578
   A10        2.07508  -0.00235   0.00000  -0.00232  -0.00232   2.07276
   A11        2.10419  -0.00080   0.00000  -0.00538  -0.00538   2.09881
   A12        2.10391   0.00315   0.00000   0.00770   0.00770   2.11161
   A13        2.07828   0.00133   0.00000   0.00188   0.00188   2.08015
   A14        2.12895  -0.00261   0.00000  -0.00369  -0.00369   2.12526
   A15        2.07595   0.00128   0.00000   0.00182   0.00182   2.07777
   A16        2.12421  -0.00217   0.00000  -0.00415  -0.00415   2.12006
   A17        2.04492   0.00336   0.00000   0.00675   0.00675   2.05167
   A18        2.11404  -0.00119   0.00000  -0.00259  -0.00259   2.11145
   A19        1.91126   0.00104   0.00000   0.00645   0.00642   1.91768
   A20        1.91029   0.00181   0.00000   0.00808   0.00805   1.91834
   A21        1.91051   0.00172   0.00000   0.00791   0.00788   1.91839
   A22        1.90972  -0.00080   0.00000  -0.00495  -0.00499   1.90473
   A23        1.91050  -0.00081   0.00000  -0.00496  -0.00499   1.90551
   A24        1.91153  -0.00297   0.00000  -0.01253  -0.01255   1.89897
   A25        2.13157  -0.00143   0.00000  -0.00603  -0.00603   2.12553
   A26        2.07751  -0.00041   0.00000   0.00040   0.00040   2.07791
   A27        2.07384   0.00186   0.00000   0.00569   0.00569   2.07953
   A28        3.11968   0.00021   0.00000   0.00141   0.00141   3.12108
   A29        3.15262  -0.00138   0.00000  -0.00441  -0.00441   3.14820
    D1        2.97372   0.00008   0.00000   0.00158   0.00158   2.97530
    D2       -0.17355   0.00019   0.00000   0.00206   0.00206  -0.17149
    D3       -0.18117   0.00149   0.00000   0.00579   0.00579  -0.17538
    D4        2.95475   0.00160   0.00000   0.00627   0.00627   2.96102
    D5       -0.00596   0.00015   0.00000   0.00077   0.00077  -0.00519
    D6        3.13565   0.00020   0.00000   0.00099   0.00099   3.13664
    D7        3.14148   0.00005   0.00000   0.00028   0.00028  -3.14142
    D8       -0.00009   0.00010   0.00000   0.00050   0.00050   0.00041
    D9       -3.12272  -0.00037   0.00000  -0.00163  -0.00163  -3.12435
   D10        0.01904  -0.00028   0.00000  -0.00131  -0.00131   0.01772
   D11        0.01300  -0.00027   0.00000  -0.00114  -0.00114   0.01186
   D12       -3.12843  -0.00018   0.00000  -0.00082  -0.00082  -3.12925
   D13       -0.01215   0.00013   0.00000   0.00055   0.00055  -0.01160
   D14       -3.12873  -0.00049   0.00000  -0.00219  -0.00219  -3.13092
   D15        3.12946   0.00018   0.00000   0.00078   0.00078   3.13024
   D16        0.01288  -0.00044   0.00000  -0.00197  -0.00196   0.01092
   D17        3.12725   0.00024   0.00000   0.00097   0.00097   3.12822
   D18       -0.01419   0.00019   0.00000   0.00078   0.00078  -0.01341
   D19       -0.01450   0.00015   0.00000   0.00065   0.00065  -0.01386
   D20        3.12725   0.00011   0.00000   0.00046   0.00046   3.12770
   D21       -3.13311  -0.00008   0.00000  -0.00035  -0.00035  -3.13346
   D22        0.00253   0.00005   0.00000   0.00020   0.00020   0.00273
   D23        0.00864  -0.00012   0.00000  -0.00054  -0.00054   0.00810
   D24       -3.13890   0.00000   0.00000   0.00001   0.00001  -3.13889
   D25        0.01734   0.00007   0.00000   0.00024   0.00024   0.01758
   D26       -2.07611  -0.00069   0.00000  -0.00258  -0.00259  -2.07870
   D27        2.11187   0.00078   0.00000   0.00298   0.00298   2.11486
   D28       -3.11807  -0.00007   0.00000  -0.00036  -0.00036  -3.11843
   D29        1.07167  -0.00083   0.00000  -0.00319  -0.00319   1.06847
   D30       -1.02354   0.00064   0.00000   0.00238   0.00238  -1.02115
   D31        0.01098  -0.00022   0.00000  -0.00091  -0.00091   0.01007
   D32        3.12761   0.00037   0.00000   0.00175   0.00175   3.12936
   D33       -3.13652  -0.00010   0.00000  -0.00037  -0.00037  -3.13690
   D34       -0.01989   0.00049   0.00000   0.00229   0.00229  -0.01760
         Item               Value     Threshold  Converged?
 Maximum Force            0.168312     0.000450     NO 
 RMS     Force            0.041256     0.000300     NO 
 Maximum Displacement     0.134500     0.001800     NO 
 RMS     Displacement     0.035461     0.001200     NO 
 Predicted change in Energy=-7.502130D-02
 Lowest energy point so far.  Saving SCF results.
 GradGradGradGradGradGradGradGradGradGradGradGradGradGradGradGradGradGrad

 Leave Link  103 at Fri Aug 27 07:51:41 2021, MaxMem= 24159191040 cpu:         5.5
 (Enter /public/home/users/caep010/software/Gaussian09/g09/l202.exe)
                          Input orientation:                          
 ---------------------------------------------------------------------
 Center     Atomic      Atomic             Coordinates (Angstroms)
 Number     Number       Type             X           Y           Z
 ---------------------------------------------------------------------
      1          7           0        3.177558    2.508195    4.782776
      2          6           0        3.454717    3.756887    4.061365
      3          6           0        3.084600    3.852693    2.731638
      4          1           0        2.642473    3.088973    2.269006
      5          8           0        3.665845    2.374136    5.894364
      6          8           0        2.467573    1.677474    4.237545
      7          6           0        4.071553    4.802505    4.733033
      8          6           0        4.310397    5.983318    4.051252
      9          1           0        4.743015    6.743074    4.531228
     10          6           0        3.962317    6.140009    2.709913
     11          1           0        4.335667    4.699224    5.687974
     12          6           0        4.234676    7.424113    1.971838
     13          1           0        4.699013    8.087684    2.590653
     14          6           0        3.349551    5.047178    2.063188
     15          6           0        2.962440    5.176557    0.683882
     16          7           0        2.647476    5.303776   -0.415055
     17          1           0        3.357784    7.829404    1.644602
     18          1           0        4.833545    7.241598    1.166096
 ---------------------------------------------------------------------
                    Distance matrix (angstroms):
                    1          2          3          4          5
     1  N    0.000000
     2  C    1.468497   0.000000
     3  C    2.454279   1.383596   0.000000
     4  H    2.634892   2.078076   0.996380   0.000000
     5  O    1.221484   2.305745   3.539323   3.834253   0.000000
     6  O    1.221250   2.308560   2.716626   2.428593   2.160149
     7  C    2.462836   1.387422   2.425242   3.324137   2.722179
     8  C    3.727591   2.385223   2.789896   3.786238   4.103499
     9  H    4.521962   3.286000   3.787237   4.783552   4.701707
    10  C    4.254725   2.786279   2.450035   3.353387   4.940690
    11  H    2.638410   2.076037   3.319895   4.141153   2.428434
    12  C    5.760654   4.292203   3.828187   4.627835   6.419661
    13  H    6.184733   4.739943   4.534462   5.414787   6.680311
    14  C    3.724537   2.380887   1.394209   2.092101   4.682211
    15  C    4.895647   3.696646   2.441484   2.640644   5.957974
    16  N    5.925682   4.804460   3.492620   3.479879   7.030550
    17  H    6.180283   4.736617   4.131647   4.834588   6.922090
    18  H    6.182861   4.735711   4.122427   4.823017   6.885653
                    6          7          8          9         10
     6  O    0.000000
     7  C    3.547404   0.000000
     8  C    4.687323   1.384266   0.000000
     9  H    5.560953   2.063346   0.997379   0.000000
    10  C    4.947943   2.427729   1.394598   2.071320   0.000000
    11  H    3.837251   0.996160   2.080480   2.383552   3.329280
    12  C    6.424947   3.810990   2.530926   2.696794   1.505941
    13  H    6.984437   3.971888   2.590892   2.361300   2.085756
    14  C    4.106168   2.776549   2.398329   3.302881   1.409969
    15  C    5.011686   4.214934   3.715782   4.519568   2.456174
    16  N    5.901620   5.364893   4.814040   5.561347   3.491921
    17  H    6.735138   4.382921   3.179225   3.381063   2.086721
    18  H    6.781674   4.387807   3.190780   3.403063   2.087081
                   11         12         13         14         15
    11  H    0.000000
    12  C    4.609218   0.000000
    13  H    4.605114   1.019248   0.000000
    14  C    3.772608   2.538033   3.368076   0.000000
    15  C    5.211001   2.885988   3.889231   1.438429   0.000000
    16  N    6.361009   3.565430   4.581837   2.588521   1.150239
    17  H    5.206068   1.019943   1.661510   2.813550   2.849014
    18  H    5.211423   1.020380   1.662325   2.796872   2.828066
                   16         17         18
    16  N    0.000000
    17  H    3.335495   0.000000
    18  H    3.321760   1.659022   0.000000
 Stoichiometry    C8H6N2O2
 Framework group  C1[X(C8H6N2O2)]
 Deg. of freedom    48
 Full point group                 C1      NOp   1
 RotChk:  IX=0 Diff= 1.16D-03
 Largest Abelian subgroup         C1      NOp   1
 Largest concise Abelian subgroup C1      NOp   1
                         Standard orientation:                         
 ---------------------------------------------------------------------
 Center     Atomic      Atomic             Coordinates (Angstroms)
 Number     Number       Type             X           Y           Z
 ---------------------------------------------------------------------
      1          7           0       -2.547328    0.328278   -0.001227
      2          6           0       -1.143446   -0.102523   -0.004192
      3          6           0       -0.152011    0.862201   -0.030719
      4          1           0       -0.383597    1.831060   -0.051964
      5          8           0       -3.404452   -0.527948   -0.156911
      6          8           0       -2.781660    1.515105    0.166056
      7          6           0       -0.852932   -1.458856    0.025896
      8          6           0        0.473097   -1.855741    0.043783
      9          1           0        0.689079   -2.828885    0.077073
     10          6           0        1.516713   -0.931066    0.016459
     11          1           0       -1.589232   -2.129775    0.033925
     12          6           0        2.957036   -1.370656    0.025721
     13          1           0        3.008605   -2.388540    0.036631
     14          6           0        1.175553    0.436314   -0.027072
     15          6           0        2.224851    1.420114   -0.040875
     16          7           0        3.077463    2.192182   -0.037325
     17          1           0        3.427060   -1.003230    0.852981
     18          1           0        3.432874   -1.019825   -0.805947
 ---------------------------------------------------------------------
 Rotational constants (GHZ):      1.8663192      0.6264135      0.4710397
 Leave Link  202 at Fri Aug 27 07:51:41 2021, MaxMem= 24159191040 cpu:         0.3
 (Enter /public/home/users/caep010/software/Gaussian09/g09/l301.exe)
 Standard basis: GTBas3 (6D, 7F)
 Ernie: Thresh=  0.10000D-02 Tol=  0.10000D-05 Strict=F.
 There are   402 symmetry adapted cartesian basis functions of A   symmetry.
 There are   366 symmetry adapted basis functions of A   symmetry.
   366 basis functions,   570 primitive gaussians,   402 cartesian basis functions
    42 alpha electrons       42 beta electrons
       nuclear repulsion energy       631.3153988879 Hartrees.
 IExCor=  402 DFT=T Ex+Corr=B3LYP ExCW=0 ScaHFX=  0.200000
 ScaDFX=  0.800000  0.720000  1.000000  0.810000 ScalE2=  1.000000  1.000000
 IRadAn=      0 IRanWt=     -1 IRanGd=            0 ICorTp=0 IEmpDi=  4
 NAtoms=   18 NActive=   18 NUniq=   18 SFac= 1.00D+00 NAtFMM=   60 NAOKFM=F Big=F
 Integral buffers will be    131072 words long.
 Raffenetti 2 integral format.
 Two-electron integral symmetry is turned on.
 Leave Link  301 at Fri Aug 27 07:51:41 2021, MaxMem= 24159191040 cpu:         3.7
 (Enter /public/home/users/caep010/software/Gaussian09/g09/l302.exe)
 NPDir=0 NMtPBC=     1 NCelOv=     1 NCel=       1 NClECP=     1 NCelD=      1
         NCelK=      1 NCelE2=     1 NClLst=     1 CellRange=     0.0.
 One-electron integrals computed using PRISM.
 NBasis=   366 RedAO= T EigKep=  9.62D-05  NBF=   366
 NBsUse=   366 1.00D-06 EigRej= -1.00D+00 NBFU=   366
 Precomputing XC quadrature grid using
 IXCGrd= 4 IRadAn=           0 IRanWt=          -1 IRanGd=           0 AccXCQ= 0.00D+00.
 Generated NRdTot=       0 NPtTot=           0 NUsed=           0 NTot=          32
 NSgBfM=   402   402   402   402   402 MxSgAt=    18 MxSgA2=    18.
 Leave Link  302 at Fri Aug 27 07:51:42 2021, MaxMem= 24159191040 cpu:        17.1
 (Enter /public/home/users/caep010/software/Gaussian09/g09/l303.exe)
 DipDrv:  MaxL=1.
 Leave Link  303 at Fri Aug 27 07:51:42 2021, MaxMem= 24159191040 cpu:         1.0
 (Enter /public/home/users/caep010/software/Gaussian09/g09/l401.exe)
 Initial guess from the checkpoint file:  "/public/home/users/caep010/.cache/gau_scr/Gau-201461.chk"
 B after Tr=     0.000000    0.000000    0.000000
         Rot=    1.000000    0.000006   -0.000043    0.000330 Ang=   0.04 deg.
 Guess basis will be translated and rotated to current coordinates.
 JPrj=2 DoOrth=T DoCkMO=T.
 Generating alternative initial guess.
 ExpMin= 1.61D-01 ExpMax= 5.48D+03 ExpMxC= 8.25D+02 IAcc=1 IRadAn=         1 AccDes= 0.00D+00
 Harris functional with IExCor=  402 and IRadAn=       1 diagonalized for initial guess.
 HarFok:  IExCor=  402 AccDes= 0.00D+00 IRadAn=         1 IDoV= 1 UseB2=F ITyADJ=14
 ICtDFT=  3500011 ScaDFX=  1.000000  1.000000  1.000000  1.000000
 FoFCou: FMM=F IPFlag=           0 FMFlag=      100000 FMFlg1=           0
         NFxFlg=           0 DoJE=T BraDBF=F KetDBF=T FulRan=T
         wScrn=  0.000000 ICntrl=     500 IOpCl=  0 I1Cent=   200000004 NGrid=           0
         NMat0=    1 NMatS0=      1 NMatT0=    0 NMatD0=    1 NMtDS0=    0 NMtDT0=    0
 Petite list used in FoFCou.
 Harris En= -568.385863453983    
 Leave Link  401 at Fri Aug 27 07:51:43 2021, MaxMem= 24159191040 cpu:        21.6
 (Enter /public/home/users/caep010/software/Gaussian09/g09/l502.exe)
 Closed shell SCF:
 Using DIIS extrapolation, IDIIS=  1040.
 Integral symmetry usage will be decided dynamically.
 Keep R1 ints in memory in canonical form, NReq=2288577883.
 IVT=      519130 IEndB=      519130 NGot= 24159191040 MDV= 21903338370
 LenX= 21903338370 LenY= 21903176325
 Requested convergence on RMS density matrix=1.00D-08 within 128 cycles.
 Requested convergence on MAX density matrix=1.00D-06.
 Requested convergence on             energy=1.00D-06.
 No special actions if energy rises.
 FoFCou: FMM=F IPFlag=           0 FMFlag=           0 FMFlg1=           0
         NFxFlg=           0 DoJE=F BraDBF=F KetDBF=F FulRan=T
         wScrn=  0.000000 ICntrl=     600 IOpCl=  0 I1Cent=           0 NGrid=           0
         NMat0=    1 NMatS0=  67161 NMatT0=    0 NMatD0=    1 NMtDS0=    0 NMtDT0=    0
 Symmetry not used in FoFCou.
 Integral accuracy reduced to 1.0D-05 until final iterations.

 Cycle   1  Pass 0  IDiag  1:
 E= -568.313038318542    
 DIIS: error= 4.39D-03 at cycle   1 NSaved=   1.
 NSaved= 1 IEnMin= 1 EnMin= -568.313038318542     IErMin= 1 ErrMin= 4.39D-03
 ErrMax= 4.39D-03  0.00D+00 EMaxC= 1.00D-01 BMatC= 5.50D-03 BMatP= 5.50D-03
 IDIUse=3 WtCom= 9.56D-01 WtEn= 4.39D-02
 Coeff-Com:  0.100D+01
 Coeff-En:   0.100D+01
 Coeff:      0.100D+01
 Gap=     1.067 Goal=   None    Shift=    0.000
 GapD=    1.067 DampG=2.000 DampE=1.000 DampFc=2.0000 IDamp=-1.
 RMSDP=5.53D-04 MaxDP=2.80D-02              OVMax= 1.72D-02

 Cycle   2  Pass 0  IDiag  1:
 E= -568.316913821230     Delta-E=       -0.003875502689 Rises=F Damp=F
 DIIS: error= 2.12D-03 at cycle   2 NSaved=   2.
 NSaved= 2 IEnMin= 2 EnMin= -568.316913821230     IErMin= 2 ErrMin= 2.12D-03
 ErrMax= 2.12D-03  0.00D+00 EMaxC= 1.00D-01 BMatC= 1.18D-03 BMatP= 5.50D-03
 IDIUse=3 WtCom= 9.79D-01 WtEn= 2.12D-02
 Coeff-Com:  0.254D+00 0.746D+00
 Coeff-En:   0.000D+00 0.100D+01
 Coeff:      0.248D+00 0.752D+00
 Gap=     0.188 Goal=   None    Shift=    0.000
 RMSDP=1.53D-04 MaxDP=1.15D-02 DE=-3.88D-03 OVMax= 1.44D-02

 Cycle   3  Pass 0  IDiag  1:
 E= -568.317427557783     Delta-E=       -0.000513736553 Rises=F Damp=F
 DIIS: error= 1.23D-03 at cycle   3 NSaved=   3.
 NSaved= 3 IEnMin= 3 EnMin= -568.317427557783     IErMin= 3 ErrMin= 1.23D-03
 ErrMax= 1.23D-03  0.00D+00 EMaxC= 1.00D-01 BMatC= 6.94D-04 BMatP= 1.18D-03
 IDIUse=3 WtCom= 9.88D-01 WtEn= 1.23D-02
 Coeff-Com:  0.392D-01 0.431D+00 0.530D+00
 Coeff-En:   0.000D+00 0.364D+00 0.636D+00
 Coeff:      0.387D-01 0.430D+00 0.531D+00
 Gap=     0.188 Goal=   None    Shift=    0.000
[...]
 42244705,4.5606293503\C,0,3.9631653669,6.1366276896,2.7089901373\H,0,4
 .3585735215,4.6647041792,5.7704276243\C,0,4.2385310565,7.4191271464,1.
 9734822198\H,0,4.7354491395,8.1447534469,2.620127456\C,0,3.324318065,5
 .0554459123,2.0615177395\C,0,2.9343211354,5.1810034367,0.6900574273\N,
 0,2.6257990872,5.2999917916,-0.4193103966\H,0,3.3107127299,7.865449425
 4,1.6002618346\H,0,4.8732696732,7.2423305158,1.098733151\\Version=ES64
 L-G09RevE.01\State=1-A\MP2/GTBas1=-566.6484833\MP4/GTBas1=-566.7726135
 \CCSD(T)/G3Bas1=-566.755554\MP2/GTBas2=-566.6819835\MP4/GTBas2=-566.80
 80576\MP2/GTBas3=-567.0203967\MP4/GTBas3=-567.1650407\HF/GTLargeXP=-56
 5.1249783\MP2/GTLargeXP=-567.7939782\HF/GFHFB1=-565.1695794\HF/GFHFB2=
 -565.1778621\G4=-568.059725\FreqCoord=6.0022597679,4.7126878445,9.0391
 292044,6.514601012,7.0898602021,7.6818288308,5.7919802702,7.2963117257
 ,5.1731604938,4.8687623145,5.7270827965,4.2458962262,6.6628414677,4.58
 94078016,11.2514004748,4.9513926247,3.0203982356,7.8666693377,7.705181
 1701,9.0586672187,8.9458114549,8.1789443498,11.2915725594,7.6475649346
 ,9.1075267719,12.8392235345,8.6183404657,7.4892971627,11.5965457128,5.
 1192494561,8.2365102858,8.8150133896,10.9045278797,8.0096629025,14.020
 1184517,3.7293409235,8.9487019899,15.3913534345,4.951323325,6.28205072
 14,9.5534082539,3.8957039457,5.5450633318,9.7906775888,1.3040195535,4.
 9620411547,10.0155329926,-0.7923818142,6.2563403641,14.863545326,3.024
 0566082,9.2091450541,13.6860212387,2.0763047484\PG=C01 [X(C8H6N2O2)]\N
 Imag=0\\0.38026533,0.18359976,0.64509810,0.22021405,0.06438219,0.84281
 049,-0.09053843,-0.00863811,-0.00405887,0.26485322,-0.00849699,-0.1129
 4564,0.00726343,0.15981496,0.52687037,-0.00423468,0.00682273,-0.107466
 03,0.17447936,0.02372606,0.65945341,0.00456640,0.00539915,0.00771373,-
 0.09617100,-0.00648878,-0.08587377,0.26640562,0.00749959,-0.00822339,0
 .03351457,-0.02299866,-0.10806197,-0.01944674,0.19486240,0.64546863,0.
 00510367,0.02697029,-0.01766903,-0.06535716,0.03200781,-0.30949722,0.1
 5482104,-0.02202350,0.64891281,-0.00465712,0.00017861,0.00074189,0.001
 75323,-0.00724650,-0.00409176,-0.10306627,-0.10656421,-0.06638024,0.09
 698569,0.00133541,-0.00072040,-0.00111434,0.00054327,0.00662848,0.0008
 5682,-0.10657941,-0.22374643,-0.10293042,0.11769154,0.23484726,-0.0006
 9555,-0.00472011,-0.00126926,-0.01377178,-0.02342011,-0.00786206,-0.06
 636131,-0.10288321,-0.11824909,0.07284630,0.10812032,0.11936016,-0.118
 65337,-0.00658755,-0.11775367,0.01924860,0.00124695,-0.00545432,0.0020
 3085,-0.00138008,-0.00069914,0.00060098,-0.00055321,0.00061801,0.09576
 695,-0.00429205,-0.13008186,0.05103834,0.00593923,0.00064629,0.0431877
 7,-0.00365298,-0.00479534,-0.00193921,-0.00002898,-0.00003119,0.000722
 89,0.02571889,0.12215456,-0.12060621,0.04388357,-0.50872050,-0.0112858
 1,0.02856193,-0.05017305,0.00212560,0.00514514,0.00303621,-0.00003325,
 -0.00091116,0.00165130,0.17683067,-0.03587543,0.62455557,-0.17467242,-
 0.15945840,-0.10182838,0.00640559,-0.03008603,-0.00672978,-0.00031611,
 0.00101660,-0.00457385,0.00030016,-0.00022558,0.00146910,0.00254975,-0
 .02412856,-0.04595739,0.16384203,-0.16174872,-0.36793220,-0.14438738,-
 0.03474655,-0.05447042,-0.01506017,-0.00206544,-0.00110525,-0.00413704
 ,-0.00044610,-0.00310579,0.00236789,-0.01540460,0.02071045,-0.04030770
 ,0.21446143,0.41144159,-0.09898183,-0.13724825,-0.21638773,-0.00093799
 ,-0.00053376,0.01829938,-0.00074389,0.00546968,-0.00836876,0.00174317,
 0.00305536,0.00155498,-0.05679924,-0.06750025,-0.06624418,0.15391611,0
 .19314243,0.26868494,-0.00214941,-0.01147130,0.00768924,-0.12064451,-0
 .09180857,-0.05487108,0.00109495,0.00209456,-0.03561796,0.00336173,-0.
 00061579,-0.00203855,-0.00128491,-0.00175400,-0.00414742,0.00297474,0.
 00113856,-0.00112909,0.25255294,-0.01355713,-0.03687753,0.00352360,-0.
 07464286,-0.21340513,-0.04999202,-0.01032478,0.03473839,-0.06082159,-0
 .00047822,0.00108690,0.00245428,-0.00473481,-0.00536304,-0.00716723,-0
 .00126405,-0.00103510,0.00092892,0.16340577,0.60484464,0.01028041,0.01
 002199,0.01954325,-0.07620211,-0.10349029,-0.17531978,-0.02018490,-0.0
 2211585,-0.02373720,-0.00220949,0.00202567,-0.00514192,-0.00044253,0.0
 0212465,-0.00327432,0.00185649,0.00841710,-0.00179004,0.15307482,-0.07
 051502,0.70298146,0.00492577,-0.00440601,-0.00505246,0.00219339,-0.016
 46917,0.00633377,-0.00607587,0.00363673,-0.00057960,0.00026176,0.00018
 399,0.00011524,0.00004284,0.00107861,0.00068814,-0.00123963,-0.0005206
 5,0.00099362,-0.08022599,-0.06435298,0.01424602,0.25492198,-0.00464263
 ,0.00271906,-0.00752996,-0.03050552,-0.05124067,-0.02303752,0.00471409
 ,-0.01956911,0.02988867,0.00019191,0.00002825,0.00075126,0.00139512,0.
 00128119,0.00200073,-0.00037515,-0.00305437,0.00094764,-0.04489682,-0.
 27387382,0.12692213,0.19550523,0.64742559,-0.00475837,-0.00679204,0.00
 191446,0.02377612,0.02070804,0.05509566,-0.00191844,0.02653125,-0.0462
 8856,0.00010534,0.00072648,-0.00042292,0.00029478,0.00101379,-0.000949
 59,0.00081315,0.00049475,0.00056837,-0.00993163,0.06628470,-0.17246097
 ,0.14533104,-0.03326380,0.62460646,0.00060940,-0.00010472,-0.00055016,
 0.00614026,-0.00248263,-0.00071847,-0.00003770,0.00034087,0.00006732,-
 0.00076036,0.00027161,0.00024756,0.00001932,-0.00006208,0.00009300,-0.
 00039668,-0.00003201,0.00014943,-0.00029538,-0.00312159,-0.00284046,-0
 .09835675,-0.10246004,-0.06606268,0.09439280,-0.00076933,0.00007804,-0
 .00146612,-0.00209254,-0.00154473,0.00454508,0.00026583,-0.00004249,0.
 00063872,0.00026867,-0.00015070,-0.00015356,0.00006250,-0.00009300,0.0
 0032807,-0.00010726,-0.00083801,0.00017032,-0.01203261,-0.01713707,-0.
 01389277,-0.10273366,-0.21390018,-0.09948542,0.11329542,0.22657258,0.0
 0027572,0.00060515,0.00093497,-0.00120319,0.00332931,-0.00052642,0.000
 16054,0.00087261,-0.00077924,0.00025121,-0.00014439,0.00001425,-0.0000
 6182,-0.00006019,-0.00010362,0.00024300,0.00040501,-0.00017781,0.00823
 301,0.01387911,0.01027237,-0.06572259,-0.09863262,-0.11856720,0.072850
 68,0.10365305,0.12408123,-0.00210133,-0.00100747,-0.00093716,-0.016795
 38,-0.00716477,-0.02154205,0.00438105,-0.02937404,0.02251133,0.0054700
 3,-0.00200378,-0.00107299,0.00024624,0.00049855,-0.00039069,0.00028347
 ,-0.00027868,0.00066145,0.01627790,0.02808135,0.00286285,-0.09260069,-
 0.02251331,-0.05291190,-0.00078149,0.00132846,-0.01383054,0.27518318,-
 0.00104349,-0.00413975,0.00015361,-0.00729340,-0.00651894,-0.02336185,
 -0.01718890,-0.04708451,0.01596256,-0.00210142,-0.00150346,0.00353722,
 -0.00031930,0.00055209,-0.00146646,0.00063333,0.00071760,0.00130892,0.
 01509393,0.01730406,0.03071057,-0.00352584,-0.11703831,0.05163210,-0.0
 0716677,0.00370536,-0.02305431,0.13555129,0.56342775,-0.00089220,0.000
 26551,-0.00451018,-0.02138155,-0.02295982,-0.04513319,0.00736879,-0.02
 201386,0.05919197,-0.00095175,0.00384133,-0.00112631,0.00062547,0.0010
 8248,0.00077734,-0.00047197,-0.00153343,0.00061719,0.01900200,0.071187
 15,-0.02507782,-0.07650745,-0.00754403,-0.29571173,-0.00327400,0.00342
 102,-0.01132839,0.11990206,-0.05070564,0.61935590,-0.00410127,0.002405
 82,-0.00099748,0.00185761,0.00168812,-0.01418264,0.00237860,-0.0038594
 1,-0.00177060,0.00050098,0.00001096,-0.00085843,0.00046053,0.00008477,
 0.00145961,0.00081702,0.00015897,0.00057578,-0.06345436,0.00268839,-0.
 07817749,0.00543650,-0.00096749,0.00651459,-0.00294609,0.00155802,0.00
 104877,0.00622243,-0.00364288,-0.00110821,0.05433679,0.00119200,0.0009
 6309,-0.00337331,-0.00622246,0.00809233,-0.02232191,-0.00371546,-0.003
 65230,-0.00146701,-0.00049849,0.00055804,-0.00128755,-0.00015033,-0.00
 261809,0.00273344,0.00068096,0.00103788,0.00153989,0.00326400,-0.05713
 185,0.03215472,0.00736734,0.00191268,0.02522178,0.00146703,0.00045267,
 -0.00084160,-0.00357978,-0.00309115,0.00266388,-0.00035424,0.05476447,
 0.00051126,0.00041043,-0.00365754,-0.00435279,0.00233128,-0.01072762,-
 0.00194937,-0.00191553,0.00079051,-0.00022538,0.00030006,-0.00030324,0
 .00175181,0.00346639,0.00111058,-0.00007328,-0.00008769,0.00044953,-0.
 07889254,0.03036132,-0.32304668,-0.00384280,-0.00075453,-0.00730684,0.
 00116181,-0.00055804,0.00041057,-0.00118665,0.00246729,0.00126617,0.08
 650016,-0.03594952,0.34098239,-0.00107792,-0.00007521,0.00041316,0.000
 04066,0.00049205,-0.00014591,0.00274048,-0.00286133,-0.00341089,0.0000
 5371,-0.00044348,0.00036194,0.00010112,0.00010908,-0.00002646,0.000186
 36,0.00014511,0.00010745,0.00590134,-0.00310543,-0.00372455,0.00872432
 ,0.00517537,-0.00507456,-0.00330146,0.00210649,0.00051990,-0.08077465,
 -0.02642436,0.00933249,-0.00039238,0.00058589,-0.00001663,0.54190604,0
 .00042830,0.00023677,-0.00042665,0.00000222,-0.00084391,0.00092061,-0.
 00260885,0.00113782,-0.00336151,-0.00002410,-0.00034008,0.00048955,0.0
 0007854,0.00004045,0.00027676,-0.00008557,-0.00012410,0.00000442,-0.00
 280581,0.00215622,-0.00106578,-0.00202103,-0.00360400,0.00848147,0.001
 07350,0.00051264,-0.00264600,-0.02375405,-0.17722498,0.05519490,0.0002
 4407,0.00022074,-0.00028509,0.00596710,0.51149899,-0.00021212,-0.00199
 422,0.00063645,0.00046216,0.00244518,-0.00170687,-0.00372384,-0.004147
 20,-0.00147722,-0.00015919,-0.00081731,0.00063400,0.00001154,0.0003717
 1,-0.00035981,0.00039384,0.00072279,0.00042333,-0.00409705,-0.00199843
 ,-0.00194978,0.00386771,0.03090874,-0.01806414,0.00180416,0.00057406,0
 .00060064,0.00601554,0.04687901,-0.11274022,0.00040824,0.00078044,-0.0
 0031829,0.02315857,0.04417839,0.54938584,0.00003645,0.00009301,-0.0000
 7589,0.00010406,0.00002119,0.00007140,0.00026957,-0.00014455,-0.000509
 22,-0.00014544,0.00000712,0.00010898,0.00000171,-0.00003300,0.00007385
 ,-0.00000425,-0.00001667,0.00003220,-0.00010862,0.00007306,0.00022178,
 -0.00004989,0.00100476,-0.00065797,0.00042792,-0.00001159,0.00035155,-
 0.00409240,-0.00301218,-0.00321639,-0.00003396,0.00000203,0.00000874,-
 0.10287057,-0.08154896,-0.07332723,0.10701267,0.00002455,0.00022104,-0
 .00016864,0.00004216,0.00005005,0.00015957,-0.00079192,-0.00039825,-0.
 00136390,0.00003389,-0.00029136,0.00023991,0.00003739,-0.00005889,0.00
 017874,0.00002355,-0.00002969,0.00010042,0.00016071,0.00007798,0.00014
 395,-0.00021029,0.00125284,-0.00251045,0.00037364,0.00025138,0.0012499
 1,-0.01263527,-0.01942482,-0.01754273,0.00001367,0.00000009,-0.0000041
 7,-0.08005704,-0.16368319,-0.10422222,0.09005665,0.17949568,0.00000905
 ,0.00004436,-0.00000308,0.00004533,0.00009446,0.00009658,0.00029511,0.
 00065347,0.00059871,0.00007573,0.00015651,-0.00014173,-0.00001363,-0.0
 0004059,-0.00000089,-0.00001773,-0.00002485,-0.00003236,0.00011300,-0.
 00012906,0.00030333,0.00085225,0.00127689,0.00082964,-0.00012735,0.000
 04933,-0.00013821,0.00873945,0.01243759,0.00991650,-0.00000574,-0.0000
 4046,-0.00000516,-0.07518061,-0.10886967,-0.14578434,0.08116666,0.1135
 3699,0.15686798,0.00656068,-0.00043602,-0.00517198,0.01560207,0.009951
 86,0.01602548,-0.08267052,-0.04504664,-0.00374657,0.00230777,-0.010847
 91,0.00762173,-0.00079604,0.00061350,0.00079703,-0.00062696,-0.0004246
 4,0.00051804,-0.01250948,-0.01849535,0.00091515,-0.00030692,0.00323637
 ,-0.03379329,0.00489772,-0.00122232,-0.00253488,-0.11392329,-0.0766854
 1,-0.03407110,-0.00055068,-0.00023076,0.00042288,0.00060592,-0.0087144
 9,-0.00058004,0.00110886,-0.00079593,0.00014255,0.24613934,-0.00008696
 ,0.00972488,-0.00192424,0.02408585,0.01085286,0.06964711,-0.06022898,-
 0.26412643,0.06159199,-0.00244852,-0.01341843,0.01424745,0.00050184,-0
 .00147389,0.00178435,-0.00085449,-0.00176885,-0.00124078,-0.02012038,-
 0.05394894,-0.00241213,-0.00792299,0.03528953,-0.05705716,-0.00112758,
 0.00169636,0.00208018,-0.06307474,-0.20736925,-0.02887379,-0.00018661,
 -0.00113896,0.00009542,-0.01487959,-0.02602399,-0.00873360,-0.00105209
 ,-0.00371564,0.00305399,0.14921946,0.57741711,-0.00560592,-0.00301256,
 -0.00533395,-0.00153906,0.02559643,-0.03011223,0.01512031,0.10890924,-
 0.15172038,-0.00281591,-0.01193012,0.01023665,0.00093601,0.00213236,-0
 .00102921,0.00105240,0.00009950,0.00253243,0.00293459,0.00265276,0.000
 42105,-0.01992561,-0.02227761,-0.02517043,-0.00265247,0.00178510,-0.00
 428661,-0.05098512,-0.07129336,-0.14271969,0.00036793,-0.00004236,0.00
 060505,0.00708132,0.01048092,0.01331036,0.00046103,0.00385272,-0.00196
 992,0.12275805,-0.06949345,0.61619027,0.00130715,0.00045837,-0.0000794
 6,0.00735475,-0.00316909,0.00084262,0.00443370,0.00553975,0.00032758,-
 0.00343941,0.00127276,0.00170237,-0.00049239,-0.00018131,0.00038638,-0
 .00017125,-0.00027917,-0.00010043,-0.00142605,-0.00077600,-0.00003127,
 0.00424836,-0.00521643,-0.00211424,0.00014749,0.00007211,-0.00083599,-
 0.00468362,-0.00197672,-0.02097601,-0.00075792,0.00035007,0.00022456,-
 0.00273414,0.00114403,-0.00024885,-0.00014849,0.00026919,-0.00013431,-
 0.08236034,-0.00253544,-0.05666639,0.20161949,0.00038804,0.00095321,0.
 00145384,-0.00394158,-0.00375539,0.00275605,0.00963638,-0.00082994,0.0
 3369752,0.00168029,-0.00001440,-0.00032881,0.00012338,-0.00067989,0.00
 055339,-0.00009242,-0.00008143,-0.00022129,-0.00030138,-0.00192848,0.0
 0008204,-0.00480794,-0.00300870,-0.00253865,-0.00042809,0.00042110,-0.
 00137664,-0.00492848,0.00995825,-0.02421122,0.00034128,-0.00006668,-0.
 00005832,0.00016226,-0.00131466,-0.00172610,0.00006970,-0.00011048,0.0
 0009017,-0.00228243,-0.08274177,0.01721159,-0.02799258,0.13307865,0.00
 000791,0.00167297,-0.00090439,0.00180249,0.00516371,0.00754907,-0.0047
 6314,0.02093033,-0.03873353,0.00119601,-0.00159882,0.00122103,0.000007
 73,-0.00039638,-0.00002747,-0.00033247,-0.00080333,-0.00006569,-0.0006
 2107,-0.00139710,-0.00130605,-0.00262187,-0.00381169,0.00357224,-0.000
 21440,0.00018228,-0.00050775,-0.01730804,-0.01501180,-0.03245192,0.000
 23550,-0.00003094,-0.00019724,0.00097104,0.00133399,-0.00174028,0.0001
 1373,0.00071201,-0.00074359,-0.05698058,0.01642291,-0.26115665,0.37978
 829,-0.13963040,1.44803944,-0.00050789,-0.00053539,0.00003179,-0.00129
 100,0.00082060,-0.00050093,-0.00009422,-0.00338214,0.00012154,0.000482
 91,-0.00004514,-0.00028794,0.00015270,0.00018987,-0.00016342,0.0001690
 1,0.00025528,0.00004712,0.00032079,0.00013124,0.00018972,-0.00091955,0
 .00085223,0.00000067,-0.00008856,0.00002988,0.00007903,0.00208266,0.00
 075453,0.00191554,0.00013741,-0.00005541,-0.00003411,0.00006649,-0.000
 22172,-0.00014950,0.00014979,-0.00003023,-0.00006899,0.01547052,0.0025
 1331,-0.01021764,-0.12279420,0.03306961,-0.30234777,0.10664814,-0.0001
 1570,-0.00032732,-0.00033245,0.00086818,0.00083797,-0.00014668,-0.0015
 2715,-0.00018138,-0.00302363,-0.00019652,0.00017865,-0.00009719,-0.000
 00342,0.00012521,-0.00000541,0.00006733,0.00012395,0.00012057,-0.00000
 287,0.00018300,0.00002165,0.00086356,0.00078264,0.00015369,0.00011222,
 -0.00007294,0.00028399,-0.00113159,-0.00408721,0.00300254,-0.00005157,
 0.00003570,0.00000672,-0.00046597,-0.00040364,-0.00069743,-0.00009704,
 0.00024791,-0.00038217,0.00237209,0.02009468,0.00447522,0.03318997,-0.
 04852519,0.11531636,-0.03425068,0.03034316,-0.00048971,-0.00164038,0.0
 0020756,-0.00056005,-0.00029502,-0.00283633,-0.00218362,-0.00880490,0.
 00535145,-0.00009983,0.00037457,-0.00018330,0.00007679,0.00059701,-0.0
 0037315,0.00028066,0.00070634,0.00004913,0.00035636,0.00043957,0.00077
 196,-0.00001344,0.00011826,-0.00144843,-0.00002328,0.00002740,-0.00023
 244,0.00425939,0.00888089,0.00340590,-0.00003889,-0.00000525,0.0000558
 0,0.00015380,0.00006287,0.00060353,0.00001410,-0.00017368,0.00044391,-
 0.01004231,0.00491539,-0.01965800,-0.30249717,0.11494129,-1.12452743,0
 .31137922,-0.11910825,1.13881320,0.00007667,0.00034029,-0.00015061,0.0
 0000355,-0.00031638,0.00048251,-0.00002715,0.00066577,-0.00024487,0.00
 000689,0.00002503,-0.00003507,0.00001916,-0.00006118,0.00010621,-0.000
 04210,-0.00010452,-0.00003852,-0.00031645,0.00017210,0.00027585,-0.000
 45539,-0.00049852,0.00081332,0.00012850,-0.00000878,0.00014537,0.00849
 364,-0.00256113,0.00238942,0.00005764,-0.00006774,0.00000755,-0.236741
 31,0.08873337,-0.07685804,-0.01124301,0.00547975,-0.00286528,0.0002213
 9,-0.00102768,-0.00059919,0.00010453,-0.00022266,0.00014893,-0.0001763
 6,-0.00020821,-0.00001815,0.25680563,0.00020677,0.00058522,-0.00032103
 ,-0.00012949,-0.00059449,0.00029789,-0.00061074,0.00041120,0.00044653,
 0.00003492,-0.00003135,-0.00002172,-0.00001180,-0.00015715,0.00012912,
 -0.00009360,-0.00024557,-0.00002112,-0.00069425,0.00060692,0.00069974,
 -0.00100331,-0.00253857,0.00000290,0.00031449,-0.00006502,0.00008769,0
 .02368863,-0.01255778,0.00997714,0.00001142,-0.00019566,0.00005591,0.0
 8945302,-0.08873857,0.03482464,-0.01887432,0.00967125,-0.00645676,-0.0
 0052123,0.00058971,0.00077751,0.00064606,-0.00104308,0.00037175,-0.000
 28501,0.00060282,-0.00052520,-0.09756308,0.09620192,-0.00013984,0.0002
 2173,-0.00000363,0.00002843,-0.00026479,0.00037202,0.00042761,0.000408
 91,-0.00076364,-0.00001927,-0.00000613,0.00003030,0.00005533,0.0000310
 7,0.00004540,0.00000830,-0.00001736,-0.00006224,0.00084222,-0.00015618
 ,-0.00092292,0.00090137,0.00210143,-0.00029484,-0.00045563,0.00029477,
 0.00031254,-0.01290430,0.00948199,-0.00909006,-0.00004209,0.00015901,-
 0.00004087,-0.07786150,0.03403806,-0.07095101,-0.01599731,0.00845412,-
 0.00631810,-0.00071875,-0.00214025,-0.00002969,-0.00011412,-0.00027959
 ,0.00120018,0.00009475,0.00031926,-0.00031818,0.08313773,-0.04195384,0
 .07820278,0.00011132,0.00024518,-0.00014772,-0.00011666,-0.00030684,0.
 00011025,0.00015761,-0.00004520,-0.00006239,-0.00001726,-0.00002740,0.
 00003038,-0.00001404,-0.00003835,0.00005016,-0.00005874,-0.00009160,-0
 .00001337,-0.00006920,0.00030130,-0.00011029,-0.00052426,0.00000083,-0
 .00042596,0.00020107,-0.00000929,0.00003024,-0.00288775,0.00090874,0.0
 0231485,0.00003113,-0.00003467,-0.00001523,-0.13243399,0.02411345,0.12
 323408,0.00958561,-0.00199446,-0.01302551,0.00082997,-0.00077443,0.000
 29568,-0.00020768,-0.00047339,0.00091770,0.00019136,0.00057737,-0.0005
 5387,-0.01691583,0.00543153,0.02275708,0.14213734,0.00007859,0.0006686
 9,-0.00028546,-0.00008470,-0.00059706,0.00044719,0.00090552,0.00006075
 ,-0.00013628,-0.00004679,0.00002600,-0.00001851,-0.00001950,-0.0001578
 9,0.00015816,-0.00011209,-0.00024069,-0.00002311,0.00134626,-0.0002971
 8,0.00016763,-0.00066160,-0.00286406,0.00039659,-0.00026328,0.00015400
 ,0.00030975,-0.01770231,0.00437504,0.02474858,-0.00014330,-0.00014299,
 0.00011804,0.02411604,-0.05350251,-0.03734845,0.01346290,-0.00355589,-
 0.01545021,0.00030985,0.00006103,0.00007610,-0.00081558,-0.00031112,0.
 00057415,0.00018917,0.00004199,-0.00051092,0.00722360,-0.00250181,-0.0
 1069219,-0.02778278,0.05878371,0.00021436,0.00010664,-0.00012185,0.000
 05645,-0.00026386,0.00049468,-0.00033047,0.00091561,-0.00059779,0.0000
 2643,-0.00000444,-0.00000287,0.00001621,0.00004359,0.00007940,-0.00004
 821,0.00000313,-0.00005046,-0.00089885,0.00046521,-0.00026592,0.000936
 67,0.00193600,0.00009881,0.00054492,-0.00011328,0.00002112,0.00811738,
 0.00144167,-0.01464146,0.00007097,0.00010674,-0.00006711,0.12334145,-0
 .03880723,-0.21050221,0.01115998,-0.00264256,-0.01391928,-0.00156140,-
 0.00196338,-0.00010903,0.00052645,-0.00041485,0.00078001,-0.00008909,0
 .00009323,-0.00012519,-0.00669716,0.00162885,0.00863198,-0.13538608,0.
 03746893,0.23029717\\-0.00000251,-0.00000235,-0.00000454,-0.00000074,-
 0.00000111,-0.00000148,0.00000230,0.00000487,0.00000104,-0.00000275,-0
 .00000286,-0.00000486,-0.00000105,-0.00000168,-0.00000063,-0.00000118,
 -0.00000072,-0.00000328,-0.00000151,-0.00000109,-0.00000347,0.00000221
 ,0.00000284,0.00000357,-0.00000243,-0.00000559,-0.00000059,0.,0.000000
 26,0.00000051,0.00000002,-0.00000271,0.00000321,0.00000396,0.00000255,
 0.00000563,-0.00000029,-0.00000251,0.00000103,0.00000080,0.00000085,0.
 00000079,0.00000037,0.00000254,-0.00000214,0.00000170,0.00000316,0.000
 00172,-0.00000103,0.00000242,0.00000169,0.00000214,0.00000112,0.000001
 80\\\@
 Job cpu time:       0 days 18 hours  9 minutes 11.1 seconds.
 File lengths (MBytes):  RWF=  76942 Int=      0 D2E=      0 Chk=    108 Scr=      1
 Normal termination of Gaussian 09 at Fri Aug 27 12:36:25 2021.
