 Entering Gaussian System, Link 0=g09
 Input=G4.ROFGAV.gjf
 Output=G4.ROFGAV.log
 Initial command:
 /public/home/users/caep010/software/Gaussian09/g09/l1.exe "/public/home/users/caep010/.cache/gau_scr/Gau-118679.inp" -scrdir="/public/home/users/caep010/.cache/gau_scr/"
 Entering Link 1 = /public/home/users/caep010/software/Gaussian09/g09/l1.exe PID=    118680.
  
 Copyright (c) 1988,1990,1992,1993,1995,1998,2003,2009,2015,
            Gaussian, Inc.  All Rights Reserved.
  
 This is part of the Gaussian(R) 09 program.  It is based on
 the Gaussian(R) 03 system (copyright 2003, Gaussian, Inc.),
 the Gaussian(R) 98 system (copyright 1998, Gaussian, Inc.),
 the Gaussian(R) 94 system (copyright 1995, Gaussian, Inc.),
 the Gaussian 92(TM) system (copyright 1992, Gaussian, Inc.),
 the Gaussian 90(TM) system (copyright 1990, Gaussian, Inc.),
 the Gaussian 88(TM) system (copyright 1988, Gaussian, Inc.),
 the Gaussian 86(TM) system (copyright 1986, Carnegie Mellon
 University), and the Gaussian 82(TM) system (copyright 1983,
 Carnegie Mellon University). Gaussian is a federally registered
 trademark of Gaussian, Inc.
  
 This software contains proprietary and confidential information,
 including trade secrets, belonging to Gaussian, Inc.
  
 This software is provided under written license and may be
 used, copied, transmitted, or stored only in accord with that
 written license.
  
 The following legend is applicable only to US Government
 contracts under FAR:
  
                    RESTRICTED RIGHTS LEGEND
  
 Use, reproduction and disclosure by the US Government is
 subject to restrictions as set forth in subparagraphs (a)
 and (c) of the Commercial Computer Software - Restricted
 Rights clause in FAR 52.227-19.
  
 Gaussian, Inc.
 340 Quinnipiac St., Bldg. 40, Wallingford CT 06492
  
  
 ---------------------------------------------------------------
 Warning -- This program may not be used in any manner that
 competes with the business of Gaussian, Inc. or will provide
 assistance to any competitor of Gaussian, Inc.  The licensee
 of this program is prohibited from giving any competitor of
 Gaussian, Inc. access to this program.  By using this program,
 the user acknowledges that Gaussian, Inc. is engaged in the
 business of creating and licensing software in the field of
 computational chemistry and represents and warrants to the
 licensee that it is not a competitor of Gaussian, Inc. and that
 it will not use this program in any manner prohibited above.
 ---------------------------------------------------------------
  

 Cite this work as:
 Gaussian 09, Revision E.01,
 M. J. Frisch, G. W. Trucks, H. B. Schlegel, G. E. Scuseria, 
 M. A. Robb, J. R. Cheeseman, G. Scalmani, V. Barone, B. Mennucci, 
 G. A. Petersson, H. Nakatsuji, M. Caricato, X. Li, H. P. Hratchian, 
 A. F. Izmaylov, J. Bloino, G. Zheng, J. L. Sonnenberg, M. Hada, 
 M. Ehara, K. Toyota, R. Fukuda, J. Hasegawa, M. Ishida, T. Nakajima, 
 Y. Honda, O. Kitao, H. Nakai, T. Vreven, J. A. Montgomery, Jr., 
 J. E. Peralta, F. Ogliaro, M. Bearpark, J. J. Heyd, E. Brothers, 
 K. N. Kudin, V. N. Staroverov, T. Keith, R. Kobayashi, J. Normand, 
 K. Raghavachari, A. Rendell, J. C. Burant, S. S. Iyengar, J. Tomasi, 
 M. Cossi, N. Rega, J. M. Millam, M. Klene, J. E. Knox, J. B. Cross, 
 V. Bakken, C. Adamo, J. Jaramillo, R. Gomperts, R. E. Stratmann, 
 O. Yazyev, A. J. Austin, R. Cammi, C. Pomelli, J. W. Ochterski, 
 R. L. Martin, K. Morokuma, V. G. Zakrzewski, G. A. Voth, 
 P. Salvador, J. J. Dannenberg, S. Dapprich, A. D. Daniels, 
 O. Farkas, J. B. Foresman, J. V. Ortiz, J. Cioslowski, 
 and D. J. Fox, Gaussian, Inc., Wallingford CT, 2013.
 
 ******************************************
 Gaussian 09:  ES64L-G09RevE.01 30-Nov-2015
                27-Aug-2021 
 ******************************************
 %nproc=32
 Will use up to   32 processors via shared memory.
 %mem=180GB
 ----------------
 #P G4 OPT=calcfc
 ----------------
 1/10=4,14=-1,18=20,19=15,26=3,38=1/1,3;
 2/9=110,12=2,17=6,18=5,40=1/2;
 3/5=35,7=104,11=2,16=1,25=1,30=1,71=2,74=-5,140=1/1,2,3;
 4//1;
 5/5=2,38=5/2;
 8/6=4,10=90,11=11/1;
 11/6=1,8=1,9=11,15=111,16=1/1,2,10;
 10/6=1,13=1/2;
 6/7=2,8=2,9=2,10=2,28=1/1;
 7/10=1,18=20,25=1/1,2,3,16;
 1/10=4,14=-1,18=20,19=15,26=3/3(2);
 2/9=110/2;
 99//99;
 2/9=110/2;
 3/5=35,7=104,11=2,16=1,25=1,30=1,71=1,74=-5/1,2,3;
 4/5=5,16=3,69=1/1;
 5/5=2,38=5/2;
 7//1,2,3,16;
 1/14=-1,18=20,19=15,26=3/3(-5);
 2/9=110/2;
 6/7=2,8=2,9=2,10=2,19=2,28=1/1;
 99/9=1/99;
 Leave Link    1 at Fri Aug 27 07:48:38 2021, MaxMem= 24159191040 cpu:         2.7
 (Enter /public/home/users/caep010/software/Gaussian09/g09/l101.exe)
 ------
 ROFGAV
 ------
 Symbolic Z-matrix:
 Charge =  0 Multiplicity = 1
 O                     4.2147    10.8438   8.1757 
 N                     4.4872    11.2358   7.0637 
 C                     3.8674    10.5578   5.9055 
 C                     3.7169    11.2165   4.6799 
 C                     4.114     12.6462   4.3862 
 H                     4.5154    13.0343   5.1664 
 C                     3.4402    9.2645    6.1344 
 H                     3.3348    13.1511   4.1424 
 H                     3.5447    8.8719    6.9702 
 C                     2.8512    8.5603    5.0906 
 C                     2.3908    7.2019    5.3 
 N                     2.0122    6.1334    5.4511 
 C                     2.6872    9.1719    3.8505 
 H                     2.2932    8.7049    3.1495 
 C                     3.1094    10.4712   3.6629 
 H                     2.9863    10.8662   2.8306 
 H                     4.7442    12.661    3.661 
 O                     5.271     12.1473   6.8659 
 
 NAtoms=     18 NQM=       18 NQMF=       0 NMMI=      0 NMMIF=      0
                NMic=       0 NMicF=      0.
                    Isotopes and Nuclear Properties:
 (Nuclear quadrupole moments (NQMom) in fm**2, nuclear magnetic moments (NMagM)
  in nuclear magnetons)

  Atom         1           2           3           4           5           6           7           8           9          10
 IAtWgt=          16          14          12          12          12           1          12           1           1          12
 AtmWgt=  15.9949146  14.0030740  12.0000000  12.0000000  12.0000000   1.0078250  12.0000000   1.0078250   1.0078250  12.0000000
 NucSpn=           0           2           0           0           0           1           0           1           1           0
 AtZEff=   0.0000000   0.0000000   0.0000000   0.0000000   0.0000000   0.0000000   0.0000000   0.0000000   0.0000000   0.0000000
 NQMom=    0.0000000   2.0440000   0.0000000   0.0000000   0.0000000   0.0000000   0.0000000   0.0000000   0.0000000   0.0000000
 NMagM=    0.0000000   0.4037610   0.0000000   0.0000000   0.0000000   2.7928460   0.0000000   2.7928460   2.7928460   0.0000000
 AtZNuc=   8.0000000   7.0000000   6.0000000   6.0000000   6.0000000   1.0000000   6.0000000   1.0000000   1.0000000   6.0000000

  Atom        11          12          13          14          15          16          17          18
 IAtWgt=          12          14          12           1          12           1           1          16
 AtmWgt=  12.0000000  14.0030740  12.0000000   1.0078250  12.0000000   1.0078250   1.0078250  15.9949146
 NucSpn=           0           2           0           1           0           1           1           0
 AtZEff=   0.0000000   0.0000000   0.0000000   0.0000000   0.0000000   0.0000000   0.0000000   0.0000000
 NQMom=    0.0000000   2.0440000   0.0000000   0.0000000   0.0000000   0.0000000   0.0000000   0.0000000
 NMagM=    0.0000000   0.4037610   0.0000000   2.7928460   0.0000000   2.7928460   2.7928460   0.0000000
 AtZNuc=   6.0000000   7.0000000   6.0000000   1.0000000   6.0000000   1.0000000   1.0000000   8.0000000
 Leave Link  101 at Fri Aug 27 07:48:38 2021, MaxMem= 24159191040 cpu:        10.2
 (Enter /public/home/users/caep010/software/Gaussian09/g09/l103.exe)

 GradGradGradGradGradGradGradGradGradGradGradGradGradGradGradGradGradGrad
 Berny optimization.
 Initialization pass.
                           ----------------------------
                           !    Initial Parameters    !
                           ! (Angstroms and Degrees)  !
 --------------------------                            --------------------------
 ! Name  Definition              Value          Derivative Info.                !
 --------------------------------------------------------------------------------
 ! R1    R(1,2)                  1.2102         calculate D2E/DX2 analytically  !
 ! R2    R(2,3)                  1.4783         calculate D2E/DX2 analytically  !
 ! R3    R(2,18)                 1.2183         calculate D2E/DX2 analytically  !
 ! R4    R(3,4)                  1.3995         calculate D2E/DX2 analytically  !
 ! R5    R(3,7)                  1.3811         calculate D2E/DX2 analytically  !
 ! R6    R(4,5)                  1.5126         calculate D2E/DX2 analytically  !
 ! R7    R(4,15)                 1.3996         calculate D2E/DX2 analytically  !
 ! R8    R(5,6)                  0.9594         calculate D2E/DX2 analytically  !
 ! R9    R(5,8)                  0.96           calculate D2E/DX2 analytically  !
 ! R10   R(5,17)                 0.9609         calculate D2E/DX2 analytically  !
 ! R11   R(7,9)                  0.9293         calculate D2E/DX2 analytically  !
 ! R12   R(7,10)                 1.3901         calculate D2E/DX2 analytically  !
 ! R13   R(10,11)                1.4495         calculate D2E/DX2 analytically  !
 ! R14   R(10,13)                1.3924         calculate D2E/DX2 analytically  !
 ! R15   R(11,12)                1.1436         calculate D2E/DX2 analytically  !
 ! R16   R(13,14)                0.9299         calculate D2E/DX2 analytically  !
 ! R17   R(13,15)                1.379          calculate D2E/DX2 analytically  !
 ! R18   R(15,16)                0.9295         calculate D2E/DX2 analytically  !
 ! A1    A(1,2,3)              118.4871         calculate D2E/DX2 analytically  !
 ! A2    A(1,2,18)             122.4392         calculate D2E/DX2 analytically  !
 ! A3    A(3,2,18)             119.0569         calculate D2E/DX2 analytically  !
 ! A4    A(2,3,4)              121.0206         calculate D2E/DX2 analytically  !
 ! A5    A(2,3,7)              115.4242         calculate D2E/DX2 analytically  !
 ! A6    A(4,3,7)              123.5462         calculate D2E/DX2 analytically  !
 ! A7    A(3,4,5)              125.9213         calculate D2E/DX2 analytically  !
 ! A8    A(3,4,15)             115.6194         calculate D2E/DX2 analytically  !
 ! A9    A(5,4,15)             118.4368         calculate D2E/DX2 analytically  !
 ! A10   A(4,5,6)              109.5291         calculate D2E/DX2 analytically  !
 ! A11   A(4,5,8)              109.4723         calculate D2E/DX2 analytically  !
 ! A12   A(4,5,17)             109.4681         calculate D2E/DX2 analytically  !
 ! A13   A(6,5,8)              109.4737         calculate D2E/DX2 analytically  !
 ! A14   A(6,5,17)             109.4584         calculate D2E/DX2 analytically  !
 ! A15   A(8,5,17)             109.4257         calculate D2E/DX2 analytically  !
 ! A16   A(3,7,9)              120.6554         calculate D2E/DX2 analytically  !
 ! A17   A(3,7,10)             118.7497         calculate D2E/DX2 analytically  !
 ! A18   A(9,7,10)             120.5948         calculate D2E/DX2 analytically  !
 ! A19   A(7,10,11)            120.0565         calculate D2E/DX2 analytically  !
 ! A20   A(7,10,13)            119.7454         calculate D2E/DX2 analytically  !
 ! A21   A(11,10,13)           120.1909         calculate D2E/DX2 analytically  !
 ! A22   A(10,13,14)           120.0462         calculate D2E/DX2 analytically  !
 ! A23   A(10,13,15)           119.9309         calculate D2E/DX2 analytically  !
 ! A24   A(14,13,15)           120.0229         calculate D2E/DX2 analytically  !
 ! A25   A(4,15,13)            122.397          calculate D2E/DX2 analytically  !
 ! A26   A(4,15,16)            118.8074         calculate D2E/DX2 analytically  !
 ! A27   A(13,15,16)           118.7956         calculate D2E/DX2 analytically  !
 ! A28   L(10,11,12,14,-1)     179.0913         calculate D2E/DX2 analytically  !
 ! A29   L(10,11,12,14,-2)     180.7015         calculate D2E/DX2 analytically  !
 ! D1    D(1,2,3,4)            155.8229         calculate D2E/DX2 analytically  !
 ! D2    D(1,2,3,7)            -23.1223         calculate D2E/DX2 analytically  !
 ! D3    D(18,2,3,4)           -25.6283         calculate D2E/DX2 analytically  !
 ! D4    D(18,2,3,7)           155.4266         calculate D2E/DX2 analytically  !
 ! D5    D(2,3,4,5)             -1.4256         calculate D2E/DX2 analytically  !
 ! D6    D(2,3,4,15)          -179.6656         calculate D2E/DX2 analytically  !
 ! D7    D(7,3,4,5)            177.4313         calculate D2E/DX2 analytically  !
 ! D8    D(7,3,4,15)            -0.8087         calculate D2E/DX2 analytically  !
 ! D9    D(2,3,7,9)              0.2015         calculate D2E/DX2 analytically  !
 ! D10   D(2,3,7,10)          -179.7698         calculate D2E/DX2 analytically  !
 ! D11   D(4,3,7,9)           -178.7138         calculate D2E/DX2 analytically  !
 ! D12   D(4,3,7,10)             1.3149         calculate D2E/DX2 analytically  !
 ! D13   D(3,4,5,6)              1.7636         calculate D2E/DX2 analytically  !
 ! D14   D(3,4,5,8)           -118.2756         calculate D2E/DX2 analytically  !
 ! D15   D(3,4,5,17)           121.7814         calculate D2E/DX2 analytically  !
 ! D16   D(15,4,5,6)           179.9589         calculate D2E/DX2 analytically  !
 ! D17   D(15,4,5,8)            59.9197         calculate D2E/DX2 analytically  !
 ! D18   D(15,4,5,17)          -60.0233         calculate D2E/DX2 analytically  !
 ! D19   D(3,4,15,13)           -0.1095         calculate D2E/DX2 analytically  !
 ! D20   D(3,4,15,16)          179.9148         calculate D2E/DX2 analytically  !
 ! D21   D(5,4,15,13)         -178.4887         calculate D2E/DX2 analytically  !
 ! D22   D(5,4,15,16)            1.5356         calculate D2E/DX2 analytically  !
 ! D23   D(3,7,10,11)         -179.9084         calculate D2E/DX2 analytically  !
 ! D24   D(3,7,10,13)           -0.8846         calculate D2E/DX2 analytically  !
 ! D25   D(9,7,10,11)            0.1203         calculate D2E/DX2 analytically  !
 ! D26   D(9,7,10,13)          179.144          calculate D2E/DX2 analytically  !
 ! D27   D(7,10,13,14)        -179.9596         calculate D2E/DX2 analytically  !
 ! D28   D(7,10,13,15)           0.0244         calculate D2E/DX2 analytically  !
 ! D29   D(11,10,13,14)         -0.9372         calculate D2E/DX2 analytically  !
 ! D30   D(11,10,13,15)        179.0469         calculate D2E/DX2 analytically  !
 ! D31   D(10,13,15,4)           0.4859         calculate D2E/DX2 analytically  !
 ! D32   D(10,13,15,16)       -179.5384         calculate D2E/DX2 analytically  !
 ! D33   D(14,13,15,4)        -179.53           calculate D2E/DX2 analytically  !
 ! D34   D(14,13,15,16)          0.4457         calculate D2E/DX2 analytically  !
 --------------------------------------------------------------------------------
 Trust Radius=3.00D-01 FncErr=1.00D-07 GrdErr=1.00D-06
 Number of steps in this run=     91 maximum allowed number of steps=    108.
 GradGradGradGradGradGradGradGradGradGradGradGradGradGradGradGradGradGrad

 Leave Link  103 at Fri Aug 27 07:48:39 2021, MaxMem= 24159191040 cpu:         0.7
 (Enter /public/home/users/caep010/software/Gaussian09/g09/l202.exe)
                          Input orientation:                          
 ---------------------------------------------------------------------
 Center     Atomic      Atomic             Coordinates (Angstroms)
 Number     Number       Type             X           Y           Z
 ---------------------------------------------------------------------
      1          8           0        4.214700   10.843800    8.175700
      2          7           0        4.487200   11.235800    7.063700
      3          6           0        3.867400   10.557800    5.905500
      4          6           0        3.716900   11.216500    4.679900
      5          6           0        4.114000   12.646200    4.386200
      6          1           0        4.515400   13.034300    5.166400
      7          6           0        3.440200    9.264500    6.134400
      8          1           0        3.334800   13.151100    4.142400
      9          1           0        3.544700    8.871900    6.970200
     10          6           0        2.851200    8.560300    5.090600
     11          6           0        2.390800    7.201900    5.300000
     12          7           0        2.012200    6.133400    5.451100
     13          6           0        2.687200    9.171900    3.850500
     14          1           0        2.293200    8.704900    3.149500
     15          6           0        3.109400   10.471200    3.662900
     16          1           0        2.986300   10.866200    2.830600
     17          1           0        4.744200   12.661000    3.661000
     18          8           0        5.271000   12.147300    6.865900
 ---------------------------------------------------------------------
                    Distance matrix (angstroms):
                    1          2          3          4          5
     1  O    0.000000
     2  N    1.210151   0.000000
     3  C    2.314351   1.478264   0.000000
     4  C    3.550680   2.505242   1.399511   0.000000
     5  C    4.197511   3.049182   2.594320   1.512610   0.000000
     6  H    3.734247   2.614411   2.664437   2.044182   0.959404
     7  C    2.694614   2.417815   1.381130   2.449987   3.866019
     8  H    4.729204   3.678368   3.180784   2.043914   0.959956
     9  H    2.406350   2.546580   2.019896   3.282115   4.609392
    10  C    4.073248   3.705121   2.384687   2.823740   4.334215
    11  C    4.985950   4.876257   3.716052   4.273181   5.783152
    12  N    5.870462   5.895811   4.819083   5.416517   6.925903
    13  C    4.882198   4.221888   2.745290   2.434867   3.793876
    14  H    5.790487   5.151704   3.675171   3.267596   4.514265
    15  C    4.661103   3.748118   2.368822   1.399578   2.502600
    16  H    5.484484   4.506489   3.213481   2.019009   2.619160
    17  H    4.895416   3.698055   3.198438   2.044525   0.960878
    18  O    2.128487   1.218318   2.327868   2.839051   2.781450
                    6          7          8          9         10
     6  H    0.000000
     7  C    4.037880   0.000000
     8  H    1.567174   4.368619   0.000000
     9  H    4.639130   0.929310   5.133426   0.000000
    10  C    4.774095   1.390085   4.712579   2.027544   0.000000
    11  C    6.208757   2.460037   6.133853   2.628679   1.449506
    12  N    7.346393   3.508542   7.260171   3.486489   2.593015
    13  C    4.471246   2.406612   4.042106   3.249282   1.392407
    14  H    5.267804   3.246289   4.673272   4.023915   2.024881
    15  C    3.287374   2.770174   2.731774   3.699389   2.399278
    16  H    3.534794   3.699535   2.657638   4.628751   3.231567
    17  H    1.567779   4.399356   1.567913   5.171739   4.737399
    18  O    2.060583   3.492486   3.489117   3.703949   4.676932
                   11         12         13         14         15
    11  C    0.000000
    12  N    1.143618   0.000000
    13  C    2.463697   3.500004   0.000000
    14  H    2.625488   3.462504   0.929906   0.000000
    15  C    3.726232   4.818508   1.378995   2.012356   0.000000
    16  H    4.458660   5.496843   2.000077   2.292008   0.929463
    17  H    6.166570   7.299167   4.054748   4.681854   2.732727
    18  O    5.933344   6.984871   4.962022   5.876142   4.212011
                   16         17         18
    16  H    0.000000
    17  H    2.645956   0.000000
    18  O    4.810896   3.288281   0.000000
 Stoichiometry    C8H6N2O2
 Framework group  C1[X(C8H6N2O2)]
 Deg. of freedom    48
 Full point group                 C1      NOp   1
 Largest Abelian subgroup         C1      NOp   1
 Largest concise Abelian subgroup C1      NOp   1
                         Standard orientation:                         
 ---------------------------------------------------------------------
 Center     Atomic      Atomic             Coordinates (Angstroms)
 Number     Number       Type             X           Y           Z
 ---------------------------------------------------------------------
      1          8           0        1.539978   -2.293319    0.380210
      2          7           0        1.739811   -1.167486   -0.016061
      3          6           0        0.615507   -0.207715   -0.009445
      4          6           0        0.845269    1.171962    0.038841
      5          6           0        2.197997    1.844052    0.118921
      6          1           0        2.888395    1.178025    0.104272
      7          6           0       -0.645264   -0.771209   -0.030696
      8          1           0        2.257046    2.348332    0.933618
      9          1           0       -0.751511   -1.694314   -0.044985
     10          6           0       -1.753025    0.068554   -0.030926
     11          6           0       -3.089382   -0.492532   -0.050946
     12          7           0       -4.150617   -0.918702   -0.055543
     13          6           0       -1.573623    1.448786    0.008727
     14          1           0       -2.311719    2.014418    0.009300
     15          6           0       -0.300087    1.976264    0.047488
     16          1           0       -0.198732    2.899604    0.080215
     17          1           0        2.307048    2.434674   -0.631118
     18          8           0        2.822617   -0.807480   -0.442942
 ---------------------------------------------------------------------
 Rotational constants (GHZ):      1.6839618      0.6835056      0.4928677
 Leave Link  202 at Fri Aug 27 07:48:39 2021, MaxMem= 24159191040 cpu:         0.4
 (Enter /public/home/users/caep010/software/Gaussian09/g09/l301.exe)
 Standard basis: GTBas3 (6D, 7F)
 Ernie: Thresh=  0.10000D-02 Tol=  0.10000D-05 Strict=F.
 There are   402 symmetry adapted cartesian basis functions of A   symmetry.
 There are   366 symmetry adapted basis functions of A   symmetry.
   366 basis functions,   570 primitive gaussians,   402 cartesian basis functions
    42 alpha electrons       42 beta electrons
       nuclear repulsion energy       639.1396794054 Hartrees.
 IExCor=  402 DFT=T Ex+Corr=B3LYP ExCW=0 ScaHFX=  0.200000
 ScaDFX=  0.800000  0.720000  1.000000  0.810000 ScalE2=  1.000000  1.000000
 IRadAn=      0 IRanWt=     -1 IRanGd=            0 ICorTp=0 IEmpDi=  4
 NAtoms=   18 NActive=   18 NUniq=   18 SFac= 1.00D+00 NAtFMM=   60 NAOKFM=F Big=F
 Integral buffers will be    131072 words long.
 Raffenetti 2 integral format.
 Two-electron integral symmetry is turned on.
 Leave Link  301 at Fri Aug 27 07:48:39 2021, MaxMem= 24159191040 cpu:         2.4
 (Enter /public/home/users/caep010/software/Gaussian09/g09/l302.exe)
 NPDir=0 NMtPBC=     1 NCelOv=     1 NCel=       1 NClECP=     1 NCelD=      1
         NCelK=      1 NCelE2=     1 NClLst=     1 CellRange=     0.0.
 One-electron integrals computed using PRISM.
 NBasis=   366 RedAO= T EigKep=  9.07D-05  NBF=   366
 NBsUse=   366 1.00D-06 EigRej= -1.00D+00 NBFU=   366
 Precomputing XC quadrature grid using
 IXCGrd= 4 IRadAn=           0 IRanWt=          -1 IRanGd=           0 AccXCQ= 0.00D+00.
 Generated NRdTot=       0 NPtTot=           0 NUsed=           0 NTot=          32
 NSgBfM=   401   401   401   401   401 MxSgAt=    18 MxSgA2=    18.
 Leave Link  302 at Fri Aug 27 07:48:39 2021, MaxMem= 24159191040 cpu:        17.8
 (Enter /public/home/users/caep010/software/Gaussian09/g09/l303.exe)
 DipDrv:  MaxL=1.
 Leave Link  303 at Fri Aug 27 07:48:39 2021, MaxMem= 24159191040 cpu:         1.1
 (Enter /public/home/users/caep010/software/Gaussian09/g09/l401.exe)
 ExpMin= 1.61D-01 ExpMax= 5.48D+03 ExpMxC= 8.25D+02 IAcc=1 IRadAn=         1 AccDes= 0.00D+00
 Harris functional with IExCor=  402 and IRadAn=       1 diagonalized for initial guess.
 HarFok:  IExCor=  402 AccDes= 0.00D+00 IRadAn=         1 IDoV= 1 UseB2=F ITyADJ=14
 ICtDFT=  3500011 ScaDFX=  1.000000  1.000000  1.000000  1.000000
 FoFCou: FMM=F IPFlag=           0 FMFlag=      100000 FMFlg1=           0
         NFxFlg=           0 DoJE=T BraDBF=F KetDBF=T FulRan=T
         wScrn=  0.000000 ICntrl=     500 IOpCl=  0 I1Cent=   200000004 NGrid=           0
         NMat0=    1 NMatS0=      1 NMatT0=    0 NMatD0=    1 NMtDS0=    0 NMtDT0=    0
 Petite list used in FoFCou.
 Harris En= -568.348279667364    
 JPrj=0 DoOrth=F DoCkMO=F.
 Leave Link  401 at Fri Aug 27 07:48:40 2021, MaxMem= 24159191040 cpu:        21.0
 (Enter /public/home/users/caep010/software/Gaussian09/g09/l502.exe)
 Closed shell SCF:
 Using DIIS extrapolation, IDIIS=  1040.
 Integral symmetry usage will be decided dynamically.
 Keep R1 ints in memory in canonical form, NReq=2288577883.
 IVT=      519130 IEndB=      519130 NGot= 24159191040 MDV= 21903338370
 LenX= 21903338370 LenY= 21903176325
 Requested convergence on RMS density matrix=1.00D-08 within 128 cycles.
 Requested convergence on MAX density matrix=1.00D-06.
 Requested convergence on             energy=1.00D-06.
 No special actions if energy rises.
 FoFCou: FMM=F IPFlag=           0 FMFlag=           0 FMFlg1=           0
         NFxFlg=           0 DoJE=F BraDBF=F KetDBF=F FulRan=T
         wScrn=  0.000000 ICntrl=     600 IOpCl=  0 I1Cent=           0 NGrid=           0
         NMat0=    1 NMatS0=  67161 NMatT0=    0 NMatD0=    1 NMtDS0=    0 NMtDT0=    0
 Symmetry not used in FoFCou.
 Integral accuracy reduced to 1.0D-05 until final iterations.

 Cycle   1  Pass 0  IDiag  1:
 E= -567.834926332268    
 DIIS: error= 2.19D-02 at cycle   1 NSaved=   1.
 NSaved= 1 IEnMin= 1 EnMin= -567.834926332268     IErMin= 1 ErrMin= 2.19D-02
 ErrMax= 2.19D-02  0.00D+00 EMaxC= 1.00D-01 BMatC= 4.72D-01 BMatP= 4.72D-01
 IDIUse=3 WtCom= 7.81D-01 WtEn= 2.19D-01
 Coeff-Com:  0.100D+01
 Coeff-En:   0.100D+01
 Coeff:      0.100D+01
 Gap=     0.183 Goal=   None    Shift=    0.000
 GapD=    0.183 DampG=1.000 DampE=0.500 DampFc=0.5000 IDamp=-1.
 Damping current iteration by 5.00D-01
 RMSDP=3.78D-03 MaxDP=2.40D-01              OVMax= 3.16D-01

 Cycle   2  Pass 0  IDiag  1:
 E= -567.941005911298     Delta-E=       -0.106079579029 Rises=F Damp=T
 DIIS: error= 9.96D-03 at cycle   2 NSaved=   2.
 NSaved= 2 IEnMin= 2 EnMin= -567.941005911298     IErMin= 2 ErrMin= 9.96D-03
 ErrMax= 9.96D-03  0.00D+00 EMaxC= 1.00D-01 BMatC= 8.54D-02 BMatP= 4.72D-01
 IDIUse=3 WtCom= 9.00D-01 WtEn= 9.96D-02
 Coeff-Com:  0.236D+00 0.764D+00
 Coeff-En:   0.351D+00 0.649D+00
 Coeff:      0.247D+00 0.753D+00
 Gap=     0.180 Goal=   None    Shift=    0.000
 RMSDP=1.20D-03 MaxDP=7.84D-02 DE=-1.06D-01 OVMax= 2.34D-01

 Cycle   3  Pass 0  IDiag  1:
 E= -568.192633894989     Delta-E=       -0.251627983691 Rises=F Damp=F
 DIIS: error= 1.22D-02 at cycle   3 NSaved=   3.
 NSaved= 3 IEnMin= 3 EnMin= -568.192633894989     IErMin= 2 ErrMin= 9.96D-03
 ErrMax= 1.22D-02  0.00D+00 EMaxC= 1.00D-01 BMatC= 4.31D-02 BMatP= 8.54D-02
 IDIUse=3 WtCom= 8.78D-01 WtEn= 1.22D-01
 Coeff-Com:  0.572D-01 0.411D+00 0.532D+00
 Coeff-En:   0.000D+00 0.000D+00 0.100D+01
 Coeff:      0.503D-01 0.361D+00 0.589D+00
 Gap=     0.189 Goal=   None    Shift=    0.000
 RMSDP=7.50D-04 MaxDP=3.98D-02 DE=-2.52D-01 OVMax= 7.60D-02

 Cycle   4  Pass 0  IDiag  1:
 E= -568.219326901620     Delta-E=       -0.026693006631 Rises=F Damp=F
 DIIS: error= 7.57D-03 at cycle   4 NSaved=   4.
 NSaved= 4 IEnMin= 4 EnMin= -568.219326901620     IErMin= 4 ErrMin= 7.57D-03
 ErrMax= 7.57D-03  0.00D+00 EMaxC= 1.00D-01 BMatC= 1.44D-02 BMatP= 4.31D-02
 IDIUse=3 WtCom= 9.24D-01 WtEn= 7.57D-02
 Coeff-Com:  0.234D-01 0.139D+00 0.380D+00 0.458D+00
 Coeff-En:   0.000D+00 0.000D+00 0.280D+00 0.720D+00
 Coeff:      0.217D-01 0.129D+00 0.372D+00 0.477D+00
 Gap=     0.188 Goal=   None    Shift=    0.000
 RMSDP=3.67D-04 MaxDP=2.92D-02 DE=-2.67D-02 OVMax= 4.58D-02

 Cycle   5  Pass 0  IDiag  1:
 E= -568.230583708390     Delta-E=       -0.011256806770 Rises=F Damp=F
 DIIS: error= 2.88D-03 at cycle   5 NSaved=   5.
 NSaved= 5 IEnMin= 5 EnMin= -568.230583708390     IErMin= 5 ErrMin= 2.88D-03
 ErrMax= 2.88D-03  0.00D+00 EMaxC= 1.00D-01 BMatC= 2.49D-03 BMatP= 1.44D-02
 IDIUse=3 WtCom= 9.71D-01 WtEn= 2.88D-02
 Coeff-Com:  0.784D-02 0.221D-01 0.179D+00 0.351D+00 0.440D+00
 Coeff-En:   0.000D+00 0.000D+00 0.000D+00 0.133D+00 0.867D+00
 Coeff:      0.762D-02 0.214D-01 0.174D+00 0.345D+00 0.452D+00
 Gap=     0.186 Goal=   None    Shift=    0.000
 RMSDP=1.30D-04 MaxDP=8.93D-03 DE=-1.13D-02 OVMax= 1.43D-02

 Cycle   6  Pass 0  IDiag  1:
 E= -568.232464521419     Delta-E=       -0.001880813029 Rises=F Damp=F
 DIIS: error= 7.04D-04 at cycle   6 NSaved=   6.
 NSaved= 6 IEnMin= 6 EnMin= -568.232464521419     IErMin= 6 ErrMin= 7.04D-04
 ErrMax= 7.04D-04  0.00D+00 EMaxC= 1.00D-01 BMatC= 2.21D-04 BMatP= 2.49D-03
 IDIUse=3 WtCom= 9.93D-01 WtEn= 7.04D-03
 Coeff-Com:  0.250D-02-0.215D-03 0.734D-01 0.172D+00 0.295D+00 0.457D+00
 Coeff-En:   0.000D+00 0.000D+00 0.000D+00 0.000D+00 0.656D-01 0.934D+00
 Coeff:      0.249D-02-0.213D-03 0.728D-01 0.171D+00 0.293D+00 0.461D+00
 Gap=     0.187 Goal=   None    Shift=    0.000
 RMSDP=4.70D-05 MaxDP=3.50D-03 DE=-1.88D-03 OVMax= 6.48D-03

 Cycle   7  Pass 0  IDiag  1:
 E= -568.232630577095     Delta-E=       -0.000166055675 Rises=F Damp=F
 DIIS: error= 2.08D-04 at cycle   7 NSaved=   7.
 NSaved= 7 IEnMin= 7 EnMin= -568.232630577095     IErMin= 7 ErrMin= 2.08D-04
 ErrMax= 2.08D-04  0.00D+00 EMaxC= 1.00D-01 BMatC= 3.51D-05 BMatP= 2.21D-04
 IDIUse=3 WtCom= 9.98D-01 WtEn= 2.08D-03
 Coeff-Com:  0.935D-03-0.268D-02 0.316D-01 0.820D-01 0.157D+00 0.327D+00
 Coeff-Com:  0.405D+00
 Coeff-En:   0.000D+00 0.000D+00 0.000D+00 0.000D+00 0.000D+00 0.120D+00
 Coeff-En:   0.880D+00
 Coeff:      0.933D-03-0.267D-02 0.315D-01 0.818D-01 0.156D+00 0.327D+00
 Coeff:      0.406D+00
 Gap=     0.187 Goal=   None    Shift=    0.000
 RMSDP=1.73D-05 MaxDP=1.54D-03 DE=-1.66D-04 OVMax= 3.08D-03

 Cycle   8  Pass 0  IDiag  1:
 E= -568.232654914501     Delta-E=       -0.000024337406 Rises=F Damp=F
 DIIS: error= 9.84D-05 at cycle   8 NSaved=   8.
 NSaved= 8 IEnMin= 8 EnMin= -568.232654914501     IErMin= 8 ErrMin= 9.84D-05
 ErrMax= 9.84D-05  0.00D+00 EMaxC= 1.00D-01 BMatC= 5.03D-06 BMatP= 3.51D-05
 IDIUse=1 WtCom= 1.00D+00 WtEn= 0.00D+00
 Coeff-Com:  0.269D-03-0.177D-02 0.105D-01 0.301D-01 0.617D-01 0.157D+00
 Coeff-Com:  0.296D+00 0.446D+00
 Coeff:      0.269D-03-0.177D-02 0.105D-01 0.301D-01 0.617D-01 0.157D+00
 Coeff:      0.296D+00 0.446D+00
 Gap=     0.187 Goal=   None    Shift=    0.000
 RMSDP=5.99D-06 MaxDP=4.34D-04 DE=-2.43D-05 OVMax= 9.00D-04

 Initial convergence to 1.0D-05 achieved.  Increase integral accuracy.
 Cycle   9  Pass 1  IDiag  1:
 E= -568.232684821482     Delta-E=       -0.000029906982 Rises=F Damp=F
 DIIS: error= 2.75D-05 at cycle   1 NSaved=   1.
 NSaved= 1 IEnMin= 1 EnMin= -568.232684821482     IErMin= 1 ErrMin= 2.75D-05
 ErrMax= 2.75D-05  0.00D+00 EMaxC= 1.00D-01 BMatC= 5.39D-07 BMatP= 5.39D-07
 IDIUse=1 WtCom= 1.00D+00 WtEn= 0.00D+00
 Coeff-Com:  0.100D+01
 Coeff:      0.100D+01
 Gap=     0.187 Goal=   None    Shift=    0.000
 RMSDP=5.99D-06 MaxDP=4.34D-04 DE=-2.99D-05 OVMax= 5.77D-04

 Cycle  10  Pass 1  IDiag  1:
 E= -568.232683759473     Delta-E=        0.000001062009 Rises=F Damp=F
 DIIS: error= 4.74D-05 at cycle   2 NSaved=   2.
 NSaved= 2 IEnMin= 1 EnMin= -568.232684821482     IErMin= 1 ErrMin= 2.75D-05
 ErrMax= 4.74D-05  0.00D+00 EMaxC= 1.00D-01 BMatC= 1.62D-06 BMatP= 5.39D-07
 IDIUse=1 WtCom= 1.00D+00 WtEn= 0.00D+00
 Coeff-Com:  0.650D+00 0.350D+00
 Coeff:      0.650D+00 0.350D+00
 Gap=     0.187 Goal=   None    Shift=    0.000
 RMSDP=3.76D-06 MaxDP=2.47D-04 DE= 1.06D-06 OVMax= 5.15D-04

 Cycle  11  Pass 1  IDiag  1:
 E= -568.232685209449     Delta-E=       -0.000001449976 Rises=F Damp=F
 DIIS: error= 1.38D-05 at cycle   3 NSaved=   3.
 NSaved= 3 IEnMin= 3 EnMin= -568.232685209449     IErMin= 3 ErrMin= 1.38D-05
 ErrMax= 1.38D-05  0.00D+00 EMaxC= 1.00D-01 BMatC= 1.39D-07 BMatP= 5.39D-07
 IDIUse=1 WtCom= 1.00D+00 WtEn= 0.00D+00
 Coeff-Com:  0.250D+00 0.231D+00 0.520D+00
 Coeff:      0.250D+00 0.231D+00 0.520D+00
 Gap=     0.187 Goal=   None    Shift=    0.000
 RMSDP=1.29D-06 MaxDP=1.15D-04 DE=-1.45D-06 OVMax= 2.31D-04

 Cycle  12  Pass 1  IDiag  1:
 E= -568.232685270131     Delta-E=       -0.000000060682 Rises=F Damp=F
 DIIS: error= 7.26D-06 at cycle   4 NSaved=   4.
 NSaved= 4 IEnMin= 4 EnMin= -568.232685270131     IErMin= 4 ErrMin= 7.26D-06
 ErrMax= 7.26D-06  0.00D+00 EMaxC= 1.00D-01 BMatC= 5.44D-08 BMatP= 1.39D-07
 IDIUse=1 WtCom= 1.00D+00 WtEn= 0.00D+00
 Coeff-Com:  0.447D-02 0.844D-01 0.423D+00 0.488D+00
 Coeff:      0.447D-02 0.844D-01 0.423D+00 0.488D+00
 Gap=     0.187 Goal=   None    Shift=    0.000
 RMSDP=6.32D-07 MaxDP=4.11D-05 DE=-6.07D-08 OVMax= 9.06D-05

 Cycle  13  Pass 1  IDiag  1:
 E= -568.232685315873     Delta-E=       -0.000000045742 Rises=F Damp=F
 DIIS: error= 2.81D-06 at cycle   5 NSaved=   5.
 NSaved= 5 IEnMin= 5 EnMin= -568.232685315873     IErMin= 5 ErrMin= 2.81D-06
 ErrMax= 2.81D-06  0.00D+00 EMaxC= 1.00D-01 BMatC= 3.39D-09 BMatP= 5.44D-08
 IDIUse=1 WtCom= 1.00D+00 WtEn= 0.00D+00
 Coeff-Com: -0.112D-01 0.425D-01 0.247D+00 0.320D+00 0.402D+00
 Coeff:     -0.112D-01 0.425D-01 0.247D+00 0.320D+00 0.402D+00
 Gap=     0.187 Goal=   None    Shift=    0.000
 RMSDP=1.49D-07 MaxDP=8.49D-06 DE=-4.57D-08 OVMax= 1.27D-05

 Cycle  14  Pass 1  IDiag  1:
 E= -568.232685318758     Delta-E=       -0.000000002885 Rises=F Damp=F
 DIIS: error= 9.51D-07 at cycle   6 NSaved=   6.
 NSaved= 6 IEnMin= 6 EnMin= -568.232685318758     IErMin= 6 ErrMin= 9.51D-07
 ErrMax= 9.51D-07  0.00D+00 EMaxC= 1.00D-01 BMatC= 2.67D-10 BMatP= 3.39D-09
 IDIUse=1 WtCom= 1.00D+00 WtEn= 0.00D+00
 Coeff-Com: -0.786D-02 0.228D-01 0.137D+00 0.182D+00 0.267D+00 0.399D+00
 Coeff:     -0.786D-02 0.228D-01 0.137D+00 0.182D+00 0.267D+00 0.399D+00
 Gap=     0.187 Goal=   None    Shift=    0.000
 RMSDP=4.37D-08 MaxDP=3.73D-06 DE=-2.89D-09 OVMax= 4.89D-06

 Cycle  15  Pass 1  IDiag  1:
 E= -568.232685318972     Delta-E=       -0.000000000214 Rises=F Damp=F
 DIIS: error= 2.49D-07 at cycle   7 NSaved=   7.
 NSaved= 7 IEnMin= 7 EnMin= -568.232685318972     IErMin= 7 ErrMin= 2.49D-07
 ErrMax= 2.49D-07  0.00D+00 EMaxC= 1.00D-01 BMatC= 1.31D-11 BMatP= 2.67D-10
 IDIUse=1 WtCom= 1.00D+00 WtEn= 0.00D+00
 Coeff-Com: -0.266D-02 0.681D-02 0.410D-01 0.552D-01 0.871D-01 0.213D+00
 Coeff-Com:  0.599D+00
 Coeff:     -0.266D-02 0.681D-02 0.410D-01 0.552D-01 0.871D-01 0.213D+00
 Coeff:      0.599D+00
 Gap=     0.187 Goal=   None    Shift=    0.000
 RMSDP=1.22D-08 MaxDP=8.48D-07 DE=-2.14D-10 OVMax= 1.69D-06

 Cycle  16  Pass 1  IDiag  1:
 E= -568.232685318988     Delta-E=       -0.000000000015 Rises=F Damp=F
 DIIS: error= 1.44D-07 at cycle   8 NSaved=   8.
 NSaved= 8 IEnMin= 8 EnMin= -568.232685318988     IErMin= 8 ErrMin= 1.44D-07
 ErrMax= 1.44D-07  0.00D+00 EMaxC= 1.00D-01 BMatC= 6.36D-12 BMatP= 1.31D-11
 IDIUse=1 WtCom= 1.00D+00 WtEn= 0.00D+00
 Coeff-Com: -0.202D-03-0.732D-04-0.872D-03-0.841D-03 0.254D-02 0.695D-01
 Coeff-Com:  0.455D+00 0.475D+00
 Coeff:     -0.202D-03-0.732D-04-0.872D-03-0.841D-03 0.254D-02 0.695D-01
 Coeff:      0.455D+00 0.475D+00
 Gap=     0.187 Goal=   None    Shift=    0.000
 RMSDP=5.03D-09 MaxDP=3.86D-07 DE=-1.55D-11 OVMax= 5.09D-07

 SCF Done:  E(RB3LYP) =  -568.232685319     A.U. after   16 cycles
            NFock= 16  Conv=0.50D-08     -V/T= 2.0041
 KE= 5.659256010470D+02 PE=-2.603375262124D+03 EE= 8.300772963529D+02
 Leave Link  502 at Fri Aug 27 07:49:47 2021, MaxMem= 24159191040 cpu:       374.9
 (Enter /public/home/users/caep010/software/Gaussian09/g09/l801.exe)
 DoSCS=F DFT=T ScalE2(SS,OS)=  1.000000  1.000000
 Range of M.O.s used for correlation:     1   366
 NBasis=   366 NAE=    42 NBE=    42 NFC=     0 NFV=     0
 NROrb=    366 NOA=    42 NOB=    42 NVA=   324 NVB=   324

 **** Warning!!: The largest alpha MO coefficient is  0.66361744D+02

 Leave Link  801 at Fri Aug 27 07:49:47 2021, MaxMem= 24159191040 cpu:         0.7
 (Enter /public/home/users/caep010/software/Gaussian09/g09/l1101.exe)
 Using compressed storage, NAtomX=    18.
 Will process     19 centers per pass.
 Leave Link 1101 at Fri Aug 27 07:49:48 2021, MaxMem= 24159191040 cpu:        21.0
 (Enter /public/home/users/caep010/software/Gaussian09/g09/l1102.exe)
 Symmetrizing basis deriv contribution to polar:
 IMax=3 JMax=2 DiffMx= 0.00D+00
 Leave Link 1102 at Fri Aug 27 07:49:49 2021, MaxMem= 24159191040 cpu:         1.2
 (Enter /public/home/users/caep010/software/Gaussian09/g09/l1110.exe)
 Forming Gx(P) for the SCF density, NAtomX=    18.
 Integral derivatives from FoFJK, PRISM(SPDF).
 Do as many integral derivatives as possible in FoFJK.
 G2DrvN: MDV=   24159190792.
 G2DrvN: will do    19 centers at a time, making    1 passes.
 Calling FoFCou, ICntrl=  3107 FMM=F I1Cent=   0 AccDes= 0.00D+00.
 FoFJK:  IHMeth= 1 ICntrl=    3107 DoSepK=F KAlg= 0 I1Cent=   0 FoldK=F
 IRaf=         0 NMat=   1 IRICut=       1 DoRegI=T DoRafI=F ISym2E= 0.
 FoFCou: FMM=F IPFlag=           0 FMFlag=      100000 FMFlg1=           0
         NFxFlg=           0 DoJE=F BraDBF=F KetDBF=F FulRan=T
         wScrn=  0.000000 ICntrl=    3107 IOpCl=  0 I1Cent=           0 NGrid=           0
         NMat0=    1 NMatS0=      1 NMatT0=    0 NMatD0=    1 NMtDS0=    0 NMtDT0=    0
 Symmetry not used in FoFCou.
 End of G2Drv F.D. properties file   721 does not exist.
 End of G2Drv F.D. properties file   722 does not exist.
 End of G2Drv F.D. properties file   788 does not exist.
 Leave Link 1110 at Fri Aug 27 07:50:11 2021, MaxMem= 24159191040 cpu:       707.3
 (Enter /public/home/users/caep010/software/Gaussian09/g09/l1002.exe)
 Minotr:  Closed shell wavefunction.
          IDoAtm=111111111111111111
          Direct CPHF calculation.
          Differentiating once with respect to nuclear coordinates.
          Requested convergence is 1.0D-08 RMS, and 1.0D-07 maximum.
          Secondary convergence is 1.0D-12 RMS, and 1.0D-12 maximum.
          NewPWx=T KeepS1=F KeepF1=F KeepIn=T MapXYZ=F SortEE=F KeepMc=T.
          MDV=   24159190490 using IRadAn=       2.
 Generate precomputed XC quadrature information.
 Keep R1 ints in memory in canonical form, NReq=2288065447.
 FoFCou: FMM=F IPFlag=           0 FMFlag=           0 FMFlg1=           0
         NFxFlg=           0 DoJE=F BraDBF=F KetDBF=F FulRan=T
         wScrn=  0.000000 ICntrl=     600 IOpCl=  0 I1Cent=           0 NGrid=           0
         NMat0=    1 NMatS0=  67161 NMatT0=    0 NMatD0=    1 NMtDS0=    0 NMtDT0=    0
 Symmetry not used in FoFCou.
          Solving linear equations simultaneously, MaxMat=       0.
          There are    57 degrees of freedom in the 1st order CPHF.  IDoFFX=6 NUNeed=     0.
     51 vectors produced by pass  0 Test12= 2.39D-14 1.75D-09 XBig12= 1.93D-01 1.40D-01.
 AX will form    51 AO Fock derivatives at one time.
     51 vectors produced by pass  1 Test12= 2.39D-14 1.75D-09 XBig12= 4.78D-02 6.85D-02.
     51 vectors produced by pass  2 Test12= 2.39D-14 1.75D-09 XBig12= 6.87D-04 4.78D-03.
     51 vectors produced by pass  3 Test12= 2.39D-14 1.75D-09 XBig12= 5.85D-06 3.19D-04.
     51 vectors produced by pass  4 Test12= 2.39D-14 1.75D-09 XBig12= 2.28D-08 1.39D-05.
     51 vectors produced by pass  5 Test12= 2.39D-14 1.75D-09 XBig12= 4.79D-11 6.10D-07.
     24 vectors produced by pass  6 Test12= 2.39D-14 1.75D-09 XBig12= 5.82D-14 2.02D-08.
 InvSVY:  IOpt=1 It=  1 EMax= 5.55D-16
 Solved reduced A of dimension   330 with    57 vectors.
 End of Minotr F.D. properties file   721 does not exist.
 End of Minotr F.D. properties file   722 does not exist.
 End of Minotr F.D. properties file   788 does not exist.
 Leave Link 1002 at Fri Aug 27 07:50:50 2021, MaxMem= 24159191040 cpu:      1234.5
 (Enter /public/home/users/caep010/software/Gaussian09/g09/l601.exe)
 Copying SCF densities to generalized density rwf, IOpCl= 0 IROHF=0.

 **********************************************************************

            Population analysis using the SCF density.

 **********************************************************************

 Orbital symmetries:
       Occupied  (A) (A) (A) (A) (A) (A) (A) (A) (A) (A) (A) (A)
                 (A) (A) (A) (A) (A) (A) (A) (A) (A) (A) (A) (A)
                 (A) (A) (A) (A) (A) (A) (A) (A) (A) (A) (A) (A)
                 (A) (A) (A) (A) (A) (A)
       Virtual   (A) (A) (A) (A) (A) (A) (A) (A) (A) (A) (A) (A)
                 (A) (A) (A) (A) (A) (A) (A) (A) (A) (A) (A) (A)
                 (A) (A) (A) (A) (A) (A) (A) (A) (A) (A) (A) (A)
                 (A) (A) (A) (A) (A) (A) (A) (A) (A) (A) (A) (A)
                 (A) (A) (A) (A) (A) (A) (A) (A) (A) (A) (A) (A)
                 (A) (A) (A) (A) (A) (A) (A) (A) (A) (A) (A) (A)
                 (A) (A) (A) (A) (A) (A) (A) (A) (A) (A) (A) (A)
                 (A) (A) (A) (A) (A) (A) (A) (A) (A) (A) (A) (A)
                 (A) (A) (A) (A) (A) (A) (A) (A) (A) (A) (A) (A)
                 (A) (A) (A) (A) (A) (A) (A) (A) (A) (A) (A) (A)
                 (A) (A) (A) (A) (A) (A) (A) (A) (A) (A) (A) (A)
                 (A) (A) (A) (A) (A) (A) (A) (A) (A) (A) (A) (A)
                 (A) (A) (A) (A) (A) (A) (A) (A) (A) (A) (A) (A)
                 (A) (A) (A) (A) (A) (A) (A) (A) (A) (A) (A) (A)
                 (A) (A) (A) (A) (A) (A) (A) (A) (A) (A) (A) (A)
                 (A) (A) (A) (A) (A) (A) (A) (A) (A) (A) (A) (A)
                 (A) (A) (A) (A) (A) (A) (A) (A) (A) (A) (A) (A)
                 (A) (A) (A) (A) (A) (A) (A) (A) (A) (A) (A) (A)
                 (A) (A) (A) (A) (A) (A) (A) (A) (A) (A) (A) (A)
                 (A) (A) (A) (A) (A) (A) (A) (A) (A) (A) (A) (A)
                 (A) (A) (A) (A) (A) (A) (A) (A) (A) (A) (A) (A)
                 (A) (A) (A) (A) (A) (A) (A) (A) (A) (A) (A) (A)
                 (A) (A) (A) (A) (A) (A) (A) (A) (A) (A) (A) (A)
                 (A) (A) (A) (A) (A) (A) (A) (A) (A) (A) (A) (A)
                 (A) (A) (A) (A) (A) (A) (A) (A) (A) (A) (A) (A)
                 (A) (A) (A) (A) (A) (A) (A) (A) (A) (A) (A) (A)
                 (A) (A) (A) (A) (A) (A) (A) (A) (A) (A) (A) (A)
 The electronic state is 1-A.
 Alpha  occ. eigenvalues --  -19.18376 -19.18147 -14.57828 -14.34107 -10.26959
 Alpha  occ. eigenvalues --  -10.25758 -10.24850 -10.23239 -10.22686 -10.22241
 Alpha  occ. eigenvalues --  -10.21312 -10.16743  -1.24952  -1.06854  -0.93075
 Alpha  occ. eigenvalues --   -0.91326  -0.84025  -0.83028  -0.76638  -0.72448
 Alpha  occ. eigenvalues --   -0.67205  -0.64677  -0.58839  -0.55589  -0.55033
 Alpha  occ. eigenvalues --   -0.53225  -0.51427  -0.50797  -0.48410  -0.47437
 Alpha  occ. eigenvalues --   -0.44934  -0.42335  -0.41419  -0.40443  -0.37004
 Alpha  occ. eigenvalues --   -0.36393  -0.35023  -0.32234  -0.32058  -0.31095
 Alpha  occ. eigenvalues --   -0.29340  -0.28383
 Alpha virt. eigenvalues --   -0.09696  -0.06691  -0.02508   0.02882   0.06593
 Alpha virt. eigenvalues --    0.08987   0.11836   0.14149   0.14196   0.15324
 Alpha virt. eigenvalues --    0.18476   0.18803   0.19919   0.20447   0.21783
 Alpha virt. eigenvalues --    0.25145   0.26135   0.28120   0.29921   0.32289
 Alpha virt. eigenvalues --    0.34470   0.36267   0.39079   0.39811   0.41853
 Alpha virt. eigenvalues --    0.42607   0.43368   0.45661   0.46665   0.48332
 Alpha virt. eigenvalues --    0.48805   0.49596   0.50890   0.51236   0.53227
 Alpha virt. eigenvalues --    0.54461   0.57699   0.58423   0.59822   0.60802
 Alpha virt. eigenvalues --    0.61537   0.62936   0.64116   0.65144   0.65717
 Alpha virt. eigenvalues --    0.66794   0.68344   0.69364   0.70123   0.72020
 Alpha virt. eigenvalues --    0.73606   0.74338   0.76073   0.76223   0.77334
 Alpha virt. eigenvalues --    0.78091   0.79407   0.79708   0.80836   0.81286
 Alpha virt. eigenvalues --    0.82763   0.83696   0.84817   0.86638   0.87806
 Alpha virt. eigenvalues --    0.89321   0.90024   0.90894   0.91605   0.93299
 Alpha virt. eigenvalues --    0.95119   0.96955   0.97772   0.98150   0.99160
 Alpha virt. eigenvalues --    1.02658   1.02684   1.05135   1.08085   1.11195
 Alpha virt. eigenvalues --    1.12528   1.14041   1.14559   1.14927   1.16390
 Alpha virt. eigenvalues --    1.19409   1.22666   1.24443   1.26457   1.27383
 Alpha virt. eigenvalues --    1.27920   1.30003   1.31544   1.32352   1.33743
 Alpha virt. eigenvalues --    1.36293   1.37161   1.37962   1.39030   1.41502
 Alpha virt. eigenvalues --    1.42583   1.43476   1.45561   1.46837   1.48090
 Alpha virt. eigenvalues --    1.51236   1.53007   1.55259   1.56084   1.57904
 Alpha virt. eigenvalues --    1.60747   1.66381   1.67593   1.68265   1.69527
 Alpha virt. eigenvalues --    1.72208   1.74724   1.78370   1.79252   1.80349
 Alpha virt. eigenvalues --    1.81765   1.84684   1.85735   1.88895   1.94219
 Alpha virt. eigenvalues --    1.95827   1.98763   2.01750   2.02835   2.05935
 Alpha virt. eigenvalues --    2.08922   2.10407   2.16471   2.17171   2.21739
 Alpha virt. eigenvalues --    2.22754   2.26466   2.27899   2.31739   2.35051
 Alpha virt. eigenvalues --    2.36192   2.39901   2.44271   2.50772   2.52449
 Alpha virt. eigenvalues --    2.55706   2.58178   2.67200   2.69603   2.70961
 Alpha virt. eigenvalues --    2.74154   2.77721   2.79548   2.81793   2.83377
 Alpha virt. eigenvalues --    2.84875   2.87911   2.91546   2.95583   2.96446
 Alpha virt. eigenvalues --    2.97569   3.00736   3.02347   3.05456   3.06352
 Alpha virt. eigenvalues --    3.07861   3.10521   3.11579   3.12405   3.12960
 Alpha virt. eigenvalues --    3.14504   3.17167   3.18443   3.19946   3.21040
 Alpha virt. eigenvalues --    3.24610   3.25738   3.27990   3.30446   3.34077
 Alpha virt. eigenvalues --    3.36810   3.38839   3.40660   3.42468   3.45778
 Alpha virt. eigenvalues --    3.47029   3.48794   3.48945   3.50261   3.51123
 Alpha virt. eigenvalues --    3.53264   3.53797   3.55142   3.58997   3.60868
 Alpha virt. eigenvalues --    3.61407   3.63530   3.65068   3.66924   3.67166
 Alpha virt. eigenvalues --    3.67634   3.68837   3.70793   3.71326   3.74281
 Alpha virt. eigenvalues --    3.75130   3.77112   3.78651   3.81991   3.84563
 Alpha virt. eigenvalues --    3.86214   3.88769   3.92620   3.96884   4.00727
 Alpha virt. eigenvalues --    4.02181   4.03906   4.06780   4.07697   4.09268
 Alpha virt. eigenvalues --    4.09689   4.12977   4.15084   4.16433   4.18347
 Alpha virt. eigenvalues --    4.20408   4.20673   4.23476   4.24549   4.26915
 Alpha virt. eigenvalues --    4.29237   4.30155   4.33527   4.34325   4.36234
 Alpha virt. eigenvalues --    4.38471   4.38618   4.40412   4.40814   4.43772
 Alpha virt. eigenvalues --    4.45215   4.45766   4.47695   4.48936   4.50199
 Alpha virt. eigenvalues --    4.52346   4.52879   4.55672   4.56381   4.58067
 Alpha virt. eigenvalues --    4.60316   4.60788   4.61570   4.63543   4.65193
 Alpha virt. eigenvalues --    4.67136   4.69891   4.71983   4.72088   4.75027
 Alpha virt. eigenvalues --    4.78000   4.87153   4.87993   4.90753   4.96137
 Alpha virt. eigenvalues --    4.96915   4.98422   5.01033   5.01822   5.02642
 Alpha virt. eigenvalues --    5.03939   5.04723   5.06758   5.09202   5.10972
 Alpha virt. eigenvalues --    5.13360   5.15674   5.19680   5.21483   5.25325
 Alpha virt. eigenvalues --    5.34357   5.35718   5.37760   5.38087   5.43070
 Alpha virt. eigenvalues --    5.44332   5.48911   5.56290   5.58184   5.62603
 Alpha virt. eigenvalues --    5.63915   5.67280   5.76470   5.79956   5.83255
 Alpha virt. eigenvalues --    5.87811   5.93394   5.94485   6.01474   6.11149
 Alpha virt. eigenvalues --    6.15535   6.27241   6.29813   6.32499   6.43142
 Alpha virt. eigenvalues --    6.71799   6.80113   6.88841   7.03125   8.94444
 Alpha virt. eigenvalues --    9.61877  10.23990  10.52389  10.89598  11.29978
 Alpha virt. eigenvalues --   11.41235  11.55881  11.72527  12.01578  12.69611
 Alpha virt. eigenvalues --   12.93431  13.15047  16.59227  22.02255
          Condensed to atoms (all electrons):
               1          2          3          4          5          6
     1  O    7.979977   0.524967  -0.121294   0.003437   0.000147   0.000158
     2  N    0.524967   5.365451   0.335347  -0.039635  -0.015768   0.002767
     3  C   -0.121294   0.335347   4.939930   0.471940  -0.031085  -0.010246
     4  C    0.003437  -0.039635   0.471940   4.616217   0.390995  -0.008105
     5  C    0.000147  -0.015768  -0.031085   0.390995   5.034119   0.369586
     6  H    0.000158   0.002767  -0.010246  -0.008105   0.369586   0.507072
     7  C    0.006238  -0.034866   0.363166  -0.005964   0.007874  -0.000035
     8  H    0.000018   0.000268  -0.001634  -0.020056   0.374662  -0.028663
     9  H    0.026518  -0.012787  -0.024019   0.005087  -0.000144  -0.000002
    10  C    0.000948   0.001374  -0.000466  -0.037652   0.001025  -0.000053
    11  C   -0.000032  -0.000134   0.002848   0.001469   0.000013  -0.000000
    12  N    0.000000   0.000000   0.000181  -0.000048  -0.000000  -0.000000
    13  C    0.000032   0.000205  -0.078909   0.027193   0.004380  -0.000104
    14  H    0.000000   0.000011   0.003241   0.000223  -0.000301   0.000006
    15  C   -0.000099   0.002884   0.063013   0.511426  -0.071348   0.003688
    16  H    0.000001  -0.000053   0.002518  -0.026334  -0.008793  -0.000206
    17  H   -0.000006   0.000512   0.000022  -0.014066   0.381628  -0.028885
    18  O   -0.085036   0.494669  -0.100413  -0.004068  -0.018856   0.029832
               7          8          9         10         11         12
     1  O    0.006238   0.000018   0.026518   0.000948  -0.000032   0.000000
     2  N   -0.034866   0.000268  -0.012787   0.001374  -0.000134   0.000000
     3  C    0.363166  -0.001634  -0.024019  -0.000466   0.002848   0.000181
     4  C   -0.005964  -0.020056   0.005087  -0.037652   0.001469  -0.000048
     5  C    0.007874   0.374662  -0.000144   0.001025   0.000013  -0.000000
     6  H   -0.000035  -0.028663  -0.000002  -0.000053  -0.000000  -0.000000
     7  C    5.076436  -0.000291   0.320985   0.506278  -0.032117  -0.006708
     8  H   -0.000291   0.576386   0.000002   0.000061   0.000000  -0.000000
     9  H    0.320985   0.000002   0.562675  -0.012372  -0.007855   0.000451
    10  C    0.506278   0.000061  -0.012372   4.531421   0.331929  -0.006800
    11  C   -0.032117   0.000000  -0.007855   0.331929   4.550073   1.006011
    12  N   -0.006708  -0.000000   0.000451  -0.006800   1.006011   6.316932
    13  C    0.049696  -0.000092   0.004992   0.569399  -0.045205  -0.005098
    14  H    0.002993  -0.000009  -0.000427  -0.015471  -0.008223   0.000469
    15  C   -0.110267   0.000431   0.001198   0.029947   0.003555   0.000198
    16  H    0.003704   0.002507   0.000084  -0.001353  -0.000372   0.000002
    17  H   -0.000213  -0.037884   0.000004   0.000033  -0.000000  -0.000000
    18  O    0.005664   0.001111   0.000608  -0.000036  -0.000000  -0.000000
              13         14         15         16         17         18
     1  O    0.000032   0.000000  -0.000099   0.000001  -0.000006  -0.085036
     2  N    0.000205   0.000011   0.002884  -0.000053   0.000512   0.494669
     3  C   -0.078909   0.003241   0.063013   0.002518   0.000022  -0.100413
     4  C    0.027193   0.000223   0.511426  -0.026334  -0.014066  -0.004068
     5  C    0.004380  -0.000301  -0.071348  -0.008793   0.381628  -0.018856
     6  H   -0.000104   0.000006   0.003688  -0.000206  -0.028885   0.029832
     7  C    0.049696   0.002993  -0.110267   0.003704  -0.000213   0.005664
     8  H   -0.000092  -0.000009   0.000431   0.002507  -0.037884   0.001111
     9  H    0.004992  -0.000427   0.001198   0.000084   0.000004   0.000608
    10  C    0.569399  -0.015471   0.029947  -0.001353   0.000033  -0.000036
    11  C   -0.045205  -0.008223   0.003555  -0.000372  -0.000000  -0.000000
    12  N   -0.005098   0.000469   0.000198   0.000002  -0.000000  -0.000000
    13  C    4.762491   0.331615   0.520315  -0.018914  -0.000042  -0.000017
    14  H    0.331615   0.587436  -0.018186  -0.001755  -0.000004  -0.000000
    15  C    0.520315  -0.018186   4.822896   0.331828  -0.000509   0.000324
    16  H   -0.018914  -0.001755   0.331828   0.610432   0.002302   0.000009
    17  H   -0.000042  -0.000004  -0.000509   0.002302   0.558642   0.000276
    18  O   -0.000017  -0.000000   0.000324   0.000009   0.000276   8.031188
 Mulliken charges:
               1
     1  O   -0.335974
     2  N    0.374788
     3  C    0.185861
     4  C    0.127942
     5  C   -0.418132
     6  H    0.163190
     7  C   -0.152574
     8  H    0.133182
     9  H    0.135004
    10  C    0.101788
    11  C    0.198041
    12  N   -0.305593
    13  C   -0.121938
    14  H    0.118383
    15  C   -0.091295
    16  H    0.104390
    17  H    0.138190
    18  O   -0.355253
 Sum of Mulliken charges =  -0.00000
 Mulliken charges with hydrogens summed into heavy atoms:
               1
     1  O   -0.335974
     2  N    0.374788
     3  C    0.185861
     4  C    0.127942
     5  C    0.016431
     7  C   -0.017570
    10  C    0.101788
    11  C    0.198041
    12  N   -0.305593
    13  C   -0.003555
    15  C    0.013095
    18  O   -0.355253
 APT charges:
               1
     1  O    0.435591
     2  N   -1.123966
     3  C   -0.325226
     4  C   -0.374380
     5  C   -0.772626
     6  H    0.300117
     7  C   -0.371725
     8  H    0.428243
     9  H    0.366513
    10  C   -0.563427
    11  C   -2.429835
    12  N    2.906854
    13  C   -0.250701
    14  H    0.545811
    15  C   -0.226784
    16  H    0.493888
    17  H    0.443384
    18  O    0.518268
 Sum of APT charges =  -0.00000
 APT charges with hydrogens summed into heavy atoms:
               1
     1  O    0.435591
     2  N   -1.123966
     3  C   -0.325226
     4  C   -0.374380
     5  C    0.399118
     7  C   -0.005211
    10  C   -0.563427
    11  C   -2.429835
    12  N    2.906854
    13  C    0.295110
    15  C    0.267104
    18  O    0.518268
 Electronic spatial extent (au):  <R**2>=           2103.8813
 Charge=             -0.0000 electrons
 Dipole moment (field-independent basis, Debye):
    X=              1.4295    Y=              4.6707    Z=              0.1551  Tot=              4.8870
 Quadrupole moment (field-independent basis, Debye-Ang):
   XX=            -88.8696   YY=            -64.5457   ZZ=            -66.2659
   XY=             -0.2919   XZ=              1.0271   YZ=              1.1703
 Traceless Quadrupole moment (field-independent basis, Debye-Ang):
   XX=            -15.6425   YY=              8.6814   ZZ=              6.9612
   XY=             -0.2919   XZ=              1.0271   YZ=              1.1703
 Octapole moment (field-independent basis, Debye-Ang**2):
  XXX=             99.2763  YYY=             17.2078  ZZZ=              0.0469  XYY=              2.7729
  XXY=             40.8321  XXZ=              5.9994  XZZ=              9.4465  YZZ=             -4.5382
  YYZ=             -2.8740  XYZ=              0.9902
 Hexadecapole moment (field-independent basis, Debye-Ang**3):
 XXXX=          -2335.3206 YYYY=           -762.9900 ZZZZ=            -76.5789 XXXY=           -115.0601
 XXXZ=              6.2163 YYYX=             -4.3334 YYYZ=              6.5861 ZZZX=             -1.7990
 ZZZY=             -1.1503 XXYY=           -454.9201 XXZZ=           -313.6098 YYZZ=           -141.8948
 XXYZ=             -3.2303 YYXZ=             -5.0505 ZZXY=             -5.1471
 N-N= 6.391396794054D+02 E-N=-2.603375250775D+03  KE= 5.659256010470D+02
  Exact polarizability:   0.000   0.000   0.000   0.000   0.000   0.000
 Approx polarizability: 236.480  26.533 188.012  -7.347  -7.793  79.856
 No NMR shielding tensors so no spin-rotation constants.
 Leave Link  601 at Fri Aug 27 07:50:51 2021, MaxMem= 24159191040 cpu:        16.1
 (Enter /public/home/users/caep010/software/Gaussian09/g09/l701.exe)
 Compute integral second derivatives.
 ... and contract with generalized density number  0.
 Leave Link  701 at Fri Aug 27 07:50:52 2021, MaxMem= 24159191040 cpu:        18.1
 (Enter /public/home/users/caep010/software/Gaussian09/g09/l702.exe)
 L702 exits ... SP integral derivatives will be done elsewhere.
 Leave Link  702 at Fri Aug 27 07:50:52 2021, MaxMem= 24159191040 cpu:         0.8
 (Enter /public/home/users/caep010/software/Gaussian09/g09/l703.exe)
 Compute integral second derivatives, UseDBF=F ICtDFT=           0.
 Integral derivatives from FoFJK, PRISM(SPDF).
 Calling FoFJK, ICntrl=    100147 FMM=F ISym2X=0 I1Cent= 0 IOpClX= 0 NMat=1 NMatS=1 NMatT=0.
 FoFJK:  IHMeth= 1 ICntrl=  100147 DoSepK=F KAlg= 0 I1Cent=   0 FoldK=F
 IRaf=         0 NMat=   1 IRICut=       1 DoRegI=T DoRafI=F ISym2E= 0.
 FoFCou: FMM=F IPFlag=           0 FMFlag=      100000 FMFlg1=         800
         NFxFlg=           0 DoJE=F BraDBF=F KetDBF=F FulRan=T
         wScrn=  0.000000 ICntrl=  100147 IOpCl=  0 I1Cent=           0 NGrid=           0
         NMat0=    1 NMatS0=      1 NMatT0=    0 NMatD0=    1 NMtDS0=    0 NMtDT0=    0
 Symmetry not used in FoFCou.
 Leave Link  703 at Fri Aug 27 07:51:35 2021, MaxMem= 24159191040 cpu:      1357.1
 (Enter /public/home/users/caep010/software/Gaussian09/g09/l716.exe)
 Dipole        = 5.62394835D-01 1.83761061D+00 6.10143733D-02
 Polarizability= 0.00000000D+00 0.00000000D+00 0.00000000D+00
                 0.00000000D+00 0.00000000D+00 0.00000000D+00
 ***** Axes restored to original set *****
 -------------------------------------------------------------------
 Center     Atomic                   Forces (Hartrees/Bohr)
 Number     Number              X              Y              Z
 -------------------------------------------------------------------
      1        8          -0.011861213   -0.014595702    0.014182096
      2        7           0.006339758    0.003990242   -0.001799386
      3        6           0.002330086    0.010631738    0.000612774
      4        6          -0.000878723   -0.003067654   -0.001231493
      5        6          -0.030441294   -0.116419693    0.032685816
      6        1           0.052309095    0.053008935    0.096972802
      7        6          -0.020432691    0.062198355   -0.145033682
      8        1          -0.105278310    0.065974183   -0.035213566
      9        1           0.019418607   -0.068603244    0.150713569
     10        6          -0.004261409   -0.013757101    0.004987812
     11        6           0.014301319    0.041400828   -0.006349580
     12        7          -0.010517014   -0.030968313    0.004539471
     13        6           0.067316044    0.077961671    0.119459438
     14        1          -0.071119060   -0.084306720   -0.125735335
     15        6           0.023096768   -0.065371881    0.146269858
     16        1          -0.022187387    0.072688602   -0.150629388
     17        1           0.083186524    0.001765673   -0.096597294
     18        8           0.008678900    0.007470080   -0.007833913
 -------------------------------------------------------------------
 Cartesian Forces:  Max     0.150713569 RMS     0.065019694
 FormGI is forming the generalized inverse of G from B-inverse, IUseBI=4.
 Leave Link  716 at Fri Aug 27 07:51:35 2021, MaxMem= 24159191040 cpu:         1.5
 (Enter /public/home/users/caep010/software/Gaussian09/g09/l103.exe)

 GradGradGradGradGradGradGradGradGradGradGradGradGradGradGradGradGradGrad
 Berny optimization.
 Red2BG is reusing G-inverse.
 Internal  Forces:  Max     0.168712383 RMS     0.040845491
 Search for a local minimum.
 Step number   1 out of a maximum of   91
 All quantities printed in internal units (Hartrees-Bohrs-Radians)
 RMS Force = .40845D-01 SwitMx=.10000D-02 MixMth= 1
 Mixed Optimization -- RFO/linear search
 Second derivative matrix not updated -- analytic derivatives used.
 ITU=  0
     Eigenvalues ---   -0.00304   0.00079   0.01041   0.01828   0.01887
     Eigenvalues ---    0.02137   0.02396   0.02512   0.02662   0.02843
     Eigenvalues ---    0.03051   0.05901   0.06169   0.06318   0.07730
     Eigenvalues ---    0.11324   0.11420   0.11569   0.12720   0.12993
     Eigenvalues ---    0.15162   0.15558   0.15927   0.17547   0.18825
     Eigenvalues ---    0.19262   0.20231   0.23249   0.24312   0.28266
     Eigenvalues ---    0.31463   0.33623   0.39100   0.40074   0.44039
     Eigenvalues ---    0.47000   0.48488   0.52829   0.64421   0.67768
     Eigenvalues ---    0.71582   0.71875   0.78744   0.85456   0.85565
     Eigenvalues ---    0.85928   0.86130   1.35531
 Eigenvalue     1 is  -3.04D-03 should be greater than     0.000000 Eigenvector:
                          D18       D15       D17       D16       D14
   1                   -0.41046  -0.40183  -0.39982  -0.39262  -0.39119
                          D13       D4        D2        D3        D1
   1                   -0.38400  -0.11486  -0.10117  -0.08953  -0.07584
 RFO step:  Lambda=-1.43755270D-01 EMin=-3.04217419D-03
 Linear search not attempted -- first point.
 Maximum step size (   0.300) exceeded in Quadratic search.
    -- Step size scaled by   0.748
 Iteration  1 RMS(Cart)=  0.08019887 RMS(Int)=  0.01140887
 Iteration  2 RMS(Cart)=  0.01356810 RMS(Int)=  0.00024836
 Iteration  3 RMS(Cart)=  0.00026457 RMS(Int)=  0.00001794
 Iteration  4 RMS(Cart)=  0.00000009 RMS(Int)=  0.00001794
 ITry= 1 IFail=0 DXMaxC= 3.82D-01 DCOld= 1.00D+10 DXMaxT= 3.00D-01 DXLimC= 3.00D+00 Rises=F
 Variable       Old X    -DE/DX   Delta X   Delta X   Delta X     New X
                                 (Linear)    (Quad)   (Total)
    R1        2.28685   0.02043   0.00000   0.01456   0.01456   2.30141
    R2        2.79351   0.00345   0.00000  -0.00148  -0.00148   2.79204
    R3        2.30229   0.01244   0.00000   0.00833   0.00833   2.31061
    R4        2.64469   0.00777   0.00000   0.00313   0.00313   2.64782
    R5        2.60996   0.00888   0.00000   0.01020   0.01021   2.62016
    R6        2.85842   0.00445   0.00000   0.00245   0.00245   2.86087
    R7        2.64482   0.00462   0.00000   0.00459   0.00459   2.64941
    R8        1.81301   0.12219   0.00000   0.10760   0.10760   1.92062
    R9        1.81405   0.12910   0.00000   0.11134   0.11134   1.92539
   R10        1.81580   0.12749   0.00000   0.11182   0.11182   1.92761
   R11        1.75614   0.16671   0.00000   0.12438   0.12438   1.88052
   R12        2.62688   0.00352   0.00000   0.00484   0.00484   2.63172
   R13        2.73917  -0.01124   0.00000  -0.01901  -0.01901   2.72016
   R14        2.63127   0.00604   0.00000   0.00998   0.00998   2.64125
   R15        2.16112   0.03302   0.00000   0.01671   0.01671   2.17783
   R16        1.75727   0.16726   0.00000   0.12518   0.12518   1.88245
   R17        2.60592   0.00828   0.00000   0.00834   0.00834   2.61426
   R18        1.75643   0.16871   0.00000   0.12615   0.12615   1.88258
    A1        2.06799  -0.01339   0.00000  -0.01044  -0.01045   2.05754
    A2        2.13697   0.01341   0.00000   0.02332   0.02330   2.16027
    A3        2.07794  -0.00007   0.00000  -0.01311  -0.01313   2.06481
    A4        2.11221   0.01451   0.00000   0.00664   0.00661   2.11882
    A5        2.01453  -0.01160   0.00000  -0.00318  -0.00321   2.01132
    A6        2.15629  -0.00290   0.00000  -0.00319  -0.00324   2.15305
    A7        2.19774   0.00771   0.00000   0.00108   0.00108   2.19882
    A8        2.01794   0.00068   0.00000   0.00278   0.00276   2.02070
    A9        2.06711  -0.00839   0.00000  -0.00401  -0.00401   2.06311
   A10        1.91164   0.00701   0.00000   0.02212   0.02209   1.93373
   A11        1.91065  -0.00312   0.00000  -0.00942  -0.00942   1.90123
   A12        1.91058  -0.00153   0.00000   0.00734   0.00732   1.91789
   A13        1.91068  -0.00018   0.00000   0.00313   0.00313   1.91381
   A14        1.91041  -0.00181   0.00000  -0.01957  -0.01963   1.89078
   A15        1.90984  -0.00037   0.00000  -0.00362  -0.00361   1.90623
   A16        2.10583  -0.00279   0.00000  -0.00733  -0.00733   2.09850
   A17        2.07257   0.00193   0.00000   0.00283   0.00282   2.07539
   A18        2.10478   0.00086   0.00000   0.00450   0.00449   2.10927
   A19        2.09538  -0.00053   0.00000   0.00094   0.00094   2.09633
   A20        2.08995   0.00073   0.00000  -0.00176  -0.00177   2.08818
   A21        2.09773  -0.00020   0.00000   0.00088   0.00088   2.09861
   A22        2.09520   0.00044   0.00000  -0.00152  -0.00152   2.09368
   A23        2.09319  -0.00173   0.00000  -0.00103  -0.00104   2.09215
   A24        2.09480   0.00129   0.00000   0.00255   0.00255   2.09735
   A25        2.13623   0.00129   0.00000   0.00017   0.00015   2.13638
   A26        2.07358  -0.00157   0.00000  -0.00216  -0.00217   2.07141
   A27        2.07337   0.00028   0.00000   0.00200   0.00199   2.07537
   A28        3.12573   0.00064   0.00000   0.00244   0.00244   3.12818
   A29        3.15384  -0.00059   0.00000  -0.00217  -0.00217   3.15167
    D1        2.71962  -0.00002   0.00000  -0.04338  -0.04336   2.67626
    D2       -0.40356  -0.00031   0.00000  -0.05951  -0.05953  -0.46309
    D3       -0.44730  -0.00186   0.00000  -0.05279  -0.05277  -0.50007
    D4        2.71271  -0.00215   0.00000  -0.06893  -0.06895   2.64376
    D5       -0.02488  -0.00119   0.00000  -0.04031  -0.04034  -0.06522
    D6       -3.13576  -0.00065   0.00000  -0.03423  -0.03425   3.11318
    D7        3.09676  -0.00095   0.00000  -0.02282  -0.02282   3.07394
    D8       -0.01412  -0.00040   0.00000  -0.01674  -0.01673  -0.03084
    D9        0.00352   0.00052   0.00000   0.02226   0.02224   0.02575
   D10       -3.13757   0.00089   0.00000   0.02965   0.02959  -3.10799
   D11       -3.11914   0.00001   0.00000   0.00556   0.00559  -3.11355
   D12        0.02295   0.00039   0.00000   0.01295   0.01294   0.03589
   D13        0.03078   0.00012   0.00000  -0.21302  -0.21306  -0.18228
   D14       -2.06430  -0.00204   0.00000  -0.22464  -0.22466  -2.28895
   D15        2.12549   0.00126   0.00000  -0.21894  -0.21892   1.90657
   D16        3.14087  -0.00028   0.00000  -0.21915  -0.21917   2.92171
   D17        1.04580  -0.00245   0.00000  -0.23077  -0.23077   0.81503
   D18       -1.04760   0.00085   0.00000  -0.22506  -0.22503  -1.27263
   D19       -0.00191   0.00013   0.00000   0.00814   0.00814   0.00623
   D20        3.14011  -0.00007   0.00000   0.00037   0.00039   3.14050
   D21       -3.11522   0.00035   0.00000   0.01365   0.01365  -3.10157
   D22        0.02680   0.00015   0.00000   0.00589   0.00590   0.03270
   D23       -3.13999  -0.00052   0.00000  -0.00396  -0.00397   3.13922
   D24       -0.01544  -0.00008   0.00000   0.00012   0.00009  -0.01535
   D25        0.00210  -0.00014   0.00000   0.00343   0.00343   0.00553
   D26        3.12665   0.00030   0.00000   0.00750   0.00750   3.13415
   D27       -3.14089   0.00001   0.00000  -0.00307  -0.00306   3.13924
   D28        0.00043  -0.00023   0.00000  -0.00822  -0.00821  -0.00778
   D29       -0.01636   0.00045   0.00000   0.00101   0.00101  -0.01535
   D30        3.12496   0.00021   0.00000  -0.00414  -0.00414   3.12082
   D31        0.00848   0.00020   0.00000   0.00388   0.00389   0.01238
   D32       -3.13354   0.00040   0.00000   0.01164   0.01166  -3.12188
   D33       -3.13339  -0.00004   0.00000  -0.00127  -0.00126  -3.13465
   D34        0.00778   0.00016   0.00000   0.00649   0.00650   0.01428
         Item               Value     Threshold  Converged?
 Maximum Force            0.168712     0.000450     NO 
 RMS     Force            0.040845     0.000300     NO 
 Maximum Displacement     0.381756     0.001800     NO 
 RMS     Displacement     0.087730     0.001200     NO 
 Predicted change in Energy=-7.464544D-02
 Lowest energy point so far.  Saving SCF results.
 GradGradGradGradGradGradGradGradGradGradGradGradGradGradGradGradGradGrad

 Leave Link  103 at Fri Aug 27 07:51:35 2021, MaxMem= 24159191040 cpu:         3.7
 (Enter /public/home/users/caep010/software/Gaussian09/g09/l202.exe)
                          Input orientation:                          
 ---------------------------------------------------------------------
 Center     Atomic      Atomic             Coordinates (Angstroms)
 Number     Number       Type             X           Y           Z
 ---------------------------------------------------------------------
      1          8           0        4.228221   10.843891    8.179179
      2          7           0        4.532560   11.214928    7.059860
      3          6           0        3.874724   10.558255    5.911390
      4          6           0        3.711906   11.220027    4.687128
      5          6           0        4.088833   12.657014    4.395741
      6          1           0        4.324600   13.149174    5.253150
      7          6           0        3.438895    9.262264    6.141444
      8          1           0        3.303159   13.119039    3.940383
      9          1           0        3.557501    8.845276    7.037173
     10          6           0        2.844308    8.556733    5.098294
     11          6           0        2.385120    7.208663    5.307718
     12          7           0        2.004464    6.132071    5.463319
     13          6           0        2.682206    9.170128    3.852901
     14          1           0        2.259335    8.669139    3.102902
     15          6           0        3.104027   10.474503    3.667175
     16          1           0        2.966075   10.903384    2.778649
     17          1           0        4.899174   12.684515    3.776795
     18          8           0        5.375693   12.070996    6.833299
 ---------------------------------------------------------------------
                    Distance matrix (angstroms):
                    1          2          3          4          5
     1  O    0.000000
     2  N    1.217853   0.000000
     3  C    2.312880   1.477481   0.000000
     4  C    3.549996   2.510648   1.401167   0.000000
     5  C    4.197766   3.061704   2.597657   1.513906   0.000000
     6  H    3.726293   2.654949   2.710817   2.101757   1.016346
     7  C    2.697581   2.419192   1.386530   2.454059   3.872238
     8  H    4.898920   3.855930   3.281641   2.081093   1.018872
     9  H    2.397603   2.562519   2.074202   3.344547   4.667850
    10  C    4.078990   3.709979   2.393528   2.831063   4.342203
    11  C    4.985699   4.871516   3.715254   4.270426   5.780905
    12  N    5.875563   5.897089   4.825945   5.422649   6.932474
    13  C    4.889613   4.229610   2.754337   2.440963   3.798900
    14  H    5.862989   5.225525   3.750446   3.335681   4.574018
    15  C    4.664594   3.754896   2.374339   1.402008   2.502799
    16  H    5.546374   4.569431   3.280064   2.073359   2.636434
    17  H    4.818615   3.615605   3.182290   2.093570   1.020050
    18  O    2.152643   1.222725   2.321898   2.845766   2.817998
                    6          7          8          9         10
     6  H    0.000000
     7  C    4.084313   0.000000
     8  H    1.663612   4.442725   0.000000
     9  H    4.721728   0.995127   5.283923   0.000000
    10  C    4.827604   1.392648   4.729264   2.085942   0.000000
    11  C    6.249339   2.454143   6.135548   2.654053   1.439446
    12  N    7.393709   3.509352   7.267989   3.500061   2.591827
    13  C    4.526694   2.412156   3.998391   3.318322   1.397689
    14  H    5.381413   3.312989   4.646779   4.146656   2.082407
    15  C    3.340506   2.775548   2.666058   3.770531   2.406948
    16  H    3.607259   3.771634   2.524357   4.766615   3.301871
    17  H    1.650959   4.408603   1.662177   5.212476   4.796605
    18  O    2.182690   3.481211   3.709818   3.708457   4.665641
                   11         12         13         14         15
    11  C    0.000000
    12  N    1.152458   0.000000
    13  C    2.460101   3.504650   0.000000
    14  H    2.647645   3.474657   0.996147   0.000000
    15  C    3.724771   4.826167   1.383409   2.071533   0.000000
    16  H    4.514938   5.558559   2.058829   2.365687   0.996217
    17  H    6.216844   7.359227   4.155918   4.852435   2.849337
    18  O    5.908740   6.965118   4.955066   5.932974   4.211128
                   16         17         18
    16  H    0.000000
    17  H    2.811688   0.000000
    18  O    4.858988   3.153678   0.000000
 Stoichiometry    C8H6N2O2
 Framework group  C1[X(C8H6N2O2)]
 Deg. of freedom    48
 Full point group                 C1      NOp   1
 RotChk:  IX=2 Diff= 2.35D-02
 Largest Abelian subgroup         C1      NOp   1
 Largest concise Abelian subgroup C1      NOp   1
                         Standard orientation:                         
 ---------------------------------------------------------------------
 Center     Atomic      Atomic             Coordinates (Angstroms)
 Number     Number       Type             X           Y           Z
 ---------------------------------------------------------------------
      1          8           0        1.542756   -2.289337    0.425880
      2          7           0        1.740827   -1.174237   -0.021878
      3          6           0        0.621868   -0.209798    0.005287
      4          6           0        0.849992    1.171975    0.049217
      5          6           0        2.200712    1.847619    0.153969
      6          1           0        2.928421    1.169138    0.361483
      7          6           0       -0.644884   -0.773244   -0.013027
      8          1           0        2.163786    2.547510    0.893489
      9          1           0       -0.753274   -1.762423   -0.020338
     10          6           0       -1.755327    0.067042   -0.030508
     11          6           0       -3.082333   -0.490244   -0.052677
     12          7           0       -4.150742   -0.922204   -0.061225
     13          6           0       -1.574026    1.452780   -0.010641
     14          1           0       -2.364947    2.058211   -0.025048
     15          6           0       -0.295784    1.979834    0.035512
     16          1           0       -0.183629    2.969238    0.066347
     17          1           0        2.429850    2.303940   -0.729076
     18          8           0        2.798230   -0.821452   -0.524369
 ---------------------------------------------------------------------
 Rotational constants (GHZ):      1.6609327      0.6828613      0.4925922
 Leave Link  202 at Fri Aug 27 07:51:35 2021, MaxMem= 24159191040 cpu:         0.3
 (Enter /public/home/users/caep010/software/Gaussian09/g09/l301.exe)
 Standard basis: GTBas3 (6D, 7F)
 Ernie: Thresh=  0.10000D-02 Tol=  0.10000D-05 Strict=F.
 There are   402 symmetry adapted cartesian basis functions of A   symmetry.
 There are   366 symmetry adapted basis functions of A   symmetry.
   366 basis functions,   570 primitive gaussians,   402 cartesian basis functions
    42 alpha electrons       42 beta electrons
       nuclear repulsion energy       635.7514452845 Hartrees.
 IExCor=  402 DFT=T Ex+Corr=B3LYP ExCW=0 ScaHFX=  0.200000
 ScaDFX=  0.800000  0.720000  1.000000  0.810000 ScalE2=  1.000000  1.000000
 IRadAn=      0 IRanWt=     -1 IRanGd=            0 ICorTp=0 IEmpDi=  4
 NAtoms=   18 NActive=   18 NUniq=   18 SFac= 1.00D+00 NAtFMM=   60 NAOKFM=F Big=F
 Integral buffers will be    131072 words long.
 Raffenetti 2 integral format.
 Two-electron integral symmetry is turned on.
 Leave Link  301 at Fri Aug 27 07:51:35 2021, MaxMem= 24159191040 cpu:         1.6
 (Enter /public/home/users/caep010/software/Gaussian09/g09/l302.exe)
 NPDir=0 NMtPBC=     1 NCelOv=     1 NCel=       1 NClECP=     1 NCelD=      1
         NCelK=      1 NCelE2=     1 NClLst=     1 CellRange=     0.0.
 One-electron integrals computed using PRISM.
 NBasis=   366 RedAO= T EigKep=  9.50D-05  NBF=   366
 NBsUse=   366 1.00D-06 EigRej= -1.00D+00 NBFU=   366
 Precomputing XC quadrature grid using
 IXCGrd= 4 IRadAn=           0 IRanWt=          -1 IRanGd=           0 AccXCQ= 0.00D+00.
 Generated NRdTot=       0 NPtTot=           0 NUsed=           0 NTot=          32
 NSgBfM=   401   401   401   402   402 MxSgAt=    18 MxSgA2=    18.
 Leave Link  302 at Fri Aug 27 07:51:36 2021, MaxMem= 24159191040 cpu:        18.0
 (Enter /public/home/users/caep010/software/Gaussian09/g09/l303.exe)
 DipDrv:  MaxL=1.
 Leave Link  303 at Fri Aug 27 07:51:36 2021, MaxMem= 24159191040 cpu:         1.0
 (Enter /public/home/users/caep010/software/Gaussian09/g09/l401.exe)
 Initial guess from the checkpoint file:  "/public/home/users/caep010/.cache/gau_scr/Gau-118680.chk"
 B after Tr=    -0.000000    0.000000   -0.000000
         Rot=    0.999998    0.002096    0.000136    0.000423 Ang=   0.25 deg.
 Guess basis will be translated and rotated to current coordinates.
 JPrj=2 DoOrth=T DoCkMO=T.
 Generating alternative initial guess.
 ExpMin= 1.61D-01 ExpMax= 5.48D+03 ExpMxC= 8.25D+02 IAcc=1 IRadAn=         1 AccDes= 0.00D+00
 Harris functional with IExCor=  402 and IRadAn=       1 diagonalized for initial guess.
 HarFok:  IExCor=  402 AccDes= 0.00D+00 IRadAn=         1 IDoV= 1 UseB2=F ITyADJ=14
 ICtDFT=  3500011 ScaDFX=  1.000000  1.000000  1.000000  1.000000
 FoFCou: FMM=F IPFlag=           0 FMFlag=      100000 FMFlg1=           0
         NFxFlg=           0 DoJE=T BraDBF=F KetDBF=T FulRan=T
         wScrn=  0.000000 ICntrl=     500 IOpCl=  0 I1Cent=   200000004 NGrid=           0
         NMat0=    1 NMatS0=      1 NMatT0=    0 NMatD0=    1 NMtDS0=    0 NMtDT0=    0
 Petite list used in FoFCou.
 Harris En= -568.381112639059    
 Leave Link  401 at Fri Aug 27 07:51:37 2021, MaxMem= 24159191040 cpu:        26.0
 (Enter /public/home/users/caep010/software/Gaussian09/g09/l502.exe)
 Closed shell SCF:
 Using DIIS extrapolation, IDIIS=  1040.
 Integral symmetry usage will be decided dynamically.
 Keep R1 ints in memory in canonical form, NReq=2288577883.
 IVT=      519130 IEndB=      519130 NGot= 24159191040 MDV= 21903338370
 LenX= 21903338370 LenY= 21903176325
 Requested convergence on RMS density matrix=1.00D-08 within 128 cycles.
 Requested convergence on MAX density matrix=1.00D-06.
 Requested convergence on             energy=1.00D-06.
 No special actions if energy rises.
 FoFCou: FMM=F IPFlag=           0 FMFlag=           0 FMFlg1=           0
         NFxFlg=           0 DoJE=F BraDBF=F KetDBF=F FulRan=T
         wScrn=  0.000000 ICntrl=     600 IOpCl=  0 I1Cent=           0 NGrid=           0
         NMat0=    1 NMatS0=  67161 NMatT0=    0 NMatD0=    1 NMtDS0=    0 NMtDT0=    0
 Symmetry not used in FoFCou.
 Integral accuracy reduced to 1.0D-05 until final iterations.

 Cycle   1  Pass 0  IDiag  1:
 E= -568.288908413889    
 DIIS: error= 5.93D-03 at cycle   1 NSaved=   1.
 NSaved= 1 IEnMin= 1 EnMin= -568.288908413889     IErMin= 1 ErrMin= 5.93D-03
 ErrMax= 5.93D-03  0.00D+00 EMaxC= 1.00D-01 BMatC= 1.66D-02 BMatP= 1.66D-02
 IDIUse=3 WtCom= 9.41D-01 WtEn= 5.93D-02
 Coeff-Com:  0.100D+01
 Coeff-En:   0.100D+01
 Coeff:      0.100D+01
 Gap=     1.058 Goal=   None    Shift=    0.000
 GapD=    1.058 DampG=2.000 DampE=1.000 DampFc=2.0000 IDamp=-1.
 RMSDP=7.58D-04 MaxDP=2.82D-02              OVMax= 4.11D-02

 Cycle   2  Pass 0  IDiag  1:
 E= -568.309349716229     Delta-E=       -0.020441302340 Rises=F Damp=F
 DIIS: error= 1.69D-03 at cycle   2 NSaved=   2.
 NSaved= 2 IEnMin= 2 EnMin= -568.309349716229     IErMin= 2 ErrMin= 1.69D-03
 ErrMax= 1.69D-03  0.00D+00 EMaxC= 1.00D-01 BMatC= 1.20D-03 BMatP= 1.66D-02
 IDIUse=3 WtCom= 9.83D-01 WtEn= 1.69D-02
 Coeff-Com:  0.721D-01 0.928D+00
 Coeff-En:   0.000D+00 0.100D+01
 Coeff:      0.709D-01 0.929D+00
 Gap=     0.185 Goal=   None    Shift=    0.000
 RMSDP=1.84D-04 MaxDP=1.34D-02 DE=-2.04D-02 OVMax= 1.41D-02

 Cycle   3  Pass 0  IDiag  1:
 E= -568.309153982419     Delta-E=        0.000195733809 Rises=F Damp=F
 DIIS: error= 1.43D-03 at cycle   3 NSaved=   3.
 NSaved= 3 IEnMin= 2 EnMin= -568.309349716229     IErMin= 3 ErrMin= 1.43D-03
[...]
 0,2.3820645194,7.2063909307,5.318801267\N,0,2.0261332316,6.1167870345,
 5.4782201554\C,0,2.5914220389,9.193120095,3.8853763601\H,0,2.079690083
 3,8.6646335496,3.0896742161\C,0,3.01798718,10.4977033932,3.6987071175\
 H,0,2.8274832208,10.9830323264,2.7477324554\H,0,5.1999082001,12.731216
 9299,4.3641839274\O,0,5.2198958353,12.2242472041,6.8312601114\\Version
 =ES64L-G09RevE.01\State=1-A\MP2/GTBas1=-566.6435702\MP4/GTBas1=-566.76
 79637\CCSD(T)/G3Bas1=-566.7507989\MP2/GTBas2=-566.6771193\MP4/GTBas2=-
 566.8034836\MP2/GTBas3=-567.0157562\MP4/GTBas3=-567.1606753\HF/GTLarge
 XP=-565.1186462\MP2/GTLargeXP=-567.7889063\HF/GFHFB1=-565.1630241\HF/G
 FHFB2=-565.1712915\G4=-568.0542852\FreqCoord=8.5333572123,20.118678116
 3,15.3768498212,8.687127391,21.1509322114,13.3146291188,7.3713380414,1
 9.9380140343,11.1644169398,6.9757423822,21.2115631748,8.8652188603,7.7
 698375312,23.8832449263,8.2931485176,7.1176057034,25.2034357177,9.7394
 434692,6.5614746838,17.4743514401,11.5787824107,7.0059096442,24.456768
 2129,6.4632118597,6.9084854202,16.6133510382,13.3979755498,5.325098003
 5,16.1619974969,9.6578020565,4.5014495725,13.6181052656,10.0510777499,
 3.8288369165,11.5590523084,10.3523357893,4.8970779482,17.3724792862,7.
 3422972437,3.9300446988,16.3737844505,5.8386381083,5.7031692427,19.837
 7844374,6.9895434979,5.3431689327,20.7549232056,5.1924618271,9.8264024
 143,24.0585133359,8.2471124163,9.8641735708,23.1004793964,12.909210753
 1\PG=C01 [X(C8H6N2O2)]\NImag=0\\0.06480821,0.06489393,0.22111692,-0.01
 616406,-0.22813988,0.55992947,-0.09520743,-0.02938662,0.00573841,0.398
 87714,-0.02651913,-0.18684598,0.16261306,0.25259468,0.71651417,0.00077
 292,0.15597196,-0.47220862,0.00803072,-0.19109309,0.73336521,0.0161730
 7,-0.00147007,-0.01302142,-0.08868233,-0.00366327,-0.00864399,0.240688
 68,0.00196746,0.01866109,0.01335191,-0.00352827,-0.10528291,0.00119777
 ,0.14098662,0.61092021,-0.02039975,0.00052160,-0.06430671,-0.00972914,
 0.00230824,-0.10573421,0.09110096,-0.13392134,0.54053264,0.00127133,-0
 .00225779,-0.00322713,-0.00282916,0.01007140,-0.01359775,-0.08392001,-
 0.01364303,-0.02340027,0.28486322,-0.00425166,-0.00240454,-0.00832027,
 0.00631855,0.02301526,-0.01030524,0.00179988,-0.16263397,0.10517987,0.
 13123121,0.57721022,-0.00079359,-0.00084268,0.00109432,-0.01243673,-0.
 00075506,-0.02868299,-0.03975783,0.05962030,-0.22826001,0.13237437,-0.
 05549198,0.57268612,0.00156449,-0.00053449,-0.00000849,-0.00558869,-0.
 00056731,0.00080484,0.00670901,0.00439252,0.00437095,-0.08254503,-0.02
 784422,0.00005266,0.54218010,-0.00078653,-0.00043320,0.00126208,-0.000
 11281,-0.00224020,-0.00266227,-0.00082413,-0.01210919,0.01120680,-0.03
 629521,-0.18783643,0.02089843,-0.01572907,0.48585325,0.00014006,0.0009
 2814,0.00021410,-0.00012459,-0.00289121,-0.00072158,0.00944480,0.02569
 590,0.00000677,0.00606239,0.03310431,-0.08974534,0.02460249,0.01866990
 ,0.57813432,-0.00072713,-0.00068738,0.00066236,0.00228196,0.00225690,-
 0.00006594,0.00020727,0.00035687,-0.00068255,0.00144884,-0.00943378,-0
 .00821489,-0.06669526,0.05685624,0.06138044,0.07370003,0.00057440,0.00
 076938,-0.00056991,-0.00066320,-0.00345124,0.00067639,-0.00088530,0.00
 132714,-0.00054715,0.00922296,-0.02078597,-0.02096650,0.05605122,-0.15
 299388,-0.11951958,-0.05755352,0.16851430,0.00020070,-0.00031904,-0.00
 057351,0.00096338,0.00326172,0.00061927,-0.00135526,0.00038773,-0.0014
 4982,-0.00517245,0.00278634,0.00689221,0.06311180,-0.11922888,-0.18046
 051,-0.06762194,0.13088047,0.19499706,-0.00058027,-0.00456096,0.001743
 70,-0.01036253,-0.02134641,-0.00977812,-0.09052753,-0.05939026,-0.0096
 4197,0.01983018,0.00154354,0.02861496,0.00356990,-0.00113151,-0.003724
 21,-0.00009129,-0.00114507,0.00059855,0.26347026,-0.00346039,-0.009204
 87,0.00591455,-0.01575775,-0.02018598,-0.02636428,-0.07923401,-0.29064
 255,0.02459936,0.01610596,-0.01841578,0.06823849,-0.00079346,0.0024504
 0,0.00084644,0.00023788,-0.00031154,-0.00025596,0.15545717,0.61971159,
 -0.00356524,-0.00400557,-0.00269334,-0.00947213,-0.03170789,0.00398004
 ,0.00978081,0.07403679,-0.11929683,0.01419325,0.03059059,0.01363214,-0
 .00453709,-0.00026211,-0.00461653,0.00004141,0.00003797,0.00019529,0.1
 7173448,-0.08331560,0.67835962,0.00004879,0.00058955,-0.00020547,-0.00
 082387,-0.00117222,-0.00021090,0.00044269,-0.00208199,-0.00049995,0.00
 185714,-0.00429223,0.00972963,-0.08623184,0.02870625,-0.08910656,0.003
 56120,-0.00395247,0.00990560,0.00023366,-0.00031947,0.00044787,0.08890
 326,0.00043893,0.00035397,-0.00017808,-0.00091152,-0.00099433,-0.00061
 308,-0.00256738,-0.00457942,-0.00096401,0.01128623,-0.01217043,0.02896
 796,0.02595673,-0.06708517,0.05954840,-0.00904166,0.00658032,-0.016683
 93,0.00038050,0.00018063,0.00169110,-0.02570867,0.07616067,0.00048672,
 0.00045256,-0.00065302,-0.00103795,-0.00168855,0.00056596,-0.00022601,
 0.00065010,0.00115176,-0.00164223,0.00206751,-0.00695478,-0.08740266,0
 .06393009,-0.25758339,-0.00879007,0.00687975,-0.01744662,-0.00039601,-
 0.00026246,-0.00035392,0.09860190,-0.06959180,0.27879943,-0.00081947,-
 0.00055847,-0.00188519,-0.00357434,0.00153874,0.00351146,0.00669207,-0
 .00474743,0.00725746,0.00293365,-0.00342965,-0.00121832,0.00058532,-0.
 00010204,0.00035582,0.00001050,-0.00004409,-0.00000705,-0.05133823,0.0
 1637294,-0.04766430,-0.00015642,-0.00016133,0.00007428,0.04284943,-0.0
 0062582,0.00102808,-0.00353834,0.00170563,-0.00182898,0.00435608,0.005
 07262,-0.00714737,0.02636963,-0.00385427,-0.00454213,-0.00007218,0.000
 50100,0.00033138,0.00124407,0.00007218,-0.00003927,-0.00004522,0.01574
 742,-0.10875098,0.11589502,-0.00011255,-0.00044818,0.00004587,-0.01322
 072,0.10978139,-0.00281464,-0.00468404,-0.00287554,0.00121937,0.000067
 60,-0.00197861,-0.00096076,0.00298770,-0.00006983,-0.00109688,0.000389
 15,0.00165393,-0.00016381,-0.00009810,0.00007656,0.00004029,-0.0000211
 9,-0.00000072,-0.04786505,0.11631905,-0.28515981,0.00005676,-0.0000225
 6,-0.00000496,0.05535423,-0.12326226,0.30142195,-0.00027381,0.00121257
 ,-0.00084696,0.00798102,-0.00311709,0.00194088,-0.00722269,-0.03666066
 ,0.00428921,-0.01243098,0.00204171,-0.02115547,-0.00086041,0.00002174,
 0.00027485,-0.00008178,0.00020377,-0.00001326,-0.12147460,-0.05102933,
 -0.09762392,0.00013513,-0.00003718,0.00002790,0.00212808,-0.00394509,-
 0.00254720,0.26174287,0.00122667,0.00279036,-0.00078987,-0.00331686,-0
 .00462814,0.00668864,-0.01932231,-0.02898586,-0.01605102,0.00228764,0.
 00407179,-0.00407399,-0.00123165,-0.00190254,-0.00077401,0.00016444,-0
 .00014773,0.00042469,-0.06916575,-0.15466022,-0.09131165,0.00000176,0.
 00000401,-0.00014501,0.00591900,0.00987557,0.00967393,0.15883151,0.615
 05627,0.00029838,-0.00010551,-0.00171031,0.00187143,0.00670785,0.00786
 447,-0.01351271,-0.05796565,0.03189952,-0.02140076,-0.00383664,-0.0563
 6593,0.00129533,0.00101495,0.00052132,-0.00044343,0.00034971,-0.000426
 78,-0.07847906,-0.04472805,-0.22759961,0.00006905,-0.00016079,0.000349
 45,-0.01282712,-0.01605379,-0.01227311,0.14857760,-0.05611667,0.586335
 13,0.00005913,0.00016797,0.00022963,0.00069827,-0.00109167,-0.00025618
 ,0.00538171,-0.00154498,-0.00546711,-0.00148222,-0.00069761,-0.0004223
 2,-0.00067750,0.00057299,0.00062350,0.00005932,0.00016928,-0.00009075,
 -0.00719250,-0.02350127,-0.00025773,0.00000714,-0.00001856,-0.00004425
 ,-0.00309055,0.00180993,0.00163745,-0.08546921,-0.06437640,0.00270813,
 0.23444576,0.00021548,-0.00003731,0.00084930,-0.00108164,-0.00101412,-
 0.00115534,-0.00207038,0.00623114,-0.00420744,-0.00073514,-0.00285757,
 -0.00002508,0.00105868,0.00055936,0.00013541,-0.00013680,-0.00000503,-
 0.00021443,-0.01828804,-0.03646127,-0.00895592,-0.00006219,0.00008687,
 -0.00004388,0.00225390,0.00113687,0.00026336,-0.06408198,-0.26019761,0
 .03112929,0.42987616,1.40850175,-0.00003257,0.00018602,-0.00037476,-0.
 00021766,-0.00093220,0.00161444,-0.00456228,-0.00237392,-0.00191213,-0
 .00036305,0.00011544,-0.00214052,0.00032529,-0.00014179,-0.00010333,-0
 .00002494,-0.00001253,0.00005342,-0.00542362,-0.02269991,0.01031004,0.
 00000852,-0.00009774,0.00010875,0.00132041,-0.00085855,-0.00005748,0.0
 0239410,0.03036736,-0.08574122,-0.05377908,-0.19456608,0.14436731,-0.0
 0000275,-0.00006045,-0.00019084,-0.00010376,0.00025765,0.00040881,-0.0
 0105337,-0.00013876,0.00088501,0.00040243,0.00047676,0.00012063,0.0000
 5015,-0.00018780,-0.00014954,-0.00000716,-0.00004565,0.00003718,0.0025
 2621,0.00214038,0.00111401,0.00000086,-0.00000752,0.00002317,0.0004150
 1,-0.00019049,-0.00019332,0.01413998,-0.01154548,0.00270155,-0.1506172
 9,-0.34300518,0.05109473,0.13533824,-0.00018922,0.00004005,-0.00073673
 ,0.00067456,0.00022800,0.00148277,-0.00024480,-0.00241999,0.00049018,0
 .00050990,0.00153882,-0.00010437,-0.00044325,-0.00035798,-0.00014491,0
 .00004484,-0.00004419,0.00010476,0.00431600,0.00530845,0.00712456,0.00
 003375,-0.00004125,0.00003218,-0.00037822,-0.00019264,-0.00017242,-0.0
 1174867,-0.01810382,0.00481412,-0.34291295,-1.08921154,0.15406061,0.35
 313977,1.10185243,0.00002210,-0.00012293,0.00034705,-0.00003430,0.0002
 3762,-0.00083577,0.00094040,0.00070532,0.00046199,0.00010456,-0.000157
 08,0.00058925,-0.00001726,0.00006170,0.00006658,0.00000362,0.00001624,
 -0.00001669,-0.00106168,0.00152247,-0.00297838,-0.00000312,0.00001025,
 -0.00001782,-0.00004084,0.00027159,0.00017872,0.00294452,0.00546031,0.
 01973510,0.05099585,0.15379587,-0.05941088,-0.05275105,-0.15850290,0.0
 4101995,-0.00015502,-0.00059153,0.00010347,-0.00086814,0.00066623,0.00
 048072,-0.00594658,-0.00195339,0.00389264,-0.00669724,-0.01992832,-0.0
 0777909,0.00604723,-0.00183931,-0.00465248,-0.00095577,-0.00138774,0.0
 0014313,0.00680951,0.00651235,-0.01926936,-0.00003752,0.00003644,0.000
 44375,0.00327751,-0.00339935,-0.00308797,-0.08305767,0.00920016,-0.055
 37697,0.00421799,-0.00619838,0.01143676,-0.00017905,-0.00197276,-0.001
 63382,0.27553523,0.00036452,0.00046882,0.00012754,0.00107055,-0.000854
 05,0.00338479,-0.00496812,-0.04241301,0.02544079,-0.03517512,-0.027867
 37,-0.05931548,-0.00060408,0.00383532,0.00079271,-0.00063449,0.0003750
 5,-0.00077712,0.02130397,0.05543363,0.00952017,0.00009883,0.00011908,0
 .00011087,-0.00346965,-0.00097984,-0.00207243,-0.00879163,-0.14309169,
 0.05490817,-0.00092530,-0.03396562,0.03372856,0.00025862,0.00459783,-0
 .00273112,0.18126017,0.63679644,-0.00088017,-0.00137510,0.00008922,0.0
 0034118,0.00114435,-0.00292909,0.00655254,0.02981998,-0.02148285,0.007
 23198,-0.01891157,0.04225492,-0.00487808,-0.00062978,-0.00272055,0.000
 25310,-0.00030677,0.00044250,-0.03366311,-0.02654927,-0.04819697,0.000
 21488,-0.00015365,0.00026392,-0.00322681,-0.00197238,-0.00062326,-0.03
 757987,0.10137209,-0.26356740,0.00609050,0.01990253,-0.00165852,-0.003
 82292,-0.00845900,-0.00032016,0.18128921,-0.02803583,0.63153262,0.0001
 3787,-0.00007340,-0.00001919,-0.00102974,0.00051094,0.00038849,0.00031
 536,0.00003987,0.00022147,0.00605196,-0.00346662,-0.00141133,-0.000621
 49,0.00017303,-0.00006088,0.00000279,-0.00000631,-0.00007423,0.0045580
 7,-0.00069955,-0.00188684,-0.00002422,0.00001938,0.00001658,0.00018204
 ,-0.00023427,-0.00012094,0.00184010,-0.00356731,-0.00232467,-0.0028222
 0,0.00115195,0.00134898,0.00040395,-0.00001518,-0.00012740,-0.10673022
 ,-0.07103398,-0.10523739,0.10111655,0.00000366,0.00019858,-0.00014268,
 0.00026482,-0.00037745,-0.00001650,0.00004783,-0.00081888,0.00109519,-
 0.00338637,-0.00356867,0.00263283,-0.00019801,-0.00010592,-0.00114722,
 -0.00014060,-0.00029987,0.00007220,-0.00091365,-0.00032076,0.00362817,
 0.00004331,0.00002252,0.00004019,0.00029809,0.00053043,0.00051592,0.00
 713468,0.00965641,0.01288791,0.00168269,0.00107996,-0.00049562,-0.0002
 6677,-0.00017045,-0.00006055,-0.07160142,-0.12386092,-0.10039462,0.079
 30714,0.12659629,-0.00012457,-0.00025710,0.00011581,0.00036618,-0.0001
 4863,-0.00054251,0.00035040,0.00091168,0.00024215,-0.00146774,0.002445
 83,0.00162011,0.00029243,0.00000594,0.00009095,-0.00000790,0.00001381,
 0.00004046,-0.00177615,0.00411211,-0.00315054,0.00000199,-0.00001607,-
 0.00001468,-0.00062013,-0.00074911,-0.00045815,-0.01301064,-0.01467027
 ,-0.01480721,0.00081023,-0.00188818,0.00013450,0.00012242,0.00059087,0
 .00019573,-0.10456757,-0.09899945,-0.21006295,0.11521302,0.10483447,0.
 21913426,-0.00179583,0.00044779,-0.00087674,0.00750616,-0.00144991,-0.
 00236556,0.00419681,0.02011622,-0.03107879,-0.12203704,-0.07026951,-0.
 06756935,0.00029015,-0.01355222,-0.01009533,-0.00042567,-0.00046960,0.
 00119995,-0.01900899,-0.02210517,-0.00751232,-0.00005216,0.00120735,-0
 .00064351,-0.00015765,-0.00034939,-0.00009037,0.01898167,-0.00068404,0
 .02896537,0.00653523,0.00156310,-0.00349589,-0.00114407,-0.00054851,0.
 00061316,-0.09544620,-0.07275965,-0.02247380,-0.00066020,-0.01372873,0
 .00319352,0.25311373,0.00038396,0.00011112,0.00042771,-0.00036238,0.00
 081127,0.00526199,0.00702532,0.05313186,-0.03034980,-0.04725199,-0.158
 70219,-0.02887286,-0.02175461,-0.02485068,-0.02095039,-0.00117487,-0.0
 0324677,0.00095715,-0.02215436,-0.04632548,-0.01777140,-0.00079406,0.0
 0084057,-0.00305341,-0.00036084,-0.00052512,-0.00066833,0.01417822,-0.
 02471673,0.06955999,0.00074796,0.00634622,0.00282810,-0.00061274,-0.00
 236549,-0.00039050,-0.09569544,-0.31632307,0.00735850,-0.00307515,-0.0
 0906757,0.00442388,0.15448731,0.63750027,-0.00032062,-0.00118346,-0.00
 211683,-0.00179649,0.00607111,-0.00258006,-0.01696702,0.00904944,-0.04
 494680,-0.09105638,-0.09021973,-0.20918561,-0.00165810,-0.00092642,0.0
 0692812,0.00066759,0.00203069,-0.00002974,-0.00770025,-0.01781176,-0.0
 0852124,0.00107934,0.00237101,0.00031500,-0.00009541,-0.00054532,0.000
 43345,0.01376494,0.03071504,0.01307755,-0.00260915,0.00492958,-0.00463
 186,0.00065516,-0.00023738,0.00081042,-0.00016526,0.06523573,-0.122819
 37,-0.00737341,-0.02297659,0.00722816,0.16134295,-0.10105967,0.6360292
 1,-0.00040364,-0.00003260,-0.00044533,0.00065156,0.00057215,-0.0004272
 5,0.00318432,-0.00355152,-0.00304745,0.00028003,0.00625673,-0.01396661
 ,-0.00319605,0.00239596,0.00093135,0.00037945,0.00035200,0.00028058,-0
 .00041582,-0.00031888,0.00008002,0.00028846,-0.00066671,0.00005654,-0.
 00056521,0.00026109,0.00021906,0.00500792,-0.00385224,-0.00174314,0.00
 055331,-0.00033058,0.00033956,-0.00021732,-0.00002932,-0.00002917,0.00
 379562,-0.00504470,0.00952746,-0.00275205,0.00147120,0.00129575,-0.049
 34466,0.01642768,-0.04907880,0.04301992,-0.00000737,-0.00006351,-0.000
 37087,-0.00043925,0.00046576,-0.00072847,-0.00289484,-0.00052918,-0.00
 106711,-0.00401809,0.00746635,-0.01435082,0.00066317,0.00070452,-0.002
 95484,-0.00019655,-0.00021316,0.00002177,-0.00047815,-0.00069359,-0.00
 078764,-0.00018842,-0.00041678,0.00001835,0.00027594,-0.00002715,-0.00
 004043,-0.00397334,-0.00369024,0.00045621,0.00019440,-0.00037429,0.001
 42396,-0.00010536,-0.00024697,-0.00022027,0.00598972,-0.01027078,0.027
 20585,0.00135289,0.00046523,-0.00066999,0.01680248,-0.11016797,0.11358
 246,-0.01312334,0.11742418,-0.00015968,-0.00024667,-0.00066145,0.00037
 788,0.00150011,-0.00010880,-0.00373119,-0.00247519,-0.00074175,-0.0038
 5041,0.01120120,-0.01713450,0.00196905,0.00167757,-0.00032803,0.000019
 26,-0.00019050,0.00029527,-0.00012628,-0.00077946,0.00016955,-0.000091
 27,-0.00116802,0.00092060,0.00024230,-0.00005082,-0.00012255,-0.001530
 92,0.00083697,0.00257700,-0.00016862,0.00012384,0.00003750,0.00004250,
 -0.00004807,-0.00005054,-0.00111181,-0.00037545,-0.00052348,0.00144104
 ,-0.00040882,0.00018727,-0.04956681,0.11229499,-0.27042112,0.05620150,
 -0.12158089,0.28554345,0.00001152,0.00073024,-0.00037463,-0.00049543,-
 0.00073664,0.00020781,0.00039571,0.00014257,-0.00183644,-0.00687248,-0
 .00435191,0.00080982,-0.31293936,-0.01939495,0.00569100,-0.01171694,-0
 .00047890,-0.00009412,-0.00012400,-0.00049758,0.00013166,-0.00907982,-
 0.00004058,0.00100545,-0.00001564,-0.00007311,-0.00002232,0.00003096,0
 .00034405,-0.00002577,-0.00007688,-0.00016872,0.00005664,0.00002920,0.
 00007385,-0.00001433,0.00015074,-0.00057777,0.00000635,0.00002387,-0.0
 0008342,0.00000489,0.00014225,0.00007487,0.00121354,-0.00019368,0.0000
 8206,0.00020625,0.34003371,0.00030505,0.00030240,-0.00000007,-0.002058
 30,-0.00140432,0.00083384,0.00063493,0.00066538,-0.00026595,-0.0326668
 1,-0.00471981,0.00078509,-0.02167717,-0.04363629,0.00306141,0.02077113
 ,0.00157210,-0.00097851,0.00065484,-0.00095244,-0.00075467,0.00850828,
 -0.00012814,-0.00117175,0.00003554,-0.00001721,0.00000432,-0.00004460,
 -0.00013906,0.00040527,-0.00015396,0.00014671,0.00008362,0.00001349,-0
 .00008720,-0.00000725,0.00116494,-0.00058696,-0.00108646,-0.00022746,-
 0.00015663,0.00007767,0.00008515,-0.00300858,0.00112383,-0.00059378,0.
 00011690,0.00010202,0.02397583,0.05174155,-0.00073686,-0.00108612,0.00
 052795,0.00283658,0.00392312,0.00012384,-0.00069816,0.00069154,-0.0012
 4276,0.00594273,-0.00255195,-0.00090110,0.00462092,0.00454958,-0.04136
 642,0.02277172,0.00110172,-0.00188793,-0.00041135,0.00008561,0.0002720
 4,-0.02835863,-0.00257334,0.00173153,0.00001525,0.00006166,0.00002188,
 0.00006833,0.00035963,-0.00024291,-0.00009372,-0.00016550,0.00003207,0
 .00003615,0.00008637,-0.00001876,0.00004938,-0.00051986,0.00009042,0.0
 0000024,0.00001192,-0.00000269,0.00015510,-0.00004620,-0.00009129,-0.0
 0021821,0.00011254,0.00030823,-0.00467434,-0.00207777,0.04395084,0.015
 89096,-0.02782829,0.02878787,-0.20843069,-0.20880502,0.01879904,-0.007
 03420,-0.04076185,-0.00623429,-0.00012463,-0.00170286,0.00302345,-0.00
 164072,0.00122939,-0.00159309,-0.00095036,0.00005823,-0.00201182,0.000
 11798,0.00089019,-0.00573457,0.00092753,-0.00016445,-0.00055360,0.0006
 4392,0.00083518,0.00043612,-0.00111659,-0.00091318,-0.00035322,-0.0005
 2952,0.00003976,-0.00042590,0.00001875,-0.00030979,0.00008877,0.000239
 59,-0.00037218,0.00025497,0.00000756,0.00006552,-0.00007611,-0.0006935
 4,-0.00008890,0.00009737,-0.00007218,0.00006405,-0.00016279,0.00069629
 ,0.00127293,-0.00130513,0.20204986,-0.03453395,-0.04685137,0.05824055,
 -0.20501019,-0.41192677,0.05308404,-0.03742259,-0.03337448,-0.00983783
 ,-0.00143147,-0.00679757,0.00372790,0.00275398,-0.00018276,0.00435547,
 -0.00176083,0.00240036,-0.00039375,-0.00082927,0.00384077,-0.00365194,
 0.00070255,0.00151505,0.00172940,-0.00022172,0.00181513,0.00082070,-0.
 00019462,-0.00119077,-0.00326638,0.00000132,0.00003548,-0.00061534,-0.
 00012046,-0.00032403,0.00011122,-0.00026237,-0.00141286,0.00107115,-0.
 00015597,0.00019768,-0.00001746,0.00120735,0.00055832,-0.00014855,-0.0
 0019315,0.00005068,-0.00041281,0.00098012,0.00029159,-0.00196293,0.276
 49128,0.49135555,0.04407087,0.08430780,-0.01414384,0.01310387,0.041381
 83,-0.13181099,-0.01473326,-0.02237007,0.01514887,0.00036578,0.0019142
 3,-0.00105220,-0.00278025,0.00067231,-0.00839303,0.00001187,0.00014739
 ,-0.00124315,-0.00264486,0.00112867,-0.00435155,-0.00163965,-0.0003656
 3,-0.00117720,-0.00054602,-0.00109594,-0.00016248,0.00002592,-0.001966
 17,0.00037495,0.00009361,0.00009266,-0.00062733,-0.00013365,-0.0003806
 3,0.00024419,-0.00019473,-0.00042259,0.00023099,0.00000644,-0.00007621
 ,0.00004931,0.00029843,0.00005024,0.00052202,0.00002414,-0.00004980,0.
 00005334,-0.00229145,-0.00013464,-0.00130494,-0.03303707,-0.10283345,0
 .14764303\\0.00000281,0.00000189,-0.00000758,0.00000294,0.00000303,-0.
 00000232,-0.00001181,-0.00000157,-0.00000103,-0.00001255,0.00000160,0.
 00000896,0.00009976,-0.00001554,-0.00006250,-0.00000658,0.00003139,0.0
 0003982,-0.00000154,0.00000912,0.00000130,0.00001781,-0.00001008,0.000
 02324,-0.00000134,-0.00000096,0.00000356,0.00000324,0.00001518,-0.0000
 0334,-0.00000953,-0.00001891,0.00000540,-0.00000049,0.00001043,0.00000
 149,0.00001556,0.00001247,0.00002040,-0.00001237,-0.00001169,-0.000015
 92,0.00001944,-0.00002110,0.00001566,-0.00000504,0.00000869,-0.0000201
 6,-0.00009412,-0.00001062,-0.00000606,-0.00000619,-0.00000332,-0.00000
 091\\\@
 Job cpu time:       0 days 21 hours 58 minutes 55.4 seconds.
 File lengths (MBytes):  RWF=  76942 Int=      0 D2E=      0 Chk=    108 Scr=      1
 Normal termination of Gaussian 09 at Fri Aug 27 12:33:44 2021.
