 Entering Gaussian System, Link 0=g09
 Input=G4.SONDEE01.gjf
 Output=G4.SONDEE01.log
 Initial command:
 /public/home/users/caep010/software/Gaussian09/g09/l1.exe "/public/home/users/caep010/.cache/gau_scr/Gau-40698.inp" -scrdir="/public/home/users/caep010/.cache/gau_scr/"
 Entering Link 1 = /public/home/users/caep010/software/Gaussian09/g09/l1.exe PID=     40699.
  
 Copyright (c) 1988,1990,1992,1993,1995,1998,2003,2009,2015,
            Gaussian, Inc.  All Rights Reserved.
  
 This is part of the Gaussian(R) 09 program.  It is based on
 the Gaussian(R) 03 system (copyright 2003, Gaussian, Inc.),
 the Gaussian(R) 98 system (copyright 1998, Gaussian, Inc.),
 the Gaussian(R) 94 system (copyright 1995, Gaussian, Inc.),
 the Gaussian 92(TM) system (copyright 1992, Gaussian, Inc.),
 the Gaussian 90(TM) system (copyright 1990, Gaussian, Inc.),
 the Gaussian 88(TM) system (copyright 1988, Gaussian, Inc.),
 the Gaussian 86(TM) system (copyright 1986, Carnegie Mellon
 University), and the Gaussian 82(TM) system (copyright 1983,
 Carnegie Mellon University). Gaussian is a federally registered
 trademark of Gaussian, Inc.
  
 This software contains proprietary and confidential information,
 including trade secrets, belonging to Gaussian, Inc.
  
 This software is provided under written license and may be
 used, copied, transmitted, or stored only in accord with that
 written license.
  
 The following legend is applicable only to US Government
 contracts under FAR:
  
                    RESTRICTED RIGHTS LEGEND
  
 Use, reproduction and disclosure by the US Government is
 subject to restrictions as set forth in subparagraphs (a)
 and (c) of the Commercial Computer Software - Restricted
 Rights clause in FAR 52.227-19.
  
 Gaussian, Inc.
 340 Quinnipiac St., Bldg. 40, Wallingford CT 06492
  
  
 ---------------------------------------------------------------
 Warning -- This program may not be used in any manner that
 competes with the business of Gaussian, Inc. or will provide
 assistance to any competitor of Gaussian, Inc.  The licensee
 of this program is prohibited from giving any competitor of
 Gaussian, Inc. access to this program.  By using this program,
 the user acknowledges that Gaussian, Inc. is engaged in the
 business of creating and licensing software in the field of
 computational chemistry and represents and warrants to the
 licensee that it is not a competitor of Gaussian, Inc. and that
 it will not use this program in any manner prohibited above.
 ---------------------------------------------------------------
  

 Cite this work as:
 Gaussian 09, Revision E.01,
 M. J. Frisch, G. W. Trucks, H. B. Schlegel, G. E. Scuseria, 
 M. A. Robb, J. R. Cheeseman, G. Scalmani, V. Barone, B. Mennucci, 
 G. A. Petersson, H. Nakatsuji, M. Caricato, X. Li, H. P. Hratchian, 
 A. F. Izmaylov, J. Bloino, G. Zheng, J. L. Sonnenberg, M. Hada, 
 M. Ehara, K. Toyota, R. Fukuda, J. Hasegawa, M. Ishida, T. Nakajima, 
 Y. Honda, O. Kitao, H. Nakai, T. Vreven, J. A. Montgomery, Jr., 
 J. E. Peralta, F. Ogliaro, M. Bearpark, J. J. Heyd, E. Brothers, 
 K. N. Kudin, V. N. Staroverov, T. Keith, R. Kobayashi, J. Normand, 
 K. Raghavachari, A. Rendell, J. C. Burant, S. S. Iyengar, J. Tomasi, 
 M. Cossi, N. Rega, J. M. Millam, M. Klene, J. E. Knox, J. B. Cross, 
 V. Bakken, C. Adamo, J. Jaramillo, R. Gomperts, R. E. Stratmann, 
 O. Yazyev, A. J. Austin, R. Cammi, C. Pomelli, J. W. Ochterski, 
 R. L. Martin, K. Morokuma, V. G. Zakrzewski, G. A. Voth, 
 P. Salvador, J. J. Dannenberg, S. Dapprich, A. D. Daniels, 
 O. Farkas, J. B. Foresman, J. V. Ortiz, J. Cioslowski, 
 and D. J. Fox, Gaussian, Inc., Wallingford CT, 2013.
 
 ******************************************
 Gaussian 09:  ES64L-G09RevE.01 30-Nov-2015
                26-Aug-2021 
 ******************************************
 %nproc=32
 Will use up to   32 processors via shared memory.
 %mem=180GB
 ----------------
 #P G4 OPT=calcfc
 ----------------
 1/10=4,14=-1,18=20,19=15,26=3,38=1/1,3;
 2/9=110,12=2,17=6,18=5,40=1/2;
 3/5=35,7=104,11=2,16=1,25=1,30=1,71=2,74=-5,140=1/1,2,3;
 4//1;
 5/5=2,38=5/2;
 8/6=4,10=90,11=11/1;
 11/6=1,8=1,9=11,15=111,16=1/1,2,10;
 10/6=1,13=1/2;
 6/7=2,8=2,9=2,10=2,28=1/1;
 7/10=1,18=20,25=1/1,2,3,16;
 1/10=4,14=-1,18=20,19=15,26=3/3(2);
 2/9=110/2;
 99//99;
 2/9=110/2;
 3/5=35,7=104,11=2,16=1,25=1,30=1,71=1,74=-5/1,2,3;
 4/5=5,16=3,69=1/1;
 5/5=2,38=5/2;
 7//1,2,3,16;
 1/14=-1,18=20,19=15,26=3/3(-5);
 2/9=110/2;
 6/7=2,8=2,9=2,10=2,19=2,28=1/1;
 99/9=1/99;
 Leave Link    1 at Thu Aug 26 23:18:17 2021, MaxMem= 24159191040 cpu:         3.4
 (Enter /public/home/users/caep010/software/Gaussian09/g09/l101.exe)
 --------
 SONDEE01
 --------
 Symbolic Z-matrix:
 Charge =  0 Multiplicity = 1
 N                     8.2996    0.9704    2.2436 
 C                     7.4745    0.7737    3.2968 
 C                     7.0614   -0.5908    3.7424 
 N                     7.0711    1.9091    3.8557 
 H                     6.6041   -1.0598    3.0273 
 C                     7.6367    2.8965    3.1147 
 H                     7.5286    3.8081    3.262 
 C                     8.7624   -0.092     1.3391 
 H                     8.0732   -0.2925    0.702 
 C                     8.3854    2.3446    2.1234 
 H                     7.8344   -1.1106    4.0132 
 O                     6.1801   -0.3807    4.853 
 H                     8.9663   -0.8799    1.8487 
 C                     5.7379   -1.5239    5.4472 
 N                     4.9594   -1.239     6.4848 
 O                     6.0526   -2.6299    5.0434 
 H                     4.5578   -1.8462    6.9256 
 H                     4.7986   -0.4304    6.7111 
 N                     9.2249    3.0271    1.1974 
 O                     9.0975    4.2518    1.1332 
 O                     10.041    2.3854    0.5366 
 H                     9.5505    0.2021    0.8763 
 
 NAtoms=     22 NQM=       22 NQMF=       0 NMMI=      0 NMMIF=      0
                NMic=       0 NMicF=      0.
                    Isotopes and Nuclear Properties:
 (Nuclear quadrupole moments (NQMom) in fm**2, nuclear magnetic moments (NMagM)
  in nuclear magnetons)

  Atom         1           2           3           4           5           6           7           8           9          10
 IAtWgt=          14          12          12          14           1          12           1          12           1          12
 AtmWgt=  14.0030740  12.0000000  12.0000000  14.0030740   1.0078250  12.0000000   1.0078250  12.0000000   1.0078250  12.0000000
 NucSpn=           2           0           0           2           1           0           1           0           1           0
 AtZEff=   0.0000000   0.0000000   0.0000000   0.0000000   0.0000000   0.0000000   0.0000000   0.0000000   0.0000000   0.0000000
 NQMom=    2.0440000   0.0000000   0.0000000   2.0440000   0.0000000   0.0000000   0.0000000   0.0000000   0.0000000   0.0000000
 NMagM=    0.4037610   0.0000000   0.0000000   0.4037610   2.7928460   0.0000000   2.7928460   0.0000000   2.7928460   0.0000000
 AtZNuc=   7.0000000   6.0000000   6.0000000   7.0000000   1.0000000   6.0000000   1.0000000   6.0000000   1.0000000   6.0000000

  Atom        11          12          13          14          15          16          17          18          19          20
 IAtWgt=           1          16           1          12          14          16           1           1          14          16
 AtmWgt=   1.0078250  15.9949146   1.0078250  12.0000000  14.0030740  15.9949146   1.0078250   1.0078250  14.0030740  15.9949146
 NucSpn=           1           0           1           0           2           0           1           1           2           0
 AtZEff=   0.0000000   0.0000000   0.0000000   0.0000000   0.0000000   0.0000000   0.0000000   0.0000000   0.0000000   0.0000000
 NQMom=    0.0000000   0.0000000   0.0000000   0.0000000   2.0440000   0.0000000   0.0000000   0.0000000   2.0440000   0.0000000
 NMagM=    2.7928460   0.0000000   2.7928460   0.0000000   0.4037610   0.0000000   2.7928460   2.7928460   0.4037610   0.0000000
 AtZNuc=   1.0000000   8.0000000   1.0000000   6.0000000   7.0000000   8.0000000   1.0000000   1.0000000   7.0000000   8.0000000

  Atom        21          22
 IAtWgt=          16           1
 AtmWgt=  15.9949146   1.0078250
 NucSpn=           0           1
 AtZEff=   0.0000000   0.0000000
 NQMom=    0.0000000   0.0000000
 NMagM=    0.0000000   2.7928460
 AtZNuc=   8.0000000   1.0000000
 Leave Link  101 at Thu Aug 26 23:18:17 2021, MaxMem= 24159191040 cpu:        10.8
 (Enter /public/home/users/caep010/software/Gaussian09/g09/l103.exe)

 GradGradGradGradGradGradGradGradGradGradGradGradGradGradGradGradGradGrad
 Berny optimization.
 Initialization pass.
                           ----------------------------
                           !    Initial Parameters    !
                           ! (Angstroms and Degrees)  !
 --------------------------                            --------------------------
 ! Name  Definition              Value          Derivative Info.                !
 --------------------------------------------------------------------------------
 ! R1    R(1,2)                  1.3523         calculate D2E/DX2 analytically  !
 ! R2    R(1,8)                  1.47           calculate D2E/DX2 analytically  !
 ! R3    R(1,10)                 1.3821         calculate D2E/DX2 analytically  !
 ! R4    R(2,3)                  1.4937         calculate D2E/DX2 analytically  !
 ! R5    R(2,4)                  1.3282         calculate D2E/DX2 analytically  !
 ! R6    R(3,5)                  0.9698         calculate D2E/DX2 analytically  !
 ! R7    R(3,11)                 0.9701         calculate D2E/DX2 analytically  !
 ! R8    R(3,12)                 1.4333         calculate D2E/DX2 analytically  !
 ! R9    R(4,6)                  1.3579         calculate D2E/DX2 analytically  !
 ! R10   R(6,7)                  0.9297         calculate D2E/DX2 analytically  !
 ! R11   R(6,10)                 1.3593         calculate D2E/DX2 analytically  !
 ! R12   R(8,9)                  0.9597         calculate D2E/DX2 analytically  !
 ! R13   R(8,13)                 0.9602         calculate D2E/DX2 analytically  !
 ! R14   R(8,22)                 0.9601         calculate D2E/DX2 analytically  !
 ! R15   R(10,19)                1.4241         calculate D2E/DX2 analytically  !
 ! R16   R(12,14)                1.3622         calculate D2E/DX2 analytically  !
 ! R17   R(14,15)                1.3281         calculate D2E/DX2 analytically  !
 ! R18   R(14,16)                1.2187         calculate D2E/DX2 analytically  !
 ! R19   R(15,17)                0.851          calculate D2E/DX2 analytically  !
 ! R20   R(15,18)                0.8549         calculate D2E/DX2 analytically  !
 ! R21   R(19,20)                1.233          calculate D2E/DX2 analytically  !
 ! R22   R(19,21)                1.2306         calculate D2E/DX2 analytically  !
 ! A1    A(2,1,8)              124.4835         calculate D2E/DX2 analytically  !
 ! A2    A(2,1,10)             104.4913         calculate D2E/DX2 analytically  !
 ! A3    A(8,1,10)             130.2041         calculate D2E/DX2 analytically  !
 ! A4    A(1,2,3)              122.2737         calculate D2E/DX2 analytically  !
 ! A5    A(1,2,4)              112.8726         calculate D2E/DX2 analytically  !
 ! A6    A(3,2,4)              124.8452         calculate D2E/DX2 analytically  !
 ! A7    A(2,3,5)              110.6238         calculate D2E/DX2 analytically  !
 ! A8    A(2,3,11)             110.6336         calculate D2E/DX2 analytically  !
 ! A9    A(2,3,12)             105.5042         calculate D2E/DX2 analytically  !
 ! A10   A(5,3,11)             108.8118         calculate D2E/DX2 analytically  !
 ! A11   A(5,3,12)             110.6295         calculate D2E/DX2 analytically  !
 ! A12   A(11,3,12)            110.6224         calculate D2E/DX2 analytically  !
 ! A13   A(2,4,6)              105.3939         calculate D2E/DX2 analytically  !
 ! A14   A(4,6,7)              125.3155         calculate D2E/DX2 analytically  !
 ! A15   A(4,6,10)             109.3981         calculate D2E/DX2 analytically  !
 ! A16   A(7,6,10)             125.2864         calculate D2E/DX2 analytically  !
 ! A17   A(1,8,9)              109.4723         calculate D2E/DX2 analytically  !
 ! A18   A(1,8,13)             109.4699         calculate D2E/DX2 analytically  !
 ! A19   A(1,8,22)             109.4896         calculate D2E/DX2 analytically  !
 ! A20   A(9,8,13)             109.4731         calculate D2E/DX2 analytically  !
 ! A21   A(9,8,22)             109.4798         calculate D2E/DX2 analytically  !
 ! A22   A(13,8,22)            109.4425         calculate D2E/DX2 analytically  !
 ! A23   A(1,10,6)             107.8223         calculate D2E/DX2 analytically  !
 ! A24   A(1,10,19)            124.7261         calculate D2E/DX2 analytically  !
 ! A25   A(6,10,19)            127.1778         calculate D2E/DX2 analytically  !
 ! A26   A(3,12,14)            114.4939         calculate D2E/DX2 analytically  !
 ! A27   A(12,14,15)           110.5519         calculate D2E/DX2 analytically  !
 ! A28   A(12,14,16)           122.2258         calculate D2E/DX2 analytically  !
 ! A29   A(15,14,16)           127.2208         calculate D2E/DX2 analytically  !
 ! A30   A(14,15,17)           121.885          calculate D2E/DX2 analytically  !
 ! A31   A(14,15,18)           121.3287         calculate D2E/DX2 analytically  !
 ! A32   A(17,15,18)           116.6766         calculate D2E/DX2 analytically  !
 ! A33   A(10,19,20)           116.6782         calculate D2E/DX2 analytically  !
 ! A34   A(10,19,21)           119.3524         calculate D2E/DX2 analytically  !
 ! A35   A(20,19,21)           123.9521         calculate D2E/DX2 analytically  !
 ! D1    D(8,1,2,3)              6.9021         calculate D2E/DX2 analytically  !
 ! D2    D(8,1,2,4)           -172.0813         calculate D2E/DX2 analytically  !
 ! D3    D(10,1,2,3)           177.4315         calculate D2E/DX2 analytically  !
 ! D4    D(10,1,2,4)            -1.5519         calculate D2E/DX2 analytically  !
 ! D5    D(2,1,8,9)             79.6013         calculate D2E/DX2 analytically  !
 ! D6    D(2,1,8,13)           -40.4009         calculate D2E/DX2 analytically  !
 ! D7    D(2,1,8,22)          -160.3762         calculate D2E/DX2 analytically  !
 ! D8    D(10,1,8,9)           -88.3591         calculate D2E/DX2 analytically  !
 ! D9    D(10,1,8,13)          151.6387         calculate D2E/DX2 analytically  !
 ! D10   D(10,1,8,22)           31.6633         calculate D2E/DX2 analytically  !
 ! D11   D(2,1,10,6)             1.131          calculate D2E/DX2 analytically  !
 ! D12   D(2,1,10,19)          175.4814         calculate D2E/DX2 analytically  !
 ! D13   D(8,1,10,6)           170.9019         calculate D2E/DX2 analytically  !
 ! D14   D(8,1,10,19)          -14.7478         calculate D2E/DX2 analytically  !
 ! D15   D(1,2,3,5)            -59.2741         calculate D2E/DX2 analytically  !
 ! D16   D(1,2,3,11)            61.3811         calculate D2E/DX2 analytically  !
 ! D17   D(1,2,3,12)          -178.9481         calculate D2E/DX2 analytically  !
 ! D18   D(4,2,3,5)            119.5846         calculate D2E/DX2 analytically  !
 ! D19   D(4,2,3,11)          -119.7602         calculate D2E/DX2 analytically  !
 ! D20   D(4,2,3,12)            -0.0894         calculate D2E/DX2 analytically  !
 ! D21   D(1,2,4,6)              1.3298         calculate D2E/DX2 analytically  !
 ! D22   D(3,2,4,6)           -177.6228         calculate D2E/DX2 analytically  !
 ! D23   D(2,3,12,14)         -177.0827         calculate D2E/DX2 analytically  !
 ! D24   D(5,3,12,14)           63.2471         calculate D2E/DX2 analytically  !
 ! D25   D(11,3,12,14)         -57.4044         calculate D2E/DX2 analytically  !
 ! D26   D(2,4,6,7)            179.4348         calculate D2E/DX2 analytically  !
 ! D27   D(2,4,6,10)            -0.5428         calculate D2E/DX2 analytically  !
 ! D28   D(4,6,10,1)            -0.3854         calculate D2E/DX2 analytically  !
 ! D29   D(4,6,10,19)         -174.557          calculate D2E/DX2 analytically  !
 ! D30   D(7,6,10,1)           179.637          calculate D2E/DX2 analytically  !
 ! D31   D(7,6,10,19)            5.4653         calculate D2E/DX2 analytically  !
 ! D32   D(1,10,19,20)         173.6961         calculate D2E/DX2 analytically  !
 ! D33   D(1,10,19,21)          -7.7551         calculate D2E/DX2 analytically  !
 ! D34   D(6,10,19,20)         -13.059          calculate D2E/DX2 analytically  !
 ! D35   D(6,10,19,21)         165.4898         calculate D2E/DX2 analytically  !
 ! D36   D(3,12,14,15)         178.3022         calculate D2E/DX2 analytically  !
 ! D37   D(3,12,14,16)          -1.2987         calculate D2E/DX2 analytically  !
 ! D38   D(12,14,15,17)        175.3704         calculate D2E/DX2 analytically  !
 ! D39   D(12,14,15,18)         -0.6944         calculate D2E/DX2 analytically  !
 ! D40   D(16,14,15,17)         -5.0536         calculate D2E/DX2 analytically  !
 ! D41   D(16,14,15,18)        178.8817         calculate D2E/DX2 analytically  !
 --------------------------------------------------------------------------------
 Trust Radius=3.00D-01 FncErr=1.00D-07 GrdErr=1.00D-06
 Number of steps in this run=    108 maximum allowed number of steps=    132.
 GradGradGradGradGradGradGradGradGradGradGradGradGradGradGradGradGradGrad

 Leave Link  103 at Thu Aug 26 23:18:18 2021, MaxMem= 24159191040 cpu:         0.7
 (Enter /public/home/users/caep010/software/Gaussian09/g09/l202.exe)
                          Input orientation:                          
 ---------------------------------------------------------------------
 Center     Atomic      Atomic             Coordinates (Angstroms)
 Number     Number       Type             X           Y           Z
 ---------------------------------------------------------------------
      1          7           0        8.299600    0.970400    2.243600
      2          6           0        7.474500    0.773700    3.296800
      3          6           0        7.061400   -0.590800    3.742400
      4          7           0        7.071100    1.909100    3.855700
      5          1           0        6.604100   -1.059800    3.027300
      6          6           0        7.636700    2.896500    3.114700
      7          1           0        7.528600    3.808100    3.262000
      8          6           0        8.762400   -0.092000    1.339100
      9          1           0        8.073200   -0.292500    0.702000
     10          6           0        8.385400    2.344600    2.123400
     11          1           0        7.834400   -1.110600    4.013200
     12          8           0        6.180100   -0.380700    4.853000
     13          1           0        8.966300   -0.879900    1.848700
     14          6           0        5.737900   -1.523900    5.447200
     15          7           0        4.959400   -1.239000    6.484800
     16          8           0        6.052600   -2.629900    5.043400
     17          1           0        4.557800   -1.846200    6.925600
     18          1           0        4.798600   -0.430400    6.711100
     19          7           0        9.224900    3.027100    1.197400
     20          8           0        9.097500    4.251800    1.133200
     21          8           0       10.041000    2.385400    0.536600
     22          1           0        9.550500    0.202100    0.876300
 ---------------------------------------------------------------------
                    Distance matrix (angstroms):
                    1          2          3          4          5
     1  N    0.000000
     2  C    1.352298   0.000000
     3  C    2.493368   1.493677   0.000000
     4  N    2.233660   1.328245   2.502485   0.000000
     5  H    2.758735   2.047425   0.969769   3.117483   0.000000
     6  C    2.215426   2.136761   3.589741   1.357919   4.089769
     7  H    3.111932   3.035082   4.449650   2.041565   4.960467
     8  C    1.470033   2.498142   2.986311   3.632929   2.906014
     9  H    2.005668   2.868486   3.218191   3.974553   2.855525
    10  C    1.382113   2.162021   3.604263   2.217636   3.947151
    11  H    2.771003   2.047765   0.970079   3.118657   1.577408
    12  O    3.623082   2.330208   1.433270   2.651730   1.993523
    13  H    2.006002   2.656474   2.701541   3.924074   2.646025
    14  C    4.800718   3.594296   2.351313   4.011955   2.611821
    15  N    5.833195   4.532111   3.515583   4.613239   3.832944
    16  O    5.084294   4.081287   2.620726   4.801093   2.614197
    17  H    6.622343   5.342210   4.239906   5.462897   4.472417
    18  H    5.846178   4.501971   3.736197   4.334839   4.150465
    19  N    2.486107   3.542484   4.924120   3.599352   5.188437
    20  O    3.554887   4.405959   5.865527   4.123899   6.165854
    21  O    2.819317   4.099171   5.292725   4.479240   5.466742
    22  H    2.006127   3.239649   3.877994   4.235339   3.860112
                    6          7          8          9         10
     6  C    0.000000
     7  H    0.929730   0.000000
     8  C    3.653914   4.520021   0.000000
     9  H    4.022608   4.864680   0.959736   0.000000
    10  C    1.359346   2.042633   2.587330   3.012000   0.000000
    11  H    4.111355   4.985120   3.008245   3.419117   3.976601
    12  O    3.985400   4.679293   4.370253   4.563158   4.443121
    13  H    4.199022   5.103111   0.960236   1.567669   3.287903
    14  C    5.346582   6.034230   5.298530   5.430184   5.746494
    15  N    5.968909   6.516168   6.500511   6.635691   6.603141
    16  O    6.063856   6.841038   5.244596   5.328604   6.222058
    17  H    6.818782   7.363337   7.208666   7.314726   7.434679
    18  H    5.661905   6.108525   6.684655   6.844801   6.450795
    19  N    2.493085   2.783876   3.156386   3.548461   1.424094
    20  O    2.810181   2.681437   4.361569   4.678225   2.263845
    21  O    3.562089   3.970395   2.901092   3.327273   2.293602
    22  H    3.991598   4.773142   0.960094   1.567618   2.739165
                   11         12         13         14         15
    11  H    0.000000
    12  O    1.993672   0.000000
    13  H    2.453463   4.127703   0.000000
    14  C    2.573419   1.362175   4.877141   0.000000
    15  N    3.793536   2.211235   6.138210   1.328098   0.000000
    16  O    2.558202   2.260843   4.664575   1.218740   2.281956
    17  H    4.445142   3.012510   6.792902   1.918901   0.851046
    18  H    4.117939   2.315933   6.419868   1.917152   0.854928
    19  N    5.194495   5.852121   3.969347   7.136636   8.021889
    20  O    6.216523   6.618776   5.183001   7.953378   8.712771
    21  O    5.401652   6.417879   3.679507   7.610078   8.622066
    22  H    3.808979   5.245321   1.567666   6.197429   7.389874
                   16         17         18         19         20
    16  O    0.000000
    17  H    2.528100   0.000000
    18  H    3.031755   1.452062   0.000000
    19  N    7.540348   8.851167   7.870662   0.000000
    20  O    8.480500   9.557530   8.456743   1.232981   0.000000
    21  O    7.834017   9.422910   8.575310   1.230632   2.174758
    22  H    6.133535   8.106579   7.551523   2.861773   4.083047
                   21         22
    21  O    0.000000
    22  H    2.263357   0.000000
 Stoichiometry    C6H8N4O4
 Framework group  C1[X(C6H8N4O4)]
 Deg. of freedom    60
 Full point group                 C1      NOp   1
 Largest Abelian subgroup         C1      NOp   1
 Largest concise Abelian subgroup C1      NOp   1
                         Standard orientation:                         
 ---------------------------------------------------------------------
 Center     Atomic      Atomic             Coordinates (Angstroms)
 Number     Number       Type             X           Y           Z
 ---------------------------------------------------------------------
      1          7           0        1.043707    0.605566    0.001056
      2          6           0       -0.127294   -0.070757   -0.006328
      3          6           0       -1.449556    0.623677    0.015026
      4          7           0        0.037736   -1.388695   -0.012347
      5          1           0       -1.531999    1.177059    0.807127
      6          6           0        1.381118   -1.583919    0.021657
      7          1           0        1.803753   -2.411946    0.033800
      8          6           0        1.163579    2.060261    0.175674
      9          1           0        1.085551    2.278189    1.107078
     10          6           0        2.012088   -0.379967    0.035686
     11          1           0       -1.554272    1.183721   -0.770110
     12          8           0       -2.430829   -0.420965    0.024468
     13          1           0        0.465584    2.500180   -0.315578
     14          6           0       -3.720539    0.015267   -0.018788
     15          7           0       -4.560115   -1.013494   -0.043428
     16          8           0       -4.005558    1.200047   -0.038451
     17          1           0       -5.403796   -0.906031   -0.012890
     18          1           0       -4.275532   -1.819663   -0.040834
     19          7           0        3.414332   -0.142371   -0.037145
     20          8           0        4.150359   -1.117803    0.127294
     21          8           0        3.821915    0.992629   -0.282308
     22          1           0        2.017621    2.352814   -0.151136
 ---------------------------------------------------------------------
 Rotational constants (GHZ):      2.1945145      0.3016923      0.2665214
 Leave Link  202 at Thu Aug 26 23:18:18 2021, MaxMem= 24159191040 cpu:         0.7
 (Enter /public/home/users/caep010/software/Gaussian09/g09/l301.exe)
 Standard basis: GTBas3 (6D, 7F)
 Ernie: Thresh=  0.10000D-02 Tol=  0.10000D-05 Strict=F.
 There are   474 symmetry adapted cartesian basis functions of A   symmetry.
 There are   432 symmetry adapted basis functions of A   symmetry.
   432 basis functions,   672 primitive gaussians,   474 cartesian basis functions
    52 alpha electrons       52 beta electrons
       nuclear repulsion energy       902.3238587211 Hartrees.
 IExCor=  402 DFT=T Ex+Corr=B3LYP ExCW=0 ScaHFX=  0.200000
 ScaDFX=  0.800000  0.720000  1.000000  0.810000 ScalE2=  1.000000  1.000000
 IRadAn=      0 IRanWt=     -1 IRanGd=            0 ICorTp=0 IEmpDi=  4
 NAtoms=   22 NActive=   22 NUniq=   22 SFac= 1.00D+00 NAtFMM=   60 NAOKFM=F Big=F
 Integral buffers will be    131072 words long.
 Raffenetti 2 integral format.
 Two-electron integral symmetry is turned on.
 Leave Link  301 at Thu Aug 26 23:18:18 2021, MaxMem= 24159191040 cpu:         2.5
 (Enter /public/home/users/caep010/software/Gaussian09/g09/l302.exe)
 NPDir=0 NMtPBC=     1 NCelOv=     1 NCel=       1 NClECP=     1 NCelD=      1
         NCelK=      1 NCelE2=     1 NClLst=     1 CellRange=     0.0.
 One-electron integrals computed using PRISM.
 NBasis=   432 RedAO= T EigKep=  1.37D-04  NBF=   432
 NBsUse=   432 1.00D-06 EigRej= -1.00D+00 NBFU=   432
 Precomputing XC quadrature grid using
 IXCGrd= 4 IRadAn=           0 IRanWt=          -1 IRanGd=           0 AccXCQ= 0.00D+00.
 Generated NRdTot=       0 NPtTot=           0 NUsed=           0 NTot=          32
 NSgBfM=   471   471   471   471   471 MxSgAt=    22 MxSgA2=    22.
 Leave Link  302 at Thu Aug 26 23:18:19 2021, MaxMem= 24159191040 cpu:        20.3
 (Enter /public/home/users/caep010/software/Gaussian09/g09/l303.exe)
 DipDrv:  MaxL=1.
 Leave Link  303 at Thu Aug 26 23:18:19 2021, MaxMem= 24159191040 cpu:         1.9
 (Enter /public/home/users/caep010/software/Gaussian09/g09/l401.exe)
 ExpMin= 1.61D-01 ExpMax= 5.48D+03 ExpMxC= 8.25D+02 IAcc=1 IRadAn=         1 AccDes= 0.00D+00
 Harris functional with IExCor=  402 and IRadAn=       1 diagonalized for initial guess.
 HarFok:  IExCor=  402 AccDes= 0.00D+00 IRadAn=         1 IDoV= 1 UseB2=F ITyADJ=14
 ICtDFT=  3500011 ScaDFX=  1.000000  1.000000  1.000000  1.000000
 FoFCou: FMM=F IPFlag=           0 FMFlag=      100000 FMFlg1=           0
         NFxFlg=           0 DoJE=T BraDBF=F KetDBF=T FulRan=T
         wScrn=  0.000000 ICntrl=     500 IOpCl=  0 I1Cent=   200000004 NGrid=           0
         NMat0=    1 NMatS0=      1 NMatT0=    0 NMatD0=    1 NMtDS0=    0 NMtDT0=    0
 Petite list used in FoFCou.
 Harris En= -753.266195356730    
 JPrj=0 DoOrth=F DoCkMO=F.
 Leave Link  401 at Thu Aug 26 23:18:19 2021, MaxMem= 24159191040 cpu:        20.0
 (Enter /public/home/users/caep010/software/Gaussian09/g09/l502.exe)
 Closed shell SCF:
 Using DIIS extrapolation, IDIIS=  1040.
 Integral symmetry usage will be decided dynamically.
 Keep R1 ints in memory in canonical form, NReq=4428087030.
 IVT=      711174 IEndB=      711174 NGot= 24159191040 MDV= 19784689711
 LenX= 19784689711 LenY= 19784464561
 Requested convergence on RMS density matrix=1.00D-08 within 128 cycles.
 Requested convergence on MAX density matrix=1.00D-06.
 Requested convergence on             energy=1.00D-06.
 No special actions if energy rises.
 FoFCou: FMM=F IPFlag=           0 FMFlag=           0 FMFlg1=           0
         NFxFlg=           0 DoJE=F BraDBF=F KetDBF=F FulRan=T
         wScrn=  0.000000 ICntrl=     600 IOpCl=  0 I1Cent=           0 NGrid=           0
         NMat0=    1 NMatS0=  93528 NMatT0=    0 NMatD0=    1 NMtDS0=    0 NMtDT0=    0
 Symmetry not used in FoFCou.
 Integral accuracy reduced to 1.0D-05 until final iterations.

 Cycle   1  Pass 0  IDiag  1:
 E= -752.699022447164    
 DIIS: error= 2.95D-02 at cycle   1 NSaved=   1.
 NSaved= 1 IEnMin= 1 EnMin= -752.699022447164     IErMin= 1 ErrMin= 2.95D-02
 ErrMax= 2.95D-02  0.00D+00 EMaxC= 1.00D-01 BMatC= 6.24D-01 BMatP= 6.24D-01
 IDIUse=3 WtCom= 7.05D-01 WtEn= 2.95D-01
 Coeff-Com:  0.100D+01
 Coeff-En:   0.100D+01
 Coeff:      0.100D+01
 Gap=     0.110 Goal=   None    Shift=    0.000
 GapD=    0.110 DampG=1.000 DampE=0.500 DampFc=0.5000 IDamp=-1.
 Damping current iteration by 5.00D-01
 RMSDP=3.77D-03 MaxDP=2.47D-01              OVMax= 3.34D-01

 Cycle   2  Pass 0  IDiag  1:
 E= -752.801976330667     Delta-E=       -0.102953883503 Rises=F Damp=T
 DIIS: error= 1.20D-02 at cycle   2 NSaved=   2.
 NSaved= 2 IEnMin= 2 EnMin= -752.801976330667     IErMin= 2 ErrMin= 1.20D-02
 ErrMax= 1.20D-02  0.00D+00 EMaxC= 1.00D-01 BMatC= 1.19D-01 BMatP= 6.24D-01
 IDIUse=3 WtCom= 8.80D-01 WtEn= 1.20D-01
 Coeff-Com:  0.250D+00 0.750D+00
 Coeff-En:   0.393D+00 0.607D+00
 Coeff:      0.267D+00 0.733D+00
 Gap=     0.186 Goal=   None    Shift=    0.000
 RMSDP=1.14D-03 MaxDP=7.44D-02 DE=-1.03D-01 OVMax= 2.26D-01

 Cycle   3  Pass 0  IDiag  1:
 E= -753.122520170901     Delta-E=       -0.320543840234 Rises=F Damp=F
 DIIS: error= 8.32D-03 at cycle   3 NSaved=   3.
 NSaved= 3 IEnMin= 3 EnMin= -753.122520170901     IErMin= 3 ErrMin= 8.32D-03
 ErrMax= 8.32D-03  0.00D+00 EMaxC= 1.00D-01 BMatC= 6.47D-02 BMatP= 1.19D-01
 IDIUse=3 WtCom= 9.17D-01 WtEn= 8.32D-02
 Coeff-Com:  0.890D-01 0.419D+00 0.492D+00
 Coeff-En:   0.000D+00 0.000D+00 0.100D+01
 Coeff:      0.816D-01 0.384D+00 0.534D+00
 Gap=     0.175 Goal=   None    Shift=    0.000
 RMSDP=7.43D-04 MaxDP=6.46D-02 DE=-3.21D-01 OVMax= 1.22D-01

 Cycle   4  Pass 0  IDiag  1:
 E= -753.157441707513     Delta-E=       -0.034921536612 Rises=F Damp=F
 DIIS: error= 4.95D-03 at cycle   4 NSaved=   4.
 NSaved= 4 IEnMin= 4 EnMin= -753.157441707513     IErMin= 4 ErrMin= 4.95D-03
 ErrMax= 4.95D-03  0.00D+00 EMaxC= 1.00D-01 BMatC= 2.51D-02 BMatP= 6.47D-02
 IDIUse=3 WtCom= 9.51D-01 WtEn= 4.95D-02
 Coeff-Com:  0.327D-01 0.166D+00 0.377D+00 0.425D+00
 Coeff-En:   0.000D+00 0.000D+00 0.298D+00 0.702D+00
 Coeff:      0.310D-01 0.157D+00 0.373D+00 0.438D+00
 Gap=     0.178 Goal=   None    Shift=    0.000
 RMSDP=4.07D-04 MaxDP=4.32D-02 DE=-3.49D-02 OVMax= 8.53D-02

 Cycle   5  Pass 0  IDiag  1:
 E= -753.172736801078     Delta-E=       -0.015295093565 Rises=F Damp=F
 DIIS: error= 2.93D-03 at cycle   5 NSaved=   5.
 NSaved= 5 IEnMin= 5 EnMin= -753.172736801078     IErMin= 5 ErrMin= 2.93D-03
 ErrMax= 2.93D-03  0.00D+00 EMaxC= 1.00D-01 BMatC= 5.91D-03 BMatP= 2.51D-02
 IDIUse=3 WtCom= 9.71D-01 WtEn= 2.93D-02
 Coeff-Com:  0.765D-02 0.290D-01 0.182D+00 0.355D+00 0.427D+00
 Coeff-En:   0.000D+00 0.000D+00 0.000D+00 0.225D+00 0.775D+00
 Coeff:      0.742D-02 0.281D-01 0.176D+00 0.351D+00 0.437D+00
 Gap=     0.175 Goal=   None    Shift=    0.000
 RMSDP=1.66D-04 MaxDP=1.87D-02 DE=-1.53D-02 OVMax= 3.60D-02

 Cycle   6  Pass 0  IDiag  1:
 E= -753.177160547821     Delta-E=       -0.004423746744 Rises=F Damp=F
 DIIS: error= 4.99D-04 at cycle   6 NSaved=   6.
 NSaved= 6 IEnMin= 6 EnMin= -753.177160547821     IErMin= 6 ErrMin= 4.99D-04
 ErrMax= 4.99D-04  0.00D+00 EMaxC= 1.00D-01 BMatC= 2.91D-04 BMatP= 5.91D-03
 IDIUse=3 WtCom= 9.95D-01 WtEn= 4.99D-03
 Coeff-Com:  0.139D-02 0.101D-02 0.633D-01 0.156D+00 0.260D+00 0.518D+00
 Coeff-En:   0.000D+00 0.000D+00 0.000D+00 0.000D+00 0.121D-01 0.988D+00
 Coeff:      0.139D-02 0.100D-02 0.629D-01 0.155D+00 0.259D+00 0.521D+00
 Gap=     0.176 Goal=   None    Shift=    0.000
 RMSDP=3.83D-05 MaxDP=2.20D-03 DE=-4.42D-03 OVMax= 4.62D-03

 Cycle   7  Pass 0  IDiag  1:
 E= -753.177384465868     Delta-E=       -0.000223918046 Rises=F Damp=F
 DIIS: error= 1.10D-04 at cycle   7 NSaved=   7.
 NSaved= 7 IEnMin= 7 EnMin= -753.177384465868     IErMin= 7 ErrMin= 1.10D-04
 ErrMax= 1.10D-04  0.00D+00 EMaxC= 1.00D-01 BMatC= 1.75D-05 BMatP= 2.91D-04
 IDIUse=3 WtCom= 9.99D-01 WtEn= 1.10D-03
 Coeff-Com:  0.798D-04-0.148D-02 0.192D-01 0.528D-01 0.104D+00 0.279D+00
 Coeff-Com:  0.547D+00
 Coeff-En:   0.000D+00 0.000D+00 0.000D+00 0.000D+00 0.000D+00 0.000D+00
 Coeff-En:   0.100D+01
 Coeff:      0.797D-04-0.148D-02 0.191D-01 0.527D-01 0.104D+00 0.278D+00
 Coeff:      0.547D+00
 Gap=     0.176 Goal=   None    Shift=    0.000
 RMSDP=1.01D-05 MaxDP=7.98D-04 DE=-2.24D-04 OVMax= 1.55D-03

 Cycle   8  Pass 0  IDiag  1:
 E= -753.177396652259     Delta-E=       -0.000012186392 Rises=F Damp=F
 DIIS: error= 6.30D-05 at cycle   8 NSaved=   8.
 NSaved= 8 IEnMin= 8 EnMin= -753.177396652259     IErMin= 8 ErrMin= 6.30D-05
 ErrMax= 6.30D-05  0.00D+00 EMaxC= 1.00D-01 BMatC= 2.39D-06 BMatP= 1.75D-05
 IDIUse=1 WtCom= 1.00D+00 WtEn= 0.00D+00
 Coeff-Com: -0.134D-03-0.982D-03 0.431D-02 0.137D-01 0.338D-01 0.108D+00
 Coeff-Com:  0.321D+00 0.521D+00
 Coeff:     -0.134D-03-0.982D-03 0.431D-02 0.137D-01 0.338D-01 0.108D+00
 Coeff:      0.321D+00 0.521D+00
 Gap=     0.176 Goal=   None    Shift=    0.000
 RMSDP=3.64D-06 MaxDP=2.57D-04 DE=-1.22D-05 OVMax= 6.67D-04

 Initial convergence to 1.0D-05 achieved.  Increase integral accuracy.
 Cycle   9  Pass 1  IDiag  1:
 E= -753.177336588681     Delta-E=        0.000060063579 Rises=F Damp=F
 DIIS: error= 1.91D-05 at cycle   1 NSaved=   1.
 NSaved= 1 IEnMin= 1 EnMin= -753.177336588681     IErMin= 1 ErrMin= 1.91D-05
 ErrMax= 1.91D-05  0.00D+00 EMaxC= 1.00D-01 BMatC= 3.28D-07 BMatP= 3.28D-07
 IDIUse=1 WtCom= 1.00D+00 WtEn= 0.00D+00
 Coeff-Com:  0.100D+01
 Coeff:      0.100D+01
 Gap=     0.176 Goal=   None    Shift=    0.000
 RMSDP=3.64D-06 MaxDP=2.57D-04 DE= 6.01D-05 OVMax= 3.58D-04

 Cycle  10  Pass 1  IDiag  1:
 E= -753.177336390529     Delta-E=        0.000000198152 Rises=F Damp=F
 DIIS: error= 2.21D-05 at cycle   2 NSaved=   2.
 NSaved= 2 IEnMin= 1 EnMin= -753.177336588681     IErMin= 1 ErrMin= 1.91D-05
 ErrMax= 2.21D-05  0.00D+00 EMaxC= 1.00D-01 BMatC= 5.23D-07 BMatP= 3.28D-07
 IDIUse=1 WtCom= 1.00D+00 WtEn= 0.00D+00
 Coeff-Com:  0.571D+00 0.429D+00
 Coeff:      0.571D+00 0.429D+00
 Gap=     0.176 Goal=   None    Shift=    0.000
 RMSDP=1.99D-06 MaxDP=1.33D-04 DE= 1.98D-07 OVMax= 3.47D-04

 Cycle  11  Pass 1  IDiag  1:
 E= -753.177336811060     Delta-E=       -0.000000420531 Rises=F Damp=F
 DIIS: error= 8.09D-06 at cycle   3 NSaved=   3.
 NSaved= 3 IEnMin= 3 EnMin= -753.177336811060     IErMin= 3 ErrMin= 8.09D-06
 ErrMax= 8.09D-06  0.00D+00 EMaxC= 1.00D-01 BMatC= 7.54D-08 BMatP= 3.28D-07
 IDIUse=1 WtCom= 1.00D+00 WtEn= 0.00D+00
 Coeff-Com:  0.715D-01 0.271D+00 0.658D+00
 Coeff:      0.715D-01 0.271D+00 0.658D+00
 Gap=     0.176 Goal=   None    Shift=    0.000
 RMSDP=7.23D-07 MaxDP=6.21D-05 DE=-4.21D-07 OVMax= 1.24D-04

 Cycle  12  Pass 1  IDiag  1:
 E= -753.177336852844     Delta-E=       -0.000000041784 Rises=F Damp=F
 DIIS: error= 5.82D-06 at cycle   4 NSaved=   4.
 NSaved= 4 IEnMin= 4 EnMin= -753.177336852844     IErMin= 4 ErrMin= 5.82D-06
 ErrMax= 5.82D-06  0.00D+00 EMaxC= 1.00D-01 BMatC= 2.99D-08 BMatP= 7.54D-08
 IDIUse=1 WtCom= 1.00D+00 WtEn= 0.00D+00
 Coeff-Com: -0.345D-02 0.162D+00 0.488D+00 0.353D+00
 Coeff:     -0.345D-02 0.162D+00 0.488D+00 0.353D+00
 Gap=     0.176 Goal=   None    Shift=    0.000
 RMSDP=3.78D-07 MaxDP=4.53D-05 DE=-4.18D-08 OVMax= 8.11D-05

 Cycle  13  Pass 1  IDiag  1:
 E= -753.177336874758     Delta-E=       -0.000000021914 Rises=F Damp=F
 DIIS: error= 1.50D-06 at cycle   5 NSaved=   5.
 NSaved= 5 IEnMin= 5 EnMin= -753.177336874758     IErMin= 5 ErrMin= 1.50D-06
 ErrMax= 1.50D-06  0.00D+00 EMaxC= 1.00D-01 BMatC= 2.23D-09 BMatP= 2.99D-08
 IDIUse=1 WtCom= 1.00D+00 WtEn= 0.00D+00
 Coeff-Com: -0.945D-02 0.891D-01 0.279D+00 0.249D+00 0.392D+00
 Coeff:     -0.945D-02 0.891D-01 0.279D+00 0.249D+00 0.392D+00
 Gap=     0.176 Goal=   None    Shift=    0.000
 RMSDP=9.83D-08 MaxDP=1.01D-05 DE=-2.19D-08 OVMax= 2.01D-05

 Cycle  14  Pass 1  IDiag  1:
 E= -753.177336876467     Delta-E=       -0.000000001709 Rises=F Damp=F
 DIIS: error= 2.71D-07 at cycle   6 NSaved=   6.
 NSaved= 6 IEnMin= 6 EnMin= -753.177336876467     IErMin= 6 ErrMin= 2.71D-07
 ErrMax= 2.71D-07  0.00D+00 EMaxC= 1.00D-01 BMatC= 9.11D-11 BMatP= 2.23D-09
 IDIUse=1 WtCom= 1.00D+00 WtEn= 0.00D+00
 Coeff-Com: -0.529D-02 0.395D-01 0.125D+00 0.117D+00 0.233D+00 0.492D+00
 Coeff:     -0.529D-02 0.395D-01 0.125D+00 0.117D+00 0.233D+00 0.492D+00
 Gap=     0.176 Goal=   None    Shift=    0.000
 RMSDP=2.33D-08 MaxDP=2.00D-06 DE=-1.71D-09 OVMax= 2.40D-06

 Cycle  15  Pass 1  IDiag  1:
 E= -753.177336876516     Delta-E=       -0.000000000049 Rises=F Damp=F
 DIIS: error= 1.11D-07 at cycle   7 NSaved=   7.
 NSaved= 7 IEnMin= 7 EnMin= -753.177336876516     IErMin= 7 ErrMin= 1.11D-07
 ErrMax= 1.11D-07  0.00D+00 EMaxC= 1.00D-01 BMatC= 1.07D-11 BMatP= 9.11D-11
 IDIUse=1 WtCom= 1.00D+00 WtEn= 0.00D+00
 Coeff-Com: -0.158D-02 0.932D-02 0.296D-01 0.292D-01 0.780D-01 0.289D+00
 Coeff-Com:  0.566D+00
 Coeff:     -0.158D-02 0.932D-02 0.296D-01 0.292D-01 0.780D-01 0.289D+00
 Coeff:      0.566D+00
 Gap=     0.176 Goal=   None    Shift=    0.000
 RMSDP=6.85D-09 MaxDP=5.08D-07 DE=-4.93D-11 OVMax= 6.71D-07

 SCF Done:  E(RB3LYP) =  -753.177336877     A.U. after   15 cycles
            NFock= 15  Conv=0.69D-08     -V/T= 2.0036
 KE= 7.504872745972D+02 PE=-3.568066968548D+03 EE= 1.162078498353D+03
 Leave Link  502 at Thu Aug 26 23:20:28 2021, MaxMem= 24159191040 cpu:       595.8
 (Enter /public/home/users/caep010/software/Gaussian09/g09/l801.exe)
 DoSCS=F DFT=T ScalE2(SS,OS)=  1.000000  1.000000
 Range of M.O.s used for correlation:     1   432
 NBasis=   432 NAE=    52 NBE=    52 NFC=     0 NFV=     0
 NROrb=    432 NOA=    52 NOB=    52 NVA=   380 NVB=   380

 **** Warning!!: The largest alpha MO coefficient is  0.64473044D+02

 Leave Link  801 at Thu Aug 26 23:20:28 2021, MaxMem= 24159191040 cpu:         0.6
 (Enter /public/home/users/caep010/software/Gaussian09/g09/l1101.exe)
 Using compressed storage, NAtomX=    22.
 Will process     23 centers per pass.
 Leave Link 1101 at Thu Aug 26 23:20:29 2021, MaxMem= 24159191040 cpu:        26.2
 (Enter /public/home/users/caep010/software/Gaussian09/g09/l1102.exe)
 Symmetrizing basis deriv contribution to polar:
 IMax=3 JMax=2 DiffMx= 0.00D+00
 Leave Link 1102 at Thu Aug 26 23:20:29 2021, MaxMem= 24159191040 cpu:         1.4
 (Enter /public/home/users/caep010/software/Gaussian09/g09/l1110.exe)
 Forming Gx(P) for the SCF density, NAtomX=    22.
 Integral derivatives from FoFJK, PRISM(SPDF).
 Do as many integral derivatives as possible in FoFJK.
 G2DrvN: MDV=   24159190760.
 G2DrvN: will do    23 centers at a time, making    1 passes.
 Calling FoFCou, ICntrl=  3107 FMM=F I1Cent=   0 AccDes= 0.00D+00.
 FoFJK:  IHMeth= 1 ICntrl=    3107 DoSepK=F KAlg= 0 I1Cent=   0 FoldK=F
 IRaf=         0 NMat=   1 IRICut=       1 DoRegI=T DoRafI=F ISym2E= 0.
 FoFCou: FMM=F IPFlag=           0 FMFlag=      100000 FMFlg1=           0
         NFxFlg=           0 DoJE=F BraDBF=F KetDBF=F FulRan=T
         wScrn=  0.000000 ICntrl=    3107 IOpCl=  0 I1Cent=           0 NGrid=           0
         NMat0=    1 NMatS0=      1 NMatT0=    0 NMatD0=    1 NMtDS0=    0 NMtDT0=    0
 Symmetry not used in FoFCou.
 End of G2Drv F.D. properties file   721 does not exist.
 End of G2Drv F.D. properties file   722 does not exist.
 End of G2Drv F.D. properties file   788 does not exist.
 Leave Link 1110 at Thu Aug 26 23:21:02 2021, MaxMem= 24159191040 cpu:      1035.5
 (Enter /public/home/users/caep010/software/Gaussian09/g09/l1002.exe)
 Minotr:  Closed shell wavefunction.
          IDoAtm=1111111111111111111111
          Direct CPHF calculation.
          Differentiating once with respect to nuclear coordinates.
          Requested convergence is 1.0D-08 RMS, and 1.0D-07 maximum.
          Secondary convergence is 1.0D-12 RMS, and 1.0D-12 maximum.
          NewPWx=T KeepS1=F KeepF1=F KeepIn=T MapXYZ=F SortEE=F KeepMc=T.
          MDV=   24159190384 using IRadAn=       2.
 Generate precomputed XC quadrature information.
 Keep R1 ints in memory in canonical form, NReq=4427383939.
 FoFCou: FMM=F IPFlag=           0 FMFlag=           0 FMFlg1=           0
         NFxFlg=           0 DoJE=F BraDBF=F KetDBF=F FulRan=T
         wScrn=  0.000000 ICntrl=     600 IOpCl=  0 I1Cent=           0 NGrid=           0
         NMat0=    1 NMatS0=  93528 NMatT0=    0 NMatD0=    1 NMtDS0=    0 NMtDT0=    0
 Symmetry not used in FoFCou.
          Solving linear equations simultaneously, MaxMat=       0.
          There are    69 degrees of freedom in the 1st order CPHF.  IDoFFX=6 NUNeed=     0.
     63 vectors produced by pass  0 Test12= 2.86D-14 1.45D-09 XBig12= 2.32D-01 1.29D-01.
 AX will form    63 AO Fock derivatives at one time.
     63 vectors produced by pass  1 Test12= 2.86D-14 1.45D-09 XBig12= 4.32D-02 7.70D-02.
     63 vectors produced by pass  2 Test12= 2.86D-14 1.45D-09 XBig12= 8.57D-04 4.16D-03.
     63 vectors produced by pass  3 Test12= 2.86D-14 1.45D-09 XBig12= 4.39D-06 2.17D-04.
     63 vectors produced by pass  4 Test12= 2.86D-14 1.45D-09 XBig12= 1.33D-08 1.71D-05.
     61 vectors produced by pass  5 Test12= 2.86D-14 1.45D-09 XBig12= 2.22D-11 4.37D-07.
     27 vectors produced by pass  6 Test12= 2.86D-14 1.45D-09 XBig12= 3.46D-14 2.15D-08.
 InvSVY:  IOpt=1 It=  1 EMax= 9.99D-16
 Solved reduced A of dimension   403 with    69 vectors.
 End of Minotr F.D. properties file   721 does not exist.
 End of Minotr F.D. properties file   722 does not exist.
 End of Minotr F.D. properties file   788 does not exist.
 Leave Link 1002 at Thu Aug 26 23:22:09 2021, MaxMem= 24159191040 cpu:      2137.4
 (Enter /public/home/users/caep010/software/Gaussian09/g09/l601.exe)
 Copying SCF densities to generalized density rwf, IOpCl= 0 IROHF=0.

 **********************************************************************

            Population analysis using the SCF density.

 **********************************************************************

 Orbital symmetries:
       Occupied  (A) (A) (A) (A) (A) (A) (A) (A) (A) (A) (A) (A)
                 (A) (A) (A) (A) (A) (A) (A) (A) (A) (A) (A) (A)
                 (A) (A) (A) (A) (A) (A) (A) (A) (A) (A) (A) (A)
                 (A) (A) (A) (A) (A) (A) (A) (A) (A) (A) (A) (A)
                 (A) (A) (A) (A)
       Virtual   (A) (A) (A) (A) (A) (A) (A) (A) (A) (A) (A) (A)
                 (A) (A) (A) (A) (A) (A) (A) (A) (A) (A) (A) (A)
                 (A) (A) (A) (A) (A) (A) (A) (A) (A) (A) (A) (A)
                 (A) (A) (A) (A) (A) (A) (A) (A) (A) (A) (A) (A)
                 (A) (A) (A) (A) (A) (A) (A) (A) (A) (A) (A) (A)
                 (A) (A) (A) (A) (A) (A) (A) (A) (A) (A) (A) (A)
                 (A) (A) (A) (A) (A) (A) (A) (A) (A) (A) (A) (A)
                 (A) (A) (A) (A) (A) (A) (A) (A) (A) (A) (A) (A)
                 (A) (A) (A) (A) (A) (A) (A) (A) (A) (A) (A) (A)
                 (A) (A) (A) (A) (A) (A) (A) (A) (A) (A) (A) (A)
                 (A) (A) (A) (A) (A) (A) (A) (A) (A) (A) (A) (A)
                 (A) (A) (A) (A) (A) (A) (A) (A) (A) (A) (A) (A)
                 (A) (A) (A) (A) (A) (A) (A) (A) (A) (A) (A) (A)
                 (A) (A) (A) (A) (A) (A) (A) (A) (A) (A) (A) (A)
                 (A) (A) (A) (A) (A) (A) (A) (A) (A) (A) (A) (A)
                 (A) (A) (A) (A) (A) (A) (A) (A) (A) (A) (A) (A)
                 (A) (A) (A) (A) (A) (A) (A) (A) (A) (A) (A) (A)
                 (A) (A) (A) (A) (A) (A) (A) (A) (A) (A) (A) (A)
                 (A) (A) (A) (A) (A) (A) (A) (A) (A) (A) (A) (A)
                 (A) (A) (A) (A) (A) (A) (A) (A) (A) (A) (A) (A)
                 (A) (A) (A) (A) (A) (A) (A) (A) (A) (A) (A) (A)
                 (A) (A) (A) (A) (A) (A) (A) (A) (A) (A) (A) (A)
                 (A) (A) (A) (A) (A) (A) (A) (A) (A) (A) (A) (A)
                 (A) (A) (A) (A) (A) (A) (A) (A) (A) (A) (A) (A)
                 (A) (A) (A) (A) (A) (A) (A) (A) (A) (A) (A) (A)
                 (A) (A) (A) (A) (A) (A) (A) (A) (A) (A) (A) (A)
                 (A) (A) (A) (A) (A) (A) (A) (A) (A) (A) (A) (A)
                 (A) (A) (A) (A) (A) (A) (A) (A) (A) (A) (A) (A)
                 (A) (A) (A) (A) (A) (A) (A) (A) (A) (A) (A) (A)
                 (A) (A) (A) (A) (A) (A) (A) (A) (A) (A) (A) (A)
                 (A) (A) (A) (A) (A) (A) (A) (A) (A) (A) (A) (A)
                 (A) (A) (A) (A) (A) (A) (A) (A)
 The electronic state is 1-A.
 Alpha  occ. eigenvalues --  -19.18744 -19.17134 -19.16756 -19.11413 -14.57000
 Alpha  occ. eigenvalues --  -14.42176 -14.34151 -14.33199 -10.33346 -10.27070
 Alpha  occ. eigenvalues --  -10.26716 -10.24921 -10.21760 -10.21491  -1.22462
 Alpha  occ. eigenvalues --   -1.11547  -1.05592  -1.04714  -1.01456  -0.96652
 Alpha  occ. eigenvalues --   -0.91697  -0.83991  -0.78778  -0.76947  -0.69867
 Alpha  occ. eigenvalues --   -0.66133  -0.61747  -0.60455  -0.59235  -0.57244
 Alpha  occ. eigenvalues --   -0.55076  -0.54464  -0.52988  -0.50966  -0.50502
 Alpha  occ. eigenvalues --   -0.49795  -0.47813  -0.46125  -0.45334  -0.44589
 Alpha  occ. eigenvalues --   -0.43670  -0.42406  -0.38045  -0.31546  -0.31481
 Alpha  occ. eigenvalues --   -0.30952  -0.30129  -0.29579  -0.29060  -0.28634
 Alpha  occ. eigenvalues --   -0.27614  -0.25877
 Alpha virt. eigenvalues --   -0.08300   0.01751   0.04973   0.05969   0.07537
 Alpha virt. eigenvalues --    0.09181   0.11527   0.12333   0.14295   0.15852
 Alpha virt. eigenvalues --    0.16696   0.17021   0.18007   0.18880   0.21126
 Alpha virt. eigenvalues --    0.22103   0.23451   0.24164   0.25709   0.26693
 Alpha virt. eigenvalues --    0.28990   0.32911   0.34841   0.35484   0.37068
 Alpha virt. eigenvalues --    0.39230   0.39698   0.41411   0.42757   0.43318
 Alpha virt. eigenvalues --    0.43740   0.45929   0.47370   0.48893   0.50081
 Alpha virt. eigenvalues --    0.51324   0.52641   0.54433   0.56007   0.56845
 Alpha virt. eigenvalues --    0.57770   0.58144   0.58266   0.59428   0.61103
 Alpha virt. eigenvalues --    0.62350   0.64343   0.65706   0.67805   0.67967
 Alpha virt. eigenvalues --    0.68907   0.69215   0.70981   0.71561   0.72516
 Alpha virt. eigenvalues --    0.73100   0.73828   0.75324   0.75959   0.77165
 Alpha virt. eigenvalues --    0.77607   0.79216   0.79998   0.80209   0.82678
 Alpha virt. eigenvalues --    0.83720   0.85112   0.85686   0.86248   0.87409
 Alpha virt. eigenvalues --    0.88628   0.89290   0.89891   0.91487   0.92096
 Alpha virt. eigenvalues --    0.93308   0.93781   0.95580   0.96379   0.97353
 Alpha virt. eigenvalues --    0.98536   0.99296   1.00159   1.01928   1.03127
 Alpha virt. eigenvalues --    1.03302   1.06278   1.07422   1.08822   1.09820
 Alpha virt. eigenvalues --    1.10599   1.10939   1.12462   1.14232   1.16582
 Alpha virt. eigenvalues --    1.19989   1.22225   1.23424   1.23876   1.24285
 Alpha virt. eigenvalues --    1.25081   1.27439   1.28822   1.29698   1.31056
 Alpha virt. eigenvalues --    1.32200   1.33842   1.34592   1.36819   1.37751
 Alpha virt. eigenvalues --    1.39205   1.40953   1.41781   1.42735   1.42951
 Alpha virt. eigenvalues --    1.44580   1.47354   1.47695   1.49467   1.50829
 Alpha virt. eigenvalues --    1.51766   1.56493   1.57115   1.58845   1.59855
 Alpha virt. eigenvalues --    1.61907   1.63882   1.64619   1.66186   1.67212
 Alpha virt. eigenvalues --    1.69754   1.70099   1.70938   1.73168   1.76528
 Alpha virt. eigenvalues --    1.77968   1.80256   1.81430   1.82752   1.85919
 Alpha virt. eigenvalues --    1.89179   1.91673   1.91935   1.96531   1.98220
 Alpha virt. eigenvalues --    2.00998   2.03033   2.05907   2.10428   2.11907
 Alpha virt. eigenvalues --    2.12127   2.13638   2.16522   2.18051   2.22696
 Alpha virt. eigenvalues --    2.23585   2.25900   2.28889   2.30283   2.33395
 Alpha virt. eigenvalues --    2.38407   2.42096   2.45895   2.46765   2.50759
 Alpha virt. eigenvalues --    2.52427   2.55538   2.58874   2.59771   2.63009
 Alpha virt. eigenvalues --    2.65228   2.68102   2.80783   2.83159   2.85169
 Alpha virt. eigenvalues --    2.85614   2.87514   2.90723   2.94526   2.95858
 Alpha virt. eigenvalues --    2.98879   3.00342   3.03101   3.04625   3.05262
 Alpha virt. eigenvalues --    3.05577   3.07030   3.08257   3.12534   3.13312
 Alpha virt. eigenvalues --    3.13698   3.15207   3.17702   3.20839   3.22715
 Alpha virt. eigenvalues --    3.23505   3.24866   3.25595   3.26292   3.27544
 Alpha virt. eigenvalues --    3.30359   3.33075   3.35445   3.41860   3.43326
 Alpha virt. eigenvalues --    3.45475   3.46472   3.47514   3.50483   3.51329
 Alpha virt. eigenvalues --    3.54135   3.55047   3.57347   3.59052   3.61315
 Alpha virt. eigenvalues --    3.62508   3.63471   3.64553   3.67705   3.67879
 Alpha virt. eigenvalues --    3.71122   3.72488   3.74705   3.77753   3.79014
 Alpha virt. eigenvalues --    3.79536   3.82246   3.83516   3.85757   3.88017
 Alpha virt. eigenvalues --    3.88316   3.91080   3.92821   3.95095   3.95589
 Alpha virt. eigenvalues --    3.98276   4.00612   4.01096   4.02014   4.04389
 Alpha virt. eigenvalues --    4.07137   4.08465   4.10457   4.10845   4.11373
 Alpha virt. eigenvalues --    4.12777   4.17107   4.17676   4.19546   4.20701
 Alpha virt. eigenvalues --    4.21485   4.22510   4.24770   4.26375   4.28118
 Alpha virt. eigenvalues --    4.28446   4.29207   4.30449   4.32437   4.33236
 Alpha virt. eigenvalues --    4.33693   4.34504   4.35766   4.37807   4.39251
 Alpha virt. eigenvalues --    4.42438   4.43068   4.44336   4.45005   4.46805
 Alpha virt. eigenvalues --    4.48975   4.50817   4.51978   4.53050   4.53267
 Alpha virt. eigenvalues --    4.54534   4.54771   4.56234   4.57201   4.58696
 Alpha virt. eigenvalues --    4.59233   4.60298   4.62176   4.63001   4.63214
 Alpha virt. eigenvalues --    4.64045   4.65471   4.66042   4.70167   4.70535
 Alpha virt. eigenvalues --    4.73169   4.73852   4.74741   4.77160   4.81008
 Alpha virt. eigenvalues --    4.81366   4.84961   4.87988   4.91096   4.92377
 Alpha virt. eigenvalues --    4.93530   4.97289   4.99848   5.02389   5.02799
 Alpha virt. eigenvalues --    5.03276   5.04758   5.06176   5.07292   5.08304
 Alpha virt. eigenvalues --    5.08878   5.09791   5.12462   5.13896   5.17954
 Alpha virt. eigenvalues --    5.20953   5.22203   5.24497   5.26675   5.29058
 Alpha virt. eigenvalues --    5.33175   5.34492   5.36046   5.36461   5.41910
 Alpha virt. eigenvalues --    5.45923   5.47850   5.51254   5.52941   5.53270
 Alpha virt. eigenvalues --    5.57786   5.59882   5.63048   5.65953   5.70622
 Alpha virt. eigenvalues --    5.75273   5.80894   5.81448   5.82579   5.84151
 Alpha virt. eigenvalues --    5.90322   5.91902   5.92908   5.98950   6.05778
 Alpha virt. eigenvalues --    6.11081   6.13576   6.18649   6.23998   6.26414
 Alpha virt. eigenvalues --    6.33242   6.38958   6.43076   6.51837   6.63395
 Alpha virt. eigenvalues --    6.77433   6.78420   6.81392   6.93266   7.05657
 Alpha virt. eigenvalues --    7.12958   7.40617  10.48135  10.50705  10.86621
 Alpha virt. eigenvalues --   11.17282  11.25252  11.27597  11.36834  11.45796
 Alpha virt. eigenvalues --   11.59955  12.06586  12.92604  12.95200  13.18389
 Alpha virt. eigenvalues --   13.54520  15.11595  17.65210  20.22184  25.69141
          Condensed to atoms (all electrons):
               1          2          3          4          5          6
     1  N    6.111811   0.508407  -0.042531  -0.059087  -0.001243  -0.022389
     2  C    0.508407   4.665889   0.278256   0.538968  -0.020134  -0.110210
     3  C   -0.042531   0.278256   4.896273  -0.014855   0.365225   0.002232
     4  N   -0.059087   0.538968  -0.014855   6.376744  -0.001030   0.485340
     5  H   -0.001243  -0.020134   0.365225  -0.001030   0.602308   0.000323
     6  C   -0.022389  -0.110210   0.002232   0.485340   0.000323   4.843826
     7  H    0.003432   0.006893  -0.000278  -0.011557   0.000010   0.353528
     8  C    0.385888  -0.059400  -0.002285   0.004402   0.002235   0.006312
     9  H   -0.025317  -0.002119   0.000776  -0.000030   0.001307   0.000113
    10  C    0.382296  -0.091502   0.001555  -0.003791  -0.000105   0.474668
    11  H    0.000407  -0.016802   0.362029  -0.000456  -0.067258   0.000057
    12  O    0.000050  -0.013967   0.333431  -0.001229  -0.020019   0.001022
    13  H   -0.021061  -0.008802   0.004325   0.000195  -0.001252  -0.000299
    14  C    0.000022   0.007166  -0.078358   0.000301  -0.000200   0.000022
    15  N    0.000000   0.000331   0.003605  -0.000052   0.000059  -0.000000
    16  O    0.000002   0.002686   0.003255  -0.000012   0.006840   0.000001
    17  H   -0.000000  -0.000009  -0.000371   0.000000   0.000002  -0.000000
    18  H    0.000000  -0.000187  -0.000439   0.000103   0.000031   0.000002
    19  N   -0.012712  -0.004225  -0.000109   0.003648  -0.000001  -0.017748
    20  O    0.001129  -0.000004   0.000001   0.000338  -0.000000   0.006866
    21  O   -0.010042  -0.000079   0.000001  -0.000102   0.000000   0.004524
    22  H   -0.014545   0.003953  -0.000277  -0.000344   0.000008   0.000154
               7          8          9         10         11         12
     1  N    0.003432   0.385888  -0.025317   0.382296   0.000407   0.000050
     2  C    0.006893  -0.059400  -0.002119  -0.091502  -0.016802  -0.013967
     3  C   -0.000278  -0.002285   0.000776   0.001555   0.362029   0.333431
     4  N   -0.011557   0.004402  -0.000030  -0.003791  -0.000456  -0.001229
     5  H    0.000010   0.002235   0.001307  -0.000105  -0.067258  -0.020019
     6  C    0.353528   0.006312   0.000113   0.474668   0.000057   0.001022
     7  H    0.535566  -0.000133   0.000002  -0.020903   0.000007   0.000020
     8  C   -0.000133   4.829155   0.395976  -0.039351  -0.001070   0.000089
     9  H    0.000002   0.395976   0.562428   0.001407  -0.000260   0.000002
    10  C   -0.020903  -0.039351   0.001407   4.841572   0.000159  -0.000135
    11  H    0.000007  -0.001070  -0.000260   0.000159   0.595389  -0.021310
    12  O    0.000020   0.000089   0.000002  -0.000135  -0.021310   7.701053
    13  H    0.000005   0.387023  -0.045009   0.003551   0.002602   0.000032
    14  C    0.000000   0.000011   0.000001   0.000002  -0.000136   0.388793
    15  N   -0.000000   0.000000   0.000000   0.000000   0.000053  -0.052669
    16  O    0.000000   0.000002  -0.000000   0.000000   0.009046  -0.066861
    17  H   -0.000000  -0.000000   0.000000   0.000000  -0.000010   0.003651
    18  H    0.000000   0.000000   0.000000  -0.000000   0.000024   0.006923
    19  N   -0.009155  -0.000261  -0.000076   0.335720   0.000004   0.000000
    20  O    0.011216  -0.000060   0.000009  -0.116565  -0.000000  -0.000000
    21  O    0.000228  -0.010509   0.000288  -0.090528  -0.000001  -0.000000
    22  H   -0.000009   0.379968  -0.035731  -0.004024   0.000028  -0.000001
              13         14         15         16         17         18
     1  N   -0.021061   0.000022   0.000000   0.000002  -0.000000   0.000000
     2  C   -0.008802   0.007166   0.000331   0.002686  -0.000009  -0.000187
     3  C    0.004325  -0.078358   0.003605   0.003255  -0.000371  -0.000439
     4  N    0.000195   0.000301  -0.000052  -0.000012   0.000000   0.000103
     5  H   -0.001252  -0.000200   0.000059   0.006840   0.000002   0.000031
     6  C   -0.000299   0.000022  -0.000000   0.000001  -0.000000   0.000002
     7  H    0.000005   0.000000  -0.000000   0.000000  -0.000000   0.000000
     8  C    0.387023   0.000011   0.000000   0.000002  -0.000000   0.000000
     9  H   -0.045009   0.000001   0.000000  -0.000000   0.000000   0.000000
    10  C    0.003551   0.000002   0.000000   0.000000   0.000000  -0.000000
    11  H    0.002602  -0.000136   0.000053   0.009046  -0.000010   0.000024
    12  O    0.000032   0.388793  -0.052669  -0.066861   0.003651   0.006923
    13  H    0.559425   0.000007  -0.000000  -0.000009   0.000000   0.000000
    14  C    0.000007   4.077316   0.465345   0.704119  -0.009819  -0.019614
    15  N   -0.000000   0.465345   6.295505  -0.024590   0.370578   0.369042
    16  O   -0.000009   0.704119  -0.024590   7.771807   0.000189   0.003947
    17  H    0.000000  -0.009819   0.370578   0.000189   0.434225  -0.031558
    18  H    0.000000  -0.019614   0.369042   0.003947  -0.031558   0.437596
    19  N    0.000192  -0.000000   0.000000   0.000000  -0.000000  -0.000000
    20  O    0.000003   0.000000  -0.000000  -0.000000   0.000000   0.000000
    21  O    0.000699   0.000000  -0.000000  -0.000000  -0.000000   0.000000
    22  H   -0.025274  -0.000000  -0.000000  -0.000000  -0.000000   0.000000
              19         20         21         22
     1  N   -0.012712   0.001129  -0.010042  -0.014545
     2  C   -0.004225  -0.000004  -0.000079   0.003953
     3  C   -0.000109   0.000001   0.000001  -0.000277
     4  N    0.003648   0.000338  -0.000102  -0.000344
     5  H   -0.000001  -0.000000   0.000000   0.000008
     6  C   -0.017748   0.006866   0.004524   0.000154
     7  H   -0.009155   0.011216   0.000228  -0.000009
     8  C   -0.000261  -0.000060  -0.010509   0.379968
     9  H   -0.000076   0.000009   0.000288  -0.035731
    10  C    0.335720  -0.116565  -0.090528  -0.004024
    11  H    0.000004  -0.000000  -0.000001   0.000028
    12  O    0.000000  -0.000000  -0.000000  -0.000001
    13  H    0.000192   0.000003   0.000699  -0.025274
    14  C   -0.000000   0.000000   0.000000  -0.000000
    15  N    0.000000  -0.000000  -0.000000  -0.000000
    16  O    0.000000  -0.000000  -0.000000  -0.000000
    17  H   -0.000000   0.000000  -0.000000  -0.000000
    18  H   -0.000000   0.000000   0.000000   0.000000
    19  N    5.351328   0.522152   0.494979  -0.001065
    20  O    0.522152   8.019077  -0.076602   0.000266
    21  O    0.494979  -0.076602   8.051408   0.027744
    22  H   -0.001065   0.000266   0.027744   0.494870
 Mulliken charges:
               1
     1  N   -0.184516
     2  C    0.314891
     3  C   -0.111460
     4  N   -0.317493
     5  H    0.132893
     6  C   -0.028346
     7  H    0.131130
     8  C   -0.277992
     9  H    0.146234
    10  C    0.325974
    11  H    0.137498
    12  O   -0.258875
    13  H    0.143647
    14  C    0.465021
    15  N   -0.427207
    16  O   -0.410422
    17  H    0.233122
    18  H    0.234130
    19  N    0.337329
    20  O   -0.367827
    21  O   -0.392009
    22  H    0.174279
 Sum of Mulliken charges =  -0.00000
 Mulliken charges with hydrogens summed into heavy atoms:
               1
     1  N   -0.184516
     2  C    0.314891
     3  C    0.158932
     4  N   -0.317493
     6  C    0.102784
     8  C    0.186167
    10  C    0.325974
    12  O   -0.258875
    14  C    0.465021
    15  N    0.040044
    16  O   -0.410422
    19  N    0.337329
    20  O   -0.367827
    21  O   -0.392009
 APT charges:
               1
     1  N   -0.500993
     2  C   -0.137806
     3  C   -0.418907
     4  N   -0.255187
     5  H    0.345275
     6  C   -0.245604
     7  H    0.565735
     8  C   -0.803425
     9  H    0.367909
    10  C    0.056828
    11  H    0.342895
    12  O   -0.705727
    13  H    0.322266
    14  C   -0.763264
    15  N   -0.590336
    16  O    0.414335
    17  H    1.230429
    18  H    0.312509
    19  N   -1.455568
    20  O    0.865772
    21  O    0.543258
    22  H    0.509606
 Sum of APT charges =  -0.00000
 APT charges with hydrogens summed into heavy atoms:
               1
     1  N   -0.500993
     2  C   -0.137806
     3  C    0.269263
     4  N   -0.255187
     6  C    0.320131
     8  C    0.396355
    10  C    0.056828
    12  O   -0.705727
    14  C   -0.763264
    15  N    0.952603
    16  O    0.414335
    19  N   -1.455568
    20  O    0.865772
    21  O    0.543258
 Electronic spatial extent (au):  <R**2>=           3740.3811
 Charge=             -0.0000 electrons
 Dipole moment (field-independent basis, Debye):
    X=             -3.5265    Y=              0.4998    Z=              0.4584  Tot=              3.5911
 Quadrupole moment (field-independent basis, Debye-Ang):
   XX=            -90.9645   YY=            -75.2427   ZZ=            -76.1591
   XY=             13.7973   XZ=              0.5032   YZ=              1.2657
 Traceless Quadrupole moment (field-independent basis, Debye-Ang):
   XX=            -10.1757   YY=              5.5461   ZZ=              4.6297
   XY=             13.7973   XZ=              0.5032   YZ=              1.2657
 Octapole moment (field-independent basis, Debye-Ang**2):
  XXX=           -168.7215  YYY=              2.2635  ZZZ=              0.1191  XYY=             -0.2232
  XXY=            -65.9056  XXZ=              3.9479  XZZ=              2.1798  YZZ=              3.6882
  YYZ=              0.7783  XYZ=              3.1793
 Hexadecapole moment (field-independent basis, Debye-Ang**3):
 XXXX=          -3751.3934 YYYY=           -577.8143 ZZZZ=            -77.6534 XXXY=            358.3345
 XXXZ=             -2.3493 YYYX=             50.3614 YYYZ=              0.5362 ZZZX=             -1.4687
 ZZZY=              0.4807 XXYY=           -744.7067 XXZZ=           -632.3749 YYZZ=           -116.4240
 XXYZ=             13.2191 YYXZ=              0.8568 ZZXY=             -2.3419
 N-N= 9.023238587211D+02 E-N=-3.568066972477D+03  KE= 7.504872745972D+02
  Exact polarizability:   0.000   0.000   0.000   0.000   0.000   0.000
 Approx polarizability: 202.678   6.194 196.835   1.288  -6.983  85.362
 No NMR shielding tensors so no spin-rotation constants.
 Leave Link  601 at Thu Aug 26 23:22:10 2021, MaxMem= 24159191040 cpu:        18.1
 (Enter /public/home/users/caep010/software/Gaussian09/g09/l701.exe)
 Compute integral second derivatives.
 ... and contract with generalized density number  0.
 Leave Link  701 at Thu Aug 26 23:22:11 2021, MaxMem= 24159191040 cpu:        18.7
 (Enter /public/home/users/caep010/software/Gaussian09/g09/l702.exe)
 L702 exits ... SP integral derivatives will be done elsewhere.
 Leave Link  702 at Thu Aug 26 23:22:11 2021, MaxMem= 24159191040 cpu:         0.8
 (Enter /public/home/users/caep010/software/Gaussian09/g09/l703.exe)
 Compute integral second derivatives, UseDBF=F ICtDFT=           0.
 Integral derivatives from FoFJK, PRISM(SPDF).
 Calling FoFJK, ICntrl=    100147 FMM=F ISym2X=0 I1Cent= 0 IOpClX= 0 NMat=1 NMatS=1 NMatT=0.
 FoFJK:  IHMeth= 1 ICntrl=  100147 DoSepK=F KAlg= 0 I1Cent=   0 FoldK=F
 IRaf=         0 NMat=   1 IRICut=       1 DoRegI=T DoRafI=F ISym2E= 0.
 FoFCou: FMM=F IPFlag=           0 FMFlag=      100000 FMFlg1=         800
         NFxFlg=           0 DoJE=F BraDBF=F KetDBF=F FulRan=T
         wScrn=  0.000000 ICntrl=  100147 IOpCl=  0 I1Cent=           0 NGrid=           0
         NMat0=    1 NMatS0=      1 NMatT0=    0 NMatD0=    1 NMtDS0=    0 NMtDT0=    0
 Symmetry not used in FoFCou.
 Leave Link  703 at Thu Aug 26 23:23:09 2021, MaxMem= 24159191040 cpu:      1831.7
 (Enter /public/home/users/caep010/software/Gaussian09/g09/l716.exe)
 Dipole        =-1.38743897D+00 1.96629916D-01 1.80362649D-01
 Polarizability= 0.00000000D+00 0.00000000D+00 0.00000000D+00
                 0.00000000D+00 0.00000000D+00 0.00000000D+00
 ***** Axes restored to original set *****
 -------------------------------------------------------------------
 Center     Atomic                   Forces (Hartrees/Bohr)
 Number     Number              X              Y              Z
 -------------------------------------------------------------------
      1        7           0.000731483   -0.003284507   -0.001419860
      2        6          -0.004507129    0.009148750    0.006311946
      3        6          -0.039353619    0.114821025    0.056906380
      4        7          -0.001349144   -0.001359085    0.000040133
      5        1          -0.056875473   -0.057208142   -0.084312283
      6        6           0.014900520   -0.153161081   -0.022590844
      7        1          -0.021237318    0.160068649    0.031329770
      8        6          -0.033616407    0.089320345    0.072006893
      9        1          -0.093348565   -0.025949987   -0.085724892
     10        6           0.013696959   -0.002625822   -0.015234175
     11        1           0.091135693   -0.063275812    0.034557666
     12        8          -0.001361849   -0.001014315    0.002233776
     13        1           0.026175144   -0.102489556    0.070560199
     14        6           0.024170511   -0.017790943   -0.030216421
     15        7           0.129282673   -0.034049353   -0.152380282
     16        8          -0.006004204    0.007129479    0.006329872
     17        1          -0.105012882   -0.175349491    0.116131206
     18        1          -0.038336445    0.217200261    0.054174133
     19        7           0.000849409    0.009791934   -0.001311973
     20        8          -0.001643838   -0.006335837    0.002339981
     21        8          -0.000372197   -0.004216938   -0.001292413
     22        1           0.102076678    0.040630425   -0.058438813
 -------------------------------------------------------------------
 Cartesian Forces:  Max     0.217200261 RMS     0.068496449
 FormGI is forming the generalized inverse of G from B-inverse, IUseBI=4.
 GSVD:  received Info=                   1 from GESDD.
 Leave Link  716 at Thu Aug 26 23:23:10 2021, MaxMem= 24159191040 cpu:         4.6
 (Enter /public/home/users/caep010/software/Gaussian09/g09/l103.exe)

 GradGradGradGradGradGradGradGradGradGradGradGradGradGradGradGradGradGrad
 Berny optimization.
 Red2BG is reusing G-inverse.
 Internal  Forces:  Max     0.234810988 RMS     0.046406322
 Search for a local minimum.
 Step number   1 out of a maximum of  108
 All quantities printed in internal units (Hartrees-Bohrs-Radians)
 RMS Force = .46406D-01 SwitMx=.10000D-02 MixMth= 1
 Mixed Optimization -- RFO/linear search
 Second derivative matrix not updated -- analytic derivatives used.
 ITU=  0
     Eigenvalues ---   -0.00072  -0.00023   0.00032   0.00415   0.00625
     Eigenvalues ---    0.00885   0.01108   0.01243   0.01693   0.01974
     Eigenvalues ---    0.02559   0.04103   0.05590   0.06369   0.06643
     Eigenvalues ---    0.06772   0.07691   0.08171   0.09979   0.10962
     Eigenvalues ---    0.11080   0.11923   0.12079   0.13284   0.13741
     Eigenvalues ---    0.14567   0.18375   0.18483   0.19237   0.20426
     Eigenvalues ---    0.22045   0.22410   0.23502   0.24824   0.25592
     Eigenvalues ---    0.27647   0.30510   0.32904   0.34002   0.34651
     Eigenvalues ---    0.37375   0.38351   0.41522   0.45194   0.45727
     Eigenvalues ---    0.48445   0.50765   0.57178   0.57877   0.58766
     Eigenvalues ---    0.67735   0.68246   0.71971   0.72063   0.72839
     Eigenvalues ---    0.74930   0.83177   0.85939   1.22579   1.25806
 Eigenvalue     1 is  -7.19D-04 should be greater than     0.000000 Eigenvector:
                          D20       D18       D19       D17       D15
   1                    0.42327   0.42325   0.42296   0.37523   0.37520
                          D16       D23       D24       D25       D3
   1                    0.37491   0.10464   0.10388   0.10328   0.03914
 Eigenvalue     2 is  -2.35D-04 should be greater than     0.000000 Eigenvector:
                          D6        D5        D7        D9        D8
   1                   -0.41940  -0.41397  -0.40955  -0.40036  -0.39493
                          D10       D35       D34       D14       D33
   1                   -0.39052  -0.06675  -0.05923  -0.04077  -0.04013
 RFO step:  Lambda=-1.88097426D-01 EMin=-7.19353340D-04
 Linear search not attempted -- first point.
 Maximum step size (   0.300) exceeded in Quadratic search.
    -- Step size scaled by   0.696
 Iteration  1 RMS(Cart)=  0.12909033 RMS(Int)=  0.00856249
 Iteration  2 RMS(Cart)=  0.01230076 RMS(Int)=  0.00007782
 Iteration  3 RMS(Cart)=  0.00010312 RMS(Int)=  0.00001906
 Iteration  4 RMS(Cart)=  0.00000001 RMS(Int)=  0.00001906
 ITry= 1 IFail=0 DXMaxC= 4.54D-01 DCOld= 1.00D+10 DXMaxT= 3.00D-01 DXLimC= 3.00D+00 Rises=F
 Variable       Old X    -DE/DX   Delta X   Delta X   Delta X     New X
                                 (Linear)    (Quad)   (Total)
    R1        2.55547   0.00899   0.00000   0.00975   0.00976   2.56524
    R2        2.77796   0.00030   0.00000  -0.00261  -0.00261   2.77535
    R3        2.61181   0.00232   0.00000   0.00430   0.00430   2.61612
    R4        2.82264   0.01038   0.00000   0.01014   0.01014   2.83278
    R5        2.51002  -0.00111   0.00000  -0.00251  -0.00250   2.50752
    R6        1.83260   0.11666   0.00000   0.09377   0.09377   1.92637
    R7        1.83318   0.11617   0.00000   0.09282   0.09282   1.92601
    R8        2.70849  -0.00513   0.00000  -0.00953  -0.00953   2.69896
    R9        2.56609   0.00380   0.00000   0.00116   0.00115   2.56725
   R10        1.75693   0.16438   0.00000   0.10927   0.10927   1.86621
   R11        2.56879   0.01529   0.00000   0.01546   0.01545   2.58424
   R12        1.81364   0.12936   0.00000   0.09918   0.09918   1.91282
   R13        1.81458   0.12710   0.00000   0.09691   0.09691   1.91149
   R14        1.81431   0.12441   0.00000   0.09497   0.09497   1.90929
   R15        2.69115  -0.00088   0.00000  -0.00143  -0.00143   2.68972
   R16        2.57414  -0.00154   0.00000  -0.00004  -0.00004   2.57410
   R17        2.50974   0.02393   0.00000   0.02415   0.02415   2.53390
   R18        2.30308  -0.01012   0.00000  -0.00911  -0.00911   2.29398
   R19        1.60824   0.23481   0.00000   0.11318   0.11318   1.72142
   R20        1.61558   0.22698   0.00000   0.11167   0.11167   1.72725
   R21        2.33000  -0.00625   0.00000  -0.00590  -0.00590   2.32409
   R22        2.32556   0.00265   0.00000   0.00264   0.00264   2.32820
    A1        2.17265   0.00174   0.00000   0.00760   0.00758   2.18023
    A2        1.82372   0.00275   0.00000   0.00311   0.00313   1.82685
    A3        2.27249  -0.00442   0.00000  -0.01087  -0.01088   2.26161
    A4        2.13408  -0.00484   0.00000  -0.00489  -0.00496   2.12912
    A5        1.97000  -0.00006   0.00000  -0.00036  -0.00040   1.96959
    A6        2.17896   0.00490   0.00000   0.00491   0.00483   2.18379
    A7        1.93075  -0.00062   0.00000   0.00034   0.00035   1.93110
    A8        1.93092  -0.00030   0.00000   0.00265   0.00266   1.93358
    A9        1.84140   0.00922   0.00000   0.01286   0.01285   1.85424
   A10        1.89912   0.00059   0.00000  -0.00320  -0.00323   1.89590
   A11        1.93085  -0.00438   0.00000  -0.00571  -0.00574   1.92511
   A12        1.93073  -0.00445   0.00000  -0.00665  -0.00669   1.92404
   A13        1.83947   0.00164   0.00000   0.00199   0.00200   1.84147
   A14        2.18717  -0.00507   0.00000  -0.01095  -0.01094   2.17622
   A15        1.90936   0.00028   0.00000   0.00231   0.00230   1.91166
   A16        2.18666   0.00478   0.00000   0.00864   0.00864   2.19530
   A17        1.91065   0.00013   0.00000   0.00541   0.00542   1.91607
   A18        1.91061  -0.00407   0.00000  -0.00922  -0.00921   1.90140
   A19        1.91095  -0.00303   0.00000  -0.00051  -0.00051   1.91044
   A20        1.91067   0.00237   0.00000  -0.00048  -0.00047   1.91020
   A21        1.91078   0.00178   0.00000  -0.00230  -0.00230   1.90848
   A22        1.91013   0.00284   0.00000   0.00708   0.00708   1.91722
   A23        1.88185  -0.00462   0.00000  -0.00699  -0.00699   1.87487
   A24        2.17688   0.00143   0.00000   0.00265   0.00264   2.17953
   A25        2.21967   0.00320   0.00000   0.00483   0.00483   2.22450
   A26        1.99830  -0.00674   0.00000  -0.00702  -0.00702   1.99127
   A27        1.92950  -0.00483   0.00000  -0.00791  -0.00791   1.92158
   A28        2.13324   0.00802   0.00000   0.01350   0.01350   2.14674
   A29        2.22042  -0.00319   0.00000  -0.00559  -0.00559   2.21483
   A30        2.12730  -0.00764   0.00000  -0.01560  -0.01562   2.11167
   A31        2.11758  -0.00245   0.00000  -0.00326  -0.00328   2.11430
   A32        2.03639   0.01011   0.00000   0.01822   0.01820   2.05459
   A33        2.03642  -0.00232   0.00000  -0.00192  -0.00192   2.03450
   A34        2.08309  -0.00242   0.00000  -0.00392  -0.00392   2.07917
   A35        2.16337   0.00478   0.00000   0.00599   0.00599   2.16936
    D1        0.12047   0.00024   0.00000  -0.01616  -0.01612   0.10435
    D2       -3.00338  -0.00001   0.00000   0.00401   0.00399  -2.99939
    D3        3.09676   0.00015   0.00000  -0.01838  -0.01833   3.07843
    D4       -0.02709  -0.00010   0.00000   0.00179   0.00178  -0.02531
    D5        1.38931   0.00058   0.00000   0.14423   0.14423   1.53353
    D6       -0.70513   0.00010   0.00000   0.14714   0.14714  -0.55798
    D7       -2.79909   0.00097   0.00000   0.14442   0.14442  -2.65467
    D8       -1.54216  -0.00025   0.00000   0.14494   0.14493  -1.39723
    D9        2.64659  -0.00073   0.00000   0.14785   0.14785   2.79444
   D10        0.55263   0.00015   0.00000   0.14513   0.14512   0.69775
   D11        0.01974   0.00032   0.00000   0.00095   0.00096   0.02070
   D12        3.06273   0.00063   0.00000   0.00629   0.00628   3.06901
   D13        2.98280   0.00111   0.00000   0.00114   0.00116   2.98396
   D14       -0.25740   0.00142   0.00000   0.00649   0.00649  -0.25091
   D15       -1.03453  -0.00022   0.00000  -0.19384  -0.19382  -1.22835
   D16        1.07130  -0.00009   0.00000  -0.19588  -0.19589   0.87541
   D17       -3.12323  -0.00011   0.00000  -0.19480  -0.19479   2.96516
   D18        2.08715  -0.00000   0.00000  -0.21656  -0.21655   1.87059
   D19       -2.09021   0.00013   0.00000  -0.21860  -0.21862  -2.30883
   D20       -0.00156   0.00010   0.00000  -0.21752  -0.21752  -0.21908
   D21        0.02321  -0.00028   0.00000  -0.00389  -0.00390   0.01932
   D22       -3.10010  -0.00042   0.00000   0.01701   0.01708  -3.08302
   D23       -3.09068  -0.00012   0.00000  -0.04999  -0.04999  -3.14066
   D24        1.10387  -0.00250   0.00000  -0.05495  -0.05491   1.04895
   D25       -1.00190   0.00259   0.00000  -0.04277  -0.04281  -1.04471
   D26        3.13173   0.00062   0.00000   0.00342   0.00343   3.13516
   D27       -0.00947   0.00047   0.00000   0.00437   0.00439  -0.00509
   D28       -0.00673  -0.00053   0.00000  -0.00339  -0.00340  -0.01012
   D29       -3.04659  -0.00071   0.00000  -0.00872  -0.00872  -3.05531
   D30        3.13526  -0.00068   0.00000  -0.00243  -0.00243   3.13283
   D31        0.09539  -0.00085   0.00000  -0.00776  -0.00774   0.08764
   D32        3.03157  -0.00008   0.00000   0.01211   0.01210   3.04367
   D33       -0.13535   0.00175   0.00000   0.01894   0.01894  -0.11642
   D34       -0.22792  -0.00017   0.00000   0.01781   0.01781  -0.21011
   D35        2.88834   0.00166   0.00000   0.02464   0.02465   2.91299
   D36        3.11196   0.00019   0.00000   0.01378   0.01377   3.12573
   D37       -0.02267  -0.00007   0.00000   0.01454   0.01454  -0.00813
   D38        3.06079   0.00078   0.00000   0.00304   0.00304   3.06383
   D39       -0.01212   0.00019   0.00000   0.01385   0.01385   0.00173
   D40       -0.08820   0.00111   0.00000   0.00233   0.00233  -0.08587
   D41        3.12207   0.00052   0.00000   0.01314   0.01314   3.13522
         Item               Value     Threshold  Converged?
 Maximum Force            0.234811     0.000450     NO 
 RMS     Force            0.046406     0.000300     NO 
 Maximum Displacement     0.453655     0.001800     NO 
 RMS     Displacement     0.134997     0.001200     NO 
 Predicted change in Energy=-9.376844D-02
 Lowest energy point so far.  Saving SCF results.
 GradGradGradGradGradGradGradGradGradGradGradGradGradGradGradGradGradGrad

 Leave Link  103 at Thu Aug 26 23:23:10 2021, MaxMem= 24159191040 cpu:         7.5
 (Enter /public/home/users/caep010/software/Gaussian09/g09/l202.exe)
                          Input orientation:                          
 ---------------------------------------------------------------------
 Center     Atomic      Atomic             Coordinates (Angstroms)
 Number     Number       Type             X           Y           Z
 ---------------------------------------------------------------------
      1          7           0        8.295950    0.979805    2.251150
      2          6           0        7.402477    0.798730    3.256947
      3          6           0        6.956287   -0.566340    3.686632
      4          7           0        6.955084    1.941866    3.760730
      5          1           0        6.364036   -0.991659    2.974238
      6          6           0        7.562572    2.919373    3.038902
      7          1           0        7.425051    3.887572    3.176532
      8          6           0        8.827204   -0.089492    1.395981
      9          1           0        8.215238   -0.228971    0.601856
     10          6           0        8.382859    2.353437    2.102439
     11          1           0        7.757920   -1.174424    3.849059
     12          8           0        6.221377   -0.383591    4.897558
     13          1           0        8.880692   -0.944296    1.934144
     14          6           0        5.737116   -1.538349    5.433736
     15          7           0        5.080592   -1.277391    6.573401
     16          8           0        5.907106   -2.626526    4.923272
     17          1           0        4.644206   -1.937295    7.024957
     18          1           0        5.004004   -0.423326    6.889850
     19          7           0        9.270273    3.021189    1.212218
     20          8           0        9.146510    4.241681    1.124852
     21          8           0       10.113792    2.363444    0.600875
     22          1           0        9.747650    0.167662    1.068171
 ---------------------------------------------------------------------
                    Distance matrix (angstroms):
                    1          2          3          4          5
     1  N    0.000000
     2  C    1.357465   0.000000
     3  C    2.499174   1.499043   0.000000
     4  N    2.236586   1.326920   2.509300   0.000000
     5  H    2.853387   2.088966   1.019393   3.094103   0.000000
     6  C    2.218180   2.137826   3.596849   1.358528   4.091068
     7  H    3.173311   3.089971   4.507468   2.085169   4.997356
     8  C    1.468652   2.506388   2.995796   3.636383   3.061372
     9  H    2.046417   2.960787   3.348824   4.034725   3.104326
    10  C    1.384389   2.170519   3.615228   2.226625   4.003167
    11  H    2.735598   2.090520   1.019199   3.219256   1.655787
    12  O    3.628523   2.341897   1.428227   2.690437   2.022191
    13  H    2.035825   2.640657   2.630095   3.921009   2.723527
[...]
 6299,0.01676650,-0.00194932,-0.00124069,-0.00161919,-0.00043140,-0.000
 25575,-0.00019618,0.00100156,-0.00135077,0.00031640,-0.00020373,0.0002
 3310,-0.00003233,-0.00317148,-0.00423987,0.00169718,-0.01036895,0.0097
 5072,-0.01311121,0.09358930,0.34173870,-0.00263094,-0.00220454,0.00267
 595,-0.00395692,0.01533412,-0.02318925,-0.06577124,-0.00338737,-0.1505
 6566,0.00080024,-0.00176146,-0.00158368,-0.01088075,0.00549407,-0.0094
 4703,0.00230368,0.00069734,0.00018029,0.00028163,0.00017110,0.00018950
 ,-0.00045242,-0.00075878,-0.00115942,0.00027594,0.00020714,-0.00003103
 ,0.00222407,0.00409958,-0.00169579,-0.01752327,0.00884635,-0.03858581,
 0.09253958,-0.13929054,0.36588360,0.01113963,0.02502587,-0.01169083,0.
 00124337,0.00030330,-0.00008283,-0.00163991,0.00095413,0.00001681,0.00
 027661,0.00017155,-0.00018069,0.00007501,-0.00002866,-0.00014458,-0.00
 004505,0.00126697,-0.00034486,-0.00031877,0.00010692,0.00010352,-0.126
 01212,-0.11488732,0.06099553,-0.00430567,-0.00654181,0.00127783,-0.003
 19655,0.00119648,0.00040530,-0.00114460,-0.00003325,-0.00003155,-0.000
 90821,0.00036600,0.00059730,0.13655056,-0.01160736,-0.02975864,0.01259
 273,-0.00182636,0.00057138,0.00063523,0.00064943,-0.00047084,0.0007992
 8,0.00001377,-0.00013892,-0.00009729,-0.00003553,0.00008731,0.00009934
 ,-0.00023437,-0.00134652,0.00052695,0.00036502,-0.00002111,-0.00007375
 ,-0.10176155,-0.20445122,0.08266698,0.00415343,0.00862621,-0.00299872,
 0.00390926,0.00115931,-0.00130817,0.00004027,0.00059949,-0.00008599,-0
 .00176461,-0.00015333,0.00069946,0.11156839,0.22835731,0.00001560,0.00
 102995,-0.00193040,0.00015486,0.00003818,0.00059649,0.00110487,-0.0002
 4011,0.00181419,-0.00012417,-0.00016718,-0.00030422,-0.00009054,-0.000
 11196,-0.00041303,0.00021963,0.00010512,0.00024210,0.00001090,-0.00000
 379,0.00007146,0.05769078,0.08810398,-0.09645789,0.01380648,0.02215520
 ,-0.00879349,-0.00010714,-0.00055733,0.00068788,-0.00045309,-0.0004081
 2,-0.00011308,-0.00015402,-0.00015968,-0.00077091,-0.06479907,-0.09596
 999,0.09687158,-0.00090658,-0.00059000,0.00068399,-0.00228716,-0.00089
 050,-0.00468588,0.00976711,0.01375117,0.00802303,-0.00002655,0.0007312
 0,-0.00061737,-0.00166682,0.00401248,-0.00476690,0.00039557,0.00025226
 ,0.00053296,0.00006912,0.00003825,0.00004926,-0.00013885,-0.00078685,-
 0.00021135,0.00012528,0.00030124,-0.00022508,0.00052584,0.00064637,-0.
 00029560,0.00165380,0.00046143,-0.00566755,-0.10248495,-0.05346218,-0.
 00339015,-0.00033040,0.00038293,0.00147119,0.58761213,-0.00105318,-0.0
 0110146,0.00150181,-0.00174467,-0.00393379,-0.00246632,0.00702122,-0.0
 2102916,0.03968988,0.00063585,0.00180405,-0.00124398,-0.00375613,0.003
 48740,-0.00478929,0.00026926,0.00012455,0.00054624,0.00018164,0.000119
 75,0.00002236,-0.00121614,-0.00057124,-0.00041752,0.00042332,0.0004834
 0,-0.00033678,0.00307897,0.00190981,-0.00141394,-0.00096075,0.00253048
 ,-0.01016315,-0.04084929,-0.17340946,0.04814528,-0.00085920,0.00186386
 ,0.00144979,0.28263106,0.61215364,0.00030720,-0.00012803,-0.00022823,-
 0.00316046,0.00335650,-0.00618418,0.01327028,0.04264335,-0.03293039,-0
 .00041791,-0.00139198,0.00006072,0.00049645,0.00037136,0.00251662,0.00
 036155,0.00026203,0.00016914,-0.00002331,-0.00002936,0.00013576,0.0010
 1742,0.00060791,-0.00024882,-0.00021155,-0.00024384,0.00009665,-0.0020
 2681,-0.00051379,0.00084332,0.00127053,0.00120967,0.00023252,-0.013506
 07,0.03337171,-0.12381877,0.00129576,-0.00053859,-0.00064675,0.3026946
 4,0.03503310,0.70502286,0.00011002,-0.00014152,0.00008369,0.00020437,-
 0.00059644,0.00110098,0.00037127,-0.00475787,0.00151128,0.00021993,0.0
 0009124,-0.00007971,0.00015243,-0.00032989,0.00042598,-0.00003339,-0.0
 0010911,-0.00007993,0.00000740,0.00001063,-0.00001986,-0.00025770,0.00
 021387,-0.00004394,0.00006274,-0.00003778,0.00003824,0.00058777,0.0003
 8575,-0.00029358,-0.00063071,0.00017192,0.00020065,0.01875412,0.001683
 80,0.00760507,-0.00033302,0.00010711,-0.00022331,-0.11842325,-0.011655
 56,-0.08522333,0.32021675,0.00032449,0.00039990,-0.00041755,0.00140280
 ,0.00076957,0.00143974,-0.00479002,-0.00173757,-0.00346443,-0.00035362
 ,-0.00051073,0.00050719,0.00059601,-0.00058535,0.00058233,-0.00021891,
 -0.00007621,-0.00014399,-0.00007008,-0.00004287,-0.00000820,0.00033749
 ,-0.00019481,0.00006197,-0.00009341,-0.00000403,0.00003066,-0.00100654
 ,-0.00090411,0.00053842,0.00001818,-0.00064927,0.00147563,0.01076883,-
 0.02708533,0.06118812,0.00027049,-0.00024346,-0.00008617,-0.01453953,-
 0.11613795,0.03701677,0.34533494,0.66005413,-0.00031736,-0.00015774,0.
 00031682,-0.00068332,-0.00120685,-0.00001975,0.00115879,-0.00073175,0.
 00682040,0.00038220,0.00087788,-0.00047572,-0.00017043,0.00030952,-0.0
 0137777,0.00011222,0.00005209,0.00006640,0.00006898,0.00004298,-0.0000
 2978,-0.00045841,-0.00002677,0.00003261,0.00008291,0.00003490,-0.00003
 159,0.00121174,0.00080549,-0.00060903,-0.00045519,-0.00006741,-0.00032
 796,-0.00700182,0.03887320,-0.04240137,-0.00032662,0.00023046,0.000148
 82,-0.11151318,0.05616742,-0.28195891,0.16577926,-0.11210015,0.6924812
 4,0.00076173,0.00054058,-0.00037747,0.00061356,0.00036786,0.00131442,-
 0.00568942,0.00396346,-0.00947433,0.00018467,0.00001243,0.00025029,0.0
 0113296,-0.00189228,0.00133723,-0.00028540,-0.00009461,-0.00012654,-0.
 00003530,-0.00000929,-0.00002645,0.00014559,0.00026978,-0.00007204,-0.
 00004328,-0.00012582,0.00009837,-0.00032060,-0.00047119,0.00015243,-0.
 00071716,-0.00011268,0.00245700,-0.01134252,-0.05673353,0.00039369,0.0
 0007743,-0.00024996,-0.00037162,-0.36458099,-0.23919180,-0.19549909,-0
 .02243615,-0.02251027,-0.04132351,0.39933334,0.00061545,0.00044026,-0.
 00034743,-0.00031443,0.00103655,-0.00037001,-0.00431048,0.00317190,-0.
 01412651,-0.00011879,-0.00029626,0.00052671,0.00085176,0.00000798,0.00
 148292,-0.00024610,-0.00006158,-0.00013700,-0.00006458,-0.00003772,-0.
 00000401,0.00043563,-0.00010231,0.00008081,-0.00015098,-0.00015725,0.0
 0014537,-0.00116072,-0.00083920,0.00057381,0.00010333,-0.00202072,0.00
 282477,-0.05746128,-0.05685715,-0.00010843,0.00015644,-0.00065887,-0.0
 0051012,-0.24133233,-0.31068572,-0.15892308,-0.01404195,0.01912093,-0.
 01325750,0.31562480,0.34744931,0.00002391,0.00019678,-0.00012169,0.000
 88560,0.00005246,0.00297522,0.00142616,0.00021754,-0.00460231,0.000293
 85,0.00064917,0.00002744,0.00083677,-0.00130937,0.00041047,-0.00007828
 ,-0.00007160,-0.00029437,0.00002186,0.00001016,-0.00007914,-0.00025443
 ,0.00020097,0.00018622,-0.00000659,-0.00009576,0.00006955,0.00069919,0
 .00041251,-0.00040222,-0.00028596,0.00116316,0.00276770,0.00086285,0.0
 0195023,0.02709974,-0.00027201,-0.00021839,-0.00031709,-0.19385953,-0.
 15445532,-0.24369199,-0.05577087,-0.03226509,-0.03254734,0.24690622,0.
 18230143,0.24982317,-0.00004026,0.00002196,0.00002098,-0.00015867,-0.0
 0004584,-0.00036589,0.00169454,0.00018060,-0.00102644,-0.00002093,0.00
 004150,0.00000155,0.00003936,-0.00003681,0.00029766,0.00003328,0.00003
 185,-0.00000009,0.00000821,0.00000240,0.00000230,0.00000958,-0.0000194
 7,0.00000794,-0.00000340,-0.00000952,0.00001005,-0.00000689,0.00003156
 ,-0.00000240,-0.00004091,0.00005112,-0.00017870,-0.00032353,0.00033939
 ,-0.00473472,0.00002499,-0.00001602,-0.00001838,0.00623166,0.01794313,
 -0.01119453,-0.09708641,-0.16063088,0.08488836,-0.00164673,0.00034359,
 0.00274917,0.09825844,0.00001039,-0.00000689,0.00000481,-0.00006664,-0
 .00018732,0.00018804,-0.00093037,0.00039984,0.00072128,0.00007256,0.00
 015733,-0.00007344,-0.00008099,0.00005391,-0.00020779,-0.00005660,-0.0
 0001200,0.00001777,0.00000345,0.00000473,-0.00000350,-0.00006675,-0.00
 002193,0.00001060,0.00001503,0.00002257,-0.00001801,0.00015567,0.00002
 717,-0.00005476,0.00006900,-0.00003780,0.00017489,0.00052151,0.0026940
 4,0.00066644,-0.00004922,0.00004012,0.00005698,0.00135076,-0.00538465,
 0.00825816,-0.14147899,-0.25193919,0.16014759,-0.00101628,-0.00251006,
 -0.00397890,0.14530344,0.26797456,-0.00002963,-0.00008164,0.00005598,-
 0.00032887,0.00008349,-0.00031653,0.00019288,0.00127359,0.00093922,0.0
 0005117,-0.00001428,-0.00005896,-0.00005568,0.00013845,-0.00026056,0.0
 0007125,0.00002238,0.00002605,0.00000858,0.00000534,0.00000354,-0.0000
 1425,0.00006672,-0.00003430,0.00001655,-0.00001009,0.00000836,0.000046
 07,0.00012792,-0.00005153,0.00010826,0.00000712,-0.00003539,-0.0039236
 3,0.00101869,-0.00491195,-0.00002885,0.00000722,-0.00000352,0.02142760
 ,0.02466084,-0.01265533,0.07189671,0.17290824,-0.18856050,-0.00044879,
 -0.00327581,0.00334318,-0.08257301,-0.18124544,0.18912873,-0.00005129,
 0.00011682,-0.00010817,0.00032876,0.00020472,0.00003350,-0.00089631,0.
 00086426,-0.00055064,-0.00014709,-0.00003903,0.00010389,-0.00005777,-0
 .00000454,-0.00012032,-0.00001156,0.00002859,-0.00001766,-0.00000788,-
 0.00001038,0.00000300,0.00016981,-0.00011795,0.00003978,-0.00005036,0.
 00003081,-0.00003940,-0.00028187,-0.00025981,0.00016057,0.00012104,-0.
 00002942,0.00041741,-0.00044394,-0.00209970,0.00344887,0.00013211,0.00
 000288,0.00006643,-0.01495053,-0.00938994,-0.01007490,-0.10141275,-0.1
 5524772,-0.09094452,0.00445067,0.00038246,-0.00403038,-0.00697248,-0.0
 0369589,-0.00642138,0.12008031,0.00000265,-0.00007784,0.00001336,0.000
 00543,0.00004191,0.00007239,-0.00006720,-0.00008937,-0.00045288,0.0000
 1679,-0.00006060,-0.00005851,0.00007169,-0.00000643,0.00003201,-0.0000
 2332,-0.00004040,0.00002308,0.00000070,-0.00000143,0.00000673,0.000006
 24,0.00013002,-0.00000689,-0.00000039,-0.00001920,-0.00000459,0.000068
 27,0.00003419,-0.00001852,-0.00001504,0.00011252,-0.00018277,0.0004564
 8,-0.00168423,0.00203255,-0.00003282,0.00001303,-0.00003614,0.00713003
 ,0.00778038,0.00007840,-0.17494201,-0.28025255,-0.13006506,0.00161195,
 0.00288923,0.00511873,-0.00353743,-0.01128095,-0.01567637,0.16928856,0
 .28252373,0.00011696,-0.00000510,-0.00003518,-0.00005711,0.00016612,0.
 00007786,0.00004686,0.00071862,-0.00058178,0.00000869,-0.00014750,0.00
 007188,0.00018668,-0.00014431,0.00021455,0.00001771,-0.00002192,-0.000
 02779,-0.00000645,-0.00000355,0.00000184,0.00002832,0.00011554,-0.0000
 2397,0.00000551,-0.00004628,0.00004541,-0.00010822,-0.00000061,0.00002
 602,0.00001461,-0.00018865,0.00044023,0.00130834,0.00140706,0.00157125
 ,-0.00003300,-0.00008132,-0.00012561,-0.00980264,-0.03237700,-0.006672
 11,-0.10694233,-0.12711963,-0.15165598,-0.00506991,0.00330406,-0.00465
 379,0.01212085,0.01531802,0.01338492,0.10803083,0.13909538,0.14798631,
 -0.00925519,-0.01123432,0.00304809,0.01952868,-0.00448113,-0.00303288,
 -0.00169036,-0.00392830,0.00591631,0.00067558,0.02266337,-0.00499138,-
 0.00003886,0.00004809,-0.00006719,-0.04529751,-0.01061113,0.01435411,0
 .00122053,0.00022946,-0.00095858,0.00436172,-0.00540985,0.00025698,0.0
 0080381,0.00368231,0.00113383,-0.15594045,-0.03253730,0.03367603,0.000
 43865,0.00104819,-0.00125106,0.00061819,0.00527758,-0.00432420,-0.0026
 5105,0.00058050,0.00045796,-0.00097915,-0.00487682,0.00310788,-0.00089
 503,0.00157420,-0.00189247,0.00072999,0.00192889,-0.00101155,0.0000233
 0,-0.00023491,-0.00006385,0.00042492,-0.00011963,0.00020813,0.68744105
 ,-0.03499138,-0.01146786,0.00976575,0.00563489,-0.01111867,0.00281525,
 -0.00135720,0.00014283,0.00177156,0.01153068,0.00632655,-0.00246282,-0
 .00017616,-0.00042610,-0.00002950,-0.00552193,0.01507949,-0.00475631,0
 .00269279,-0.00218356,-0.00074453,-0.00167156,0.00076252,-0.00011412,-
 0.00015176,-0.00228834,-0.00053553,-0.01245106,-0.09852574,0.01185066,
 0.00001205,0.00005219,-0.00031341,0.00088987,0.00128588,-0.00121178,0.
 00121318,-0.00000600,-0.00019435,-0.00078979,-0.00183774,0.00132616,-0
 .00004473,0.00038556,-0.00069992,0.00049762,0.00068826,-0.00030020,-0.
 00003185,-0.00008157,0.00005093,-0.00002889,0.00002438,0.00018793,-0.1
 1789872,0.85316081,0.00988414,0.00286364,-0.01548140,-0.00601208,0.006
 18755,0.00267902,0.00163151,0.00127965,0.00060190,-0.00098779,-0.00548
 438,0.01161881,-0.00001820,0.00025617,-0.00015454,0.01291130,-0.003424
 98,-0.00841398,-0.00174697,-0.00003939,-0.00160919,-0.00099465,0.00102
 060,-0.00095846,0.00009569,-0.00068911,0.00007197,0.02714427,0.0177469
 0,-0.08444747,0.00038121,-0.00024094,0.00034341,-0.00094960,-0.0021868
 5,0.00174962,0.00034248,-0.00018205,-0.00004251,0.00063938,0.00198602,
 -0.00102428,0.00022362,-0.00057425,0.00066878,-0.00044568,-0.00071314,
 0.00025108,0.00001633,0.00008920,-0.00000225,-0.00008852,0.00004921,-0
 .00011636,-0.08859909,-0.15724349,0.31063422,-0.00470445,0.00017262,0.
 00278357,-0.00184028,-0.00241695,0.00106185,-0.00005964,0.00113071,-0.
 00146246,0.00054169,-0.00179472,0.00047545,-0.00003917,-0.00015675,0.0
 0010793,-0.00107701,-0.00123441,0.00071814,-0.00037034,-0.00142838,0.0
 0048803,-0.00155125,0.00177780,0.00011507,-0.00005815,-0.00075284,-0.0
 0043319,-0.00357180,-0.04104020,0.01877856,-0.00006885,-0.00025151,0.0
 0026939,-0.00016697,-0.00133168,0.00113095,0.00066853,-0.00031689,-0.0
 0017140,0.00027265,0.00132514,-0.00090298,0.00022759,-0.00041084,0.000
 52588,-0.00019420,-0.00052410,0.00028322,-0.00000580,0.00006712,0.0000
 0921,-0.00010042,0.00002613,-0.00006915,-0.13044364,-0.04755416,0.0283
 0158,0.12117149,-0.00368994,0.00469998,0.00126337,-0.00248394,0.001275
 02,0.00005305,0.00001597,0.00092065,-0.00156981,-0.00200770,-0.0051239
 7,0.00233956,-0.00009362,-0.00016747,0.00019104,0.01244571,-0.00211025
 ,-0.00282077,-0.00206922,0.00099981,0.00021792,0.00008783,-0.00034665,
 0.00040034,0.00043578,0.00075326,0.00041592,-0.03904828,-0.04297785,0.
 02978982,0.00000788,-0.00006979,0.00038805,-0.00072822,-0.00152819,0.0
 0139929,-0.00062335,-0.00003518,-0.00002115,0.00062136,0.00194303,-0.0
 0135691,0.00016825,-0.00048755,0.00075478,-0.00042210,-0.00073731,0.00
 037557,0.00002680,0.00008605,-0.00002692,-0.00004352,-0.00000850,-0.00
 015277,-0.02524146,-0.48204772,0.13054158,0.02514820,0.60423330,0.0040
 7182,0.00036137,0.00455369,0.00106972,0.00004609,-0.00067219,-0.000271
 12,-0.00085643,-0.00013569,0.00049183,0.00214655,-0.00075064,0.0000629
 9,0.00005914,-0.00005623,-0.00355124,0.00102408,0.00079868,0.00068607,
 0.00003085,-0.00041137,0.00068266,-0.00020849,0.00070581,-0.00009424,-
 0.00012077,-0.00030690,0.01815226,0.03019684,0.00410191,-0.00014809,0.
 00005453,-0.00011872,0.00042387,0.00103254,-0.00083435,-0.00006322,0.0
 0000771,-0.00029251,-0.00034121,-0.00102502,0.00055596,-0.00009467,0.0
 0027913,-0.00034759,0.00023077,0.00038000,-0.00013019,-0.00001163,-0.0
 0004539,0.00000415,0.00003510,-0.00001599,0.00006394,0.02150092,0.1368
 2535,-0.12968788,-0.03277228,-0.18379474,0.09720798,0.00543029,0.00209
 625,-0.00219368,-0.00786206,0.00475658,0.00070964,0.00067814,0.0014105
 2,-0.00207910,-0.00535975,-0.00790326,0.00339775,0.00014323,0.00006006
 ,0.00000664,0.00928134,-0.00766368,0.00095581,0.00004449,0.00008452,-0
 .00011429,-0.00355637,0.00057704,0.00026909,-0.00072089,-0.00210924,0.
 00014531,-0.07057311,0.03926552,0.01309881,-0.00009858,-0.00041232,0.0
 0044090,-0.00021030,-0.00217598,0.00176861,0.00077252,-0.00025814,0.00
 019766,0.00034055,0.00200132,-0.00132900,0.00041883,-0.00066119,0.0007
 8332,-0.00024535,-0.00076367,0.00042224,-0.00002317,0.00010553,0.00003
 250,-0.00020784,0.00005483,-0.00007471,-0.36857214,0.19981703,0.018450
 95,0.02118775,0.03753793,-0.00981332,0.41918991,-0.00182642,-0.0006432
 0,0.00080304,0.00594862,-0.00239817,-0.00092727,-0.00033670,-0.0003886
 1,0.00082191,-0.00069845,0.00581378,-0.00249626,-0.00011289,-0.0000002
 2,0.00013432,-0.00668344,0.00148048,0.00283061,-0.00100832,0.00034408,
 0.00010475,-0.00144526,-0.00689089,0.00212078,-0.00030400,0.00127997,0
 .00209167,0.02733573,0.00588270,-0.00291548,0.00018676,0.00028501,-0.0
 0020333,-0.00042073,0.00068083,-0.00036732,-0.00235724,0.00017429,0.00
 073321,0.00018444,-0.00019323,-0.00004129,-0.00017980,0.00017305,-0.00
 006391,-0.00007999,0.00010715,-0.00006672,0.00001909,-0.00000890,-0.00
 004339,0.00011056,-0.00004731,-0.00005432,0.17665743,-0.26631625,0.008
 61902,0.07003130,-0.07967145,0.01367306,-0.26367765,0.34051346,-0.0008
 4796,-0.00028022,0.00050396,0.00036406,-0.00054929,0.00020361,-0.00013
 396,-0.00025500,0.00017518,0.00094379,-0.00045086,-0.00273318,0.000000
 36,-0.00003042,-0.00003843,0.00074590,0.00302840,0.00329914,0.00022469
 ,-0.00020936,-0.00025385,0.00075541,0.00132871,-0.00314017,-0.00017044
 ,0.00074470,0.00016566,0.01679929,-0.00628059,0.01805473,-0.00010853,0
 .00004562,-0.00005060,0.00024665,0.00039265,-0.00030557,0.00088543,0.0
 0043499,0.00091310,-0.00021864,-0.00050980,0.00025932,-0.00001411,0.00
 011549,-0.00014585,0.00014261,0.00020587,-0.00003536,-0.00000359,-0.00
 002677,0.00000979,-0.00001013,-0.00001391,0.00004158,0.02576417,0.0021
 8436,-0.08713328,-0.01988543,0.02273590,0.02583489,-0.02694617,-0.0231
 0094,0.04380001,-0.02252000,0.00293815,-0.00901004,0.00193368,0.001110
 95,-0.00322315,-0.00004795,0.00024737,-0.00055519,-0.00053557,0.001817
 61,0.00070263,0.00000868,-0.00003334,0.00009386,-0.00126420,-0.0001527
 3,0.00033518,0.00002935,0.00003871,0.00004762,-0.21138868,-0.05207046,
 -0.12362873,0.00866167,0.00143101,0.00653832,0.00038320,-0.00183581,0.
 00090810,0.00011408,0.00000658,0.00006955,0.00018816,-0.00011669,0.000
 29495,-0.01007538,-0.00370222,-0.00868362,-0.00021847,0.00004255,-0.00
 025177,0.00017519,-0.00009442,0.00009317,0.00010715,0.00004707,0.00015
 856,0.00000582,0.00000216,0.00002716,-0.00011551,-0.00000189,0.0000700
 3,-0.00050306,0.00038108,-0.00017989,0.00018228,-0.00004438,-0.0002470
 0,-0.00005747,-0.00134307,0.00146658,0.23493703,0.03237506,0.00207040,
 0.01615140,-0.00262284,-0.00106553,0.00350465,-0.00009916,-0.00027457,
 0.00001915,0.00054186,-0.00338197,-0.00064402,0.00003100,0.00012787,0.
 00010562,0.00245590,-0.00001677,-0.00106340,-0.00006801,-0.00005307,-0
 .00016255,-0.05980062,-0.06563797,-0.04462758,-0.00637898,-0.00114740,
 -0.00290507,-0.00104338,0.00198923,0.00067534,0.00026256,0.00024937,-0
 .00001068,-0.00006834,0.00008633,0.00010936,-0.01718686,-0.00420822,-0
 .01520633,-0.00010383,0.00008407,-0.00036824,0.00014813,-0.00005217,0.
 00008075,0.00002132,0.00005257,0.00011263,-0.00000860,0.00001094,0.000
 00304,-0.00006289,0.00001943,0.00003024,0.00288354,-0.00160893,0.00013
 905,-0.00046559,0.00040080,-0.00005041,-0.00214200,-0.00017661,0.00049
 049,0.05133174,0.07253222,-0.00052515,0.00322186,0.00242563,0.00236105
 ,-0.00071722,-0.00045913,0.00001761,-0.00009218,0.00022066,0.00021529,
 0.00111572,-0.00070782,-0.00001412,-0.00003927,-0.00007255,-0.00119436
 ,0.00019329,0.00023793,-0.00002885,0.00000945,0.00004836,-0.12437405,-
 0.04027858,-0.13935020,-0.02297975,-0.00831362,-0.01669264,0.00038975,
 -0.00052354,0.00042603,-0.00015605,-0.00004967,-0.00004129,-0.00005649
 ,-0.00003800,-0.00004935,0.01207813,0.00285390,0.00886541,0.00007302,-
 0.00000461,0.00016688,-0.00007983,0.00003579,-0.00004591,-0.00004763,-
 0.00005272,-0.00007826,-0.00000581,0.00000023,-0.00001309,0.00006664,0
 .00000981,-0.00003321,-0.00323215,0.00182800,0.00045276,0.00064805,-0.
 00112311,-0.00008274,0.00187103,-0.00165214,0.00057533,0.13497367,0.04
 361657,0.14420722\\-0.00000128,0.00000054,-0.00000226,0.00000199,-0.00
 000268,0.00000077,0.00000514,0.00000350,0.00000046,-0.00000036,-0.0000
 0041,-0.00000036,-0.00000578,0.00000215,0.00000179,0.00000220,-0.00000
 943,0.00000426,-0.00000077,0.00001046,-0.00000172,-0.00000456,0.000002
 47,0.00000680,0.00000170,-0.00000152,-0.00000815,0.00000106,0.00000060
 ,0.00000134,-0.00000057,-0.00000251,-0.00000355,-0.00000055,-0.0000002
 4,0.00000085,-0.00000061,-0.00000180,0.00000029,-0.00000063,0.00000137
 ,-0.00000244,0.00000216,-0.00000013,0.00001935,-0.00000089,0.00000010,
 -0.00000078,0.00000672,0.00001225,-0.00001013,-0.00000896,-0.00001462,
 -0.00000869,0.00000009,-0.00000046,-0.00000074,0.00000112,-0.00000027,
 0.00000077,0.00000107,0.00000104,0.00000012,0.00000171,-0.00000041,0.0
 0000201\\\@
 Job cpu time:       1 days  1 hours 27 minutes 24.9 seconds.
 File lengths (MBytes):  RWF= 195139 Int=      0 D2E=      0 Chk=    151 Scr=      1
 Normal termination of Gaussian 09 at Fri Aug 27 14:26:44 2021.
