 Entering Gaussian System, Link 0=g09
 Input=G4.SAQZAK.gjf
 Output=G4.SAQZAK.log
 Initial command:
 /public/home/users/caep010/software/Gaussian09/g09/l1.exe "/public/home/users/caep010/.cache/gau_scr/Gau-117613.inp" -scrdir="/public/home/users/caep010/.cache/gau_scr/"
 Entering Link 1 = /public/home/users/caep010/software/Gaussian09/g09/l1.exe PID=    117616.
  
 Copyright (c) 1988,1990,1992,1993,1995,1998,2003,2009,2015,
            Gaussian, Inc.  All Rights Reserved.
  
 This is part of the Gaussian(R) 09 program.  It is based on
 the Gaussian(R) 03 system (copyright 2003, Gaussian, Inc.),
 the Gaussian(R) 98 system (copyright 1998, Gaussian, Inc.),
 the Gaussian(R) 94 system (copyright 1995, Gaussian, Inc.),
 the Gaussian 92(TM) system (copyright 1992, Gaussian, Inc.),
 the Gaussian 90(TM) system (copyright 1990, Gaussian, Inc.),
 the Gaussian 88(TM) system (copyright 1988, Gaussian, Inc.),
 the Gaussian 86(TM) system (copyright 1986, Carnegie Mellon
 University), and the Gaussian 82(TM) system (copyright 1983,
 Carnegie Mellon University). Gaussian is a federally registered
 trademark of Gaussian, Inc.
  
 This software contains proprietary and confidential information,
 including trade secrets, belonging to Gaussian, Inc.
  
 This software is provided under written license and may be
 used, copied, transmitted, or stored only in accord with that
 written license.
  
 The following legend is applicable only to US Government
 contracts under FAR:
  
                    RESTRICTED RIGHTS LEGEND
  
 Use, reproduction and disclosure by the US Government is
 subject to restrictions as set forth in subparagraphs (a)
 and (c) of the Commercial Computer Software - Restricted
 Rights clause in FAR 52.227-19.
  
 Gaussian, Inc.
 340 Quinnipiac St., Bldg. 40, Wallingford CT 06492
  
  
 ---------------------------------------------------------------
 Warning -- This program may not be used in any manner that
 competes with the business of Gaussian, Inc. or will provide
 assistance to any competitor of Gaussian, Inc.  The licensee
 of this program is prohibited from giving any competitor of
 Gaussian, Inc. access to this program.  By using this program,
 the user acknowledges that Gaussian, Inc. is engaged in the
 business of creating and licensing software in the field of
 computational chemistry and represents and warrants to the
 licensee that it is not a competitor of Gaussian, Inc. and that
 it will not use this program in any manner prohibited above.
 ---------------------------------------------------------------
  

 Cite this work as:
 Gaussian 09, Revision E.01,
 M. J. Frisch, G. W. Trucks, H. B. Schlegel, G. E. Scuseria, 
 M. A. Robb, J. R. Cheeseman, G. Scalmani, V. Barone, B. Mennucci, 
 G. A. Petersson, H. Nakatsuji, M. Caricato, X. Li, H. P. Hratchian, 
 A. F. Izmaylov, J. Bloino, G. Zheng, J. L. Sonnenberg, M. Hada, 
 M. Ehara, K. Toyota, R. Fukuda, J. Hasegawa, M. Ishida, T. Nakajima, 
 Y. Honda, O. Kitao, H. Nakai, T. Vreven, J. A. Montgomery, Jr., 
 J. E. Peralta, F. Ogliaro, M. Bearpark, J. J. Heyd, E. Brothers, 
 K. N. Kudin, V. N. Staroverov, T. Keith, R. Kobayashi, J. Normand, 
 K. Raghavachari, A. Rendell, J. C. Burant, S. S. Iyengar, J. Tomasi, 
 M. Cossi, N. Rega, J. M. Millam, M. Klene, J. E. Knox, J. B. Cross, 
 V. Bakken, C. Adamo, J. Jaramillo, R. Gomperts, R. E. Stratmann, 
 O. Yazyev, A. J. Austin, R. Cammi, C. Pomelli, J. W. Ochterski, 
 R. L. Martin, K. Morokuma, V. G. Zakrzewski, G. A. Voth, 
 P. Salvador, J. J. Dannenberg, S. Dapprich, A. D. Daniels, 
 O. Farkas, J. B. Foresman, J. V. Ortiz, J. Cioslowski, 
 and D. J. Fox, Gaussian, Inc., Wallingford CT, 2013.
 
 ******************************************
 Gaussian 09:  ES64L-G09RevE.01 30-Nov-2015
                24-Aug-2021 
 ******************************************
 %nproc=32
 Will use up to   32 processors via shared memory.
 %mem=180GB
 -----
 #P G4
 -----
 1/14=-1,18=20,19=15,26=3,38=1/1,3;
 2/9=110,12=2,17=6,18=5,40=1/2;
 3/5=35,7=104,11=2,16=1,25=1,30=1,71=1,74=-5/1,2,3;
 4//1;
 5/5=2,38=5/2;
 6/7=2,8=2,9=2,10=2,28=1/1;
 7//1,2,3,16;
 1/14=-1,18=20,19=15,26=3/3(2);
 2/9=110/2;
 99//99;
 2/9=110/2;
 3/5=35,7=104,11=2,16=1,25=1,30=1,71=1,74=-5/1,2,3;
 4/5=5,16=3,69=1/1;
 5/5=2,38=5/2;
 7//1,2,3,16;
 1/14=-1,18=20,19=15,26=3/3(-5);
 2/9=110/2;
 6/7=2,8=2,9=2,10=2,19=2,28=1/1;
 99/9=1/99;
 Leave Link    1 at Tue Aug 24 19:51:07 2021, MaxMem= 24159191040 cpu:         3.3
 (Enter /public/home/users/caep010/software/Gaussian09/g09/l101.exe)
 ------
 SAQZAK
 ------
 Symbolic Z-matrix:
 Charge =  0 Multiplicity = 1
 N                     6.3519    0.4894   -1.9423 
 C                     5.8612    1.4591   -2.8715 
 H                     5.0009    1.2107   -3.1929 
 H                     6.5297    1.5988   -3.5693 
 N                     5.6684    2.7797   -2.1807 
 O                     5.3878    3.7098   -2.9181 
 N                     7.6444    0.4012   -1.641 
 O                     5.8076    2.8415   -0.9871 
 N                     5.5839   -0.3617   -1.2818 
 C                     6.4905   -0.9787   -0.5653 
 N                     6.1696   -2.03      0.3671 
 O                     4.9993   -2.3383    0.4841 
 O                     7.1049   -2.527     0.9668 
 N                     7.7434   -0.5489   -0.7567 
 
 NAtoms=     14 NQM=       14 NQMF=       0 NMMI=      0 NMMIF=      0
                NMic=       0 NMicF=      0.
                    Isotopes and Nuclear Properties:
 (Nuclear quadrupole moments (NQMom) in fm**2, nuclear magnetic moments (NMagM)
  in nuclear magnetons)

  Atom         1           2           3           4           5           6           7           8           9          10
 IAtWgt=          14          12           1           1          14          16          14          16          14          12
 AtmWgt=  14.0030740  12.0000000   1.0078250   1.0078250  14.0030740  15.9949146  14.0030740  15.9949146  14.0030740  12.0000000
 NucSpn=           2           0           1           1           2           0           2           0           2           0
 AtZEff=   0.0000000   0.0000000   0.0000000   0.0000000   0.0000000   0.0000000   0.0000000   0.0000000   0.0000000   0.0000000
 NQMom=    2.0440000   0.0000000   0.0000000   0.0000000   2.0440000   0.0000000   2.0440000   0.0000000   2.0440000   0.0000000
 NMagM=    0.4037610   0.0000000   2.7928460   2.7928460   0.4037610   0.0000000   0.4037610   0.0000000   0.4037610   0.0000000
 AtZNuc=   7.0000000   6.0000000   1.0000000   1.0000000   7.0000000   8.0000000   7.0000000   8.0000000   7.0000000   6.0000000

  Atom        11          12          13          14
 IAtWgt=          14          16          16          14
 AtmWgt=  14.0030740  15.9949146  15.9949146  14.0030740
 NucSpn=           2           0           0           2
 AtZEff=   0.0000000   0.0000000   0.0000000   0.0000000
 NQMom=    2.0440000   0.0000000   0.0000000   2.0440000
 NMagM=    0.4037610   0.0000000   0.0000000   0.4037610
 AtZNuc=   7.0000000   8.0000000   8.0000000   7.0000000
 Leave Link  101 at Tue Aug 24 19:51:08 2021, MaxMem= 24159191040 cpu:        10.0
 (Enter /public/home/users/caep010/software/Gaussian09/g09/l103.exe)

 GradGradGradGradGradGradGradGradGradGradGradGradGradGradGradGradGradGrad
 Berny optimization.
 Initialization pass.
                           ----------------------------
                           !    Initial Parameters    !
                           ! (Angstroms and Degrees)  !
 --------------------------                            --------------------------
 ! Name  Definition              Value          Derivative Info.                !
 --------------------------------------------------------------------------------
 ! R1    R(1,2)                  1.4299         estimate D2E/DX2                !
 ! R2    R(1,7)                  1.3301         estimate D2E/DX2                !
 ! R3    R(1,9)                  1.323          estimate D2E/DX2                !
 ! R4    R(2,3)                  0.9514         estimate D2E/DX2                !
 ! R5    R(2,4)                  0.9764         estimate D2E/DX2                !
 ! R6    R(2,5)                  1.5028         estimate D2E/DX2                !
 ! R7    R(5,6)                  1.2197         estimate D2E/DX2                !
 ! R8    R(5,8)                  1.2033         estimate D2E/DX2                !
 ! R9    R(7,14)                 1.3017         estimate D2E/DX2                !
 ! R10   R(9,10)                 1.31           estimate D2E/DX2                !
 ! R11   R(10,11)                1.4414         estimate D2E/DX2                !
 ! R12   R(10,14)                1.3383         estimate D2E/DX2                !
 ! R13   R(11,12)                1.2159         estimate D2E/DX2                !
 ! R14   R(11,13)                1.2171         estimate D2E/DX2                !
 ! A1    A(2,1,7)              121.7129         estimate D2E/DX2                !
 ! A2    A(2,1,9)              124.158          estimate D2E/DX2                !
 ! A3    A(7,1,9)              114.1            estimate D2E/DX2                !
 ! A4    A(1,2,3)              110.6583         estimate D2E/DX2                !
 ! A5    A(1,2,4)              109.0566         estimate D2E/DX2                !
 ! A6    A(1,2,5)              109.9539         estimate D2E/DX2                !
 ! A7    A(3,2,4)              114.5221         estimate D2E/DX2                !
 ! A8    A(3,2,5)              105.5882         estimate D2E/DX2                !
 ! A9    A(4,2,5)              106.8956         estimate D2E/DX2                !
 ! A10   A(2,5,6)              114.9441         estimate D2E/DX2                !
 ! A11   A(2,5,8)              119.096          estimate D2E/DX2                !
 ! A12   A(6,5,8)              125.957          estimate D2E/DX2                !
 ! A13   A(1,7,14)             106.033          estimate D2E/DX2                !
 ! A14   A(1,9,10)             100.0387         estimate D2E/DX2                !
 ! A15   A(9,10,11)            122.9071         estimate D2E/DX2                !
 ! A16   A(9,10,14)            114.7349         estimate D2E/DX2                !
 ! A17   A(11,10,14)           122.3555         estimate D2E/DX2                !
 ! A18   A(10,11,12)           117.4826         estimate D2E/DX2                !
 ! A19   A(10,11,13)           116.4535         estimate D2E/DX2                !
 ! A20   A(12,11,13)           126.064          estimate D2E/DX2                !
 ! A21   A(7,14,10)            105.0911         estimate D2E/DX2                !
 ! D1    D(7,1,2,3)            160.9677         estimate D2E/DX2                !
 ! D2    D(7,1,2,4)             34.1319         estimate D2E/DX2                !
 ! D3    D(7,1,2,5)            -82.7742         estimate D2E/DX2                !
 ! D4    D(9,1,2,3)            -21.1146         estimate D2E/DX2                !
 ! D5    D(9,1,2,4)           -147.9504         estimate D2E/DX2                !
 ! D6    D(9,1,2,5)             95.1436         estimate D2E/DX2                !
 ! D7    D(2,1,7,14)           178.6227         estimate D2E/DX2                !
 ! D8    D(9,1,7,14)             0.5102         estimate D2E/DX2                !
 ! D9    D(2,1,9,10)          -178.404          estimate D2E/DX2                !
 ! D10   D(7,1,9,10)            -0.3444         estimate D2E/DX2                !
 ! D11   D(1,2,5,6)            172.5504         estimate D2E/DX2                !
 ! D12   D(1,2,5,8)             -6.8759         estimate D2E/DX2                !
 ! D13   D(3,2,5,6)            -68.0468         estimate D2E/DX2                !
 ! D14   D(3,2,5,8)            112.5269         estimate D2E/DX2                !
 ! D15   D(4,2,5,6)             54.3017         estimate D2E/DX2                !
 ! D16   D(4,2,5,8)           -125.1245         estimate D2E/DX2                !
 ! D17   D(1,7,14,10)           -0.4233         estimate D2E/DX2                !
 ! D18   D(1,9,10,11)          179.4963         estimate D2E/DX2                !
 ! D19   D(1,9,10,14)            0.0566         estimate D2E/DX2                !
 ! D20   D(9,10,11,12)          -0.3839         estimate D2E/DX2                !
 ! D21   D(9,10,11,13)         179.6508         estimate D2E/DX2                !
 ! D22   D(14,10,11,12)        179.0137         estimate D2E/DX2                !
 ! D23   D(14,10,11,13)         -0.9516         estimate D2E/DX2                !
 ! D24   D(9,10,14,7)            0.2404         estimate D2E/DX2                !
 ! D25   D(11,10,14,7)        -179.2028         estimate D2E/DX2                !
 --------------------------------------------------------------------------------
 Trust Radius=3.00D-01 FncErr=1.00D-07 GrdErr=1.00D-06
 Number of steps in this run=     70 maximum allowed number of steps=    100.
 GradGradGradGradGradGradGradGradGradGradGradGradGradGradGradGradGradGrad

 Leave Link  103 at Tue Aug 24 19:51:08 2021, MaxMem= 24159191040 cpu:         0.5
 (Enter /public/home/users/caep010/software/Gaussian09/g09/l202.exe)
                          Input orientation:                          
 ---------------------------------------------------------------------
 Center     Atomic      Atomic             Coordinates (Angstroms)
 Number     Number       Type             X           Y           Z
 ---------------------------------------------------------------------
      1          7           0        6.351900    0.489400   -1.942300
      2          6           0        5.861200    1.459100   -2.871500
      3          1           0        5.000900    1.210700   -3.192900
      4          1           0        6.529700    1.598800   -3.569300
      5          7           0        5.668400    2.779700   -2.180700
      6          8           0        5.387800    3.709800   -2.918100
      7          7           0        7.644400    0.401200   -1.641000
      8          8           0        5.807600    2.841500   -0.987100
      9          7           0        5.583900   -0.361700   -1.281800
     10          6           0        6.490500   -0.978700   -0.565300
     11          7           0        6.169600   -2.030000    0.367100
     12          8           0        4.999300   -2.338300    0.484100
     13          8           0        7.104900   -2.527000    0.966800
     14          7           0        7.743400   -0.548900   -0.756700
 ---------------------------------------------------------------------
                    Distance matrix (angstroms):
                    1          2          3          4          5
     1  N    0.000000
     2  C    1.429866   0.000000
     3  H    1.977239   0.951376   0.000000
     4  H    1.977248   0.976388   1.621582   0.000000
     5  N    2.401974   1.502784   1.982893   2.016078   0.000000
     6  O    3.500379   2.300419   2.543759   2.486829   1.219664
     7  N    1.330082   2.411034   3.170454   2.528862   3.138967
     8  O    2.596352   2.337705   2.859340   2.955248   1.203278
     9  N    1.323048   2.432972   2.542564   3.157650   3.268571
    10  C    2.017587   3.414300   3.730504   3.958416   4.172641
    11  N    3.422563   4.770478   4.953948   5.365921   5.465867
    12  O    3.963941   5.140347   5.110355   5.854309   5.808853
    13  O    4.257762   5.671713   5.974975   6.158675   6.334931
    14  N    2.102376   3.470896   4.068485   3.741177   4.172886
                    6          7          8          9         10
     6  O    0.000000
     7  N    4.203577   0.000000
     8  O    2.158457   3.123537   0.000000
     9  N    4.392385   2.226365   3.224497   0.000000
    10  C    5.360378   2.095886   3.903613   1.309956   0.000000
    11  N    6.659509   3.481125   5.069163   2.417673   1.441381
    12  O    6.950209   4.360902   5.445007   2.714242   2.274518
    13  O    7.545764   3.958034   5.858456   3.472487   2.263195
    14  N    5.325132   1.301721   3.910910   2.230295   1.338327
                   11         12         13         14
    11  N    0.000000
    12  O    1.215870   0.000000
    13  O    1.217142   2.168446   0.000000
    14  N    2.435863   3.503087   2.700188   0.000000
 Stoichiometry    C2H2N6O4
 Framework group  C1[X(C2H2N6O4)]
 Deg. of freedom    36
 Full point group                 C1      NOp   1
 Largest Abelian subgroup         C1      NOp   1
 Largest concise Abelian subgroup C1      NOp   1
                         Standard orientation:                         
 ---------------------------------------------------------------------
 Center     Atomic      Atomic             Coordinates (Angstroms)
 Number     Number       Type             X           Y           Z
 ---------------------------------------------------------------------
      1          7           0       -0.568595    0.321208   -0.554064
      2          6           0       -1.917276    0.047954   -0.942531
      3          1           0       -1.956469   -0.721557   -1.500594
      4          1           0       -2.305399    0.853356   -1.334987
      5          7           0       -2.741477   -0.288779    0.268115
      6          8           0       -3.938365   -0.399131    0.061084
      7          7           0       -0.199972    1.516135   -0.100870
      8          8           0       -2.193990   -0.414291    1.332249
      9          7           0        0.404958   -0.574564   -0.569635
     10          6           0        1.391042    0.151803   -0.104860
     11          7           0        2.720995   -0.367698    0.092424
     12          8           0        2.913867   -1.535833   -0.184344
     13          8           0        3.549298    0.412503    0.524437
     14          7           0        1.065918    1.417079    0.185817
 ---------------------------------------------------------------------
 Rotational constants (GHZ):      2.8796232      0.4907339      0.4645767
 Leave Link  202 at Tue Aug 24 19:51:08 2021, MaxMem= 24159191040 cpu:         0.5
 (Enter /public/home/users/caep010/software/Gaussian09/g09/l301.exe)
 Standard basis: GTBas3 (6D, 7F)
 Ernie: Thresh=  0.10000D-02 Tol=  0.10000D-05 Strict=F.
 There are   382 symmetry adapted cartesian basis functions of A   symmetry.
 There are   346 symmetry adapted basis functions of A   symmetry.
   346 basis functions,   542 primitive gaussians,   382 cartesian basis functions
    44 alpha electrons       44 beta electrons
       nuclear repulsion energy       712.5317108688 Hartrees.
 IExCor=  402 DFT=T Ex+Corr=B3LYP ExCW=0 ScaHFX=  0.200000
 ScaDFX=  0.800000  0.720000  1.000000  0.810000 ScalE2=  1.000000  1.000000
 IRadAn=      0 IRanWt=     -1 IRanGd=            0 ICorTp=0 IEmpDi=  4
 NAtoms=   14 NActive=   14 NUniq=   14 SFac= 1.00D+00 NAtFMM=   60 NAOKFM=F Big=F
 Integral buffers will be    131072 words long.
 Raffenetti 2 integral format.
 Two-electron integral symmetry is turned on.
 Leave Link  301 at Tue Aug 24 19:51:08 2021, MaxMem= 24159191040 cpu:         2.1
 (Enter /public/home/users/caep010/software/Gaussian09/g09/l302.exe)
 NPDir=0 NMtPBC=     1 NCelOv=     1 NCel=       1 NClECP=     1 NCelD=      1
         NCelK=      1 NCelE2=     1 NClLst=     1 CellRange=     0.0.
 One-electron integrals computed using PRISM.
 NBasis=   346 RedAO= T EigKep=  1.26D-04  NBF=   346
 NBsUse=   346 1.00D-06 EigRej= -1.00D+00 NBFU=   346
 Precomputing XC quadrature grid using
 IXCGrd= 4 IRadAn=           0 IRanWt=          -1 IRanGd=           0 AccXCQ= 0.00D+00.
 Generated NRdTot=       0 NPtTot=           0 NUsed=           0 NTot=          32
 NSgBfM=   380   380   380   380   380 MxSgAt=    14 MxSgA2=    14.
 Leave Link  302 at Tue Aug 24 19:51:09 2021, MaxMem= 24159191040 cpu:        16.9
 (Enter /public/home/users/caep010/software/Gaussian09/g09/l303.exe)
 DipDrv:  MaxL=1.
 Leave Link  303 at Tue Aug 24 19:51:09 2021, MaxMem= 24159191040 cpu:         1.1
 (Enter /public/home/users/caep010/software/Gaussian09/g09/l401.exe)
 ExpMin= 1.61D-01 ExpMax= 5.48D+03 ExpMxC= 8.25D+02 IAcc=1 IRadAn=         1 AccDes= 0.00D+00
 Harris functional with IExCor=  402 and IRadAn=       1 diagonalized for initial guess.
 HarFok:  IExCor=  402 AccDes= 0.00D+00 IRadAn=         1 IDoV= 1 UseB2=F ITyADJ=14
 ICtDFT=  3500011 ScaDFX=  1.000000  1.000000  1.000000  1.000000
 FoFCou: FMM=F IPFlag=           0 FMFlag=      100000 FMFlg1=           0
         NFxFlg=           0 DoJE=T BraDBF=F KetDBF=T FulRan=T
         wScrn=  0.000000 ICntrl=     500 IOpCl=  0 I1Cent=   200000004 NGrid=           0
         NMat0=    1 NMatS0=      1 NMatT0=    0 NMatD0=    1 NMtDS0=    0 NMtDT0=    0
 Petite list used in FoFCou.
 Harris En= -706.562763314126    
 JPrj=0 DoOrth=F DoCkMO=F.
 Leave Link  401 at Tue Aug 24 19:51:09 2021, MaxMem= 24159191040 cpu:        17.2
 (Enter /public/home/users/caep010/software/Gaussian09/g09/l502.exe)
 Closed shell SCF:
 Using DIIS extrapolation, IDIIS=  1040.
 Integral symmetry usage will be decided dynamically.
 Keep R1 ints in memory in canonical form, NReq=1830452538.
 IVT=      471290 IEndB=      471290 NGot= 24159191040 MDV= 22356829255
 LenX= 22356829255 LenY= 22356682890
 Requested convergence on RMS density matrix=1.00D-08 within 128 cycles.
 Requested convergence on MAX density matrix=1.00D-06.
 Requested convergence on             energy=1.00D-06.
 No special actions if energy rises.
 FoFCou: FMM=F IPFlag=           0 FMFlag=           0 FMFlg1=           0
         NFxFlg=           0 DoJE=F BraDBF=F KetDBF=F FulRan=T
         wScrn=  0.000000 ICntrl=     600 IOpCl=  0 I1Cent=           0 NGrid=           0
         NMat0=    1 NMatS0=  60031 NMatT0=    0 NMatD0=    1 NMtDS0=    0 NMtDT0=    0
 Symmetry not used in FoFCou.
 Integral accuracy reduced to 1.0D-05 until final iterations.

 Cycle   1  Pass 0  IDiag  1:
 E= -706.188509178560    
 DIIS: error= 3.09D-02 at cycle   1 NSaved=   1.
 NSaved= 1 IEnMin= 1 EnMin= -706.188509178560     IErMin= 1 ErrMin= 3.09D-02
 ErrMax= 3.09D-02  0.00D+00 EMaxC= 1.00D-01 BMatC= 5.31D-01 BMatP= 5.31D-01
 IDIUse=3 WtCom= 6.91D-01 WtEn= 3.09D-01
 Coeff-Com:  0.100D+01
 Coeff-En:   0.100D+01
 Coeff:      0.100D+01
 Gap=     0.257 Goal=   None    Shift=    0.000
 GapD=    0.257 DampG=1.000 DampE=0.500 DampFc=0.5000 IDamp=-1.
 Damping current iteration by 5.00D-01
 RMSDP=4.07D-03 MaxDP=2.57D-01              OVMax= 2.88D-01

 Cycle   2  Pass 0  IDiag  1:
 E= -706.218279515654     Delta-E=       -0.029770337094 Rises=F Damp=T
 DIIS: error= 1.11D-02 at cycle   2 NSaved=   2.
 NSaved= 2 IEnMin= 2 EnMin= -706.218279515654     IErMin= 2 ErrMin= 1.11D-02
 ErrMax= 1.11D-02  0.00D+00 EMaxC= 1.00D-01 BMatC= 1.34D-01 BMatP= 5.31D-01
 IDIUse=3 WtCom= 8.89D-01 WtEn= 1.11D-01
 Coeff-Com:  0.309D+00 0.691D+00
 Coeff-En:   0.469D+00 0.531D+00
 Coeff:      0.327D+00 0.673D+00
 Gap=     0.210 Goal=   None    Shift=    0.000
 RMSDP=1.12D-03 MaxDP=7.19D-02 DE=-2.98D-02 OVMax= 1.93D-01

 Cycle   3  Pass 0  IDiag  1:
 E= -706.541459344501     Delta-E=       -0.323179828848 Rises=F Damp=F
 DIIS: error= 5.49D-03 at cycle   3 NSaved=   3.
 NSaved= 3 IEnMin= 3 EnMin= -706.541459344501     IErMin= 3 ErrMin= 5.49D-03
 ErrMax= 5.49D-03  0.00D+00 EMaxC= 1.00D-01 BMatC= 2.29D-02 BMatP= 1.34D-01
 IDIUse=3 WtCom= 9.45D-01 WtEn= 5.49D-02
 Coeff-Com:  0.130D+00 0.295D+00 0.575D+00
 Coeff-En:   0.000D+00 0.000D+00 0.100D+01
 Coeff:      0.123D+00 0.279D+00 0.598D+00
 Gap=     0.211 Goal=   None    Shift=    0.000
 RMSDP=7.65D-04 MaxDP=5.11D-02 DE=-3.23D-01 OVMax= 1.10D-01

 Cycle   4  Pass 0  IDiag  1:
 E= -706.532973339939     Delta-E=        0.008486004562 Rises=F Damp=F
 DIIS: error= 7.76D-03 at cycle   4 NSaved=   4.
 NSaved= 4 IEnMin= 3 EnMin= -706.541459344501     IErMin= 3 ErrMin= 5.49D-03
 ErrMax= 7.76D-03  0.00D+00 EMaxC= 1.00D-01 BMatC= 3.48D-02 BMatP= 2.29D-02
 IDIUse=3 WtCom= 1.02D-01 WtEn= 8.98D-01
 Coeff-Com:  0.386D-01 0.749D-01 0.512D+00 0.374D+00
 Coeff-En:   0.000D+00 0.000D+00 0.567D+00 0.433D+00
 Coeff:      0.394D-02 0.764D-02 0.562D+00 0.427D+00
 Gap=     0.206 Goal=   None    Shift=    0.000
 RMSDP=4.67D-04 MaxDP=3.34D-02 DE= 8.49D-03 OVMax= 6.98D-02

 Cycle   5  Pass 0  IDiag  1:
 E= -706.558589056371     Delta-E=       -0.025615716432 Rises=F Damp=F
 DIIS: error= 1.67D-03 at cycle   5 NSaved=   5.
 NSaved= 5 IEnMin= 5 EnMin= -706.558589056371     IErMin= 5 ErrMin= 1.67D-03
 ErrMax= 1.67D-03  0.00D+00 EMaxC= 1.00D-01 BMatC= 2.00D-03 BMatP= 2.29D-02
 IDIUse=3 WtCom= 9.83D-01 WtEn= 1.67D-02
 Coeff-Com:  0.864D-02 0.911D-02 0.287D+00 0.249D+00 0.446D+00
 Coeff-En:   0.000D+00 0.000D+00 0.000D+00 0.000D+00 0.100D+01
 Coeff:      0.850D-02 0.896D-02 0.283D+00 0.245D+00 0.455D+00
 Gap=     0.201 Goal=   None    Shift=    0.000
 RMSDP=1.40D-04 MaxDP=8.06D-03 DE=-2.56D-02 OVMax= 1.43D-02

 Cycle   6  Pass 0  IDiag  1:
 E= -706.560090813982     Delta-E=       -0.001501757610 Rises=F Damp=F
 DIIS: error= 4.60D-04 at cycle   6 NSaved=   6.
 NSaved= 6 IEnMin= 6 EnMin= -706.560090813982     IErMin= 6 ErrMin= 4.60D-04
 ErrMax= 4.60D-04  0.00D+00 EMaxC= 1.00D-01 BMatC= 2.49D-04 BMatP= 2.00D-03
 IDIUse=3 WtCom= 9.95D-01 WtEn= 4.60D-03
 Coeff-Com:  0.228D-02-0.585D-03 0.142D+00 0.127D+00 0.307D+00 0.422D+00
 Coeff-En:   0.000D+00 0.000D+00 0.000D+00 0.000D+00 0.613D-01 0.939D+00
 Coeff:      0.227D-02-0.582D-03 0.141D+00 0.127D+00 0.306D+00 0.424D+00
 Gap=     0.201 Goal=   None    Shift=    0.000
 RMSDP=4.66D-05 MaxDP=3.29D-03 DE=-1.50D-03 OVMax= 6.33D-03

 Cycle   7  Pass 0  IDiag  1:
 E= -706.560267932568     Delta-E=       -0.000177118587 Rises=F Damp=F
 DIIS: error= 1.86D-04 at cycle   7 NSaved=   7.
 NSaved= 7 IEnMin= 7 EnMin= -706.560267932568     IErMin= 7 ErrMin= 1.86D-04
 ErrMax= 1.86D-04  0.00D+00 EMaxC= 1.00D-01 BMatC= 3.34D-05 BMatP= 2.49D-04
 IDIUse=3 WtCom= 9.98D-01 WtEn= 1.86D-03
 Coeff-Com:  0.179D-03-0.176D-02 0.561D-01 0.508D-01 0.147D+00 0.296D+00
 Coeff-Com:  0.451D+00
 Coeff-En:   0.000D+00 0.000D+00 0.000D+00 0.000D+00 0.000D+00 0.110D+00
 Coeff-En:   0.890D+00
 Coeff:      0.179D-03-0.175D-02 0.560D-01 0.507D-01 0.147D+00 0.296D+00
 Coeff:      0.452D+00
 Gap=     0.201 Goal=   None    Shift=    0.000
 RMSDP=1.67D-05 MaxDP=1.23D-03 DE=-1.77D-04 OVMax= 2.40D-03

 Cycle   8  Pass 0  IDiag  1:
 E= -706.560289354910     Delta-E=       -0.000021422341 Rises=F Damp=F
 DIIS: error= 8.01D-05 at cycle   8 NSaved=   8.
 NSaved= 8 IEnMin= 8 EnMin= -706.560289354910     IErMin= 8 ErrMin= 8.01D-05
 ErrMax= 8.01D-05  0.00D+00 EMaxC= 1.00D-01 BMatC= 6.01D-06 BMatP= 3.34D-05
 IDIUse=1 WtCom= 1.00D+00 WtEn= 0.00D+00
 Coeff-Com: -0.168D-03-0.122D-02 0.248D-01 0.223D-01 0.724D-01 0.166D+00
 Coeff-Com:  0.326D+00 0.389D+00
 Coeff:     -0.168D-03-0.122D-02 0.248D-01 0.223D-01 0.724D-01 0.166D+00
 Coeff:      0.326D+00 0.389D+00
 Gap=     0.201 Goal=   None    Shift=    0.000
 RMSDP=7.20D-06 MaxDP=4.72D-04 DE=-2.14D-05 OVMax= 9.10D-04

 Initial convergence to 1.0D-05 achieved.  Increase integral accuracy.
 Cycle   9  Pass 1  IDiag  1:
 E= -706.560343683716     Delta-E=       -0.000054328806 Rises=F Damp=F
 DIIS: error= 2.99D-05 at cycle   1 NSaved=   1.
 NSaved= 1 IEnMin= 1 EnMin= -706.560343683716     IErMin= 1 ErrMin= 2.99D-05
 ErrMax= 2.99D-05  0.00D+00 EMaxC= 1.00D-01 BMatC= 9.46D-07 BMatP= 9.46D-07
 IDIUse=1 WtCom= 1.00D+00 WtEn= 0.00D+00
 Coeff-Com:  0.100D+01
 Coeff:      0.100D+01
 Gap=     0.201 Goal=   None    Shift=    0.000
 RMSDP=7.20D-06 MaxDP=4.72D-04 DE=-5.43D-05 OVMax= 9.55D-04

 Cycle  10  Pass 1  IDiag  1:
 E= -706.560339754933     Delta-E=        0.000003928782 Rises=F Damp=F
 DIIS: error= 9.42D-05 at cycle   2 NSaved=   2.
 NSaved= 2 IEnMin= 1 EnMin= -706.560343683716     IErMin= 1 ErrMin= 2.99D-05
 ErrMax= 9.42D-05  0.00D+00 EMaxC= 1.00D-01 BMatC= 5.91D-06 BMatP= 9.46D-07
 IDIUse=1 WtCom= 1.00D+00 WtEn= 0.00D+00
 Coeff-Com:  0.725D+00 0.275D+00
 Coeff:      0.725D+00 0.275D+00
 Gap=     0.201 Goal=   None    Shift=    0.000
 RMSDP=5.90D-06 MaxDP=3.87D-04 DE= 3.93D-06 OVMax= 8.00D-04

 Cycle  11  Pass 1  IDiag  1:
 E= -706.560344327779     Delta-E=       -0.000004572846 Rises=F Damp=F
 DIIS: error= 1.20D-05 at cycle   3 NSaved=   3.
 NSaved= 3 IEnMin= 3 EnMin= -706.560344327779     IErMin= 3 ErrMin= 1.20D-05
 ErrMax= 1.20D-05  0.00D+00 EMaxC= 1.00D-01 BMatC= 1.26D-07 BMatP= 9.46D-07
 IDIUse=1 WtCom= 1.00D+00 WtEn= 0.00D+00
 Coeff-Com:  0.305D+00 0.158D+00 0.538D+00
 Coeff:      0.305D+00 0.158D+00 0.538D+00
 Gap=     0.201 Goal=   None    Shift=    0.000
 RMSDP=1.30D-06 MaxDP=8.60D-05 DE=-4.57D-06 OVMax= 1.71D-04

 Cycle  12  Pass 1  IDiag  1:
 E= -706.560344387770     Delta-E=       -0.000000059991 Rises=F Damp=F
 DIIS: error= 6.52D-06 at cycle   4 NSaved=   4.
 NSaved= 4 IEnMin= 4 EnMin= -706.560344387770     IErMin= 4 ErrMin= 6.52D-06
 ErrMax= 6.52D-06  0.00D+00 EMaxC= 1.00D-01 BMatC= 5.02D-08 BMatP= 1.26D-07
 IDIUse=1 WtCom= 1.00D+00 WtEn= 0.00D+00
 Coeff-Com:  0.410D-01 0.473D-01 0.410D+00 0.502D+00
 Coeff:      0.410D-01 0.473D-01 0.410D+00 0.502D+00
 Gap=     0.201 Goal=   None    Shift=    0.000
 RMSDP=6.13D-07 MaxDP=4.25D-05 DE=-6.00D-08 OVMax= 8.01D-05

 Cycle  13  Pass 1  IDiag  1:
 E= -706.560344423421     Delta-E=       -0.000000035651 Rises=F Damp=F
 DIIS: error= 2.22D-06 at cycle   5 NSaved=   5.
 NSaved= 5 IEnMin= 5 EnMin= -706.560344423421     IErMin= 5 ErrMin= 2.22D-06
 ErrMax= 2.22D-06  0.00D+00 EMaxC= 1.00D-01 BMatC= 6.50D-09 BMatP= 5.02D-08
 IDIUse=1 WtCom= 1.00D+00 WtEn= 0.00D+00
 Coeff-Com: -0.622D-02 0.136D-01 0.219D+00 0.344D+00 0.429D+00
 Coeff:     -0.622D-02 0.136D-01 0.219D+00 0.344D+00 0.429D+00
 Gap=     0.201 Goal=   None    Shift=    0.000
 RMSDP=2.31D-07 MaxDP=1.36D-05 DE=-3.57D-08 OVMax= 2.78D-05

 Cycle  14  Pass 1  IDiag  1:
 E= -706.560344428247     Delta-E=       -0.000000004825 Rises=F Damp=F
 DIIS: error= 8.70D-07 at cycle   6 NSaved=   6.
 NSaved= 6 IEnMin= 6 EnMin= -706.560344428247     IErMin= 6 ErrMin= 8.70D-07
 ErrMax= 8.70D-07  0.00D+00 EMaxC= 1.00D-01 BMatC= 6.92D-10 BMatP= 6.50D-09
 IDIUse=1 WtCom= 1.00D+00 WtEn= 0.00D+00
 Coeff-Com: -0.634D-02 0.744D-02 0.141D+00 0.228D+00 0.317D+00 0.313D+00
 Coeff:     -0.634D-02 0.744D-02 0.141D+00 0.228D+00 0.317D+00 0.313D+00
 Gap=     0.201 Goal=   None    Shift=    0.000
 RMSDP=6.82D-08 MaxDP=4.34D-06 DE=-4.83D-09 OVMax= 8.77D-06

 Cycle  15  Pass 1  IDiag  1:
 E= -706.560344428734     Delta-E=       -0.000000000488 Rises=F Damp=F
 DIIS: error= 2.24D-07 at cycle   7 NSaved=   7.
 NSaved= 7 IEnMin= 7 EnMin= -706.560344428734     IErMin= 7 ErrMin= 2.24D-07
 ErrMax= 2.24D-07  0.00D+00 EMaxC= 1.00D-01 BMatC= 3.28D-11 BMatP= 6.92D-10
 IDIUse=1 WtCom= 1.00D+00 WtEn= 0.00D+00
 Coeff-Com: -0.306D-02 0.201D-02 0.516D-01 0.861D-01 0.129D+00 0.193D+00
 Coeff-Com:  0.542D+00
 Coeff:     -0.306D-02 0.201D-02 0.516D-01 0.861D-01 0.129D+00 0.193D+00
 Coeff:      0.542D+00
 Gap=     0.201 Goal=   None    Shift=    0.000
 RMSDP=1.65D-08 MaxDP=1.08D-06 DE=-4.88D-10 OVMax= 1.90D-06

 Cycle  16  Pass 1  IDiag  1:
 E= -706.560344428784     Delta-E=       -0.000000000049 Rises=F Damp=F
 DIIS: error= 7.54D-08 at cycle   8 NSaved=   8.
 NSaved= 8 IEnMin= 8 EnMin= -706.560344428784     IErMin= 8 ErrMin= 7.54D-08
 ErrMax= 7.54D-08  0.00D+00 EMaxC= 1.00D-01 BMatC= 3.46D-12 BMatP= 3.28D-11
 IDIUse=1 WtCom= 1.00D+00 WtEn= 0.00D+00
 Coeff-Com: -0.106D-02 0.236D-03 0.138D-01 0.238D-01 0.385D-01 0.703D-01
 Coeff-Com:  0.306D+00 0.549D+00
 Coeff:     -0.106D-02 0.236D-03 0.138D-01 0.238D-01 0.385D-01 0.703D-01
 Coeff:      0.306D+00 0.549D+00
 Gap=     0.201 Goal=   None    Shift=    0.000
 RMSDP=5.21D-09 MaxDP=3.32D-07 DE=-4.91D-11 OVMax= 5.05D-07

 SCF Done:  E(RB3LYP) =  -706.560344429     A.U. after   16 cycles
            NFock= 16  Conv=0.52D-08     -V/T= 2.0051
 KE= 7.029922785674D+02 PE=-3.079874204894D+03 EE= 9.577898710287D+02
 Leave Link  502 at Tue Aug 24 19:52:06 2021, MaxMem= 24159191040 cpu:       308.5
 (Enter /public/home/users/caep010/software/Gaussian09/g09/l601.exe)
 Copying SCF densities to generalized density rwf, IOpCl= 0 IROHF=0.

 **********************************************************************

            Population analysis using the SCF density.

 **********************************************************************

 Orbital symmetries:
       Occupied  (A) (A) (A) (A) (A) (A) (A) (A) (A) (A) (A) (A)
                 (A) (A) (A) (A) (A) (A) (A) (A) (A) (A) (A) (A)
                 (A) (A) (A) (A) (A) (A) (A) (A) (A) (A) (A) (A)
                 (A) (A) (A) (A) (A) (A) (A) (A)
       Virtual   (A) (A) (A) (A) (A) (A) (A) (A) (A) (A) (A) (A)
                 (A) (A) (A) (A) (A) (A) (A) (A) (A) (A) (A) (A)
                 (A) (A) (A) (A) (A) (A) (A) (A) (A) (A) (A) (A)
                 (A) (A) (A) (A) (A) (A) (A) (A) (A) (A) (A) (A)
                 (A) (A) (A) (A) (A) (A) (A) (A) (A) (A) (A) (A)
                 (A) (A) (A) (A) (A) (A) (A) (A) (A) (A) (A) (A)
                 (A) (A) (A) (A) (A) (A) (A) (A) (A) (A) (A) (A)
                 (A) (A) (A) (A) (A) (A) (A) (A) (A) (A) (A) (A)
                 (A) (A) (A) (A) (A) (A) (A) (A) (A) (A) (A) (A)
                 (A) (A) (A) (A) (A) (A) (A) (A) (A) (A) (A) (A)
                 (A) (A) (A) (A) (A) (A) (A) (A) (A) (A) (A) (A)
                 (A) (A) (A) (A) (A) (A) (A) (A) (A) (A) (A) (A)
                 (A) (A) (A) (A) (A) (A) (A) (A) (A) (A) (A) (A)
                 (A) (A) (A) (A) (A) (A) (A) (A) (A) (A) (A) (A)
                 (A) (A) (A) (A) (A) (A) (A) (A) (A) (A) (A) (A)
                 (A) (A) (A) (A) (A) (A) (A) (A) (A) (A) (A) (A)
                 (A) (A) (A) (A) (A) (A) (A) (A) (A) (A) (A) (A)
                 (A) (A) (A) (A) (A) (A) (A) (A) (A) (A) (A) (A)
                 (A) (A) (A) (A) (A) (A) (A) (A) (A) (A) (A) (A)
                 (A) (A) (A) (A) (A) (A) (A) (A) (A) (A) (A) (A)
                 (A) (A) (A) (A) (A) (A) (A) (A) (A) (A) (A) (A)
                 (A) (A) (A) (A) (A) (A) (A) (A) (A) (A) (A) (A)
                 (A) (A) (A) (A) (A) (A) (A) (A) (A) (A) (A) (A)
                 (A) (A) (A) (A) (A) (A) (A) (A) (A) (A) (A) (A)
                 (A) (A) (A) (A) (A) (A) (A) (A) (A) (A) (A) (A)
                 (A) (A)
 The electronic state is 1-A.
 Alpha  occ. eigenvalues --  -19.22146 -19.21482 -19.19778 -19.19745 -14.60794
 Alpha  occ. eigenvalues --  -14.59785 -14.51793 -14.46171 -14.44101 -14.42061
 Alpha  occ. eigenvalues --  -10.33033 -10.32281  -1.28122  -1.26272  -1.21566
 Alpha  occ. eigenvalues --   -1.10549  -1.08554  -1.02340  -0.97578  -0.88034
 Alpha  occ. eigenvalues --   -0.79923  -0.74060  -0.67608  -0.66936  -0.61204
 Alpha  occ. eigenvalues --   -0.60424  -0.59996  -0.57574  -0.57092  -0.54345
 Alpha  occ. eigenvalues --   -0.53377  -0.52943  -0.51497  -0.44735  -0.38647
 Alpha  occ. eigenvalues --   -0.37630  -0.36458  -0.35304  -0.34969  -0.34597
 Alpha  occ. eigenvalues --   -0.33432  -0.33257  -0.33017  -0.31534
 Alpha virt. eigenvalues --   -0.11420  -0.10064  -0.08244   0.02214   0.06856
 Alpha virt. eigenvalues --    0.08488   0.09753   0.11422   0.14763   0.18888
 Alpha virt. eigenvalues --    0.19681   0.21386   0.22519   0.23645   0.28616
 Alpha virt. eigenvalues --    0.31538   0.33639   0.34073   0.34960   0.37319
 Alpha virt. eigenvalues --    0.38327   0.41832   0.45293   0.45351   0.47383
 Alpha virt. eigenvalues --    0.48133   0.49709   0.50949   0.52017   0.55356
 Alpha virt. eigenvalues --    0.56262   0.57825   0.57970   0.61629   0.61737
 Alpha virt. eigenvalues --    0.64563   0.64913   0.65796   0.67436   0.68352
 Alpha virt. eigenvalues --    0.69218   0.70811   0.72061   0.74370   0.75189
 Alpha virt. eigenvalues --    0.76245   0.77649   0.77944   0.79379   0.80160
 Alpha virt. eigenvalues --    0.81073   0.82754   0.83488   0.85207   0.86821
 Alpha virt. eigenvalues --    0.87586   0.88294   0.89975   0.91931   0.93125
 Alpha virt. eigenvalues --    0.94465   0.95475   0.95867   0.96998   0.97854
 Alpha virt. eigenvalues --    0.98660   0.99504   1.01825   1.03562   1.05462
 Alpha virt. eigenvalues --    1.07097   1.08988   1.10932   1.11747   1.12881
 Alpha virt. eigenvalues --    1.14626   1.16114   1.19099   1.21837   1.25779
 Alpha virt. eigenvalues --    1.26736   1.29928   1.32108   1.32337   1.33406
 Alpha virt. eigenvalues --    1.34272   1.35002   1.37683   1.39675   1.41103
 Alpha virt. eigenvalues --    1.41891   1.46770   1.47456   1.49571   1.51575
 Alpha virt. eigenvalues --    1.54398   1.56194   1.57687   1.58768   1.59319
 Alpha virt. eigenvalues --    1.61653   1.62915   1.64205   1.64980   1.66514
 Alpha virt. eigenvalues --    1.67907   1.69908   1.71266   1.73056   1.76515
 Alpha virt. eigenvalues --    1.79539   1.83219   1.85564   1.87154   1.89544
 Alpha virt. eigenvalues --    1.92802   1.97358   2.00899   2.03893   2.07008
 Alpha virt. eigenvalues --    2.09865   2.14003   2.16088   2.18292   2.23254
 Alpha virt. eigenvalues --    2.27044   2.31972   2.35256   2.47599   2.51582
 Alpha virt. eigenvalues --    2.70251   2.71971   2.78267   2.84262   2.87258
 Alpha virt. eigenvalues --    2.92329   2.94182   2.97842   2.99851   3.04721
 Alpha virt. eigenvalues --    3.08835   3.12035   3.16394   3.21693   3.23077
 Alpha virt. eigenvalues --    3.27338   3.29177   3.33281   3.34291   3.36289
 Alpha virt. eigenvalues --    3.41004   3.42246   3.44402   3.49996   3.51102
 Alpha virt. eigenvalues --    3.51273   3.54978   3.58486   3.59286   3.60720
 Alpha virt. eigenvalues --    3.61710   3.64716   3.65759   3.66346   3.68707
 Alpha virt. eigenvalues --    3.72642   3.73974   3.75942   3.79343   3.84827
 Alpha virt. eigenvalues --    3.84992   3.89311   3.91887   3.93910   3.96477
 Alpha virt. eigenvalues --    3.97243   3.99243   4.00575   4.02139   4.03387
 Alpha virt. eigenvalues --    4.05648   4.06103   4.07662   4.07849   4.09038
 Alpha virt. eigenvalues --    4.10483   4.10897   4.15646   4.16888   4.17393
 Alpha virt. eigenvalues --    4.18111   4.21618   4.24095   4.24992   4.26001
 Alpha virt. eigenvalues --    4.27709   4.28956   4.30098   4.31073   4.34648
 Alpha virt. eigenvalues --    4.35838   4.36526   4.38869   4.39661   4.42215
 Alpha virt. eigenvalues --    4.43061   4.43474   4.44205   4.47053   4.49778
 Alpha virt. eigenvalues --    4.50121   4.54594   4.55646   4.56050   4.59152
 Alpha virt. eigenvalues --    4.59924   4.61219   4.63925   4.64676   4.68221
 Alpha virt. eigenvalues --    4.70544   4.72148   4.73728   4.74092   4.75818
 Alpha virt. eigenvalues --    4.81692   4.82123   4.86119   4.88401   4.89259
 Alpha virt. eigenvalues --    4.92309   4.93612   4.96377   4.98987   4.99464
 Alpha virt. eigenvalues --    4.99741   5.00531   5.00674   5.02807   5.04343
 Alpha virt. eigenvalues --    5.06600   5.06832   5.08422   5.12643   5.19381
 Alpha virt. eigenvalues --    5.20805   5.23464   5.26179   5.27423   5.33356
 Alpha virt. eigenvalues --    5.34179   5.37441   5.38950   5.40368   5.49135
 Alpha virt. eigenvalues --    5.51962   5.55632   5.58189   5.58410   5.61786
 Alpha virt. eigenvalues --    5.63625   5.71738   5.76477   5.79520   5.85575
 Alpha virt. eigenvalues --    5.88500   5.90462   5.98653   6.01196   6.03443
 Alpha virt. eigenvalues --    6.05172   6.13768   6.22414   6.22735   6.23487
 Alpha virt. eigenvalues --    6.26110   6.33134   6.34732   6.72455   6.74040
 Alpha virt. eigenvalues --    6.76619   6.86152   6.94339   7.04619   7.73577
 Alpha virt. eigenvalues --   10.52016  10.77170  11.19533  11.26139  11.27173
 Alpha virt. eigenvalues --   11.32159  11.37857  11.39641  12.39545  12.88913
 Alpha virt. eigenvalues --   12.95625  13.08384  13.59511  14.54031  17.73942
 Alpha virt. eigenvalues --   18.30504  27.89462
          Condensed to atoms (all electrons):
               1          2          3          4          5          6
     1  N    6.149353   0.288524  -0.004480  -0.013962  -0.045074   0.003372
     2  C    0.288524   4.907197   0.364976   0.368645   0.347855  -0.105983
     3  H   -0.004480   0.364976   0.498012  -0.032652  -0.014170   0.004138
     4  H   -0.013962   0.368645  -0.032652   0.495920  -0.017179   0.005425
     5  N   -0.045074   0.347855  -0.014170  -0.017179   5.146263   0.504849
     6  O    0.003372  -0.105983   0.004138   0.005425   0.504849   8.011612
     7  N    0.331123  -0.041853   0.003991   0.003841  -0.000457   0.000027
     8  O   -0.001675  -0.106071   0.000612   0.001420   0.578188  -0.072026
     9  N    0.388357  -0.041077   0.001222   0.003415   0.000475   0.000012
    10  C   -0.113614   0.006338   0.000781   0.000071   0.000316   0.000012
    11  N   -0.004775  -0.000013  -0.000011   0.000003   0.000000  -0.000000
    12  O    0.001241   0.000007   0.000002  -0.000000   0.000000   0.000000
    13  O    0.000066   0.000001   0.000000  -0.000000  -0.000000   0.000000
    14  N   -0.100229   0.005864  -0.000303   0.000311   0.000028  -0.000002
               7          8          9         10         11         12
     1  N    0.331123  -0.001675   0.388357  -0.113614  -0.004775   0.001241
     2  C   -0.041853  -0.106071  -0.041077   0.006338  -0.000013   0.000007
     3  H    0.003991   0.000612   0.001222   0.000781  -0.000011   0.000002
     4  H    0.003841   0.001420   0.003415   0.000071   0.000003  -0.000000
     5  N   -0.000457   0.578188   0.000475   0.000316   0.000000   0.000000
     6  O    0.000027  -0.072026   0.000012   0.000012  -0.000000   0.000000
     7  N    6.523242   0.003383  -0.093244  -0.117747  -0.001580  -0.000043
     8  O    0.003383   7.917231   0.001108   0.002501   0.000001   0.000000
     9  N   -0.093244   0.001108   6.547831   0.513093  -0.007971   0.003394
    10  C   -0.117747   0.002501   0.513093   4.551535   0.326573  -0.096079
    11  N   -0.001580   0.000001  -0.007971   0.326573   5.253291   0.535685
    12  O   -0.000043   0.000000   0.003394  -0.096079   0.535685   7.958644
    13  O    0.000647  -0.000000   0.002149  -0.095869   0.532433  -0.069687
    14  N    0.475691  -0.000291  -0.053479   0.489773  -0.017204   0.001905
              13         14
     1  N    0.000066  -0.100229
     2  C    0.000001   0.005864
     3  H    0.000000  -0.000303
     4  H   -0.000000   0.000311
     5  N   -0.000000   0.000028
     6  O    0.000000  -0.000002
     7  N    0.000647   0.475691
     8  O   -0.000000  -0.000291
     9  N    0.002149  -0.053479
    10  C   -0.095869   0.489773
    11  N    0.532433  -0.017204
    12  O   -0.069687   0.001905
    13  O    7.952818   0.001622
    14  N    0.001622   6.413721
 Mulliken charges:
               1
     1  N    0.121773
     2  C    0.005591
     3  H    0.177883
     4  H    0.184742
     5  N    0.498906
     6  O   -0.351437
     7  N   -0.087020
     8  O   -0.324381
     9  N   -0.265285
    10  C    0.532316
    11  N    0.383567
    12  O   -0.335068
    13  O   -0.324180
    14  N   -0.217408
 Sum of Mulliken charges =  -0.00000
 Mulliken charges with hydrogens summed into heavy atoms:
               1
     1  N    0.121773
     2  C    0.368216
     5  N    0.498906
     6  O   -0.351437
     7  N   -0.087020
     8  O   -0.324381
     9  N   -0.265285
    10  C    0.532316
    11  N    0.383567
    12  O   -0.335068
    13  O   -0.324180
    14  N   -0.217408
 Electronic spatial extent (au):  <R**2>=           2231.4966
 Charge=             -0.0000 electrons
 Dipole moment (field-independent basis, Debye):
    X=             -2.9140    Y=              0.2273    Z=             -3.2856  Tot=              4.3975
 Quadrupole moment (field-independent basis, Debye-Ang):
   XX=            -80.1525   YY=            -70.5097   ZZ=            -62.0037
   XY=             -0.7844   XZ=              4.5464   YZ=             -1.7952
 Traceless Quadrupole moment (field-independent basis, Debye-Ang):
   XX=             -9.2639   YY=              0.3789   ZZ=              8.8850
   XY=             -0.7844   XZ=              4.5464   YZ=             -1.7952
 Octapole moment (field-independent basis, Debye-Ang**2):
  XXX=             -6.1390  YYY=            -11.0189  ZZZ=             -1.7635  XYY=            -15.3654
  XXY=              8.3838  XXZ=            -17.6818  XZZ=             -0.6267  YZZ=             -0.8769
  YYZ=              0.4454  XYZ=             -5.4172
 Hexadecapole moment (field-independent basis, Debye-Ang**3):
 XXXX=          -2436.9885 YYYY=           -332.6917 ZZZZ=           -176.4014 XXXY=            -23.5723
 XXXZ=             -6.7972 YYYX=              8.3517 YYYZ=             -5.2482 ZZZX=              9.9597
 ZZZY=             -0.2838 XXYY=           -416.7793 XXZZ=           -368.1688 YYZZ=            -79.5097
 XXYZ=             -7.1026 YYXZ=              1.9934 ZZXY=             -4.7534
 N-N= 7.125317108688D+02 E-N=-3.079874192850D+03  KE= 7.029922785674D+02
 No NMR shielding tensors so no spin-rotation constants.
 Leave Link  601 at Tue Aug 24 19:52:06 2021, MaxMem= 24159191040 cpu:        17.9
 (Enter /public/home/users/caep010/software/Gaussian09/g09/l701.exe)
 Compute integral first derivatives.
 ... and contract with generalized density number  0.
 Leave Link  701 at Tue Aug 24 19:52:07 2021, MaxMem= 24159191040 cpu:        16.3
 (Enter /public/home/users/caep010/software/Gaussian09/g09/l702.exe)
 L702 exits ... SP integral derivatives will be done elsewhere.
 Leave Link  702 at Tue Aug 24 19:52:07 2021, MaxMem= 24159191040 cpu:         0.8
 (Enter /public/home/users/caep010/software/Gaussian09/g09/l703.exe)
 Compute integral first derivatives, UseDBF=F ICtDFT=           0.
 Integral derivatives from FoFJK, PRISM(SPDF).
 Calling FoFJK, ICntrl=      2127 FMM=F ISym2X=0 I1Cent= 0 IOpClX= 0 NMat=1 NMatS=1 NMatT=0.
 FoFJK:  IHMeth= 1 ICntrl=    2127 DoSepK=F KAlg= 0 I1Cent=   0 FoldK=F
 IRaf=         0 NMat=   1 IRICut=       1 DoRegI=T DoRafI=F ISym2E= 0.
 FoFCou: FMM=F IPFlag=           0 FMFlag=      100000 FMFlg1=         800
         NFxFlg=           0 DoJE=F BraDBF=F KetDBF=F FulRan=T
         wScrn=  0.000000 ICntrl=    2127 IOpCl=  0 I1Cent=           0 NGrid=           0
         NMat0=    1 NMatS0=      1 NMatT0=    0 NMatD0=    1 NMtDS0=    0 NMtDT0=    0
 Symmetry not used in FoFCou.
 Leave Link  703 at Tue Aug 24 19:52:13 2021, MaxMem= 24159191040 cpu:       174.4
 (Enter /public/home/users/caep010/software/Gaussian09/g09/l716.exe)
 Dipole        =-1.14647222D+00 8.94457702D-02-1.29264846D+00
 ***** Axes restored to original set *****
 -------------------------------------------------------------------
 Center     Atomic                   Forces (Hartrees/Bohr)
 Number     Number              X              Y              Z
 -------------------------------------------------------------------
      1        7          -0.004103758   -0.003536058   -0.002813993
      2        6           0.053532851    0.013427300    0.117780407
      3        1          -0.122830998   -0.038939677   -0.048768105
      4        1           0.069240251    0.016261971   -0.075887546
      5        7          -0.001229105    0.026106675   -0.001516340
      6        8          -0.001089777   -0.006475549   -0.006236694
      7        7           0.007605219   -0.001628224    0.000198692
      8        8           0.001657225   -0.005366811    0.014843434
      9        7          -0.008643531    0.005171915   -0.005271275
     10        6          -0.000266124   -0.002646694    0.004108559
     11        7          -0.000382725   -0.010859696    0.009202135
     12        8          -0.007887274    0.001823045   -0.002978311
     13        8           0.005487480    0.000504243    0.000332958
     14        7           0.008910267    0.006157560   -0.002993922
 -------------------------------------------------------------------
 Cartesian Forces:  Max     0.122830998 RMS     0.033954492
 Leave Link  716 at Tue Aug 24 19:52:13 2021, MaxMem= 24159191040 cpu:         0.9
 (Enter /public/home/users/caep010/software/Gaussian09/g09/l103.exe)

 GradGradGradGradGradGradGradGradGradGradGradGradGradGradGradGradGradGrad
 Berny optimization.
 FormGI is forming the generalized inverse of G from B-inverse, IUseBI=4.
 Internal  Forces:  Max     0.137712658 RMS     0.022781356
 Search for a local minimum.
 Step number   1 out of a maximum of   70
 All quantities printed in internal units (Hartrees-Bohrs-Radians)
 RMS Force = .22781D-01 SwitMx=.10000D-02 MixMth= 1
 Mixed Optimization -- RFO/linear search
 Second derivative matrix not updated -- first step.
 ITU=  0
     Eigenvalues ---    0.00332   0.00333   0.01144   0.01144   0.01297
     Eigenvalues ---    0.01699   0.01919   0.02337   0.02633   0.05687
     Eigenvalues ---    0.06877   0.09408   0.12894   0.22260   0.24990
     Eigenvalues ---    0.24997   0.24999   0.25000   0.25000   0.25000
     Eigenvalues ---    0.25000   0.25000   0.32087   0.39397   0.41009
     Eigenvalues ---    0.50603   0.52093   0.56793   0.57370   0.59009
     Eigenvalues ---    0.62242   0.65561   0.95532   0.96661   0.97237
     Eigenvalues ---    1.03193
 RFO step:  Lambda=-5.24161911D-02 EMin= 3.32140236D-03
 Linear search not attempted -- first point.
 Iteration  1 RMS(Cart)=  0.04023062 RMS(Int)=  0.00263753
 Iteration  2 RMS(Cart)=  0.00239281 RMS(Int)=  0.00006162
 Iteration  3 RMS(Cart)=  0.00000394 RMS(Int)=  0.00006152
 Iteration  4 RMS(Cart)=  0.00000000 RMS(Int)=  0.00006152
 ITry= 1 IFail=0 DXMaxC= 1.75D-01 DCOld= 1.00D+10 DXMaxT= 3.00D-01 DXLimC= 3.00D+00 Rises=F
 Variable       Old X    -DE/DX   Delta X   Delta X   Delta X     New X
                                 (Linear)    (Quad)   (Total)
    R1        2.70206   0.00350   0.00000   0.00757   0.00757   2.70963
    R2        2.51349   0.00750   0.00000   0.01075   0.01074   2.52423
    R3        2.50020   0.00221   0.00000   0.00306   0.00305   2.50325
    R4        1.79784   0.13771   0.00000   0.21995   0.21995   2.01779
    R5        1.84511   0.10397   0.00000   0.18134   0.18134   2.02644
    R6        2.83985   0.01589   0.00000   0.04256   0.04256   2.88242
    R7        2.30483  -0.00092   0.00000  -0.00091  -0.00091   2.30392
    R8        2.27387   0.01464   0.00000   0.01351   0.01351   2.28737
    R9        2.45990   0.00050   0.00000   0.00042   0.00041   2.46031
   R10        2.47546   0.01035   0.00000   0.01553   0.01554   2.49100
   R11        2.72381   0.01108   0.00000   0.02483   0.02483   2.74864
   R12        2.52907   0.01106   0.00000   0.01831   0.01832   2.54739
   R13        2.29766   0.00684   0.00000   0.00668   0.00668   2.30434
   R14        2.30007   0.00417   0.00000   0.00410   0.00410   2.30416
    A1        2.12429   0.00137   0.00000   0.00541   0.00541   2.12970
    A2        2.16697  -0.00263   0.00000  -0.00783  -0.00782   2.15914
    A3        1.99142   0.00125   0.00000   0.00228   0.00226   1.99368
    A4        1.93135  -0.00325   0.00000  -0.01602  -0.01610   1.91525
    A5        1.90340   0.00099   0.00000   0.00906   0.00901   1.91241
    A6        1.91906   0.00505   0.00000   0.02103   0.02097   1.94003
    A7        1.99879  -0.00096   0.00000  -0.01258  -0.01259   1.98620
    A8        1.84286   0.00097   0.00000   0.00888   0.00894   1.85180
    A9        1.86568  -0.00243   0.00000  -0.00851  -0.00863   1.85705
   A10        2.00615  -0.00906   0.00000  -0.02987  -0.03008   1.97608
   A11        2.07862  -0.00226   0.00000  -0.00738  -0.00758   2.07103
   A12        2.19837   0.01134   0.00000   0.03759   0.03738   2.23575
   A13        1.85063   0.00075   0.00000  -0.00065  -0.00068   1.84994
   A14        1.74600   0.00041   0.00000   0.00288   0.00289   1.74890
   A15        2.14513  -0.00064   0.00000  -0.00332  -0.00334   2.14180
   A16        2.00250  -0.00362   0.00000  -0.00948  -0.00947   1.99303
   A17        2.13551   0.00426   0.00000   0.01286   0.01285   2.14835
   A18        2.05046  -0.00528   0.00000  -0.01745  -0.01745   2.03301
   A19        2.03250  -0.00152   0.00000  -0.00501  -0.00501   2.02748
   A20        2.20023   0.00679   0.00000   0.02246   0.02246   2.22269
   A21        1.83419   0.00122   0.00000   0.00503   0.00503   1.83922
    D1        2.80942  -0.00210   0.00000  -0.01770  -0.01763   2.79178
    D2        0.59571   0.00073   0.00000   0.00331   0.00336   0.59907
    D3       -1.44468   0.00020   0.00000  -0.00371  -0.00383  -1.44851
    D4       -0.36852  -0.00243   0.00000  -0.02258  -0.02252  -0.39104
    D5       -2.58222   0.00040   0.00000  -0.00158  -0.00152  -2.58375
    D6        1.66057  -0.00013   0.00000  -0.00860  -0.00871   1.65186
    D7        3.11755  -0.00080   0.00000  -0.01030  -0.01032   3.10723
    D8        0.00891  -0.00043   0.00000  -0.00566  -0.00566   0.00325
    D9       -3.11374   0.00055   0.00000   0.00790   0.00787  -3.10587
   D10       -0.00601   0.00026   0.00000   0.00342   0.00341  -0.00260
   D11        3.01157   0.00217   0.00000   0.02669   0.02661   3.03818
   D12       -0.12001   0.00020   0.00000  -0.00855  -0.00862  -0.12863
   D13       -1.18764   0.00152   0.00000   0.02382   0.02388  -1.16376
   D14        1.96396  -0.00044   0.00000  -0.01142  -0.01135   1.95261
   D15        0.94774  -0.00035   0.00000   0.00943   0.00943   0.95718
   D16       -2.18384  -0.00231   0.00000  -0.02581  -0.02580  -2.20963
   D17       -0.00739   0.00040   0.00000   0.00510   0.00510  -0.00229
   D18        3.13280   0.00050   0.00000   0.00639   0.00634   3.13915
   D19        0.00099   0.00002   0.00000   0.00006   0.00006   0.00105
   D20       -0.00670  -0.00013   0.00000  -0.00170  -0.00172  -0.00842
   D21        3.13550  -0.00024   0.00000  -0.00341  -0.00342   3.13208
   D22        3.12438   0.00034   0.00000   0.00497   0.00499   3.12937
   D23       -0.01661   0.00023   0.00000   0.00327   0.00328  -0.01333
   D24        0.00420  -0.00027   0.00000  -0.00339  -0.00339   0.00080
   D25       -3.12768  -0.00072   0.00000  -0.00958  -0.00960  -3.13728
         Item               Value     Threshold  Converged?
 Maximum Force            0.137713     0.000450     NO 
 RMS     Force            0.022781     0.000300     NO 
 Maximum Displacement     0.174647     0.001800     NO 
 RMS     Displacement     0.041613     0.001200     NO 
 Predicted change in Energy=-2.864425D-02
 Lowest energy point so far.  Saving SCF results.
 GradGradGradGradGradGradGradGradGradGradGradGradGradGradGradGradGradGrad

 Leave Link  103 at Tue Aug 24 19:52:13 2021, MaxMem= 24159191040 cpu:         3.7
 (Enter /public/home/users/caep010/software/Gaussian09/g09/l202.exe)
                          Input orientation:                          
 ---------------------------------------------------------------------
 Center     Atomic      Atomic             Coordinates (Angstroms)
 Number     Number       Type             X           Y           Z
 ---------------------------------------------------------------------
      1          7           0        6.368684    0.489334   -1.933870
      2          6           0        5.870339    1.469408   -2.854252
      3          1           0        4.908481    1.173027   -3.210780
      4          1           0        6.589994    1.629660   -3.632933
      5          7           0        5.670458    2.817134   -2.168506
      6          8           0        5.357114    3.707395   -2.940293
      7          7           0        7.667979    0.389252   -1.640480
      8          8           0        5.805761    2.883156   -0.967481
      9          7           0        5.594902   -0.357174   -1.270983
     10          6           0        6.501634   -0.988376   -0.551944
     11          7           0        6.164190   -2.051912    0.381141
     12          8           0        4.982084   -2.334800    0.478847
     13          8           0        7.098329   -2.560898    0.976987
     14          7           0        7.763552   -0.559606   -0.754151
 ---------------------------------------------------------------------
                    Distance matrix (angstroms):
                    1          2          3          4          5
     1  N    0.000000
     2  C    1.433874   0.000000
     3  H    2.056727   1.067767   0.000000
     4  H    2.058188   1.072346   1.792823   0.000000
     5  N    2.441562   1.525308   2.090462   2.097662   0.000000
     6  O    3.520238   2.297693   2.587945   2.513310   1.219182
     7  N    1.335763   2.423115   3.270317   2.582738   3.188026
     8  O    2.642191   2.358550   2.960075   3.048099   1.210424
     9  N    1.324663   2.432901   2.564273   3.242919   3.299619
    10  C    2.027565   3.426347   3.778783   4.044059   4.217348
    11  N    3.443693   4.791013   4.987878   5.463339   5.518340
    12  O    3.964795   5.135226   5.091524   5.933722   5.833075
    13  O    4.278947   5.694710   6.022875   6.250644   6.391883
    14  N    2.106577   3.480169   4.145898   3.802303   4.217086
                    6          7          8          9         10
     6  O    0.000000
     7  N    4.247315   0.000000
     8  O    2.184638   3.184390   0.000000
     9  N    4.400439   2.234128   3.261336   0.000000
    10  C    5.391141   2.107872   3.955461   1.318179   0.000000
    11  N    6.697232   3.508221   5.128562   2.434284   1.454519
    12  O    6.952647   4.373333   5.476986   2.710804   2.276933
    13  O    7.593972   3.984848   5.923632   3.488562   2.272994
    14  N    5.364462   1.301938   3.966241   2.238557   1.348023
                   11         12         13         14
    11  N    0.000000
    12  O    1.219404   0.000000
    13  O    1.219310   2.185808   0.000000
    14  N    2.464513   3.522522   2.728467   0.000000
 Stoichiometry    C2H2N6O4
 Framework group  C1[X(C2H2N6O4)]
 Deg. of freedom    36
 Full point group                 C1      NOp   1
 RotChk:  IX=0 Diff= 1.23D-02
 Largest Abelian subgroup         C1      NOp   1
 Largest concise Abelian subgroup C1      NOp   1
                         Standard orientation:                         
 ---------------------------------------------------------------------
 Center     Atomic      Atomic             Coordinates (Angstroms)
 Number     Number       Type             X           Y           Z
 ---------------------------------------------------------------------
      1          7           0       -0.562968    0.341121   -0.547203
      2          6           0       -1.916821    0.064043   -0.929701
      3          1           0       -1.943287   -0.791679   -1.567795
      4          1           0       -2.354137    0.941508   -1.364139
      5          7           0       -2.770993   -0.286957    0.284282
      6          8           0       -3.953640   -0.417522    0.018378
      7          7           0       -0.186026    1.540026   -0.094650
      8          8           0       -2.226517   -0.427706    1.356131
      9          7           0        0.405566   -0.562407   -0.564887
     10          6           0        1.405464    0.157897   -0.096952
     11          7           0        2.743113   -0.381854    0.090104
     12          8           0        2.901771   -1.555144   -0.201725
     13          8           0        3.580213    0.393023    0.520852
     14          7           0        1.078586    1.432545    0.195605
 ---------------------------------------------------------------------
 Rotational constants (GHZ):      2.8128417      0.4848814      0.4583980
 Leave Link  202 at Tue Aug 24 19:52:14 2021, MaxMem= 24159191040 cpu:         0.2
 (Enter /public/home/users/caep010/software/Gaussian09/g09/l301.exe)
 Standard basis: GTBas3 (6D, 7F)
 Ernie: Thresh=  0.10000D-02 Tol=  0.10000D-05 Strict=F.
 There are   382 symmetry adapted cartesian basis functions of A   symmetry.
 There are   346 symmetry adapted basis functions of A   symmetry.
   346 basis functions,   542 primitive gaussians,   382 cartesian basis functions
    44 alpha electrons       44 beta electrons
       nuclear repulsion energy       707.1057498322 Hartrees.
 IExCor=  402 DFT=T Ex+Corr=B3LYP ExCW=0 ScaHFX=  0.200000
 ScaDFX=  0.800000  0.720000  1.000000  0.810000 ScalE2=  1.000000  1.000000
 IRadAn=      0 IRanWt=     -1 IRanGd=            0 ICorTp=0 IEmpDi=  4
 NAtoms=   14 NActive=   14 NUniq=   14 SFac= 1.00D+00 NAtFMM=   60 NAOKFM=F Big=F
 Integral buffers will be    131072 words long.
 Raffenetti 2 integral format.
 Two-electron integral symmetry is turned on.
 Leave Link  301 at Tue Aug 24 19:52:14 2021, MaxMem= 24159191040 cpu:         1.7
 (Enter /public/home/users/caep010/software/Gaussian09/g09/l302.exe)
 NPDir=0 NMtPBC=     1 NCelOv=     1 NCel=       1 NClECP=     1 NCelD=      1
         NCelK=      1 NCelE2=     1 NClLst=     1 CellRange=     0.0.
 One-electron integrals computed using PRISM.
 NBasis=   346 RedAO= T EigKep=  1.29D-04  NBF=   346
 NBsUse=   346 1.00D-06 EigRej= -1.00D+00 NBFU=   346
 Precomputing XC quadrature grid using
 IXCGrd= 4 IRadAn=           0 IRanWt=          -1 IRanGd=           0 AccXCQ= 0.00D+00.
 Generated NRdTot=       0 NPtTot=           0 NUsed=           0 NTot=          32
 NSgBfM=   380   380   380   380   380 MxSgAt=    14 MxSgA2=    14.
 Leave Link  302 at Tue Aug 24 19:52:14 2021, MaxMem= 24159191040 cpu:        16.9
 (Enter /public/home/users/caep010/software/Gaussian09/g09/l303.exe)
 DipDrv:  MaxL=1.
 Leave Link  303 at Tue Aug 24 19:52:14 2021, MaxMem= 24159191040 cpu:         1.0
 (Enter /public/home/users/caep010/software/Gaussian09/g09/l401.exe)
 Initial guess from the checkpoint file:  "/public/home/users/caep010/.cache/gau_scr/Gau-117616.chk"
 B after Tr=     0.000000   -0.000000    0.000000
         Rot=    0.999988   -0.004733    0.000442    0.001186 Ang=  -0.56 deg.
 Guess basis will be translated and rotated to current coordinates.
 JPrj=2 DoOrth=T DoCkMO=T.
 Generating alternative initial guess.
 ExpMin= 1.61D-01 ExpMax= 5.48D+03 ExpMxC= 8.25D+02 IAcc=1 IRadAn=         1 AccDes= 0.00D+00
 Harris functional with IExCor=  402 and IRadAn=       1 diagonalized for initial guess.
 HarFok:  IExCor=  402 AccDes= 0.00D+00 IRadAn=         1 IDoV= 1 UseB2=F ITyADJ=14
 ICtDFT=  3500011 ScaDFX=  1.000000  1.000000  1.000000  1.000000
 FoFCou: FMM=F IPFlag=           0 FMFlag=      100000 FMFlg1=           0
         NFxFlg=           0 DoJE=T BraDBF=F KetDBF=T FulRan=T
         wScrn=  0.000000 ICntrl=     500 IOpCl=  0 I1Cent=   200000004 NGrid=           0
         NMat0=    1 NMatS0=      1 NMatT0=    0 NMatD0=    1 NMtDS0=    0 NMtDT0=    0
 Petite list used in FoFCou.
 Harris En= -706.575990720543    
 Leave Link  401 at Tue Aug 24 19:52:15 2021, MaxMem= 24159191040 cpu:        23.7
 (Enter /public/home/users/caep010/software/Gaussian09/g09/l502.exe)
 Closed shell SCF:
 Using DIIS extrapolation, IDIIS=  1040.
 Integral symmetry usage will be decided dynamically.
 Keep R1 ints in memory in canonical form, NReq=1830452538.
 IVT=      471290 IEndB=      471290 NGot= 24159191040 MDV= 22356829255
 LenX= 22356829255 LenY= 22356682890
 Requested convergence on RMS density matrix=1.00D-08 within 128 cycles.
 Requested convergence on MAX density matrix=1.00D-06.
 Requested convergence on             energy=1.00D-06.
 No special actions if energy rises.
 FoFCou: FMM=F IPFlag=           0 FMFlag=           0 FMFlg1=           0
         NFxFlg=           0 DoJE=F BraDBF=F KetDBF=F FulRan=T
         wScrn=  0.000000 ICntrl=     600 IOpCl=  0 I1Cent=           0 NGrid=           0
         NMat0=    1 NMatS0=  60031 NMatT0=    0 NMatD0=    1 NMtDS0=    0 NMtDT0=    0
 Symmetry not used in FoFCou.
 Integral accuracy reduced to 1.0D-05 until final iterations.

 Cycle   1  Pass 0  IDiag  1:
 E= -706.579907627716    
 DIIS: error= 3.85D-03 at cycle   1 NSaved=   1.
 NSaved= 1 IEnMin= 1 EnMin= -706.579907627716     IErMin= 1 ErrMin= 3.85D-03
 ErrMax= 3.85D-03  0.00D+00 EMaxC= 1.00D-01 BMatC= 6.69D-03 BMatP= 6.69D-03
 IDIUse=3 WtCom= 9.61D-01 WtEn= 3.85D-02
 Coeff-Com:  0.100D+01
 Coeff-En:   0.100D+01
 Coeff:      0.100D+01
 Gap=     1.135 Goal=   None    Shift=    0.000
 GapD=    1.135 DampG=2.000 DampE=1.000 DampFc=2.0000 IDamp=-1.
 RMSDP=3.65D-04 MaxDP=2.66D-02              OVMax= 2.82D-02

 Cycle   2  Pass 0  IDiag  1:
 E= -706.585723456141     Delta-E=       -0.005815828425 Rises=F Damp=F
 DIIS: error= 1.69D-03 at cycle   2 NSaved=   2.
 NSaved= 2 IEnMin= 2 EnMin= -706.585723456141     IErMin= 2 ErrMin= 1.69D-03
 ErrMax= 1.69D-03  0.00D+00 EMaxC= 1.00D-01 BMatC= 1.31D-03 BMatP= 6.69D-03
 IDIUse=3 WtCom= 9.83D-01 WtEn= 1.69D-02
 Coeff-Com:  0.222D+00 0.778D+00
 Coeff-En:   0.000D+00 0.100D+01
 Coeff:      0.218D+00 0.782D+00
 Gap=     0.202 Goal=   None    Shift=    0.000
 RMSDP=1.87D-04 MaxDP=1.64D-02 DE=-5.82D-03 OVMax= 1.50D-02

 Cycle   3  Pass 0  IDiag  1:
 E= -706.585929016446     Delta-E=       -0.000205560305 Rises=F Damp=F
 DIIS: error= 1.43D-03 at cycle   3 NSaved=   3.
 NSaved= 3 IEnMin= 3 EnMin= -706.585929016446     IErMin= 3 ErrMin= 1.43D-03
 ErrMax= 1.43D-03  0.00D+00 EMaxC= 1.00D-01 BMatC= 1.25D-03 BMatP= 1.31D-03
 IDIUse=3 WtCom= 9.86D-01 WtEn= 1.43D-02
 Coeff-Com:  0.156D-01 0.491D+00 0.493D+00
 Coeff-En:   0.000D+00 0.460D+00 0.540D+00
 Coeff:      0.154D-01 0.491D+00 0.494D+00
 Gap=     0.204 Goal=   None    Shift=    0.000
 RMSDP=9.73D-05 MaxDP=6.54D-03 DE=-2.06D-04 OVMax= 7.54D-03

 Cycle   4  Pass 0  IDiag  1:
 E= -706.586865586982     Delta-E=       -0.000936570536 Rises=F Damp=F
 DIIS: error= 5.04D-04 at cycle   4 NSaved=   4.
 NSaved= 4 IEnMin= 4 EnMin= -706.586865586982     IErMin= 4 ErrMin= 5.04D-04
 ErrMax= 5.04D-04  0.00D+00 EMaxC= 1.00D-01 BMatC= 1.58D-04 BMatP= 1.25D-03
 IDIUse=3 WtCom= 9.95D-01 WtEn= 5.04D-03
 Coeff-Com: -0.450D-02 0.273D+00 0.325D+00 0.407D+00
 Coeff-En:   0.000D+00 0.000D+00 0.872D-02 0.991D+00
 Coeff:     -0.448D-02 0.272D+00 0.323D+00 0.410D+00
 Gap=     0.204 Goal=   None    Shift=    0.000
 RMSDP=3.43D-05 MaxDP=2.93D-03 DE=-9.37D-04 OVMax= 4.74D-03

 Cycle   5  Pass 0  IDiag  1:
 E= -706.586970243602     Delta-E=       -0.000104656620 Rises=F Damp=F
 DIIS: error= 2.06D-04 at cycle   5 NSaved=   5.
 NSaved= 5 IEnMin= 5 EnMin= -706.586970243602     IErMin= 5 ErrMin= 2.06D-04
 ErrMax= 2.06D-04  0.00D+00 EMaxC= 1.00D-01 BMatC= 1.91D-05 BMatP= 1.58D-04
 IDIUse=3 WtCom= 9.98D-01 WtEn= 2.06D-03
 Coeff-Com: -0.518D-02 0.120D+00 0.151D+00 0.276D+00 0.458D+00
 Coeff-En:   0.000D+00 0.000D+00 0.000D+00 0.109D+00 0.891D+00
 Coeff:     -0.517D-02 0.120D+00 0.151D+00 0.276D+00 0.458D+00
 Gap=     0.204 Goal=   None    Shift=    0.000
 RMSDP=1.37D-05 MaxDP=1.37D-03 DE=-1.05D-04 OVMax= 2.54D-03

 Cycle   6  Pass 0  IDiag  1:
 E= -706.586980834005     Delta-E=       -0.000010590403 Rises=F Damp=F
 DIIS: error= 1.00D-04 at cycle   6 NSaved=   6.
 NSaved= 6 IEnMin= 6 EnMin= -706.586980834005     IErMin= 6 ErrMin= 1.00D-04
 ErrMax= 1.00D-04  0.00D+00 EMaxC= 1.00D-01 BMatC= 5.70D-06 BMatP= 1.91D-05
 IDIUse=3 WtCom= 9.99D-01 WtEn= 1.00D-03
 Coeff-Com: -0.300D-02 0.335D-01 0.466D-01 0.125D+00 0.362D+00 0.436D+00
 Coeff-En:   0.000D+00 0.000D+00 0.000D+00 0.000D+00 0.267D+00 0.733D+00
 Coeff:     -0.299D-02 0.335D-01 0.466D-01 0.125D+00 0.362D+00 0.436D+00
 Gap=     0.204 Goal=   None    Shift=    0.000
 RMSDP=5.68D-06 MaxDP=5.83D-04 DE=-1.06D-05 OVMax= 1.00D-03

 Initial convergence to 1.0D-05 achieved.  Increase integral accuracy.
 Cycle   7  Pass 1  IDiag  1:
 E= -706.587038061817     Delta-E=       -0.000057227812 Rises=F Damp=F
 DIIS: error= 1.71D-05 at cycle   1 NSaved=   1.
 NSaved= 1 IEnMin= 1 EnMin= -706.587038061817     IErMin= 1 ErrMin= 1.71D-05
 ErrMax= 1.71D-05  0.00D+00 EMaxC= 1.00D-01 BMatC= 4.00D-07 BMatP= 4.00D-07
 IDIUse=1 WtCom= 1.00D+00 WtEn= 0.00D+00
 Coeff-Com:  0.100D+01
 Coeff:      0.100D+01
 Gap=     0.204 Goal=   None    Shift=    0.000
 RMSDP=5.68D-06 MaxDP=5.83D-04 DE=-5.72D-05 OVMax= 4.52D-04

 Cycle   8  Pass 1  IDiag  1:
 E= -706.587037227712     Delta-E=        0.000000834106 Rises=F Damp=F
 DIIS: error= 4.12D-05 at cycle   2 NSaved=   2.
 NSaved= 2 IEnMin= 1 EnMin= -706.587038061817     IErMin= 1 ErrMin= 1.71D-05
 ErrMax= 4.12D-05  0.00D+00 EMaxC= 1.00D-01 BMatC= 1.42D-06 BMatP= 4.00D-07
 IDIUse=1 WtCom= 1.00D+00 WtEn= 0.00D+00
 Coeff-Com:  0.675D+00 0.325D+00
 Coeff:      0.675D+00 0.325D+00
 Gap=     0.204 Goal=   None    Shift=    0.000
 RMSDP=3.31D-06 MaxDP=2.37D-04 DE= 8.34D-07 OVMax= 4.74D-04

 Cycle   9  Pass 1  IDiag  1:
 E= -706.587038313432     Delta-E=       -0.000001085720 Rises=F Damp=F
 DIIS: error= 1.36D-05 at cycle   3 NSaved=   3.
 NSaved= 3 IEnMin= 3 EnMin= -706.587038313432     IErMin= 3 ErrMin= 1.36D-05
 ErrMax= 1.36D-05  0.00D+00 EMaxC= 1.00D-01 BMatC= 9.44D-08 BMatP= 4.00D-07
 IDIUse=1 WtCom= 1.00D+00 WtEn= 0.00D+00
 Coeff-Com:  0.172D+00 0.205D+00 0.623D+00
 Coeff:      0.172D+00 0.205D+00 0.623D+00
 Gap=     0.204 Goal=   None    Shift=    0.000
 RMSDP=1.12D-06 MaxDP=8.74D-05 DE=-1.09D-06 OVMax= 1.73D-04

 Cycle  10  Pass 1  IDiag  1:
 E= -706.587038342939     Delta-E=       -0.000000029508 Rises=F Damp=F
 DIIS: error= 7.40D-06 at cycle   4 NSaved=   4.
 NSaved= 4 IEnMin= 4 EnMin= -706.587038342939     IErMin= 4 ErrMin= 7.40D-06
 ErrMax= 7.40D-06  0.00D+00 EMaxC= 1.00D-01 BMatC= 5.28D-08 BMatP= 9.44D-08
 IDIUse=1 WtCom= 1.00D+00 WtEn= 0.00D+00
 Coeff-Com:  0.197D-01 0.106D+00 0.493D+00 0.381D+00
 Coeff:      0.197D-01 0.106D+00 0.493D+00 0.381D+00
 Gap=     0.204 Goal=   None    Shift=    0.000
 RMSDP=6.08D-07 MaxDP=3.31D-05 DE=-2.95D-08 OVMax= 6.80D-05

 Cycle  11  Pass 1  IDiag  1:
 E= -706.587038385246     Delta-E=       -0.000000042307 Rises=F Damp=F
 DIIS: error= 1.92D-06 at cycle   5 NSaved=   5.
 NSaved= 5 IEnMin= 5 EnMin= -706.587038385246     IErMin= 5 ErrMin= 1.92D-06
 ErrMax= 1.92D-06  0.00D+00 EMaxC= 1.00D-01 BMatC= 2.36D-09 BMatP= 5.28D-08
 IDIUse=1 WtCom= 1.00D+00 WtEn= 0.00D+00
 Coeff-Com: -0.805D-02 0.422D-01 0.230D+00 0.235D+00 0.501D+00
 Coeff:     -0.805D-02 0.422D-01 0.230D+00 0.235D+00 0.501D+00
 Gap=     0.204 Goal=   None    Shift=    0.000
 RMSDP=1.47D-07 MaxDP=6.75D-06 DE=-4.23D-08 OVMax= 1.14D-05

 Cycle  12  Pass 1  IDiag  1:
 E= -706.587038387023     Delta-E=       -0.000000001777 Rises=F Damp=F
 DIIS: error= 5.65D-07 at cycle   6 NSaved=   6.
 NSaved= 6 IEnMin= 6 EnMin= -706.587038387023     IErMin= 6 ErrMin= 5.65D-07
 ErrMax= 5.65D-07  0.00D+00 EMaxC= 1.00D-01 BMatC= 1.82D-10 BMatP= 2.36D-09
 IDIUse=1 WtCom= 1.00D+00 WtEn= 0.00D+00
 Coeff-Com: -0.605D-02 0.231D-01 0.130D+00 0.138D+00 0.323D+00 0.393D+00
 Coeff:     -0.605D-02 0.231D-01 0.130D+00 0.138D+00 0.323D+00 0.393D+00
 Gap=     0.204 Goal=   None    Shift=    0.000
 RMSDP=4.52D-08 MaxDP=3.66D-06 DE=-1.78D-09 OVMax= 6.49D-06

 Cycle  13  Pass 1  IDiag  1:
 E= -706.587038387155     Delta-E=       -0.000000000132 Rises=F Damp=F
 DIIS: error= 3.16D-07 at cycle   7 NSaved=   7.
 NSaved= 7 IEnMin= 7 EnMin= -706.587038387155     IErMin= 7 ErrMin= 3.16D-07
 ErrMax= 3.16D-07  0.00D+00 EMaxC= 1.00D-01 BMatC= 5.41D-11 BMatP= 1.82D-10
 IDIUse=1 WtCom= 1.00D+00 WtEn= 0.00D+00
 Coeff-Com: -0.245D-02 0.652D-02 0.376D-01 0.435D-01 0.117D+00 0.331D+00
 Coeff-Com:  0.467D+00
 Coeff:     -0.245D-02 0.652D-02 0.376D-01 0.435D-01 0.117D+00 0.331D+00
 Coeff:      0.467D+00
 Gap=     0.204 Goal=   None    Shift=    0.000
 RMSDP=2.09D-08 MaxDP=1.53D-06 DE=-1.32D-10 OVMax= 2.80D-06

 Cycle  14  Pass 1  IDiag  1:
 E= -706.587038387207     Delta-E=       -0.000000000052 Rises=F Damp=F
 DIIS: error= 5.89D-08 at cycle   8 NSaved=   8.
 NSaved= 8 IEnMin= 8 EnMin= -706.587038387207     IErMin= 8 ErrMin= 5.89D-08
 ErrMax= 5.89D-08  0.00D+00 EMaxC= 1.00D-01 BMatC= 3.29D-12 BMatP= 5.41D-11
 IDIUse=1 WtCom= 1.00D+00 WtEn= 0.00D+00
 Coeff-Com:  0.254D-03-0.230D-02-0.125D-01-0.113D-01-0.204D-01 0.775D-01
 Coeff-Com:  0.247D+00 0.722D+00
 Coeff:      0.254D-03-0.230D-02-0.125D-01-0.113D-01-0.204D-01 0.775D-01
 Coeff:      0.247D+00 0.722D+00
 Gap=     0.204 Goal=   None    Shift=    0.000
 RMSDP=7.52D-09 MaxDP=3.41D-07 DE=-5.18D-11 OVMax= 1.08D-06

 SCF Done:  E(RB3LYP) =  -706.587038387     A.U. after   14 cycles
            NFock= 14  Conv=0.75D-08     -V/T= 2.0059
 KE= 7.024403780336D+02 PE=-3.068808193067D+03 EE= 9.526750268140D+02
 Leave Link  502 at Tue Aug 24 19:53:06 2021, MaxMem= 24159191040 cpu:       282.1
 (Enter /public/home/users/caep010/software/Gaussian09/g09/l701.exe)
 Compute integral first derivatives.
 ... and contract with generalized density number  0.
 Leave Link  701 at Tue Aug 24 19:53:07 2021, MaxMem= 24159191040 cpu:        15.6
 (Enter /public/home/users/caep010/software/Gaussian09/g09/l702.exe)
 L702 exits ... SP integral derivatives will be done elsewhere.
 Leave Link  702 at Tue Aug 24 19:53:07 2021, MaxMem= 24159191040 cpu:         0.5
 (Enter /public/home/users/caep010/software/Gaussian09/g09/l703.exe)
 Compute integral first derivatives, UseDBF=F ICtDFT=           0.
 Integral derivatives from FoFJK, PRISM(SPDF).
 Calling FoFJK, ICntrl=      2127 FMM=F ISym2X=0 I1Cent= 0 IOpClX= 0 NMat=1 NMatS=1 NMatT=0.
 FoFJK:  IHMeth= 1 ICntrl=    2127 DoSepK=F KAlg= 0 I1Cent=   0 FoldK=F
 IRaf=         0 NMat=   1 IRICut=       1 DoRegI=T DoRafI=F ISym2E= 0.
 FoFCou: FMM=F IPFlag=           0 FMFlag=      100000 FMFlg1=         800
         NFxFlg=           0 DoJE=F BraDBF=F KetDBF=F FulRan=T
         wScrn=  0.000000 ICntrl=    2127 IOpCl=  0 I1Cent=           0 NGrid=           0
         NMat0=    1 NMatS0=      1 NMatT0=    0 NMatD0=    1 NMtDS0=    0 NMtDT0=    0
 Symmetry not used in FoFCou.
 Leave Link  703 at Tue Aug 24 19:53:13 2021, MaxMem= 24159191040 cpu:       172.0
 (Enter /public/home/users/caep010/software/Gaussian09/g09/l716.exe)
 Dipole        =-1.13159160D+00 1.03487314D-01-1.26265538D+00
 ***** Axes restored to original set *****
 -------------------------------------------------------------------
 Center     Atomic                   Forces (Hartrees/Bohr)
 Number     Number              X              Y              Z
 -------------------------------------------------------------------
      1        7          -0.003850864    0.000284874   -0.003583365
      2        6           0.008536157   -0.001782498    0.017111069
      3        1          -0.011729437   -0.004329717   -0.006679256
      4        1           0.005590716    0.001921738   -0.009049434
      5        7          -0.004056307    0.005855648   -0.002852593
      6        8           0.001468524   -0.002359812    0.002859985
      7        7           0.003065104   -0.002720908    0.002397540
      8        8           0.000976954   -0.000180969    0.000659160
      9        7          -0.001592558    0.001704961   -0.000399392
     10        6           0.000271390    0.001864792   -0.000181155
     11        7           0.000306506   -0.003468791    0.002477187
     12        8           0.000221682    0.000124249   -0.000117593
     13        8          -0.001493027    0.000788582   -0.000798721
     14        7           0.002285160    0.002297850   -0.001843433
 -------------------------------------------------------------------
 Cartesian Forces:  Max     0.017111069 RMS     0.004519883
 Leave Link  716 at Tue Aug 24 19:53:13 2021, MaxMem= 24159191040 cpu:         0.6
 (Enter /public/home/users/caep010/software/Gaussian09/g09/l103.exe)

 GradGradGradGradGradGradGradGradGradGradGradGradGradGradGradGradGradGrad
 Berny optimization.
 Using GEDIIS/GDIIS optimizer.
 FormGI is forming the generalized inverse of G from B-inverse, IUseBI=4.
 Internal  Forces:  Max     0.013996630 RMS     0.002572180
 Search for a local minimum.
 Step number   2 out of a maximum of   70
 All quantities printed in internal units (Hartrees-Bohrs-Radians)
 RMS Force = .25722D-02 SwitMx=.10000D-02 MixMth= 1
 Mixed Optimization -- RFO/linear search
 Update second derivatives using D2CorX and points    1    2
 DE= -2.67D-02 DEPred=-2.86D-02 R= 9.32D-01
 TightC=F SS=  1.41D+00  RLast= 3.05D-01 DXNew= 5.0454D-01 9.1470D-01
 Trust test= 9.32D-01 RLast= 3.05D-01 DXMaxT set to 5.05D-01
 ITU=  1  0
 Use linear search instead of GDIIS.
     Eigenvalues ---    0.00332   0.00338   0.01144   0.01144   0.01297
     Eigenvalues ---    0.01700   0.01913   0.02338   0.02632   0.05516
     Eigenvalues ---    0.06813   0.09608   0.13030   0.22271   0.24961
     Eigenvalues ---    0.24994   0.24996   0.25000   0.25000   0.25000
     Eigenvalues ---    0.25000   0.25221   0.32015   0.39304   0.41005
     Eigenvalues ---    0.50653   0.51790   0.56198   0.56986   0.59058
     Eigenvalues ---    0.62278   0.65643   0.95583   0.96716   0.97262
     Eigenvalues ---    1.03198
 RFO step:  Lambda=-7.51306179D-04 EMin= 3.32140446D-03
 Quartic linear search produced a step of  0.16581.
 Iteration  1 RMS(Cart)=  0.02862915 RMS(Int)=  0.00100341
 Iteration  2 RMS(Cart)=  0.00099079 RMS(Int)=  0.00047545
 Iteration  3 RMS(Cart)=  0.00000117 RMS(Int)=  0.00047545
 Iteration  4 RMS(Cart)=  0.00000000 RMS(Int)=  0.00047545
 ITry= 1 IFail=0 DXMaxC= 7.63D-02 DCOld= 1.00D+10 DXMaxT= 5.05D-01 DXLimC= 3.00D+00 Rises=F
 Variable       Old X    -DE/DX   Delta X   Delta X   Delta X     New X
                                 (Linear)    (Quad)   (Total)
    R1        2.70963  -0.00219   0.00126  -0.00704  -0.00579   2.70384
    R2        2.52423   0.00344   0.00178   0.00536   0.00715   2.53137
    R3        2.50325  -0.00067   0.00051  -0.00155  -0.00102   2.50223
    R4        2.01779   0.01400   0.03647   0.00174   0.03821   2.05600
    R5        2.02644   0.01061   0.03007   0.00228   0.03235   2.05879
    R6        2.88242   0.00345   0.00706   0.00834   0.01540   2.89781
    R7        2.30392  -0.00391  -0.00015  -0.00465  -0.00480   2.29912
    R8        2.28737   0.00076   0.00224  -0.00096   0.00128   2.28865
    R9        2.46031  -0.00217   0.00007  -0.00398  -0.00393   2.45638
   R10        2.49100   0.00153   0.00258   0.00094   0.00352   2.49452
   R11        2.74864   0.00309   0.00412   0.00647   0.01058   2.75923
   R12        2.54739   0.00224   0.00304   0.00229   0.00531   2.55271
   R13        2.30434  -0.00025   0.00111  -0.00119  -0.00009   2.30425
   R14        2.30416  -0.00186   0.00068  -0.00279  -0.00211   2.30205
    A1        2.12970   0.00121   0.00090   0.00474   0.00542   2.13513
    A2        2.15914  -0.00108  -0.00130  -0.00482  -0.00632   2.15282
    A3        1.99368  -0.00014   0.00038  -0.00107  -0.00081   1.99288
    A4        1.91525  -0.00027  -0.00267  -0.00242  -0.00510   1.91015
    A5        1.91241   0.00108   0.00149   0.01534   0.01673   1.92913
    A6        1.94003   0.00040   0.00348   0.00565   0.00901   1.94905
    A7        1.98620  -0.00138  -0.00209  -0.02505  -0.02710   1.95910
    A8        1.85180   0.00033   0.00148   0.00237   0.00387   1.85567
    A9        1.85705  -0.00016  -0.00143   0.00416   0.00252   1.85957
   A10        1.97608   0.00124  -0.00499   0.00921   0.00212   1.97820
   A11        2.07103  -0.00107  -0.00126  -0.00340  -0.00675   2.06428
   A12        2.23575  -0.00015   0.00620  -0.00282   0.00127   2.23702
   A13        1.84994   0.00056  -0.00011   0.00204   0.00198   1.85193
   A14        1.74890  -0.00040   0.00048  -0.00115  -0.00057   1.74832
   A15        2.14180  -0.00080  -0.00055  -0.00358  -0.00424   2.13755
   A16        1.99303   0.00026  -0.00157   0.00235   0.00072   1.99375
   A17        2.14835   0.00054   0.00213   0.00131   0.00333   2.15168
   A18        2.03301  -0.00025  -0.00289   0.00028  -0.00262   2.03040
   A19        2.02748   0.00023  -0.00083   0.00147   0.00064   2.02812
   A20        2.22269   0.00002   0.00372  -0.00174   0.00198   2.22467
   A21        1.83922  -0.00028   0.00083  -0.00219  -0.00134   1.83788
    D1        2.79178  -0.00077  -0.00292  -0.04019  -0.04311   2.74867
    D2        0.59907   0.00042   0.00056  -0.01739  -0.01674   0.58234
    D3       -1.44851  -0.00030  -0.00063  -0.03538  -0.03611  -1.48461
    D4       -0.39104  -0.00127  -0.00373  -0.07633  -0.08007  -0.47111
    D5       -2.58375  -0.00008  -0.00025  -0.05353  -0.05369  -2.63744
    D6        1.65186  -0.00080  -0.00144  -0.07152  -0.07306   1.57879
    D7        3.10723  -0.00039  -0.00171  -0.02880  -0.03062   3.07662
    D8        0.00325   0.00009  -0.00094   0.00427   0.00336   0.00661
    D9       -3.10587   0.00036   0.00131   0.03058   0.03176  -3.07410
[...]
     1  N    6.166834   0.299284  -0.025076  -0.012921  -0.055193  -0.000795
     2  C    0.299284   5.020727   0.391226   0.382746   0.302484  -0.021038
     3  H   -0.025076   0.391226   0.398435  -0.017885  -0.022404  -0.004142
     4  H   -0.012921   0.382746  -0.017885   0.397604  -0.021373  -0.003950
     5  N   -0.055193   0.302484  -0.022404  -0.021373   5.517385   0.331168
     6  O   -0.000795  -0.021038  -0.004142  -0.003950   0.331168   8.199140
     7  N    0.176780  -0.024541   0.000856   0.000549   0.005247  -0.000515
     8  O    0.039446  -0.075494   0.002887   0.001112   0.381247  -0.089299
     9  N    0.270162  -0.037800   0.000854  -0.002079   0.006070  -0.001213
    10  C   -0.155042  -0.006762   0.000945   0.000235   0.001033   0.000209
    11  N    0.003309  -0.001368   0.000324   0.000000  -0.000073  -0.000105
    12  O    0.005087   0.000908   0.000119  -0.000062  -0.000491  -0.000020
    13  O    0.002361   0.000716  -0.000023   0.000001   0.000097   0.000002
    14  N   -0.038126  -0.007315  -0.000795   0.002124  -0.000091  -0.000576
               7          8          9         10         11         12
     1  N    0.176780   0.039446   0.270162  -0.155042   0.003309   0.005087
     2  C   -0.024541  -0.075494  -0.037800  -0.006762  -0.001368   0.000908
     3  H    0.000856   0.002887   0.000854   0.000945   0.000324   0.000119
     4  H    0.000549   0.001112  -0.002079   0.000235   0.000000  -0.000062
     5  N    0.005247   0.381247   0.006070   0.001033  -0.000073  -0.000491
     6  O   -0.000515  -0.089299  -0.001213   0.000209  -0.000105  -0.000020
     7  N    6.688670  -0.010865  -0.061198  -0.016002   0.007794  -0.001180
     8  O   -0.010865   8.118322  -0.011527   0.003099   0.000366   0.000155
     9  N   -0.061198  -0.011527   6.639457   0.548733  -0.030960  -0.016269
    10  C   -0.016002   0.003099   0.548733   4.606825   0.384853  -0.072215
    11  N    0.007794   0.000366  -0.030960   0.384853   5.389329   0.376407
    12  O   -0.001180   0.000155  -0.016269  -0.072215   0.376407   8.159055
    13  O   -0.000256  -0.000091   0.005163  -0.072118   0.387817  -0.094587
    14  N    0.317435   0.001620  -0.050025   0.404768  -0.022590   0.004716
              13         14
     1  N    0.002361  -0.038126
     2  C    0.000716  -0.007315
     3  H   -0.000023  -0.000795
     4  H    0.000001   0.002124
     5  N    0.000097  -0.000091
     6  O    0.000002  -0.000576
     7  N   -0.000256   0.317435
     8  O   -0.000091   0.001620
     9  N    0.005163  -0.050025
    10  C   -0.072118   0.404768
    11  N    0.387817  -0.022590
    12  O   -0.094587   0.004716
    13  O    8.138464  -0.014492
    14  N   -0.014492   6.656607
 Mulliken charges:
               1
     1  N    0.323890
     2  C   -0.223773
     3  H    0.274678
     4  H    0.273898
     5  N    0.554893
     6  O   -0.408866
     7  N   -0.082773
     8  O   -0.360978
     9  N   -0.259367
    10  C    0.371440
    11  N    0.504896
    12  O   -0.361623
    13  O   -0.353054
    14  N   -0.253261
 Sum of Mulliken charges =  -0.00000
 Mulliken charges with hydrogens summed into heavy atoms:
               1
     1  N    0.323890
     2  C    0.324803
     5  N    0.554893
     6  O   -0.408866
     7  N   -0.082773
     8  O   -0.360978
     9  N   -0.259367
    10  C    0.371440
    11  N    0.504896
    12  O   -0.361623
    13  O   -0.353054
    14  N   -0.253261
 Electronic spatial extent (au):  <R**2>=           2239.8787
 Charge=             -0.0000 electrons
 Dipole moment (field-independent basis, Debye):
    X=             -3.0050    Y=              1.5651    Z=             -3.6621  Tot=              4.9891
 Quadrupole moment (field-independent basis, Debye-Ang):
   XX=            -85.1125   YY=            -72.6553   ZZ=            -64.6052
   XY=             -3.1437   XZ=              5.3024   YZ=             -2.4899
 Traceless Quadrupole moment (field-independent basis, Debye-Ang):
   XX=            -10.9881   YY=              1.4690   ZZ=              9.5191
   XY=             -3.1437   XZ=              5.3024   YZ=             -2.4899
 Octapole moment (field-independent basis, Debye-Ang**2):
  XXX=             -6.1449  YYY=             -9.7898  ZZZ=             -4.2226  XYY=            -15.5160
  XXY=             19.5284  XXZ=            -19.6004  XZZ=             -2.0291  YZZ=             -0.5729
  YYZ=             -0.6488  XYZ=             -6.3703
 Hexadecapole moment (field-independent basis, Debye-Ang**3):
 XXXX=          -2542.7154 YYYY=           -380.9258 ZZZZ=           -188.2007 XXXY=            -44.1161
 XXXZ=             -8.0842 YYYX=              5.3568 YYYZ=             -7.9132 ZZZX=             13.5799
 ZZZY=              0.6318 XXYY=           -437.9095 XXZZ=           -382.1764 YYZZ=            -90.7892
 XXYZ=            -10.3523 YYXZ=              6.2663 ZZXY=             -5.5894
 N-N= 7.076319815687D+02 E-N=-3.066754716652D+03  KE= 7.017442132058D+02
 No NMR shielding tensors so no spin-rotation constants.
 Leave Link  601 at Wed Aug 25 00:19:20 2021, MaxMem= 24159191040 cpu:        40.4
 (Enter /public/home/users/caep010/software/Gaussian09/g09/l9999.exe)
 1\1\GINC-B1368\SP\RHF\GFHFB2\C2H2N6O4\ROOT\25-Aug-2021\0\\#P Geom=AllC
 heck Guess=TCheck SCRF=Check HF/GFHFB2 SCF=Tight\\SAQZAK\\0,1\N,0,6.39
 95218692,0.4673584747,-1.9822170427\C,0,5.9158049733,1.4754210287,-2.8
 667835977\H,0,4.982955057,1.1650345396,-3.3319022531\H,0,6.6795961462,
 1.7156414496,-3.6037791912\N,0,5.6120845757,2.7807812004,-2.1197127868
 \O,0,5.1604384979,3.6563445502,-2.830878275\N,0,7.7086141132,0.2972540
 524,-1.7316672168\O,0,5.845007696,2.826635208,-0.9316692029\N,0,5.6070
 116695,-0.309764219,-1.2600016724\C,0,6.5035317036,-0.9743544389,-0.55
 8621917\N,0,6.1383907218,-2.0021299532,0.4128049357\O,0,4.9480213384,-
 2.23523667,0.5325765185\O,0,7.0599537492,-2.5283995425,1.0095579392\N,
 0,7.782567889,-0.62898568,-0.8264062379\\Version=ES64L-G09RevE.01\Stat
 e=1-A\HF=-703.0121393\RMSD=8.522e-09\Dipole=-0.0324416,0.2561952,-1.94
 58014\Quadrupole=0.2120752,-7.8060536,7.5939784,2.1974193,-0.1880047,4
 .3877529\PG=C01 [X(C2H2N6O4)]\\@


 KNOWLEDGE IS EXPERIMENT'S DAUGHTER.
 -- LEONARDO DA VINCI, IN "PENSIERI" CA. 1492
 Diagonal vibrational polarizability:
        0.0000000       0.0000000       0.0000000

 Temperature=              298.150000 Pressure=                      1.000000
 E(ZPE)=                     0.079284 E(Thermal)=                    0.089080
 E(CCSD(T))=              -704.765023 E(Empiric)=                   -0.222304
 DE(Plus)=                  -0.053253 DE(2DF)=                      -0.462252
 E(Delta-G3XP)=             -0.823393 DE(HF)=                       -0.070423
 G4(0 K)=                 -706.317363 G4 Energy=                  -706.307568
 G4 Enthalpy=             -706.306624 G4 Free Energy=             -706.355376
 1\1\GINC-B1368\Mixed\G4\G4\C2H2N6O4\ROOT\25-Aug-2021\0\\#P Geom=AllChe
 ck Guess=TCheck SCRF=Check HF/GFHFB2 SCF=Tight\\SAQZAK\\0,1\N,0,6.3995
 218692,0.4673584747,-1.9822170427\C,0,5.9158049733,1.4754210287,-2.866
 7835977\H,0,4.982955057,1.1650345396,-3.3319022531\H,0,6.6795961462,1.
 7156414496,-3.6037791912\N,0,5.6120845757,2.7807812004,-2.1197127868\O
 ,0,5.1604384979,3.6563445502,-2.830878275\N,0,7.7086141132,0.297254052
 4,-1.7316672168\O,0,5.845007696,2.826635208,-0.9316692029\N,0,5.607011
 6695,-0.309764219,-1.2600016724\C,0,6.5035317036,-0.9743544389,-0.5586
 21917\N,0,6.1383907218,-2.0021299532,0.4128049357\O,0,4.9480213384,-2.
 23523667,0.5325765185\O,0,7.0599537492,-2.5283995425,1.0095579392\N,0,
 7.782567889,-0.62898568,-0.8264062379\\Version=ES64L-G09RevE.01\State=
 1-A\MP2/GTBas1=-704.6915019\MP4/GTBas1=-704.7949602\CCSD(T)/G3Bas1=-70
 4.7650226\MP2/GTBas2=-704.7407058\MP4/GTBas2=-704.8482127\MP2/GTBas3=-
 705.1265594\MP4/GTBas3=-705.2572122\HF/GTLargeXP=-702.9444169\MP2/GTLa
 rgeXP=-705.9991564\HF/GFHFB1=-703.0010554\HF/GFHFB2=-703.0121393\G4=-7
 06.3173634\FreqCoord=12.0933437142,0.8831795231,-3.7458473466,11.17925
 12551,2.788141675,-5.4174358818,9.4164203902,2.2015962151,-6.296382759
 9,12.6226073947,3.2420924819,-6.8101557148,10.6053028827,5.2549149043,
 -4.0056766475,9.7518154866,6.9094898473,-5.3495846552,14.567169538,0.5
 61728751,-3.2723767931,11.04546379,5.3415664206,-1.76059964,10.5957164
 792,-0.5853695396,-2.3810580877,12.2898938163,-1.8412630459,-1.0556424
 35,11.5998773608,-3.7834772941,0.7800882749,9.3504052293,-4.2239851485
 ,1.0064237647,13.3413790969,-4.7779826898,1.9077880204,14.7069219207,-
 1.1886106767,-1.5616814641\PG=C01 [X(C2H2N6O4)]\NImag=0\\0.56524099,-0
 .03452455,0.54264820,0.04217482,-0.34311153,0.47341426,-0.12882921,0.0
 2698372,-0.03060391,0.64859334,0.02076369,-0.13817873,0.07786025,0.069
 83099,0.40019154,-0.02830488,0.08193203,-0.13920396,0.01167365,-0.0880
 8550,0.54551060,-0.01049572,-0.00050631,-0.00405625,-0.26219010,-0.071
 62071,-0.10571738,0.27606142,0.02945742,0.00439485,0.01491014,-0.07734
 462,-0.07081661,-0.03413357,0.07160246,0.08199956,-0.02277916,-0.00189
 199,-0.00960795,-0.09812023,-0.02979273,-0.09356905,0.11372342,0.03593
 693,0.10307007,0.01153847,0.00447717,-0.01160529,-0.19537234,-0.047324
 06,0.13984419,-0.01323821,-0.00421026,0.01780937,0.19899823,-0.0196523
 8,-0.01035926,0.02048715,-0.04144667,-0.05920550,0.04318077,-0.0049883
 2,-0.00045193,0.00617152,0.04472381,0.07276056,0.01566217,0.00942242,-
 0.01539084,0.12986300,0.04490582,-0.17187287,-0.00978223,-0.00291696,0
 .01248148,-0.14556540,-0.04857913,0.18903656,-0.00690550,0.01515778,0.
 00041381,-0.09387904,-0.01121360,0.00761615,0.00904697,-0.02469656,-0.
 01715344,-0.00089067,0.02441714,0.01475261,0.33644162,0.01495453,-0.03
 834316,0.00818338,-0.01148783,-0.07172282,-0.00974455,0.00452722,-0.01
 156795,-0.01113423,-0.00026031,0.00371819,-0.00035450,-0.16343015,0.64
 129943,-0.00505303,0.01730310,0.01510914,0.00881815,-0.01123951,-0.076
 99834,0.00227561,-0.01405673,-0.01110984,0.00340767,-0.02225174,-0.015
 98549,0.18395397,-0.11411567,0.93188351,0.00188169,0.00410885,0.000401
 19,0.00944178,0.02158603,-0.00938975,-0.00016998,0.00269473,0.00175140
 ,0.00042322,-0.00268030,-0.00236621,-0.14882933,0.14711232,-0.10190383
 ,0.12396769,0.00471476,-0.00983952,-0.00296155,0.02476353,-0.04104497,
 0.02082395,0.00007793,0.00076211,0.00255000,0.00061626,-0.00094210,0.0
 0089977,0.14833035,-0.39366039,0.18559479,-0.18744362,0.42139130,0.000
 86535,-0.00249896,0.00020338,-0.00370627,0.00429296,0.00875259,0.00124
 361,0.00008280,0.00106361,-0.00071360,0.00042475,0.00196938,-0.0996197
 1,0.17897120,-0.25579442,0.14590481,-0.24738894,0.31636248,-0.20638195
 ,-0.03233994,0.03092677,-0.00455287,0.01644817,-0.01395873,0.00131519,
 -0.00314992,0.00323282,0.00066122,-0.00146275,0.00126339,0.00028814,-0
 .00070047,0.00241187,0.00122102,-0.00406683,-0.00039349,0.43584228,0.0
 0086284,-0.08784357,0.00828304,0.02713868,-0.01006911,0.00382649,0.000
 01775,-0.00060417,0.00034358,0.00073094,0.00068050,-0.00140467,0.00208
 320,0.00000457,0.00076445,-0.00065202,-0.00019586,-0.00012615,0.078988
 46,0.36717702,-0.01255032,0.00984890,-0.07671839,-0.02790216,0.0023345
 0,-0.01567865,-0.00177160,0.00370938,-0.00122204,-0.00000875,-0.001980
 09,0.00133455,0.00063814,-0.00219894,-0.00021777,0.00091670,-0.0018846
 7,0.00055887,-0.05754335,-0.23806149,0.34179169,-0.00078626,0.00089839
 ,0.00182601,0.02166997,0.00433659,-0.00195717,-0.00103799,0.00282075,0
 .00257566,-0.00062961,-0.00215492,-0.00132016,-0.09546817,0.01093929,-
 0.08855376,0.01331371,0.00900449,-0.04463444,0.00108245,0.00009065,0.0
 0050979,0.06187102,-0.00104300,-0.00193352,-0.00456694,0.00035323,0.00
 073270,-0.03490020,0.00085907,-0.00258002,-0.00200754,-0.00008506,-0.0
 0410489,-0.00286118,0.01031924,-0.13196504,-0.04972965,0.01469026,0.02
 435480,0.06826377,-0.00227455,0.00024878,-0.00071007,-0.02493217,0.115
 07025,0.00022282,0.00247147,-0.00043725,-0.00890599,-0.01661273,-0.045
 94783,0.00269931,-0.00238078,-0.00209586,-0.00121861,-0.00213577,-0.00
 050222,-0.08967343,-0.04613936,-0.57846310,-0.03505968,0.04060736,-0.0
 7499499,-0.00124337,0.00039180,0.00017839,0.13097717,0.02750501,0.6983
 1155,-0.16812283,-0.04694910,0.04014772,0.01630862,0.00484978,-0.00525
 792,0.00082412,0.00007685,0.00040622,-0.00148496,0.00323866,-0.0024761
 1,0.00052956,-0.00031088,-0.00103788,-0.00071987,0.00137531,0.00039162
 ,-0.10335527,0.00501742,-0.01109754,-0.00003996,0.00154341,0.00018240,
 0.56123531,-0.07882506,-0.15202614,0.06368998,-0.01353266,-0.02354477,
 0.01559831,-0.00071364,0.00133205,-0.00152984,0.00037602,-0.00031787,0
 .00006384,-0.00124458,-0.00004836,0.00066864,-0.00011412,0.00173402,-0
 .00036199,-0.04755628,-0.00825953,0.03828629,-0.00033840,0.00050587,0.
 00058649,-0.02263107,0.31981900,0.07655565,0.07487852,-0.13325283,0.01
 454793,0.01581843,-0.02546310,0.00124512,-0.00238596,0.00176758,-0.001
 04692,0.00381326,-0.00087133,0.00030372,-0.00258840,-0.00068656,0.0011
 8566,-0.00275190,0.00085813,0.03621576,0.04003990,-0.00682187,0.000222
 15,-0.00179949,0.00089080,0.04525471,-0.20988637,0.31032954,0.00162647
 ,0.03908343,-0.04704997,-0.00295126,-0.00859577,0.00920581,-0.00036695
 ,0.00156641,-0.00087140,-0.00015562,-0.00035851,0.00038398,-0.00077274
 ,0.00031520,-0.00430771,-0.00091359,0.00300868,0.00035222,-0.01726458,
 -0.09137728,0.08849241,0.00005816,0.00022516,0.00227856,-0.23646992,0.
 09375819,-0.09912392,0.63907262,-0.02189500,-0.07159012,0.08034605,-0.
 00674584,0.00175206,0.00213217,0.00033024,0.00026711,0.00006388,0.0008
 5967,-0.00112846,0.00062921,0.00072398,0.00119074,0.00328674,0.0002008
 6,-0.00081792,-0.00079221,-0.01510728,-0.03817749,0.05799854,-0.000529
 87,0.00005659,-0.00194659,0.08619964,-0.14439892,0.06971269,0.00093572
 ,0.47468119,0.02117626,0.08088718,-0.07074405,0.00513527,0.00274026,0.
 00288598,0.00010959,0.00029642,-0.00026754,-0.00090958,0.00063567,-0.0
 0017589,0.00004521,-0.00010918,-0.00202492,-0.00067995,0.00132833,0.00
 016126,0.01129229,0.05383747,-0.02970629,-0.00017075,0.00013333,0.0007
 7649,-0.09253201,0.07132101,-0.15126475,0.02975444,-0.30882048,0.46193
 961,-0.00699723,0.00912975,-0.01048837,0.00224726,-0.00123737,0.001074
 39,0.00004359,0.00039182,-0.00023863,-0.00025214,0.00054985,-0.0003171
 7,0.00034660,-0.00099612,-0.00098701,-0.00049935,0.00112767,0.00003161
 ,-0.00970615,-0.00481952,0.00377985,-0.00032111,0.00046374,0.00049848,
 0.01352344,0.01005318,-0.00839654,-0.08583140,-0.01362457,0.01351140,0
 .97681397,0.00671613,0.00838399,-0.00010469,0.00146448,-0.00123043,0.0
 0400347,-0.00011529,0.00030741,0.00004977,0.00014029,0.00007521,0.0000
 7692,0.00098769,-0.00245150,-0.00074686,-0.00102909,0.00230866,-0.0003
 4540,-0.00065332,0.01166822,-0.00158436,-0.00037301,0.00112240,-0.0000
 0142,0.00011425,-0.02278891,0.01285502,-0.01285530,-0.11262315,0.03100
 424,-0.02914456,0.45235019,-0.00810780,0.00116887,0.00793841,-0.001642
 28,0.00304440,-0.00086549,-0.00004882,-0.00037708,0.00008674,0.0002849
 1,-0.00058099,0.00010262,-0.00056776,0.00274254,0.00019850,0.00062929,
 -0.00179842,0.00020923,0.00007980,-0.00203772,0.01228508,0.00028960,-0
 .00124217,-0.00024764,0.00095353,0.01322986,-0.02235326,0.01260105,0.0
 3075898,-0.10856886,0.09464525,-0.21846546,0.45300104,-0.00095947,-0.0
 0326342,0.00353717,-0.00044118,0.00082859,-0.00089655,0.00001597,-0.00
 029605,0.00015708,0.00005558,-0.00009204,-0.00001314,-0.00026792,0.000
 75527,0.00054392,0.00030847,-0.00072692,0.00000720,0.00043565,-0.00078
 791,0.00110566,0.00023466,-0.00032937,-0.00028226,-0.00088265,0.005444
 14,-0.00535524,-0.04214035,-0.02873719,0.02256799,-0.53332318,-0.09152
 053,0.04808700,0.67216846,-0.00206494,-0.00041182,0.00045740,-0.000526
 60,0.00089046,-0.00106151,0.00004410,-0.00015276,-0.00003147,-0.000002
 23,-0.00009220,-0.00004877,-0.00032516,0.00090550,0.00004500,0.0003328
 8,-0.00079108,0.00014205,-0.00254276,-0.00362132,0.00124438,0.00014991
 ,-0.00041686,0.00005712,-0.00107636,0.00029057,0.00071414,-0.03923456,
 -0.00118714,0.01753960,-0.10375306,-0.12635139,0.03861629,0.11305804,0
 .09763677,0.00205311,0.00015453,-0.00013936,0.00051412,-0.00101048,0.0
 0066593,-0.00002448,0.00011847,0.00000746,-0.00004928,0.00012502,0.000
 02494,0.00024401,-0.00091629,-0.00026596,-0.00023912,0.00066038,-0.000
 00612,0.00244948,0.00119683,-0.00358585,-0.00014418,0.00043664,0.00016
 430,0.00099890,0.00129847,-0.00007228,0.03263001,0.01837935,0.00504831
 ,0.06063458,0.03975974,-0.11059647,-0.05243701,-0.05777726,0.07988570,
 0.00261027,-0.00151127,0.00207067,0.00018903,0.00057550,-0.00038191,0.
 00002218,-0.00016046,0.00012801,-0.00005268,0.00004482,-0.00003427,0.0
 0000472,-0.00015145,0.00007038,0.00006304,-0.00011985,0.00000400,0.000
 85905,0.00291427,-0.00283328,0.00010216,0.00000906,-0.00006045,0.00179
 540,0.00032845,-0.00047308,0.00032442,0.01944121,-0.02083428,-0.358350
 30,0.13796607,-0.15984186,-0.09802462,0.03273575,-0.04352614,0.4541932
 6,0.00012901,-0.00342087,0.00198995,-0.00110692,0.00025990,-0.00112100
 ,0.00002009,-0.00008068,-0.00007805,0.00009524,-0.00023469,0.00006011,
 -0.00035562,0.00110945,0.00046527,0.00039406,-0.00095869,0.00006224,0.
 00088508,-0.00159054,0.00125275,0.00011471,-0.00048621,-0.00010012,-0.
 00486939,-0.00056104,0.00346849,0.03054088,-0.01805341,0.04007323,0.15
 044398,-0.19774568,0.13134697,0.00959257,0.03500418,-0.00666728,-0.187
 36098,0.18604949,0.00013887,0.00184567,-0.00312962,0.00122533,-0.00095
 759,0.00008172,-0.00001027,0.00011484,0.00003630,-0.00020078,0.0003689
 5,-0.00012698,0.00029121,-0.00123985,-0.00030973,-0.00028234,0.0007950
 5,-0.00000971,-0.00088972,0.00145902,-0.00185385,-0.00008659,0.0005406
 1,0.00018490,0.00482038,0.00379126,-0.00035561,-0.03162772,0.03914666,
 -0.02080948,-0.17217003,0.13023550,-0.21957374,-0.02063974,-0.00467840
 ,0.02982592,0.22127724,-0.17140447,0.21511533,-0.05341973,0.01925549,-
 0.01769438,-0.01023401,0.00077216,-0.00354991,0.00016950,0.00124744,-0
 .00062112,0.00039949,-0.00013839,-0.00005046,0.00035577,-0.00126664,0.
 00036165,0.00051150,-0.00066175,0.00026710,-0.10044418,-0.02020749,0.0
 1826446,-0.00004903,0.00020097,-0.00041497,-0.08314098,0.05499582,-0.0
 6113501,-0.25421525,-0.02205156,0.01153414,0.00230601,-0.01169781,0.01
 263808,0.00282057,0.00320499,-0.00310398,-0.00373594,0.00147728,-0.001
 84585,0.49867628,0.08040654,-0.04148032,0.07453737,0.00165651,0.011986
 27,-0.00245085,0.00046541,-0.00280897,0.00135018,-0.00013749,-0.000397
 56,0.00010711,-0.00075370,0.00153134,0.00401216,0.00079916,-0.00230034
 ,-0.00072613,0.01353236,-0.22941749,0.13174488,-0.00002641,-0.00060484
 ,-0.00230247,-0.02657850,0.02826403,-0.00188831,-0.01701226,-0.0899710
 6,0.00913293,-0.01858481,-0.01302503,0.00359392,-0.00392518,-0.0017029
 1,0.00424190,-0.00471113,0.00070879,-0.00001725,-0.02513050,0.33921809
 ,-0.08205387,0.06758979,-0.04804094,-0.00089661,-0.00329806,0.01170247
 ,0.00011436,0.00108210,-0.00064095,-0.00002793,0.00032061,-0.00002390,
 -0.00124449,-0.00135617,-0.00533502,-0.00086818,0.00352585,0.00066632,
 -0.01384350,0.13148747,-0.22034386,0.00046666,0.00093787,0.00218246,0.
 01924598,0.00324405,0.02729555,0.00728224,0.00910501,-0.08724987,0.018
 42219,0.00326353,-0.01161616,0.00361792,0.00478144,-0.00095651,0.00443
 498,0.00065193,0.00092455,0.04535023,-0.22133543,0.33143586\\-0.000083
 49,-0.00002354,0.00005646,0.00000025,-0.00003217,-0.00006951,-0.000025
 22,-0.00001007,0.00002628,0.00005635,0.00001644,-0.00002102,-0.0000296
 8,0.00003265,0.00006708,-0.00000473,0.00002024,-0.00003449,0.00015167,
 -0.00004626,0.00001535,0.00001956,-0.00000053,0.00001523,0.00002727,-0
 .00007623,0.00003964,-0.00015984,-0.00000201,0.00000707,0.00000395,0.0
 0002676,-0.00003273,-0.00002903,-0.00000192,0.00001136,0.00003613,-0.0
 0002273,0.00001065,0.00003682,0.00011938,-0.00009137\\\@
 Job cpu time:       0 days 13 hours 10 minutes  0.9 seconds.
 File lengths (MBytes):  RWF=  80798 Int=      0 D2E=      0 Chk=     85 Scr=      1
 Normal termination of Gaussian 09 at Wed Aug 25 00:19:21 2021.
