 Entering Gaussian System, Link 0=g09
 Input=G4.TOQMUH01.gjf
 Output=G4.TOQMUH01.log
 Initial command:
 /public/home/users/caep010/software/Gaussian09/g09/l1.exe "/public/home/users/caep010/.cache/gau_scr/Gau-211392.inp" -scrdir="/public/home/users/caep010/.cache/gau_scr/"
 Entering Link 1 = /public/home/users/caep010/software/Gaussian09/g09/l1.exe PID=    211393.
  
 Copyright (c) 1988,1990,1992,1993,1995,1998,2003,2009,2015,
            Gaussian, Inc.  All Rights Reserved.
  
 This is part of the Gaussian(R) 09 program.  It is based on
 the Gaussian(R) 03 system (copyright 2003, Gaussian, Inc.),
 the Gaussian(R) 98 system (copyright 1998, Gaussian, Inc.),
 the Gaussian(R) 94 system (copyright 1995, Gaussian, Inc.),
 the Gaussian 92(TM) system (copyright 1992, Gaussian, Inc.),
 the Gaussian 90(TM) system (copyright 1990, Gaussian, Inc.),
 the Gaussian 88(TM) system (copyright 1988, Gaussian, Inc.),
 the Gaussian 86(TM) system (copyright 1986, Carnegie Mellon
 University), and the Gaussian 82(TM) system (copyright 1983,
 Carnegie Mellon University). Gaussian is a federally registered
 trademark of Gaussian, Inc.
  
 This software contains proprietary and confidential information,
 including trade secrets, belonging to Gaussian, Inc.
  
 This software is provided under written license and may be
 used, copied, transmitted, or stored only in accord with that
 written license.
  
 The following legend is applicable only to US Government
 contracts under FAR:
  
                    RESTRICTED RIGHTS LEGEND
  
 Use, reproduction and disclosure by the US Government is
 subject to restrictions as set forth in subparagraphs (a)
 and (c) of the Commercial Computer Software - Restricted
 Rights clause in FAR 52.227-19.
  
 Gaussian, Inc.
 340 Quinnipiac St., Bldg. 40, Wallingford CT 06492
  
  
 ---------------------------------------------------------------
 Warning -- This program may not be used in any manner that
 competes with the business of Gaussian, Inc. or will provide
 assistance to any competitor of Gaussian, Inc.  The licensee
 of this program is prohibited from giving any competitor of
 Gaussian, Inc. access to this program.  By using this program,
 the user acknowledges that Gaussian, Inc. is engaged in the
 business of creating and licensing software in the field of
 computational chemistry and represents and warrants to the
 licensee that it is not a competitor of Gaussian, Inc. and that
 it will not use this program in any manner prohibited above.
 ---------------------------------------------------------------
  

 Cite this work as:
 Gaussian 09, Revision E.01,
 M. J. Frisch, G. W. Trucks, H. B. Schlegel, G. E. Scuseria, 
 M. A. Robb, J. R. Cheeseman, G. Scalmani, V. Barone, B. Mennucci, 
 G. A. Petersson, H. Nakatsuji, M. Caricato, X. Li, H. P. Hratchian, 
 A. F. Izmaylov, J. Bloino, G. Zheng, J. L. Sonnenberg, M. Hada, 
 M. Ehara, K. Toyota, R. Fukuda, J. Hasegawa, M. Ishida, T. Nakajima, 
 Y. Honda, O. Kitao, H. Nakai, T. Vreven, J. A. Montgomery, Jr., 
 J. E. Peralta, F. Ogliaro, M. Bearpark, J. J. Heyd, E. Brothers, 
 K. N. Kudin, V. N. Staroverov, T. Keith, R. Kobayashi, J. Normand, 
 K. Raghavachari, A. Rendell, J. C. Burant, S. S. Iyengar, J. Tomasi, 
 M. Cossi, N. Rega, J. M. Millam, M. Klene, J. E. Knox, J. B. Cross, 
 V. Bakken, C. Adamo, J. Jaramillo, R. Gomperts, R. E. Stratmann, 
 O. Yazyev, A. J. Austin, R. Cammi, C. Pomelli, J. W. Ochterski, 
 R. L. Martin, K. Morokuma, V. G. Zakrzewski, G. A. Voth, 
 P. Salvador, J. J. Dannenberg, S. Dapprich, A. D. Daniels, 
 O. Farkas, J. B. Foresman, J. V. Ortiz, J. Cioslowski, 
 and D. J. Fox, Gaussian, Inc., Wallingford CT, 2013.
 
 ******************************************
 Gaussian 09:  ES64L-G09RevE.01 30-Nov-2015
                27-Aug-2021 
 ******************************************
 %nproc=32
 Will use up to   32 processors via shared memory.
 %mem=180GB
 ----------------
 #P G4 OPT=calcfc
 ----------------
 1/10=4,14=-1,18=20,19=15,26=3,38=1/1,3;
 2/9=110,12=2,17=6,18=5,40=1/2;
 3/5=35,7=104,11=2,16=1,25=1,30=1,71=2,74=-5,140=1/1,2,3;
 4//1;
 5/5=2,38=5/2;
 8/6=4,10=90,11=11/1;
 11/6=1,8=1,9=11,15=111,16=1/1,2,10;
 10/6=1,13=1/2;
 6/7=2,8=2,9=2,10=2,28=1/1;
 7/10=1,18=20,25=1/1,2,3,16;
 1/10=4,14=-1,18=20,19=15,26=3/3(2);
 2/9=110/2;
 99//99;
 2/9=110/2;
 3/5=35,7=104,11=2,16=1,25=1,30=1,71=1,74=-5/1,2,3;
 4/5=5,16=3,69=1/1;
 5/5=2,38=5/2;
 7//1,2,3,16;
 1/14=-1,18=20,19=15,26=3/3(-5);
 2/9=110/2;
 6/7=2,8=2,9=2,10=2,19=2,28=1/1;
 99/9=1/99;
 Leave Link    1 at Fri Aug 27 09:33:26 2021, MaxMem= 24159191040 cpu:         3.3
 (Enter /public/home/users/caep010/software/Gaussian09/g09/l101.exe)
 --------
 TOQMUH01
 --------
 Symbolic Z-matrix:
 Charge =  0 Multiplicity = 1
 O                     7.4583   -0.708     1.5023 
 N                     6.3638   -0.1372    1.6135 
 O                     5.6856    0.1567    0.6211 
 N                     5.81      0.1898    2.785 
 C                     6.4677   -0.1026    3.939 
 N                     5.7124    0.2553    5.0118 
 H                     4.9322    0.7356    4.7768 
 C                     7.7252   -0.6705    4.2169 
 C                     8.1207   -0.8404    5.5174 
 H                     8.9667   -1.227     5.7051 
 C                     7.2996   -0.4667    6.5865 
 H                     7.5723   -0.5929    7.4873 
 C                     6.0947    0.0846    6.2881 
 H                     8.2958   -0.9298    3.5042 
 H                     5.5142    0.3542    6.9926 
 
 Add atom      2 valence  3 ND=      2 dihedral       1      2      3      4
 NAtoms=     15 NQM=       15 NQMF=       0 NMMI=      0 NMMIF=      0
                NMic=       0 NMicF=      0.
                    Isotopes and Nuclear Properties:
 (Nuclear quadrupole moments (NQMom) in fm**2, nuclear magnetic moments (NMagM)
  in nuclear magnetons)

  Atom         1           2           3           4           5           6           7           8           9          10
 IAtWgt=          16          14          16          14          12          14           1          12          12           1
 AtmWgt=  15.9949146  14.0030740  15.9949146  14.0030740  12.0000000  14.0030740   1.0078250  12.0000000  12.0000000   1.0078250
 NucSpn=           0           2           0           2           0           2           1           0           0           1
 AtZEff=   0.0000000   0.0000000   0.0000000   0.0000000   0.0000000   0.0000000   0.0000000   0.0000000   0.0000000   0.0000000
 NQMom=    0.0000000   2.0440000   0.0000000   2.0440000   0.0000000   2.0440000   0.0000000   0.0000000   0.0000000   0.0000000
 NMagM=    0.0000000   0.4037610   0.0000000   0.4037610   0.0000000   0.4037610   2.7928460   0.0000000   0.0000000   2.7928460
 AtZNuc=   8.0000000   7.0000000   8.0000000   7.0000000   6.0000000   7.0000000   1.0000000   6.0000000   6.0000000   1.0000000

  Atom        11          12          13          14          15
 IAtWgt=          12           1          12           1           1
 AtmWgt=  12.0000000   1.0078250  12.0000000   1.0078250   1.0078250
 NucSpn=           0           1           0           1           1
 AtZEff=   0.0000000   0.0000000   0.0000000   0.0000000   0.0000000
 NQMom=    0.0000000   0.0000000   0.0000000   0.0000000   0.0000000
 NMagM=    0.0000000   2.7928460   0.0000000   2.7928460   2.7928460
 AtZNuc=   6.0000000   1.0000000   6.0000000   1.0000000   1.0000000
 Leave Link  101 at Fri Aug 27 09:33:26 2021, MaxMem= 24159191040 cpu:        10.3
 (Enter /public/home/users/caep010/software/Gaussian09/g09/l103.exe)

 GradGradGradGradGradGradGradGradGradGradGradGradGradGradGradGradGradGrad
 Berny optimization.
 Initialization pass.
                           ----------------------------
                           !    Initial Parameters    !
                           ! (Angstroms and Degrees)  !
 --------------------------                            --------------------------
 ! Name  Definition              Value          Derivative Info.                !
 --------------------------------------------------------------------------------
 ! R1    R(1,2)                  1.2394         calculate D2E/DX2 analytically  !
 ! R2    R(2,3)                  1.2374         calculate D2E/DX2 analytically  !
 ! R3    R(2,4)                  1.3364         calculate D2E/DX2 analytically  !
 ! R4    R(4,5)                  1.3601         calculate D2E/DX2 analytically  !
 ! R5    R(5,6)                  1.36           calculate D2E/DX2 analytically  !
 ! R6    R(5,8)                  1.4075         calculate D2E/DX2 analytically  !
 ! R7    R(6,7)                  0.9458         calculate D2E/DX2 analytically  !
 ! R8    R(6,13)                 1.3432         calculate D2E/DX2 analytically  !
 ! R9    R(8,9)                  1.3699         calculate D2E/DX2 analytically  !
 ! R10   R(8,14)                 0.9491         calculate D2E/DX2 analytically  !
 ! R11   R(9,10)                 0.9489         calculate D2E/DX2 analytically  !
 ! R12   R(9,11)                 1.3989         calculate D2E/DX2 analytically  !
 ! R13   R(11,12)                0.9496         calculate D2E/DX2 analytically  !
 ! R14   R(11,13)                1.3582         calculate D2E/DX2 analytically  !
 ! R15   R(13,15)                0.9518         calculate D2E/DX2 analytically  !
 ! A1    A(1,2,3)              121.4284         calculate D2E/DX2 analytically  !
 ! A2    A(1,2,4)              123.8678         calculate D2E/DX2 analytically  !
 ! A3    A(3,2,4)              114.6951         calculate D2E/DX2 analytically  !
 ! A4    A(2,4,5)              119.3921         calculate D2E/DX2 analytically  !
 ! A5    A(4,5,6)              110.1316         calculate D2E/DX2 analytically  !
 ! A6    A(4,5,8)              133.3392         calculate D2E/DX2 analytically  !
 ! A7    A(6,5,8)              116.5278         calculate D2E/DX2 analytically  !
 ! A8    A(5,6,7)              113.3138         calculate D2E/DX2 analytically  !
 ! A9    A(5,6,13)             123.92           calculate D2E/DX2 analytically  !
 ! A10   A(7,6,13)             122.3697         calculate D2E/DX2 analytically  !
 ! A11   A(5,8,9)              119.6979         calculate D2E/DX2 analytically  !
 ! A12   A(5,8,14)             119.9411         calculate D2E/DX2 analytically  !
 ! A13   A(9,8,14)             120.3604         calculate D2E/DX2 analytically  !
 ! A14   A(8,9,10)             119.7174         calculate D2E/DX2 analytically  !
 ! A15   A(8,9,11)             121.5305         calculate D2E/DX2 analytically  !
 ! A16   A(10,9,11)            118.7498         calculate D2E/DX2 analytically  !
 ! A17   A(9,11,12)            121.3941         calculate D2E/DX2 analytically  !
 ! A18   A(9,11,13)            117.4673         calculate D2E/DX2 analytically  !
 ! A19   A(12,11,13)           121.1387         calculate D2E/DX2 analytically  !
 ! A20   A(6,13,11)            120.8521         calculate D2E/DX2 analytically  !
 ! A21   A(6,13,15)            119.5842         calculate D2E/DX2 analytically  !
 ! A22   A(11,13,15)           119.5636         calculate D2E/DX2 analytically  !
 ! D1    D(1,2,3,4)            178.9676         calculate D2E/DX2 analytically  !
 ! D2    D(1,2,4,5)              0.3777         calculate D2E/DX2 analytically  !
 ! D3    D(3,2,4,5)            179.3168         calculate D2E/DX2 analytically  !
 ! D4    D(2,4,5,6)           -177.2715         calculate D2E/DX2 analytically  !
 ! D5    D(2,4,5,8)              3.1829         calculate D2E/DX2 analytically  !
 ! D6    D(4,5,6,7)             -7.388          calculate D2E/DX2 analytically  !
 ! D7    D(4,5,6,13)           179.705          calculate D2E/DX2 analytically  !
 ! D8    D(8,5,6,7)            172.2426         calculate D2E/DX2 analytically  !
 ! D9    D(8,5,6,13)            -0.6644         calculate D2E/DX2 analytically  !
 ! D10   D(4,5,8,9)            179.8618         calculate D2E/DX2 analytically  !
 ! D11   D(4,5,8,14)             0.1418         calculate D2E/DX2 analytically  !
 ! D12   D(6,5,8,9)              0.3386         calculate D2E/DX2 analytically  !
 ! D13   D(6,5,8,14)          -179.3814         calculate D2E/DX2 analytically  !
 ! D14   D(5,6,13,11)            0.3606         calculate D2E/DX2 analytically  !
 ! D15   D(5,6,13,15)         -179.7            calculate D2E/DX2 analytically  !
 ! D16   D(7,6,13,11)         -171.9235         calculate D2E/DX2 analytically  !
 ! D17   D(7,6,13,15)            8.0159         calculate D2E/DX2 analytically  !
 ! D18   D(5,8,9,10)           179.7123         calculate D2E/DX2 analytically  !
 ! D19   D(5,8,9,11)             0.2669         calculate D2E/DX2 analytically  !
 ! D20   D(14,8,9,10)           -0.5689         calculate D2E/DX2 analytically  !
 ! D21   D(14,8,9,11)          179.9857         calculate D2E/DX2 analytically  !
 ! D22   D(8,9,11,12)          179.4145         calculate D2E/DX2 analytically  !
 ! D23   D(8,9,11,13)           -0.5777         calculate D2E/DX2 analytically  !
 ! D24   D(10,9,11,12)          -0.0361         calculate D2E/DX2 analytically  !
 ! D25   D(10,9,11,13)         179.9717         calculate D2E/DX2 analytically  !
 ! D26   D(9,11,13,6)            0.2744         calculate D2E/DX2 analytically  !
 ! D27   D(9,11,13,15)        -179.665          calculate D2E/DX2 analytically  !
 ! D28   D(12,11,13,6)        -179.7179         calculate D2E/DX2 analytically  !
 ! D29   D(12,11,13,15)          0.3427         calculate D2E/DX2 analytically  !
 --------------------------------------------------------------------------------
 Trust Radius=3.00D-01 FncErr=1.00D-07 GrdErr=1.00D-06
 Number of steps in this run=     76 maximum allowed number of steps=    100.
 GradGradGradGradGradGradGradGradGradGradGradGradGradGradGradGradGradGrad

 Leave Link  103 at Fri Aug 27 09:33:27 2021, MaxMem= 24159191040 cpu:         0.5
 (Enter /public/home/users/caep010/software/Gaussian09/g09/l202.exe)
                          Input orientation:                          
 ---------------------------------------------------------------------
 Center     Atomic      Atomic             Coordinates (Angstroms)
 Number     Number       Type             X           Y           Z
 ---------------------------------------------------------------------
      1          8           0        7.458300   -0.708000    1.502300
      2          7           0        6.363800   -0.137200    1.613500
      3          8           0        5.685600    0.156700    0.621100
      4          7           0        5.810000    0.189800    2.785000
      5          6           0        6.467700   -0.102600    3.939000
      6          7           0        5.712400    0.255300    5.011800
      7          1           0        4.932200    0.735600    4.776800
      8          6           0        7.725200   -0.670500    4.216900
      9          6           0        8.120700   -0.840400    5.517400
     10          1           0        8.966700   -1.227000    5.705100
     11          6           0        7.299600   -0.466700    6.586500
     12          1           0        7.572300   -0.592900    7.487300
     13          6           0        6.094700    0.084600    6.288100
     14          1           0        8.295800   -0.929800    3.504200
     15          1           0        5.514200    0.354200    6.992600
 ---------------------------------------------------------------------
                    Distance matrix (angstroms):
                    1          2          3          4          5
     1  O    0.000000
     2  N    1.239398   0.000000
     3  O    2.160251   1.237413   0.000000
     4  N    2.273380   1.336426   2.167726   0.000000
     5  C    2.699130   2.328077   3.418681   1.360067   0.000000
     6  N    4.036422   3.482359   4.391889   2.229900   1.359952
     7  H    4.380355   3.580185   4.262931   2.244036   1.939652
     8  C    2.727947   2.985885   4.215923   2.541347   1.407496
     9  C    4.071527   4.338389   5.558568   3.723796   2.401688
    10  H    4.495349   4.970306   6.207036   4.527589   3.260120
    11  C    5.092396   5.070998   6.211250   4.135372   2.798907
    12  H    5.987192   6.014122   7.160045   5.082317   3.748462
    13  C    5.038998   4.687589   5.682205   3.516224   2.385884
    14  H    2.181331   2.817017   4.038055   2.819566   2.053110
    15  H    5.920404   5.467907   6.376864   4.221187   3.231455
                    6          7          8          9         10
     6  N    0.000000
     7  H    0.945846   0.000000
     8  C    2.353792   3.176705   0.000000
     9  C    2.693715   3.633015   1.369886   0.000000
    10  H    3.642574   4.581564   2.016371   0.948898   0.000000
    11  C    2.349504   3.213273   2.416128   1.398868   2.033260
    12  H    3.210416   4.010218   3.274892   2.059734   2.350036
    13  C    1.343218   2.014754   2.742002   2.356752   3.210696
    14  H    3.217340   3.963190   0.949085   2.022777   2.319999
    15  H    1.993147   2.322490   3.693649   3.224458   4.009689
                   11         12         13         14         15
    11  C    0.000000
    12  H    0.949596   0.000000
    13  C    1.358219   2.019997   0.000000
    14  H    3.272224   4.062270   3.691063   0.000000
    15  H    2.006601   2.318944   0.951832   4.642724   0.000000
 Stoichiometry    C5H5N3O2
 Framework group  C1[X(C5H5N3O2)]
 Deg. of freedom    39
 Full point group                 C1      NOp   1
 Largest Abelian subgroup         C1      NOp   1
 Largest concise Abelian subgroup C1      NOp   1
                         Standard orientation:                         
 ---------------------------------------------------------------------
 Center     Atomic      Atomic             Coordinates (Angstroms)
 Number     Number       Type             X           Y           Z
 ---------------------------------------------------------------------
      1          8           0       -2.099504    1.243852   -0.046236
      2          7           0       -2.167655    0.007146   -0.001253
      3          8           0       -3.257190   -0.579457   -0.001603
      4          7           0       -1.100618   -0.796942    0.028896
      5          6           0        0.145789   -0.252761    0.017905
      6          7           0        1.085407   -1.235577   -0.007802
      7          1           0        0.723020   -2.102788    0.098241
      8          6           0        0.621769    1.071689    0.035793
      9          6           0        1.970978    1.308259    0.019796
     10          1           0        2.292114    2.201128    0.027712
     11          6           0        2.896976    0.260500   -0.019685
     12          1           0        3.831683    0.426882   -0.038995
     13          6           0        2.408843   -1.006933   -0.029579
     14          1           0        0.008167    1.795238    0.062849
     15          1           0        3.012515   -1.742522   -0.051362
 ---------------------------------------------------------------------
 Rotational constants (GHZ):      4.0628176      0.8558646      0.7071483
 Leave Link  202 at Fri Aug 27 09:33:27 2021, MaxMem= 24159191040 cpu:         0.5
 (Enter /public/home/users/caep010/software/Gaussian09/g09/l301.exe)
 Standard basis: GTBas3 (6D, 7F)
 Ernie: Thresh=  0.10000D-02 Tol=  0.10000D-05 Strict=F.
 There are   335 symmetry adapted cartesian basis functions of A   symmetry.
 There are   305 symmetry adapted basis functions of A   symmetry.
   305 basis functions,   475 primitive gaussians,   335 cartesian basis functions
    36 alpha electrons       36 beta electrons
       nuclear repulsion energy       507.7550699116 Hartrees.
 IExCor=  402 DFT=T Ex+Corr=B3LYP ExCW=0 ScaHFX=  0.200000
 ScaDFX=  0.800000  0.720000  1.000000  0.810000 ScalE2=  1.000000  1.000000
 IRadAn=      0 IRanWt=     -1 IRanGd=            0 ICorTp=0 IEmpDi=  4
 NAtoms=   15 NActive=   15 NUniq=   15 SFac= 1.00D+00 NAtFMM=   60 NAOKFM=F Big=F
 Integral buffers will be    131072 words long.
 Raffenetti 2 integral format.
 Two-electron integral symmetry is turned on.
 Leave Link  301 at Fri Aug 27 09:33:27 2021, MaxMem= 24159191040 cpu:         2.7
 (Enter /public/home/users/caep010/software/Gaussian09/g09/l302.exe)
 NPDir=0 NMtPBC=     1 NCelOv=     1 NCel=       1 NClECP=     1 NCelD=      1
         NCelK=      1 NCelE2=     1 NClLst=     1 CellRange=     0.0.
 One-electron integrals computed using PRISM.
 NBasis=   305 RedAO= T EigKep=  1.28D-04  NBF=   305
 NBsUse=   305 1.00D-06 EigRej= -1.00D+00 NBFU=   305
 Precomputing XC quadrature grid using
 IXCGrd= 4 IRadAn=           0 IRanWt=          -1 IRanGd=           0 AccXCQ= 0.00D+00.
 Generated NRdTot=       0 NPtTot=           0 NUsed=           0 NTot=          32
 NSgBfM=   335   335   335   335   335 MxSgAt=    15 MxSgA2=    15.
 Leave Link  302 at Fri Aug 27 09:33:28 2021, MaxMem= 24159191040 cpu:        19.6
 (Enter /public/home/users/caep010/software/Gaussian09/g09/l303.exe)
 DipDrv:  MaxL=1.
 Leave Link  303 at Fri Aug 27 09:33:28 2021, MaxMem= 24159191040 cpu:         1.0
 (Enter /public/home/users/caep010/software/Gaussian09/g09/l401.exe)
 ExpMin= 1.61D-01 ExpMax= 5.48D+03 ExpMxC= 8.25D+02 IAcc=1 IRadAn=         1 AccDes= 0.00D+00
 Harris functional with IExCor=  402 and IRadAn=       1 diagonalized for initial guess.
 HarFok:  IExCor=  402 AccDes= 0.00D+00 IRadAn=         1 IDoV= 1 UseB2=F ITyADJ=14
 ICtDFT=  3500011 ScaDFX=  1.000000  1.000000  1.000000  1.000000
 FoFCou: FMM=F IPFlag=           0 FMFlag=      100000 FMFlg1=           0
         NFxFlg=           0 DoJE=T BraDBF=F KetDBF=T FulRan=T
         wScrn=  0.000000 ICntrl=     500 IOpCl=  0 I1Cent=   200000004 NGrid=           0
         NMat0=    1 NMatS0=      1 NMatT0=    0 NMatD0=    1 NMtDS0=    0 NMtDT0=    0
 Petite list used in FoFCou.
 Harris En= -508.150214769896    
 JPrj=0 DoOrth=F DoCkMO=F.
 Leave Link  401 at Fri Aug 27 09:33:28 2021, MaxMem= 24159191040 cpu:        16.0
 (Enter /public/home/users/caep010/software/Gaussian09/g09/l502.exe)
 Closed shell SCF:
 Using DIIS extrapolation, IDIIS=  1040.
 Integral symmetry usage will be decided dynamically.
 Keep R1 ints in memory in canonical form, NReq=1108169170.
 IVT=      368365 IEndB=      368365 NGot= 24159191040 MDV= 23069988231
 LenX= 23069988231 LenY= 23069875565
 Requested convergence on RMS density matrix=1.00D-08 within 128 cycles.
 Requested convergence on MAX density matrix=1.00D-06.
 Requested convergence on             energy=1.00D-06.
 No special actions if energy rises.
 FoFCou: FMM=F IPFlag=           0 FMFlag=           0 FMFlg1=           0
         NFxFlg=           0 DoJE=F BraDBF=F KetDBF=F FulRan=T
         wScrn=  0.000000 ICntrl=     600 IOpCl=  0 I1Cent=           0 NGrid=           0
         NMat0=    1 NMatS0=  46665 NMatT0=    0 NMatD0=    1 NMtDS0=    0 NMtDT0=    0
 Symmetry not used in FoFCou.
 Integral accuracy reduced to 1.0D-05 until final iterations.

 Cycle   1  Pass 0  IDiag  1:
 E= -507.757122424038    
 DIIS: error= 3.59D-02 at cycle   1 NSaved=   1.
 NSaved= 1 IEnMin= 1 EnMin= -507.757122424038     IErMin= 1 ErrMin= 3.59D-02
 ErrMax= 3.59D-02  0.00D+00 EMaxC= 1.00D-01 BMatC= 4.07D-01 BMatP= 4.07D-01
 IDIUse=3 WtCom= 6.41D-01 WtEn= 3.59D-01
 Coeff-Com:  0.100D+01
 Coeff-En:   0.100D+01
 Coeff:      0.100D+01
 Gap=     0.187 Goal=   None    Shift=    0.000
 GapD=    0.187 DampG=1.000 DampE=0.500 DampFc=0.5000 IDamp=-1.
 Damping current iteration by 5.00D-01
 RMSDP=4.08D-03 MaxDP=2.59D-01              OVMax= 3.18D-01

 Cycle   2  Pass 0  IDiag  1:
 E= -507.822746315937     Delta-E=       -0.065623891899 Rises=F Damp=T
 DIIS: error= 1.46D-02 at cycle   2 NSaved=   2.
 NSaved= 2 IEnMin= 2 EnMin= -507.822746315937     IErMin= 2 ErrMin= 1.46D-02
 ErrMax= 1.46D-02  0.00D+00 EMaxC= 1.00D-01 BMatC= 8.29D-02 BMatP= 4.07D-01
 IDIUse=3 WtCom= 8.54D-01 WtEn= 1.46D-01
 Coeff-Com:  0.260D+00 0.740D+00
 Coeff-En:   0.401D+00 0.599D+00
 Coeff:      0.281D+00 0.719D+00
 Gap=     0.159 Goal=   None    Shift=    0.000
 RMSDP=1.45D-03 MaxDP=9.52D-02 DE=-6.56D-02 OVMax= 2.28D-01

 Cycle   3  Pass 0  IDiag  1:
 E= -508.049628906937     Delta-E=       -0.226882591000 Rises=F Damp=F
 DIIS: error= 9.00D-03 at cycle   3 NSaved=   3.
 NSaved= 3 IEnMin= 3 EnMin= -508.049628906937     IErMin= 3 ErrMin= 9.00D-03
 ErrMax= 9.00D-03  0.00D+00 EMaxC= 1.00D-01 BMatC= 3.57D-02 BMatP= 8.29D-02
 IDIUse=3 WtCom= 9.10D-01 WtEn= 9.00D-02
 Coeff-Com:  0.888D-01 0.390D+00 0.521D+00
 Coeff-En:   0.000D+00 0.000D+00 0.100D+01
 Coeff:      0.808D-01 0.355D+00 0.564D+00
 Gap=     0.165 Goal=   None    Shift=    0.000
 RMSDP=1.02D-03 MaxDP=7.33D-02 DE=-2.27D-01 OVMax= 1.04D-01

 Cycle   4  Pass 0  IDiag  1:
 E= -508.069710804468     Delta-E=       -0.020081897531 Rises=F Damp=F
 DIIS: error= 6.44D-03 at cycle   4 NSaved=   4.
 NSaved= 4 IEnMin= 4 EnMin= -508.069710804468     IErMin= 4 ErrMin= 6.44D-03
 ErrMax= 6.44D-03  0.00D+00 EMaxC= 1.00D-01 BMatC= 1.45D-02 BMatP= 3.57D-02
 IDIUse=3 WtCom= 9.36D-01 WtEn= 6.44D-02
 Coeff-Com:  0.264D-01 0.131D+00 0.385D+00 0.458D+00
 Coeff-En:   0.000D+00 0.000D+00 0.305D+00 0.695D+00
 Coeff:      0.247D-01 0.122D+00 0.380D+00 0.473D+00
 Gap=     0.155 Goal=   None    Shift=    0.000
 RMSDP=4.49D-04 MaxDP=3.21D-02 DE=-2.01D-02 OVMax= 5.92D-02

 Cycle   5  Pass 0  IDiag  1:
 E= -508.080068723382     Delta-E=       -0.010357918914 Rises=F Damp=F
 DIIS: error= 3.10D-03 at cycle   5 NSaved=   5.
 NSaved= 5 IEnMin= 5 EnMin= -508.080068723382     IErMin= 5 ErrMin= 3.10D-03
 ErrMax= 3.10D-03  0.00D+00 EMaxC= 1.00D-01 BMatC= 2.19D-03 BMatP= 1.45D-02
 IDIUse=3 WtCom= 9.69D-01 WtEn= 3.10D-02
 Coeff-Com:  0.795D-02 0.343D-01 0.193D+00 0.333D+00 0.432D+00
 Coeff-En:   0.000D+00 0.000D+00 0.000D+00 0.118D+00 0.882D+00
 Coeff:      0.770D-02 0.332D-01 0.187D+00 0.326D+00 0.446D+00
 Gap=     0.151 Goal=   None    Shift=    0.000
 RMSDP=1.71D-04 MaxDP=1.26D-02 DE=-1.04D-02 OVMax= 2.73D-02

 Cycle   6  Pass 0  IDiag  1:
 E= -508.081487681490     Delta-E=       -0.001418958108 Rises=F Damp=F
 DIIS: error= 1.07D-03 at cycle   6 NSaved=   6.
 NSaved= 6 IEnMin= 6 EnMin= -508.081487681490     IErMin= 6 ErrMin= 1.07D-03
 ErrMax= 1.07D-03  0.00D+00 EMaxC= 1.00D-01 BMatC= 4.02D-04 BMatP= 2.19D-03
 IDIUse=3 WtCom= 9.89D-01 WtEn= 1.07D-02
 Coeff-Com:  0.122D-02 0.236D-02 0.720D-01 0.159D+00 0.328D+00 0.438D+00
 Coeff-En:   0.000D+00 0.000D+00 0.000D+00 0.000D+00 0.185D+00 0.815D+00
 Coeff:      0.120D-02 0.234D-02 0.712D-01 0.157D+00 0.326D+00 0.442D+00
 Gap=     0.151 Goal=   None    Shift=    0.000
 RMSDP=6.48D-05 MaxDP=4.17D-03 DE=-1.42D-03 OVMax= 8.10D-03

 Cycle   7  Pass 0  IDiag  1:
 E= -508.081799376647     Delta-E=       -0.000311695157 Rises=F Damp=F
 DIIS: error= 2.09D-04 at cycle   7 NSaved=   7.
 NSaved= 7 IEnMin= 7 EnMin= -508.081799376647     IErMin= 7 ErrMin= 2.09D-04
 ErrMax= 2.09D-04  0.00D+00 EMaxC= 1.00D-01 BMatC= 1.48D-05 BMatP= 4.02D-04
 IDIUse=3 WtCom= 9.98D-01 WtEn= 2.09D-03
 Coeff-Com:  0.160D-05-0.116D-02 0.214D-01 0.524D-01 0.133D+00 0.243D+00
 Coeff-Com:  0.552D+00
 Coeff-En:   0.000D+00 0.000D+00 0.000D+00 0.000D+00 0.000D+00 0.000D+00
 Coeff-En:   0.100D+01
 Coeff:      0.159D-05-0.115D-02 0.213D-01 0.523D-01 0.132D+00 0.242D+00
 Coeff:      0.553D+00
 Gap=     0.150 Goal=   None    Shift=    0.000
 RMSDP=1.36D-05 MaxDP=6.81D-04 DE=-3.12D-04 OVMax= 2.07D-03

 Cycle   8  Pass 0  IDiag  1:
 E= -508.081812036571     Delta-E=       -0.000012659924 Rises=F Damp=F
 DIIS: error= 5.15D-05 at cycle   8 NSaved=   8.
 NSaved= 8 IEnMin= 8 EnMin= -508.081812036571     IErMin= 8 ErrMin= 5.15D-05
 ErrMax= 5.15D-05  0.00D+00 EMaxC= 1.00D-01 BMatC= 9.19D-07 BMatP= 1.48D-05
 IDIUse=1 WtCom= 1.00D+00 WtEn= 0.00D+00
 Coeff-Com: -0.173D-03-0.975D-03 0.548D-02 0.148D-01 0.443D-01 0.935D-01
 Coeff-Com:  0.282D+00 0.561D+00
 Coeff:     -0.173D-03-0.975D-03 0.548D-02 0.148D-01 0.443D-01 0.935D-01
 Coeff:      0.282D+00 0.561D+00
 Gap=     0.150 Goal=   None    Shift=    0.000
 RMSDP=4.27D-06 MaxDP=2.19D-04 DE=-1.27D-05 OVMax= 5.25D-04

 Initial convergence to 1.0D-05 achieved.  Increase integral accuracy.
 Cycle   9  Pass 1  IDiag  1:
 E= -508.081825535361     Delta-E=       -0.000013498790 Rises=F Damp=F
 DIIS: error= 2.06D-05 at cycle   1 NSaved=   1.
 NSaved= 1 IEnMin= 1 EnMin= -508.081825535361     IErMin= 1 ErrMin= 2.06D-05
 ErrMax= 2.06D-05  0.00D+00 EMaxC= 1.00D-01 BMatC= 2.24D-07 BMatP= 2.24D-07
 IDIUse=1 WtCom= 1.00D+00 WtEn= 0.00D+00
 Coeff-Com:  0.100D+01
 Coeff:      0.100D+01
 Gap=     0.150 Goal=   None    Shift=    0.000
 RMSDP=4.27D-06 MaxDP=2.19D-04 DE=-1.35D-05 OVMax= 5.85D-04

 Cycle  10  Pass 1  IDiag  1:
 E= -508.081825351835     Delta-E=        0.000000183526 Rises=F Damp=F
 DIIS: error= 3.06D-05 at cycle   2 NSaved=   2.
 NSaved= 2 IEnMin= 1 EnMin= -508.081825535361     IErMin= 1 ErrMin= 2.06D-05
 ErrMax= 3.06D-05  0.00D+00 EMaxC= 1.00D-01 BMatC= 4.00D-07 BMatP= 2.24D-07
 IDIUse=1 WtCom= 1.00D+00 WtEn= 0.00D+00
 Coeff-Com:  0.587D+00 0.413D+00
 Coeff:      0.587D+00 0.413D+00
 Gap=     0.150 Goal=   None    Shift=    0.000
 RMSDP=2.45D-06 MaxDP=1.66D-04 DE= 1.84D-07 OVMax= 3.85D-04

 Cycle  11  Pass 1  IDiag  1:
 E= -508.081825718481     Delta-E=       -0.000000366646 Rises=F Damp=F
 DIIS: error= 7.08D-06 at cycle   3 NSaved=   3.
 NSaved= 3 IEnMin= 3 EnMin= -508.081825718481     IErMin= 3 ErrMin= 7.08D-06
 ErrMax= 7.08D-06  0.00D+00 EMaxC= 1.00D-01 BMatC= 2.62D-08 BMatP= 2.24D-07
 IDIUse=1 WtCom= 1.00D+00 WtEn= 0.00D+00
 Coeff-Com:  0.421D-01 0.202D+00 0.756D+00
 Coeff:      0.421D-01 0.202D+00 0.756D+00
 Gap=     0.150 Goal=   None    Shift=    0.000
 RMSDP=6.02D-07 MaxDP=3.20D-05 DE=-3.67D-07 OVMax= 8.35D-05

 Cycle  12  Pass 1  IDiag  1:
 E= -508.081825739141     Delta-E=       -0.000000020660 Rises=F Damp=F
 DIIS: error= 3.10D-06 at cycle   4 NSaved=   4.
 NSaved= 4 IEnMin= 4 EnMin= -508.081825739141     IErMin= 4 ErrMin= 3.10D-06
 ErrMax= 3.10D-06  0.00D+00 EMaxC= 1.00D-01 BMatC= 5.31D-09 BMatP= 2.62D-08
 IDIUse=1 WtCom= 1.00D+00 WtEn= 0.00D+00
 Coeff-Com: -0.855D-02 0.970D-01 0.459D+00 0.452D+00
 Coeff:     -0.855D-02 0.970D-01 0.459D+00 0.452D+00
 Gap=     0.150 Goal=   None    Shift=    0.000
 RMSDP=2.66D-07 MaxDP=1.75D-05 DE=-2.07D-08 OVMax= 2.35D-05

 Cycle  13  Pass 1  IDiag  1:
 E= -508.081825742860     Delta-E=       -0.000000003719 Rises=F Damp=F
 DIIS: error= 1.20D-06 at cycle   5 NSaved=   5.
 NSaved= 5 IEnMin= 5 EnMin= -508.081825742860     IErMin= 5 ErrMin= 1.20D-06
 ErrMax= 1.20D-06  0.00D+00 EMaxC= 1.00D-01 BMatC= 5.33D-10 BMatP= 5.31D-09
 IDIUse=1 WtCom= 1.00D+00 WtEn= 0.00D+00
 Coeff-Com: -0.851D-02 0.469D-01 0.243D+00 0.298D+00 0.420D+00
 Coeff:     -0.851D-02 0.469D-01 0.243D+00 0.298D+00 0.420D+00
 Gap=     0.150 Goal=   None    Shift=    0.000
 RMSDP=7.72D-08 MaxDP=4.72D-06 DE=-3.72D-09 OVMax= 9.16D-06

 Cycle  14  Pass 1  IDiag  1:
 E= -508.081825743274     Delta-E=       -0.000000000413 Rises=F Damp=F
 DIIS: error= 4.31D-07 at cycle   6 NSaved=   6.
 NSaved= 6 IEnMin= 6 EnMin= -508.081825743274     IErMin= 6 ErrMin= 4.31D-07
 ErrMax= 4.31D-07  0.00D+00 EMaxC= 1.00D-01 BMatC= 4.84D-11 BMatP= 5.33D-10
 IDIUse=1 WtCom= 1.00D+00 WtEn= 0.00D+00
 Coeff-Com: -0.481D-02 0.214D-01 0.120D+00 0.156D+00 0.274D+00 0.434D+00
 Coeff:     -0.481D-02 0.214D-01 0.120D+00 0.156D+00 0.274D+00 0.434D+00
 Gap=     0.150 Goal=   None    Shift=    0.000
 RMSDP=2.71D-08 MaxDP=2.24D-06 DE=-4.13D-10 OVMax= 3.87D-06

 Cycle  15  Pass 1  IDiag  1:
 E= -508.081825743327     Delta-E=       -0.000000000054 Rises=F Damp=F
 DIIS: error= 1.74D-07 at cycle   7 NSaved=   7.
 NSaved= 7 IEnMin= 7 EnMin= -508.081825743327     IErMin= 7 ErrMin= 1.74D-07
 ErrMax= 1.74D-07  0.00D+00 EMaxC= 1.00D-01 BMatC= 9.62D-12 BMatP= 4.84D-11
 IDIUse=1 WtCom= 1.00D+00 WtEn= 0.00D+00
 Coeff-Com: -0.992D-03 0.127D-02 0.174D-01 0.284D-01 0.735D-01 0.310D+00
 Coeff-Com:  0.570D+00
 Coeff:     -0.992D-03 0.127D-02 0.174D-01 0.284D-01 0.735D-01 0.310D+00
 Coeff:      0.570D+00
 Gap=     0.150 Goal=   None    Shift=    0.000
 RMSDP=1.21D-08 MaxDP=8.27D-07 DE=-5.39D-11 OVMax= 1.25D-06

 Cycle  16  Pass 1  IDiag  1:
 E= -508.081825743318     Delta-E=        0.000000000009 Rises=F Damp=F
 DIIS: error= 1.02D-07 at cycle   8 NSaved=   8.
 NSaved= 8 IEnMin= 7 EnMin= -508.081825743327     IErMin= 8 ErrMin= 1.02D-07
 ErrMax= 1.02D-07  0.00D+00 EMaxC= 1.00D-01 BMatC= 1.63D-12 BMatP= 9.62D-12
 IDIUse=1 WtCom= 1.00D+00 WtEn= 0.00D+00
 Coeff-Com:  0.781D-04-0.263D-02-0.633D-02-0.387D-02 0.453D-02 0.135D+00
 Coeff-Com:  0.375D+00 0.498D+00
 Coeff:      0.781D-04-0.263D-02-0.633D-02-0.387D-02 0.453D-02 0.135D+00
 Coeff:      0.375D+00 0.498D+00
 Gap=     0.150 Goal=   None    Shift=    0.000
 RMSDP=4.24D-09 MaxDP=2.07D-07 DE= 9.44D-12 OVMax= 5.04D-07

 SCF Done:  E(RB3LYP) =  -508.081825743     A.U. after   16 cycles
            NFock= 16  Conv=0.42D-08     -V/T= 2.0043
 KE= 5.058887898837D+02 PE=-2.203135889420D+03 EE= 6.814102038813D+02
 Leave Link  502 at Fri Aug 27 09:34:04 2021, MaxMem= 24159191040 cpu:       221.5
 (Enter /public/home/users/caep010/software/Gaussian09/g09/l801.exe)
 DoSCS=F DFT=T ScalE2(SS,OS)=  1.000000  1.000000
 Range of M.O.s used for correlation:     1   305
 NBasis=   305 NAE=    36 NBE=    36 NFC=     0 NFV=     0
 NROrb=    305 NOA=    36 NOB=    36 NVA=   269 NVB=   269

 **** Warning!!: The largest alpha MO coefficient is  0.52681552D+02

 Leave Link  801 at Fri Aug 27 09:34:04 2021, MaxMem= 24159191040 cpu:         0.6
 (Enter /public/home/users/caep010/software/Gaussian09/g09/l1101.exe)
 Using compressed storage, NAtomX=    15.
 Will process     16 centers per pass.
 Leave Link 1101 at Fri Aug 27 09:34:05 2021, MaxMem= 24159191040 cpu:        18.1
 (Enter /public/home/users/caep010/software/Gaussian09/g09/l1102.exe)
 Symmetrizing basis deriv contribution to polar:
 IMax=3 JMax=2 DiffMx= 0.00D+00
 Leave Link 1102 at Fri Aug 27 09:34:05 2021, MaxMem= 24159191040 cpu:         1.1
 (Enter /public/home/users/caep010/software/Gaussian09/g09/l1110.exe)
 Forming Gx(P) for the SCF density, NAtomX=    15.
 Integral derivatives from FoFJK, PRISM(SPDF).
 Do as many integral derivatives as possible in FoFJK.
 G2DrvN: MDV=   24159190816.
 G2DrvN: will do    16 centers at a time, making    1 passes.
 Calling FoFCou, ICntrl=  3107 FMM=F I1Cent=   0 AccDes= 0.00D+00.
 FoFJK:  IHMeth= 1 ICntrl=    3107 DoSepK=F KAlg= 0 I1Cent=   0 FoldK=F
 IRaf=         0 NMat=   1 IRICut=       1 DoRegI=T DoRafI=F ISym2E= 0.
 FoFCou: FMM=F IPFlag=           0 FMFlag=      100000 FMFlg1=           0
         NFxFlg=           0 DoJE=F BraDBF=F KetDBF=F FulRan=T
         wScrn=  0.000000 ICntrl=    3107 IOpCl=  0 I1Cent=           0 NGrid=           0
         NMat0=    1 NMatS0=      1 NMatT0=    0 NMatD0=    1 NMtDS0=    0 NMtDT0=    0
 Symmetry not used in FoFCou.
 End of G2Drv F.D. properties file   721 does not exist.
 End of G2Drv F.D. properties file   722 does not exist.
 End of G2Drv F.D. properties file   788 does not exist.
 Leave Link 1110 at Fri Aug 27 09:34:18 2021, MaxMem= 24159191040 cpu:       418.5
 (Enter /public/home/users/caep010/software/Gaussian09/g09/l1002.exe)
 Minotr:  Closed shell wavefunction.
          IDoAtm=111111111111111
          Direct CPHF calculation.
          Differentiating once with respect to nuclear coordinates.
          Requested convergence is 1.0D-08 RMS, and 1.0D-07 maximum.
          Secondary convergence is 1.0D-12 RMS, and 1.0D-12 maximum.
          NewPWx=T KeepS1=F KeepF1=F KeepIn=T MapXYZ=F SortEE=F KeepMc=T.
          MDV=   24159190581 using IRadAn=       2.
 Generate precomputed XC quadrature information.
 Keep R1 ints in memory in canonical form, NReq=1107806393.
 FoFCou: FMM=F IPFlag=           0 FMFlag=           0 FMFlg1=           0
         NFxFlg=           0 DoJE=F BraDBF=F KetDBF=F FulRan=T
         wScrn=  0.000000 ICntrl=     600 IOpCl=  0 I1Cent=           0 NGrid=           0
         NMat0=    1 NMatS0=  46665 NMatT0=    0 NMatD0=    1 NMtDS0=    0 NMtDT0=    0
 Symmetry not used in FoFCou.
          Solving linear equations simultaneously, MaxMat=       0.
          There are    48 degrees of freedom in the 1st order CPHF.  IDoFFX=6 NUNeed=     0.
     42 vectors produced by pass  0 Test12= 2.02D-14 2.08D-09 XBig12= 2.48D-01 1.73D-01.
 AX will form    42 AO Fock derivatives at one time.
     42 vectors produced by pass  1 Test12= 2.02D-14 2.08D-09 XBig12= 6.45D-02 1.27D-01.
     42 vectors produced by pass  2 Test12= 2.02D-14 2.08D-09 XBig12= 1.13D-03 5.68D-03.
     42 vectors produced by pass  3 Test12= 2.02D-14 2.08D-09 XBig12= 1.66D-05 9.84D-04.
     42 vectors produced by pass  4 Test12= 2.02D-14 2.08D-09 XBig12= 7.91D-08 6.98D-05.
     42 vectors produced by pass  5 Test12= 2.02D-14 2.08D-09 XBig12= 1.76D-10 2.24D-06.
     19 vectors produced by pass  6 Test12= 2.02D-14 2.08D-09 XBig12= 2.64D-13 5.15D-08.
      1 vectors produced by pass  7 Test12= 2.02D-14 2.08D-09 XBig12= 5.57D-16 2.19D-09.
 InvSVY:  IOpt=1 It=  1 EMax= 1.67D-15
 Solved reduced A of dimension   272 with    42 vectors.
 End of Minotr F.D. properties file   721 does not exist.
 End of Minotr F.D. properties file   722 does not exist.
 End of Minotr F.D. properties file   788 does not exist.
 Leave Link 1002 at Fri Aug 27 09:34:40 2021, MaxMem= 24159191040 cpu:       611.6
 (Enter /public/home/users/caep010/software/Gaussian09/g09/l601.exe)
 Copying SCF densities to generalized density rwf, IOpCl= 0 IROHF=0.

 **********************************************************************

            Population analysis using the SCF density.

 **********************************************************************

 Orbital symmetries:
       Occupied  (A) (A) (A) (A) (A) (A) (A) (A) (A) (A) (A) (A)
                 (A) (A) (A) (A) (A) (A) (A) (A) (A) (A) (A) (A)
                 (A) (A) (A) (A) (A) (A) (A) (A) (A) (A) (A) (A)
       Virtual   (A) (A) (A) (A) (A) (A) (A) (A) (A) (A) (A) (A)
                 (A) (A) (A) (A) (A) (A) (A) (A) (A) (A) (A) (A)
                 (A) (A) (A) (A) (A) (A) (A) (A) (A) (A) (A) (A)
                 (A) (A) (A) (A) (A) (A) (A) (A) (A) (A) (A) (A)
                 (A) (A) (A) (A) (A) (A) (A) (A) (A) (A) (A) (A)
                 (A) (A) (A) (A) (A) (A) (A) (A) (A) (A) (A) (A)
                 (A) (A) (A) (A) (A) (A) (A) (A) (A) (A) (A) (A)
                 (A) (A) (A) (A) (A) (A) (A) (A) (A) (A) (A) (A)
                 (A) (A) (A) (A) (A) (A) (A) (A) (A) (A) (A) (A)
                 (A) (A) (A) (A) (A) (A) (A) (A) (A) (A) (A) (A)
                 (A) (A) (A) (A) (A) (A) (A) (A) (A) (A) (A) (A)
                 (A) (A) (A) (A) (A) (A) (A) (A) (A) (A) (A) (A)
                 (A) (A) (A) (A) (A) (A) (A) (A) (A) (A) (A) (A)
                 (A) (A) (A) (A) (A) (A) (A) (A) (A) (A) (A) (A)
                 (A) (A) (A) (A) (A) (A) (A) (A) (A) (A) (A) (A)
                 (A) (A) (A) (A) (A) (A) (A) (A) (A) (A) (A) (A)
                 (A) (A) (A) (A) (A) (A) (A) (A) (A) (A) (A) (A)
                 (A) (A) (A) (A) (A) (A) (A) (A) (A) (A) (A) (A)
                 (A) (A) (A) (A) (A) (A) (A) (A) (A) (A) (A) (A)
                 (A) (A) (A) (A) (A) (A) (A) (A) (A) (A) (A) (A)
                 (A) (A) (A) (A) (A) (A) (A) (A) (A) (A) (A) (A)
                 (A) (A) (A) (A) (A) (A) (A) (A) (A) (A) (A) (A)
                 (A) (A) (A) (A) (A)
 The electronic state is 1-A.
 Alpha  occ. eigenvalues --  -19.12301 -19.11680 -14.54356 -14.42925 -14.34065
 Alpha  occ. eigenvalues --  -10.29768 -10.26748 -10.22558 -10.21303 -10.20675
 Alpha  occ. eigenvalues --   -1.19105  -1.04732  -0.99780  -0.92752  -0.86524
 Alpha  occ. eigenvalues --   -0.81633  -0.71403  -0.70897  -0.64872  -0.59476
 Alpha  occ. eigenvalues --   -0.55291  -0.53370  -0.52154  -0.50824  -0.50234
 Alpha  occ. eigenvalues --   -0.46861  -0.46679  -0.44668  -0.41437  -0.34600
 Alpha  occ. eigenvalues --   -0.33450  -0.31631  -0.27449  -0.26416  -0.23593
 Alpha  occ. eigenvalues --   -0.23096
 Alpha virt. eigenvalues --   -0.08064  -0.04681   0.02478   0.07315   0.11474
 Alpha virt. eigenvalues --    0.11918   0.13124   0.16546   0.19347   0.20436
 Alpha virt. eigenvalues --    0.21522   0.23832   0.25897   0.27103   0.28693
 Alpha virt. eigenvalues --    0.34121   0.34627   0.36694   0.41004   0.43360
 Alpha virt. eigenvalues --    0.44413   0.44804   0.46468   0.46655   0.48722
 Alpha virt. eigenvalues --    0.49378   0.50519   0.51543   0.54287   0.54873
 Alpha virt. eigenvalues --    0.55487   0.59810   0.60497   0.60853   0.66210
 Alpha virt. eigenvalues --    0.66479   0.68382   0.69613   0.71655   0.73544
 Alpha virt. eigenvalues --    0.74920   0.75354   0.75806   0.77253   0.78315
 Alpha virt. eigenvalues --    0.79548   0.80761   0.83079   0.83777   0.84668
 Alpha virt. eigenvalues --    0.85343   0.86507   0.87705   0.90205   0.93183
 Alpha virt. eigenvalues --    0.93497   0.93982   0.95439   0.97511   0.98609
 Alpha virt. eigenvalues --    1.00237   1.01713   1.02184   1.04362   1.08008
 Alpha virt. eigenvalues --    1.08811   1.13286   1.14271   1.18207   1.20264
 Alpha virt. eigenvalues --    1.22024   1.23777   1.25521   1.27742   1.30624
 Alpha virt. eigenvalues --    1.32828   1.34952   1.36535   1.38596   1.40177
 Alpha virt. eigenvalues --    1.41836   1.42408   1.42885   1.49440   1.50816
 Alpha virt. eigenvalues --    1.53562   1.55631   1.56909   1.59038   1.59307
 Alpha virt. eigenvalues --    1.61828   1.64987   1.69103   1.70588   1.71346
 Alpha virt. eigenvalues --    1.74429   1.78329   1.78617   1.80704   1.85754
 Alpha virt. eigenvalues --    1.86200   1.87739   1.89651   1.92696   1.93632
 Alpha virt. eigenvalues --    1.94990   2.03122   2.11914   2.13067   2.14953
 Alpha virt. eigenvalues --    2.18090   2.29679   2.31391   2.32425   2.36494
 Alpha virt. eigenvalues --    2.40497   2.41779   2.44408   2.52337   2.62151
 Alpha virt. eigenvalues --    2.63549   2.72103   2.73922   2.84129   2.85288
 Alpha virt. eigenvalues --    2.88288   2.91802   3.00247   3.00906   3.03185
 Alpha virt. eigenvalues --    3.04692   3.05799   3.07249   3.09223   3.11336
 Alpha virt. eigenvalues --    3.12763   3.13065   3.15909   3.18595   3.22289
 Alpha virt. eigenvalues --    3.23307   3.26772   3.27406   3.29166   3.30453
 Alpha virt. eigenvalues --    3.33481   3.35368   3.35967   3.37932   3.42180
 Alpha virt. eigenvalues --    3.43601   3.46332   3.50385   3.53815   3.56071
 Alpha virt. eigenvalues --    3.57724   3.58866   3.59752   3.61438   3.63517
 Alpha virt. eigenvalues --    3.65240   3.69973   3.73209   3.74694   3.76291
 Alpha virt. eigenvalues --    3.79722   3.81800   3.87490   3.93300   3.95874
 Alpha virt. eigenvalues --    3.97949   4.03566   4.04254   4.06162   4.09125
 Alpha virt. eigenvalues --    4.10495   4.11863   4.13376   4.14963   4.15466
 Alpha virt. eigenvalues --    4.16489   4.20638   4.23284   4.27549   4.29844
 Alpha virt. eigenvalues --    4.31583   4.32252   4.33831   4.37306   4.38704
 Alpha virt. eigenvalues --    4.39700   4.40060   4.42142   4.42971   4.43320
 Alpha virt. eigenvalues --    4.45865   4.49466   4.51472   4.51675   4.52153
 Alpha virt. eigenvalues --    4.54314   4.57150   4.58729   4.61260   4.62050
 Alpha virt. eigenvalues --    4.63938   4.65326   4.70201   4.70830   4.73740
 Alpha virt. eigenvalues --    4.76301   4.78103   4.81130   4.84268   4.90762
 Alpha virt. eigenvalues --    4.94699   4.97328   5.00475   5.04165   5.05320
 Alpha virt. eigenvalues --    5.06138   5.07201   5.08233   5.10108   5.12173
 Alpha virt. eigenvalues --    5.13303   5.15298   5.18272   5.21633   5.27438
 Alpha virt. eigenvalues --    5.35733   5.38952   5.42116   5.44812   5.47044
 Alpha virt. eigenvalues --    5.49688   5.51858   5.58659   5.64944   5.67180
 Alpha virt. eigenvalues --    5.69831   5.89263   5.92891   5.93993   5.98953
 Alpha virt. eigenvalues --    6.04445   6.08754   6.10296   6.24552   6.28944
 Alpha virt. eigenvalues --    6.35583   6.43154   6.72712   6.91519   7.09737
 Alpha virt. eigenvalues --    8.15586   8.92429   9.86418  10.49234  11.02522
 Alpha virt. eigenvalues --   11.27485  11.36844  11.42596  11.62849  12.00792
 Alpha virt. eigenvalues --   13.10335  13.18427  18.60952  22.43162
          Condensed to atoms (all electrons):
               1          2          3          4          5          6
     1  O    8.050047   0.570349  -0.091438  -0.132744   0.001378   0.000127
     2  N    0.570349   4.968304   0.568917   0.407942  -0.075646  -0.001831
     3  O   -0.091438   0.568917   8.048636  -0.119872   0.001641  -0.000064
     4  N   -0.132744   0.407942  -0.119872   6.845174   0.478346  -0.047216
     5  C    0.001378  -0.075646   0.001641   0.478346   4.421626   0.421186
     6  N    0.000127  -0.001831  -0.000064  -0.047216   0.421186   6.174380
     7  H    0.000063  -0.000151  -0.000090   0.014639  -0.030553   0.346366
     8  C    0.000411  -0.003849   0.000635  -0.035445   0.428444   0.019422
     9  C    0.001430   0.000624   0.000004   0.000311   0.003122  -0.046847
    10  H   -0.000004  -0.000007  -0.000000  -0.000168   0.002707   0.000876
    11  C   -0.000015  -0.000012   0.000000   0.001689  -0.028567   0.016991
    12  H    0.000000   0.000000   0.000000   0.000011   0.001497   0.002915
    13  C    0.000015  -0.000120   0.000000  -0.000385  -0.063964   0.452388
    14  H    0.037148   0.000517   0.000328  -0.008723  -0.030855   0.003861
    15  H    0.000000  -0.000000  -0.000000  -0.000190   0.001610  -0.024118
               7          8          9         10         11         12
     1  O    0.000063   0.000411   0.001430  -0.000004  -0.000015   0.000000
     2  N   -0.000151  -0.003849   0.000624  -0.000007  -0.000012   0.000000
     3  O   -0.000090   0.000635   0.000004  -0.000000   0.000000   0.000000
     4  N    0.014639  -0.035445   0.000311  -0.000168   0.001689   0.000011
     5  C   -0.030553   0.428444   0.003122   0.002707  -0.028567   0.001497
     6  N    0.346366   0.019422  -0.046847   0.000876   0.016991   0.002915
     7  H    0.428997   0.008543   0.000832   0.000067   0.002625  -0.000196
     8  C    0.008543   4.911711   0.518139  -0.028059   0.030196   0.002854
     9  C    0.000832   0.518139   4.705034   0.352071   0.529583  -0.026096
    10  H    0.000067  -0.028059   0.352071   0.606618  -0.045769  -0.004423
    11  C    0.002625   0.030196   0.529583  -0.045769   4.719463   0.369579
    12  H   -0.000196   0.002854  -0.026096  -0.004423   0.369579   0.587134
    13  C   -0.033545  -0.051664   0.020188   0.005530   0.571464  -0.038710
    14  H   -0.000153   0.360104  -0.036495  -0.005466   0.003793  -0.000307
    15  H   -0.005174   0.003062  -0.000490  -0.000512  -0.026150  -0.001396
              13         14         15
     1  O    0.000015   0.037148   0.000000
     2  N   -0.000120   0.000517  -0.000000
     3  O    0.000000   0.000328  -0.000000
     4  N   -0.000385  -0.008723  -0.000190
     5  C   -0.063964  -0.030855   0.001610
     6  N    0.452388   0.003861  -0.024118
     7  H   -0.033545  -0.000153  -0.005174
     8  C   -0.051664   0.360104   0.003062
     9  C    0.020188  -0.036495  -0.000490
    10  H    0.005530  -0.005466  -0.000512
    11  C    0.571464   0.003793  -0.026150
    12  H   -0.038710  -0.000307  -0.001396
    13  C    4.701996   0.001339   0.352428
    14  H    0.001339   0.533580   0.000059
    15  H    0.352428   0.000059   0.551532
 Mulliken charges:
               1
     1  O   -0.436767
     2  N    0.564965
     3  O   -0.408696
     4  N   -0.403370
     5  C    0.468029
     6  N   -0.318436
     7  H    0.267731
     8  C   -0.164503
     9  C   -0.021411
    10  H    0.116542
    11  C   -0.144871
    12  H    0.107137
    13  C    0.083043
    14  H    0.141271
    15  H    0.149338
 Sum of Mulliken charges =  -0.00000
 Mulliken charges with hydrogens summed into heavy atoms:
               1
     1  O   -0.436767
     2  N    0.564965
     3  O   -0.408696
     4  N   -0.403370
     5  C    0.468029
     6  N   -0.050705
     8  C   -0.023233
     9  C    0.095131
    11  C   -0.037735
    13  C    0.232381
 APT charges:
               1
     1  O    0.052601
     2  N   -1.129902
     3  O    0.748357
     4  N   -0.069516
     5  C   -0.204593
     6  N   -0.833598
     7  H    0.545252
     8  C   -0.694603
     9  C   -0.223213
    10  H    0.529233
    11  C   -0.299214
    12  H    0.673169
    13  C   -0.085866
    14  H    0.338899
    15  H    0.652995
 Sum of APT charges =  -0.00000
 APT charges with hydrogens summed into heavy atoms:
               1
     1  O    0.052601
     2  N   -1.129902
     3  O    0.748357
     4  N   -0.069516
     5  C   -0.204593
     6  N   -0.288346
     8  C   -0.355704
     9  C    0.306020
    11  C    0.373955
    13  C    0.567129
 Electronic spatial extent (au):  <R**2>=           1482.3874
 Charge=             -0.0000 electrons
 Dipole moment (field-independent basis, Debye):
    X=              9.3224    Y=             -1.0558    Z=              0.1611  Tot=              9.3834
 Quadrupole moment (field-independent basis, Debye-Ang):
   XX=            -61.7721   YY=            -50.2415   ZZ=            -55.6003
   XY=             -2.4273   XZ=             -0.1749   YZ=             -0.0156
 Traceless Quadrupole moment (field-independent basis, Debye-Ang):
   XX=             -5.9008   YY=              5.6298   ZZ=              0.2710
   XY=             -2.4273   XZ=             -0.1749   YZ=             -0.0156
 Octapole moment (field-independent basis, Debye-Ang**2):
  XXX=             68.9181  YYY=             -8.2509  ZZZ=             -0.1371  XYY=             18.4097
  XXY=             -0.2759  XXZ=             -0.2670  XZZ=            -11.2541  YZZ=             -0.6246
  YYZ=              0.8733  XYZ=             -0.4061
 Hexadecapole moment (field-independent basis, Debye-Ang**3):
 XXXX=          -1471.4419 YYYY=           -310.8549 ZZZZ=            -49.4540 XXXY=            -23.8251
 XXXZ=             -2.7978 YYYX=            -11.7818 YYYZ=             -1.1685 ZZZX=              0.4600
 ZZZY=             -0.3464 XXYY=           -286.9633 XXZZ=           -248.7407 YYZZ=            -69.2200
 XXYZ=              1.2103 YYXZ=              0.3150 ZZXY=             -2.8015
 N-N= 5.077550699116D+02 E-N=-2.203135885479D+03  KE= 5.058887898837D+02
  Exact polarizability:   0.000   0.000   0.000   0.000   0.000   0.000
 Approx polarizability: 239.452  17.712 152.160  -1.265  -0.051  56.498
 No NMR shielding tensors so no spin-rotation constants.
 Leave Link  601 at Fri Aug 27 09:34:40 2021, MaxMem= 24159191040 cpu:        15.7
 (Enter /public/home/users/caep010/software/Gaussian09/g09/l701.exe)
 Compute integral second derivatives.
 ... and contract with generalized density number  0.
 Leave Link  701 at Fri Aug 27 09:34:41 2021, MaxMem= 24159191040 cpu:        18.1
 (Enter /public/home/users/caep010/software/Gaussian09/g09/l702.exe)
 L702 exits ... SP integral derivatives will be done elsewhere.
 Leave Link  702 at Fri Aug 27 09:34:41 2021, MaxMem= 24159191040 cpu:         0.6
 (Enter /public/home/users/caep010/software/Gaussian09/g09/l703.exe)
 Compute integral second derivatives, UseDBF=F ICtDFT=           0.
 Integral derivatives from FoFJK, PRISM(SPDF).
 Calling FoFJK, ICntrl=    100147 FMM=F ISym2X=0 I1Cent= 0 IOpClX= 0 NMat=1 NMatS=1 NMatT=0.
 FoFJK:  IHMeth= 1 ICntrl=  100147 DoSepK=F KAlg= 0 I1Cent=   0 FoldK=F
 IRaf=         0 NMat=   1 IRICut=       1 DoRegI=T DoRafI=F ISym2E= 0.
 FoFCou: FMM=F IPFlag=           0 FMFlag=      100000 FMFlg1=         800
         NFxFlg=           0 DoJE=F BraDBF=F KetDBF=F FulRan=T
         wScrn=  0.000000 ICntrl=  100147 IOpCl=  0 I1Cent=           0 NGrid=           0
         NMat0=    1 NMatS0=      1 NMatT0=    0 NMatD0=    1 NMtDS0=    0 NMtDT0=    0
 Symmetry not used in FoFCou.
 Leave Link  703 at Fri Aug 27 09:35:09 2021, MaxMem= 24159191040 cpu:       855.0
 (Enter /public/home/users/caep010/software/Gaussian09/g09/l716.exe)
 Dipole        = 3.66772668D+00-4.15370385D-01 6.33672804D-02
 Polarizability= 0.00000000D+00 0.00000000D+00 0.00000000D+00
                 0.00000000D+00 0.00000000D+00 0.00000000D+00
 ***** Axes restored to original set *****
 -------------------------------------------------------------------
 Center     Atomic                   Forces (Hartrees/Bohr)
 Number     Number              X              Y              Z
 -------------------------------------------------------------------
      1        8           0.003913057   -0.000723274    0.009102698
      2        7           0.002091702   -0.004399073   -0.038656259
      3        8           0.002018075    0.000566895    0.009720453
      4        7           0.002264052    0.001140129    0.041235509
      5        6          -0.014291371    0.005082318   -0.041736112
      6        7           0.056113854   -0.028269533    0.022288380
      7        1          -0.063835159    0.032886668   -0.014685238
      8        6          -0.064852120    0.028609217    0.099778543
      9        6          -0.115536491    0.051771387   -0.030244344
     10        1           0.125027918   -0.056348549    0.025044849
     11        6          -0.037380181    0.015851706   -0.121568170
     12        1           0.037064190   -0.017353405    0.129116325
     13        6           0.078020829   -0.035023864   -0.078937517
     14        1           0.077214834   -0.035406798   -0.102703231
     15        1          -0.087833189    0.041616177    0.092244111
 -------------------------------------------------------------------
 Cartesian Forces:  Max     0.129116325 RMS     0.057851712
 FormGI is forming the generalized inverse of G from B-inverse, IUseBI=4.
 Leave Link  716 at Fri Aug 27 09:35:09 2021, MaxMem= 24159191040 cpu:         1.1
 (Enter /public/home/users/caep010/software/Gaussian09/g09/l103.exe)

 GradGradGradGradGradGradGradGradGradGradGradGradGradGradGradGradGradGrad
 Berny optimization.
 Red2BG is reusing G-inverse.
 Internal  Forces:  Max     0.139379940 RMS     0.035133392
 Search for a local minimum.
 Step number   1 out of a maximum of   76
 All quantities printed in internal units (Hartrees-Bohrs-Radians)
 RMS Force = .35133D-01 SwitMx=.10000D-02 MixMth= 1
 Mixed Optimization -- RFO/linear search
 Second derivative matrix not updated -- analytic derivatives used.
 ITU=  0
     Eigenvalues ---    0.00523   0.01141   0.01390   0.01460   0.01876
     Eigenvalues ---    0.01972   0.02333   0.02492   0.02862   0.03371
     Eigenvalues ---    0.04058   0.09054   0.10778   0.11314   0.11764
     Eigenvalues ---    0.12730   0.13306   0.18801   0.20191   0.21350
     Eigenvalues ---    0.23058   0.27072   0.28945   0.34899   0.36941
     Eigenvalues ---    0.41673   0.42972   0.45378   0.52382   0.53087
     Eigenvalues ---    0.56440   0.57170   0.69894   0.73941   0.75759
     Eigenvalues ---    0.75925   0.76796   0.77013   0.86508
 RFO step:  Lambda=-9.78623942D-02 EMin= 5.22741511D-03
 Linear search not attempted -- first point.
 Maximum step size (   0.300) exceeded in Quadratic search.
    -- Step size scaled by   0.854
 Iteration  1 RMS(Cart)=  0.04028735 RMS(Int)=  0.00050538
 Iteration  2 RMS(Cart)=  0.00061024 RMS(Int)=  0.00002833
 Iteration  3 RMS(Cart)=  0.00000069 RMS(Int)=  0.00002832
 ITry= 1 IFail=0 DXMaxC= 1.38D-01 DCOld= 1.00D+10 DXMaxT= 3.00D-01 DXLimC= 3.00D+00 Rises=F
 Variable       Old X    -DE/DX   Delta X   Delta X   Delta X     New X
                                 (Linear)    (Quad)   (Total)
    R1        2.34212   0.00298   0.00000  -0.00160  -0.00160   2.34052
    R2        2.33837  -0.00877   0.00000  -0.01966  -0.01966   2.31871
    R3        2.52548   0.02184   0.00000   0.04866   0.04866   2.57414
    R4        2.57015  -0.02388   0.00000  -0.04608  -0.04608   2.52407
    R5        2.56994   0.01791   0.00000   0.02965   0.02967   2.59961
    R6        2.65978   0.01371   0.00000   0.02970   0.02972   2.68950
    R7        1.78739   0.07301   0.00000   0.07757   0.07757   1.86496
    R8        2.53831   0.00790   0.00000   0.01272   0.01273   2.55104
    R9        2.58871   0.00672   0.00000   0.00420   0.00419   2.59290
   R10        1.79351   0.13322   0.00000   0.13036   0.13036   1.92387
   R11        1.79316   0.13938   0.00000   0.13703   0.13703   1.93019
   R12        2.64348   0.01706   0.00000   0.02332   0.02330   2.66677
   R13        1.79448   0.13543   0.00000   0.13355   0.13355   1.92802
   R14        2.56666   0.01045   0.00000   0.00906   0.00905   2.57571
   R15        1.79870   0.13363   0.00000   0.13297   0.13297   1.93167
    A1        2.11932   0.01095   0.00000   0.02522   0.02522   2.14454
    A2        2.16190  -0.01118   0.00000  -0.02159  -0.02159   2.14031
    A3        2.00181   0.00025   0.00000  -0.00355  -0.00355   1.99825
    A4        2.08378  -0.00782   0.00000  -0.00049  -0.00049   2.08330
    A5        1.92216   0.00228   0.00000   0.00575   0.00573   1.92788
    A6        2.32721  -0.00004   0.00000   0.01217   0.01214   2.33935
    A7        2.03379  -0.00225   0.00000  -0.01793  -0.01788   2.01591
    A8        1.97770   0.00138   0.00000   0.00232   0.00228   1.97998
    A9        2.16281   0.00388   0.00000   0.01595   0.01596   2.17877
   A10        2.13575  -0.00504   0.00000  -0.01681  -0.01686   2.11890
   A11        2.08912  -0.00068   0.00000   0.00323   0.00325   2.09237
   A12        2.09337  -0.00327   0.00000  -0.01714  -0.01715   2.07622
   A13        2.10069   0.00396   0.00000   0.01390   0.01390   2.11458
   A14        2.08946  -0.00281   0.00000  -0.00936  -0.00935   2.08011
   A15        2.12111   0.00101   0.00000   0.00562   0.00559   2.12670
   A16        2.07258   0.00180   0.00000   0.00376   0.00378   2.07635
   A17        2.11873   0.00089   0.00000   0.00495   0.00497   2.12369
   A18        2.05019   0.00189   0.00000   0.00077   0.00073   2.05092
   A19        2.11427  -0.00278   0.00000  -0.00572  -0.00570   2.10857
   A20        2.10927  -0.00384   0.00000  -0.00762  -0.00763   2.10164
   A21        2.08714  -0.00699   0.00000  -0.03014  -0.03014   2.05700
   A22        2.08678   0.01083   0.00000   0.03776   0.03776   2.12454
    D1        3.12357   0.00110   0.00000   0.00498   0.00503   3.12860
    D2        0.00659  -0.00047   0.00000  -0.00063  -0.00058   0.00601
    D3        3.12967   0.00092   0.00000   0.00504   0.00498   3.13465
    D4       -3.09397  -0.00121   0.00000  -0.00737  -0.00739  -3.10136
    D5        0.05555  -0.00077   0.00000  -0.00506  -0.00504   0.05051
    D6       -0.12895   0.00218   0.00000   0.01557   0.01562  -0.11333
    D7        3.13644   0.00059   0.00000   0.00392   0.00389   3.14034
    D8        3.00620   0.00183   0.00000   0.01382   0.01388   3.02008
    D9       -0.01160   0.00024   0.00000   0.00217   0.00216  -0.00944
   D10        3.13918  -0.00046   0.00000  -0.00267  -0.00265   3.13653
   D11        0.00247  -0.00043   0.00000  -0.00251  -0.00250  -0.00003
   D12        0.00591  -0.00001   0.00000  -0.00033  -0.00030   0.00561
   D13       -3.13080   0.00002   0.00000  -0.00017  -0.00016  -3.13095
   D14        0.00629  -0.00038   0.00000  -0.00288  -0.00289   0.00340
   D15       -3.13636   0.00018   0.00000   0.00034   0.00026  -3.13610
   D16       -3.00063  -0.00263   0.00000  -0.01714  -0.01705  -3.01768
   D17        0.13990  -0.00207   0.00000  -0.01391  -0.01390   0.12600
   D18        3.13657   0.00024   0.00000   0.00158   0.00155   3.13813
   D19        0.00466  -0.00014   0.00000  -0.00091  -0.00090   0.00376
   D20       -0.00993   0.00019   0.00000   0.00132   0.00132  -0.00861
   D21        3.14134  -0.00019   0.00000  -0.00116  -0.00114   3.14020
   D22        3.13137   0.00000   0.00000   0.00030   0.00028   3.13166
   D23       -0.01008  -0.00001   0.00000   0.00019   0.00017  -0.00992
   D24       -0.00063  -0.00035   0.00000  -0.00208  -0.00210  -0.00273
   D25        3.14110  -0.00036   0.00000  -0.00220  -0.00221   3.13888
   D26        0.00479   0.00024   0.00000   0.00163   0.00164   0.00643
   D27       -3.13575  -0.00031   0.00000  -0.00156  -0.00159  -3.13734
   D28       -3.13667   0.00023   0.00000   0.00151   0.00152  -3.13515
   D29        0.00598  -0.00032   0.00000  -0.00167  -0.00171   0.00427
         Item               Value     Threshold  Converged?
 Maximum Force            0.139380     0.000450     NO 
 RMS     Force            0.035133     0.000300     NO 
 Maximum Displacement     0.138295     0.001800     NO 
 RMS     Displacement     0.040337     0.001200     NO 
 Predicted change in Energy=-5.234714D-02
 Lowest energy point so far.  Saving SCF results.
 GradGradGradGradGradGradGradGradGradGradGradGradGradGradGradGradGradGrad

 Leave Link  103 at Fri Aug 27 09:35:09 2021, MaxMem= 24159191040 cpu:         4.6
 (Enter /public/home/users/caep010/software/Gaussian09/g09/l202.exe)
                          Input orientation:                          
 ---------------------------------------------------------------------
 Center     Atomic      Atomic             Coordinates (Angstroms)
 Number     Number       Type             X           Y           Z
 ---------------------------------------------------------------------
      1          8           0        7.464422   -0.702886    1.499198
      2          7           0        6.366321   -0.137488    1.591440
      3          8           0        5.687723    0.162908    0.614290
      4          7           0        5.805862    0.187537    2.789673
      5          6           0        6.458389   -0.103098    3.918295
      6          7           0        5.707951    0.256281    5.013792
      7          1           0        4.884644    0.748355    4.781438
      8          6           0        7.728290   -0.677157    4.207031
      9          6           0        8.122869   -0.843544    5.510601
     10          1           0        9.035161   -1.259463    5.705574
     11          6           0        7.299666   -0.463839    6.592099
     12          1           0        7.592149   -0.596614    7.560483
     13          6           0        6.090002    0.091129    6.297977
     14          1           0        8.331266   -0.953783    3.434789
     15          1           0        5.444485    0.392763    7.030921
 ---------------------------------------------------------------------
                    Distance matrix (angstroms):
                    1          2          3          4          5
     1  O    0.000000
     2  N    1.238552   0.000000
     3  O    2.165483   1.227010   0.000000
     4  N    2.282323   1.362174   2.178728   0.000000
     5  C    2.687728   2.328930   3.403107   1.335683   0.000000
     6  N    4.044448   3.507277   4.400539   2.227334   1.375654
     7  H    4.419780   3.627144   4.284018   2.265014   1.986621
     8  C    2.720781   2.997919   4.216326   2.540143   1.423221
     9  C    4.067517   4.352448   5.560282   3.719556   2.419543
    10  H    4.524444   5.030669   6.256968   4.585265   3.342349
    11  C    5.101169   5.097473   6.222971   4.136929   2.826147
    12  H    6.063562   6.110885   7.242465   5.154254   3.846361
    13  C    5.054480   4.720181   5.698357   3.521111   2.415847
    14  H    2.135622   2.815187   4.023745   2.845425   2.113080
    15  H    5.990038   5.542464   6.425352   4.261560   3.310940
                    6          7          8          9         10
     6  N    0.000000
     7  H    0.986894   0.000000
     8  C    2.367263   3.232391   0.000000
     9  C    2.699678   3.681293   1.372105   0.000000
    10  H    3.721070   4.702356   2.071864   1.021411   0.000000
    11  C    2.354396   3.252728   2.432647   1.411196   2.104967
    12  H    3.280741   4.106411   3.357180   2.131819   2.441790
    13  C    1.349952   2.045660   2.765195   2.371944   3.293782
    14  H    3.292306   4.073075   1.018067   2.089158   2.396951
    15  H    2.038836   2.345217   3.786139   3.318670   4.168855
                   11         12         13         14         15
    11  C    0.000000
    12  H    1.020266   0.000000
    13  C    1.363005   2.079268   0.000000
    14  H    3.357506   4.206568   3.783246   0.000000
    15  H    2.089983   2.423172   1.022195   4.804046   0.000000
 Stoichiometry    C5H5N3O2
 Framework group  C1[X(C5H5N3O2)]
 Deg. of freedom    39
 Full point group                 C1      NOp   1
 RotChk:  IX=0 Diff= 3.60D-03
 Largest Abelian subgroup         C1      NOp   1
 Largest concise Abelian subgroup C1      NOp   1
                         Standard orientation:                         
 ---------------------------------------------------------------------
 Center     Atomic      Atomic             Coordinates (Angstroms)
 Number     Number       Type             X           Y           Z
 ---------------------------------------------------------------------
      1          8           0       -2.101069    1.242636   -0.041763
      2          7           0       -2.185323    0.007583   -0.002320
      3          8           0       -3.258671   -0.586941    0.002086
      4          7           0       -1.090775   -0.802852    0.023684
      5          6           0        0.128426   -0.257426    0.013394
      6          7           0        1.093499   -1.237521   -0.008342
      7          1           0        0.729264   -2.149462    0.089924
      8          6           0        0.613902    1.080324    0.030597
      9          6           0        1.965319    1.317373    0.018226
     10          1           0        2.301901    2.281688    0.027698
     11          6           0        2.905596    0.265618   -0.015913
     12          1           0        3.909803    0.445053   -0.033664
     13          6           0        2.423942   -1.009419   -0.024495
     14          1           0       -0.055170    1.847222    0.056489
     15          1           0        3.047206   -1.819358   -0.045045
 ---------------------------------------------------------------------
 Rotational constants (GHZ):      4.0003050      0.8513075      0.7020849
 Leave Link  202 at Fri Aug 27 09:35:09 2021, MaxMem= 24159191040 cpu:         0.3
 (Enter /public/home/users/caep010/software/Gaussian09/g09/l301.exe)
 Standard basis: GTBas3 (6D, 7F)
 Ernie: Thresh=  0.10000D-02 Tol=  0.10000D-05 Strict=F.
 There are   335 symmetry adapted cartesian basis functions of A   symmetry.
 There are   305 symmetry adapted basis functions of A   symmetry.
   305 basis functions,   475 primitive gaussians,   335 cartesian basis functions
    36 alpha electrons       36 beta electrons
       nuclear repulsion energy       504.5229937372 Hartrees.
 IExCor=  402 DFT=T Ex+Corr=B3LYP ExCW=0 ScaHFX=  0.200000
 ScaDFX=  0.800000  0.720000  1.000000  0.810000 ScalE2=  1.000000  1.000000
 IRadAn=      0 IRanWt=     -1 IRanGd=            0 ICorTp=0 IEmpDi=  4
 NAtoms=   15 NActive=   15 NUniq=   15 SFac= 1.00D+00 NAtFMM=   60 NAOKFM=F Big=F
 Integral buffers will be    131072 words long.
 Raffenetti 2 integral format.
 Two-electron integral symmetry is turned on.
 Leave Link  301 at Fri Aug 27 09:35:09 2021, MaxMem= 24159191040 cpu:         1.6
 (Enter /public/home/users/caep010/software/Gaussian09/g09/l302.exe)
 NPDir=0 NMtPBC=     1 NCelOv=     1 NCel=       1 NClECP=     1 NCelD=      1
         NCelK=      1 NCelE2=     1 NClLst=     1 CellRange=     0.0.
 One-electron integrals computed using PRISM.
 NBasis=   305 RedAO= T EigKep=  1.35D-04  NBF=   305
 NBsUse=   305 1.00D-06 EigRej= -1.00D+00 NBFU=   305
 Precomputing XC quadrature grid using
 IXCGrd= 4 IRadAn=           0 IRanWt=          -1 IRanGd=           0 AccXCQ= 0.00D+00.
 Generated NRdTot=       0 NPtTot=           0 NUsed=           0 NTot=          32
 NSgBfM=   335   335   335   335   335 MxSgAt=    15 MxSgA2=    15.
 Leave Link  302 at Fri Aug 27 09:35:10 2021, MaxMem= 24159191040 cpu:        15.6
 (Enter /public/home/users/caep010/software/Gaussian09/g09/l303.exe)
 DipDrv:  MaxL=1.
 Leave Link  303 at Fri Aug 27 09:35:10 2021, MaxMem= 24159191040 cpu:         1.1
 (Enter /public/home/users/caep010/software/Gaussian09/g09/l401.exe)
 Initial guess from the checkpoint file:  "/public/home/users/caep010/.cache/gau_scr/Gau-211393.chk"
 B after Tr=    -0.000000    0.000000    0.000000
         Rot=    0.999999    0.000079    0.000040   -0.001088 Ang=   0.13 deg.
 Guess basis will be translated and rotated to current coordinates.
 JPrj=2 DoOrth=T DoCkMO=T.
 Generating alternative initial guess.
 ExpMin= 1.61D-01 ExpMax= 5.48D+03 ExpMxC= 8.25D+02 IAcc=1 IRadAn=         1 AccDes= 0.00D+00
 Harris functional with IExCor=  402 and IRadAn=       1 diagonalized for initial guess.
 HarFok:  IExCor=  402 AccDes= 0.00D+00 IRadAn=         1 IDoV= 1 UseB2=F ITyADJ=14
 ICtDFT=  3500011 ScaDFX=  1.000000  1.000000  1.000000  1.000000
 FoFCou: FMM=F IPFlag=           0 FMFlag=      100000 FMFlg1=           0
         NFxFlg=           0 DoJE=T BraDBF=F KetDBF=T FulRan=T
         wScrn=  0.000000 ICntrl=     500 IOpCl=  0 I1Cent=   200000004 NGrid=           0
         NMat0=    1 NMatS0=      1 NMatT0=    0 NMatD0=    1 NMtDS0=    0 NMtDT0=    0
 Petite list used in FoFCou.
 Harris En= -508.177875456850    
 Leave Link  401 at Fri Aug 27 09:35:11 2021, MaxMem= 24159191040 cpu:        19.1
 (Enter /public/home/users/caep010/software/Gaussian09/g09/l502.exe)
 Closed shell SCF:
 Using DIIS extrapolation, IDIIS=  1040.
 Integral symmetry usage will be decided dynamically.
 Keep R1 ints in memory in canonical form, NReq=1108169170.
 IVT=      368365 IEndB=      368365 NGot= 24159191040 MDV= 23069988231
 LenX= 23069988231 LenY= 23069875565
 Requested convergence on RMS density matrix=1.00D-08 within 128 cycles.
 Requested convergence on MAX density matrix=1.00D-06.
 Requested convergence on             energy=1.00D-06.
 No special actions if energy rises.
 FoFCou: FMM=F IPFlag=           0 FMFlag=           0 FMFlg1=           0
         NFxFlg=           0 DoJE=F BraDBF=F KetDBF=F FulRan=T
         wScrn=  0.000000 ICntrl=     600 IOpCl=  0 I1Cent=           0 NGrid=           0
         NMat0=    1 NMatS0=  46665 NMatT0=    0 NMatD0=    1 NMtDS0=    0 NMtDT0=    0
 Symmetry not used in FoFCou.
 Integral accuracy reduced to 1.0D-05 until final iterations.

 Cycle   1  Pass 0  IDiag  1:
 E= -508.131749986916    
 DIIS: error= 3.55D-03 at cycle   1 NSaved=   1.
 NSaved= 1 IEnMin= 1 EnMin= -508.131749986916     IErMin= 1 ErrMin= 3.55D-03
 ErrMax= 3.55D-03  0.00D+00 EMaxC= 1.00D-01 BMatC= 5.98D-03 BMatP= 5.98D-03
 IDIUse=3 WtCom= 9.65D-01 WtEn= 3.55D-02
 Coeff-Com:  0.100D+01
 Coeff-En:   0.100D+01
 Coeff:      0.100D+01
 Gap=     0.984 Goal=   None    Shift=    0.000
 GapD=    0.984 DampG=2.000 DampE=1.000 DampFc=2.0000 IDamp=-1.
 RMSDP=5.55D-04 MaxDP=1.51D-02              OVMax= 1.68D-02

 Cycle   2  Pass 0  IDiag  1:
 E= -508.137126263261     Delta-E=       -0.005376276345 Rises=F Damp=F
 DIIS: error= 1.07D-03 at cycle   2 NSaved=   2.
 NSaved= 2 IEnMin= 2 EnMin= -508.137126263261     IErMin= 2 ErrMin= 1.07D-03
 ErrMax= 1.07D-03  0.00D+00 EMaxC= 1.00D-01 BMatC= 4.88D-04 BMatP= 5.98D-03
 IDIUse=3 WtCom= 9.89D-01 WtEn= 1.07D-02
 Coeff-Com:  0.139D+00 0.861D+00
 Coeff-En:   0.000D+00 0.100D+01
 Coeff:      0.137D+00 0.863D+00
 Gap=     0.157 Goal=   None    Shift=    0.000
 RMSDP=1.30D-04 MaxDP=5.36D-03 DE=-5.38D-03 OVMax= 1.52D-02

 Cycle   3  Pass 0  IDiag  1:
 E= -508.137140789755     Delta-E=       -0.000014526494 Rises=F Damp=F
 DIIS: error= 8.75D-04 at cycle   3 NSaved=   3.
 NSaved= 3 IEnMin= 3 EnMin= -508.137140789755     IErMin= 3 ErrMin= 8.75D-04
 ErrMax= 8.75D-04  0.00D+00 EMaxC= 1.00D-01 BMatC= 5.23D-04 BMatP= 4.88D-04
 IDIUse=3 WtCom= 9.91D-01 WtEn= 8.75D-03
 Coeff-Com:  0.274D-01 0.509D+00 0.463D+00
 Coeff-En:   0.000D+00 0.492D+00 0.508D+00
 Coeff:      0.272D-01 0.509D+00 0.464D+00
 Gap=     0.160 Goal=   None    Shift=    0.000
 RMSDP=7.78D-05 MaxDP=4.20D-03 DE=-1.45D-05 OVMax= 1.06D-02

 Cycle   4  Pass 0  IDiag  1:
 E= -508.137561679289     Delta-E=       -0.000420889534 Rises=F Damp=F
 DIIS: error= 2.24D-04 at cycle   4 NSaved=   4.
 NSaved= 4 IEnMin= 4 EnMin= -508.137561679289     IErMin= 4 ErrMin= 2.24D-04
 ErrMax= 2.24D-04  0.00D+00 EMaxC= 1.00D-01 BMatC= 3.47D-05 BMatP= 4.88D-04
 IDIUse=3 WtCom= 9.98D-01 WtEn= 2.24D-03
 Coeff-Com:  0.749D-03 0.179D+00 0.244D+00 0.576D+00
 Coeff-En:   0.000D+00 0.000D+00 0.000D+00 0.100D+01
 Coeff:      0.747D-03 0.179D+00 0.243D+00 0.577D+00
 Gap=     0.158 Goal=   None    Shift=    0.000
 RMSDP=2.45D-05 MaxDP=2.00D-03 DE=-4.21D-04 OVMax= 3.36D-03

 Cycle   5  Pass 0  IDiag  1:
 E= -508.137575482349     Delta-E=       -0.000013803060 Rises=F Damp=F
 DIIS: error= 2.12D-04 at cycle   5 NSaved=   5.
 NSaved= 5 IEnMin= 5 EnMin= -508.137575482349     IErMin= 5 ErrMin= 2.12D-04
 ErrMax= 2.12D-04  0.00D+00 EMaxC= 1.00D-01 BMatC= 1.74D-05 BMatP= 3.47D-05
 IDIUse=3 WtCom= 9.98D-01 WtEn= 2.12D-03
 Coeff-Com: -0.295D-02 0.704D-01 0.123D+00 0.428D+00 0.381D+00
 Coeff-En:   0.000D+00 0.000D+00 0.000D+00 0.348D+00 0.652D+00
 Coeff:     -0.295D-02 0.703D-01 0.123D+00 0.428D+00 0.381D+00
 Gap=     0.159 Goal=   None    Shift=    0.000
 RMSDP=1.33D-05 MaxDP=1.07D-03 DE=-1.38D-05 OVMax= 2.28D-03

 Cycle   6  Pass 0  IDiag  1:
 E= -508.137588056989     Delta-E=       -0.000012574640 Rises=F Damp=F
 DIIS: error= 5.89D-05 at cycle   6 NSaved=   6.
 NSaved= 6 IEnMin= 6 EnMin= -508.137588056989     IErMin= 6 ErrMin= 5.89D-05
 ErrMax= 5.89D-05  0.00D+00 EMaxC= 1.00D-01 BMatC= 1.27D-06 BMatP= 1.74D-05
 IDIUse=1 WtCom= 1.00D+00 WtEn= 0.00D+00
 Coeff-Com: -0.179D-02 0.201D-01 0.436D-01 0.191D+00 0.251D+00 0.495D+00
 Coeff:     -0.179D-02 0.201D-01 0.436D-01 0.191D+00 0.251D+00 0.495D+00
 Gap=     0.159 Goal=   None    Shift=    0.000
 RMSDP=3.68D-06 MaxDP=2.36D-04 DE=-1.26D-05 OVMax= 4.77D-04

 Initial convergence to 1.0D-05 achieved.  Increase integral accuracy.
 Cycle   7  Pass 1  IDiag  1:
 E= -508.137580426972     Delta-E=        0.000007630017 Rises=F Damp=F
 DIIS: error= 1.76D-05 at cycle   1 NSaved=   1.
 NSaved= 1 IEnMin= 1 EnMin= -508.137580426972     IErMin= 1 ErrMin= 1.76D-05
 ErrMax= 1.76D-05  0.00D+00 EMaxC= 1.00D-01 BMatC= 1.93D-07 BMatP= 1.93D-07
 IDIUse=1 WtCom= 1.00D+00 WtEn= 0.00D+00
 Coeff-Com:  0.100D+01
 Coeff:      0.100D+01
 Gap=     0.159 Goal=   None    Shift=    0.000
 RMSDP=3.68D-06 MaxDP=2.36D-04 DE= 7.63D-06 OVMax= 1.96D-04

 Cycle   8  Pass 1  IDiag  1:
 E= -508.137580370017     Delta-E=        0.000000056954 Rises=F Damp=F
 DIIS: error= 2.08D-05 at cycle   2 NSaved=   2.
 NSaved= 2 IEnMin= 1 EnMin= -508.137580426972     IErMin= 1 ErrMin= 1.76D-05
 ErrMax= 2.08D-05  0.00D+00 EMaxC= 1.00D-01 BMatC= 2.47D-07 BMatP= 1.93D-07
 IDIUse=1 WtCom= 1.00D+00 WtEn= 0.00D+00
 Coeff-Com:  0.539D+00 0.461D+00
 Coeff:      0.539D+00 0.461D+00
 Gap=     0.159 Goal=   None    Shift=    0.000
 RMSDP=2.03D-06 MaxDP=1.23D-04 DE= 5.70D-08 OVMax= 2.66D-04

 Cycle   9  Pass 1  IDiag  1:
 E= -508.137580522796     Delta-E=       -0.000000152779 Rises=F Damp=F
 DIIS: error= 1.49D-05 at cycle   3 NSaved=   3.
 NSaved= 3 IEnMin= 3 EnMin= -508.137580522796     IErMin= 3 ErrMin= 1.49D-05
 ErrMax= 1.49D-05  0.00D+00 EMaxC= 1.00D-01 BMatC= 7.29D-08 BMatP= 1.93D-07
 IDIUse=1 WtCom= 1.00D+00 WtEn= 0.00D+00
 Coeff-Com:  0.148D+00 0.336D+00 0.517D+00
 Coeff:      0.148D+00 0.336D+00 0.517D+00
 Gap=     0.159 Goal=   None    Shift=    0.000
 RMSDP=1.04D-06 MaxDP=7.78D-05 DE=-1.53D-07 OVMax= 1.72D-04

 Cycle  10  Pass 1  IDiag  1:
 E= -508.137580564557     Delta-E=       -0.000000041761 Rises=F Damp=F
 DIIS: error= 5.91D-06 at cycle   4 NSaved=   4.
 NSaved= 4 IEnMin= 4 EnMin= -508.137580564557     IErMin= 4 ErrMin= 5.91D-06
 ErrMax= 5.91D-06  0.00D+00 EMaxC= 1.00D-01 BMatC= 2.14D-08 BMatP= 7.29D-08
 IDIUse=1 WtCom= 1.00D+00 WtEn= 0.00D+00
 Coeff-Com: -0.594D-02 0.158D+00 0.399D+00 0.448D+00
 Coeff:     -0.594D-02 0.158D+00 0.399D+00 0.448D+00
 Gap=     0.159 Goal=   None    Shift=    0.000
 RMSDP=4.07D-07 MaxDP=2.90D-05 DE=-4.18D-08 OVMax= 5.75D-05

 Cycle  11  Pass 1  IDiag  1:
 E= -508.137580581075     Delta-E=       -0.000000016518 Rises=F Damp=F
 DIIS: error= 1.26D-06 at cycle   5 NSaved=   5.
 NSaved= 5 IEnMin= 5 EnMin= -508.137580581075     IErMin= 5 ErrMin= 1.26D-06
 ErrMax= 1.26D-06  0.00D+00 EMaxC= 1.00D-01 BMatC= 5.26D-10 BMatP= 2.14D-08
 IDIUse=1 WtCom= 1.00D+00 WtEn= 0.00D+00
 Coeff-Com: -0.913D-02 0.848D-01 0.224D+00 0.270D+00 0.430D+00
 Coeff:     -0.913D-02 0.848D-01 0.224D+00 0.270D+00 0.430D+00
 Gap=     0.159 Goal=   None    Shift=    0.000
 RMSDP=7.84D-08 MaxDP=3.31D-06 DE=-1.65D-08 OVMax= 1.03D-05

 Cycle  12  Pass 1  IDiag  1:
 E= -508.137580581550     Delta-E=       -0.000000000475 Rises=F Damp=F
 DIIS: error= 3.64D-07 at cycle   6 NSaved=   6.
 NSaved= 6 IEnMin= 6 EnMin= -508.137580581550     IErMin= 6 ErrMin= 3.64D-07
 ErrMax= 3.64D-07  0.00D+00 EMaxC= 1.00D-01 BMatC= 1.96D-11 BMatP= 5.26D-10
 IDIUse=1 WtCom= 1.00D+00 WtEn= 0.00D+00
 Coeff-Com: -0.343D-02 0.241D-01 0.644D-01 0.795D-01 0.203D+00 0.633D+00
 Coeff:     -0.343D-02 0.241D-01 0.644D-01 0.795D-01 0.203D+00 0.633D+00
 Gap=     0.159 Goal=   None    Shift=    0.000
 RMSDP=1.94D-08 MaxDP=8.92D-07 DE=-4.75D-10 OVMax= 2.89D-06

 Cycle  13  Pass 1  IDiag  1:
 E= -508.137580581557     Delta-E=       -0.000000000007 Rises=F Damp=F
 DIIS: error= 1.26D-07 at cycle   7 NSaved=   7.
 NSaved= 7 IEnMin= 7 EnMin= -508.137580581557     IErMin= 7 ErrMin= 1.26D-07
 ErrMax= 1.26D-07  0.00D+00 EMaxC= 1.00D-01 BMatC= 4.62D-12 BMatP= 1.96D-11
 IDIUse=1 WtCom= 1.00D+00 WtEn= 0.00D+00
 Coeff-Com: -0.122D-02 0.706D-02 0.187D-01 0.238D-01 0.803D-01 0.388D+00
 Coeff-Com:  0.483D+00
 Coeff:     -0.122D-02 0.706D-02 0.187D-01 0.238D-01 0.803D-01 0.388D+00
 Coeff:      0.483D+00
 Gap=     0.159 Goal=   None    Shift=    0.000
 RMSDP=7.36D-09 MaxDP=3.75D-07 DE=-6.82D-12 OVMax= 7.23D-07

 SCF Done:  E(RB3LYP) =  -508.137580582     A.U. after   13 cycles
            NFock= 13  Conv=0.74D-08     -V/T= 2.0058
 KE= 5.051916928125D+02 PE=-2.196330104590D+03 EE= 6.784778374585D+02
 Leave Link  502 at Fri Aug 27 09:35:40 2021, MaxMem= 24159191040 cpu:       190.8
 (Enter /public/home/users/caep010/software/Gaussian09/g09/l701.exe)
 Compute integral first derivatives.
 ... and contract with generalized density number  0.
 Leave Link  701 at Fri Aug 27 09:35:41 2021, MaxMem= 24159191040 cpu:        15.2
 (Enter /public/home/users/caep010/software/Gaussian09/g09/l702.exe)
 L702 exits ... SP integral derivatives will be done elsewhere.
 Leave Link  702 at Fri Aug 27 09:35:41 2021, MaxMem= 24159191040 cpu:         0.5
 (Enter /public/home/users/caep010/software/Gaussian09/g09/l703.exe)
 Compute integral first derivatives, UseDBF=F ICtDFT=           0.
 Integral derivatives from FoFJK, PRISM(SPDF).
 Calling FoFJK, ICntrl=      2127 FMM=F ISym2X=0 I1Cent= 0 IOpClX= 0 NMat=1 NMatS=1 NMatT=0.
 FoFJK:  IHMeth= 1 ICntrl=    2127 DoSepK=F KAlg= 0 I1Cent=   0 FoldK=F
 IRaf=         0 NMat=   1 IRICut=       1 DoRegI=T DoRafI=F ISym2E= 0.
 FoFCou: FMM=F IPFlag=           0 FMFlag=      100000 FMFlg1=         800
         NFxFlg=           0 DoJE=F BraDBF=F KetDBF=F FulRan=T
         wScrn=  0.000000 ICntrl=    2127 IOpCl=  0 I1Cent=           0 NGrid=           0
         NMat0=    1 NMatS0=      1 NMatT0=    0 NMatD0=    1 NMtDS0=    0 NMtDT0=    0
 Symmetry not used in FoFCou.
 Leave Link  703 at Fri Aug 27 09:35:45 2021, MaxMem= 24159191040 cpu:       131.0
 (Enter /public/home/users/caep010/software/Gaussian09/g09/l716.exe)
 Dipole        = 3.43034551D+00-4.21559479D-01 5.66693882D-02
 ***** Axes restored to original set *****
 -------------------------------------------------------------------
 Center     Atomic                   Forces (Hartrees/Bohr)
 Number     Number              X              Y              Z
 -------------------------------------------------------------------
      1        8           0.000739902    0.000206367    0.003281524
      2        7           0.002139556   -0.002417569   -0.015475095
[...]
    12  H   -0.000111   0.001107  -0.017795  -0.001900   0.391316   0.420183
    13  C   -0.034901  -0.047877  -0.051826   0.004557   0.690588  -0.017517
    14  H   -0.000134   0.406139  -0.038369  -0.003017   0.003534  -0.000210
    15  H   -0.004138   0.000140   0.003810  -0.000267  -0.024003  -0.002384
              13         14         15
     1  O    0.003301  -0.007580  -0.000014
     2  N   -0.001692   0.004295   0.000080
     3  O   -0.000289  -0.000386  -0.000003
     4  N    0.008688  -0.005055  -0.000157
     5  C   -0.068584  -0.009227   0.002305
     6  N    0.469297   0.003036  -0.019393
     7  H   -0.034901  -0.000134  -0.004138
     8  C   -0.047877   0.406139   0.000140
     9  C   -0.051826  -0.038369   0.003810
    10  H    0.004557  -0.003017  -0.000267
    11  C    0.690588   0.003534  -0.024003
    12  H   -0.017517  -0.000210  -0.002384
    13  C    4.710739   0.000102   0.398181
    14  H    0.000102   0.368974   0.000063
    15  H    0.398181   0.000063   0.421615
 Mulliken charges:
               1
     1  O   -0.470614
     2  N    0.529735
     3  O   -0.418854
     4  N   -0.455431
     5  C    0.462810
     6  N   -0.416127
     7  H    0.397284
     8  C   -0.195071
     9  C   -0.094321
    10  H    0.228864
    11  C   -0.232053
    12  H    0.224546
    13  C   -0.062765
    14  H    0.277834
    15  H    0.224166
 Sum of Mulliken charges =  -0.00000
 Mulliken charges with hydrogens summed into heavy atoms:
               1
     1  O   -0.470614
     2  N    0.529735
     3  O   -0.418854
     4  N   -0.455431
     5  C    0.462810
     6  N   -0.018844
     8  C    0.082763
     9  C    0.134543
    11  C   -0.007507
    13  C    0.161400
 Electronic spatial extent (au):  <R**2>=           1514.3816
 Charge=             -0.0000 electrons
 Dipole moment (field-independent basis, Debye):
    X=              9.4492    Y=             -1.0466    Z=              0.0000  Tot=              9.5070
 Quadrupole moment (field-independent basis, Debye-Ang):
   XX=            -64.1310   YY=            -51.0159   ZZ=            -59.1258
   XY=             -2.6082   XZ=              0.0000   YZ=              0.0007
 Traceless Quadrupole moment (field-independent basis, Debye-Ang):
   XX=             -6.0401   YY=              7.0750   ZZ=             -1.0348
   XY=             -2.6082   XZ=              0.0000   YZ=              0.0007
 Octapole moment (field-independent basis, Debye-Ang**2):
  XXX=             72.4413  YYY=             -9.4382  ZZZ=             -0.0003  XYY=             23.1395
  XXY=             -1.2167  XXZ=             -0.0008  XZZ=            -14.1937  YZZ=             -1.2156
  YYZ=              0.0000  XYZ=             -0.0003
 Hexadecapole moment (field-independent basis, Debye-Ang**3):
 XXXX=          -1557.4972 YYYY=           -321.2067 ZZZZ=            -60.6521 XXXY=            -22.4429
 XXXZ=              0.0021 YYYX=            -14.8268 YYYZ=              0.0019 ZZZX=             -0.0002
 ZZZY=             -0.0003 XXYY=           -297.1693 XXZZ=           -273.8111 YYZZ=            -78.7909
 XXYZ=              0.0033 YYXZ=             -0.0005 ZZXY=             -3.2290
 N-N= 5.018455511314D+02 E-N=-2.188688480021D+03  KE= 5.046017122550D+02
 No NMR shielding tensors so no spin-rotation constants.
 Leave Link  601 at Fri Aug 27 11:21:29 2021, MaxMem= 24159191040 cpu:        37.7
 (Enter /public/home/users/caep010/software/Gaussian09/g09/l9999.exe)
 1\1\GINC-B1366\SP\RHF\GFHFB2\C5H5N3O2\ROOT\27-Aug-2021\0\\#P Geom=AllC
 heck Guess=TCheck SCRF=Check HF/GFHFB2 SCF=Tight\\TOQMUH01\\0,1\O,0,7.
 4868781732,-0.6486142611,1.4807053412\N,0,6.3720504155,-0.12147123,1.5
 672010375\O,0,5.6846999288,0.1809843091,0.6040079965\N,0,5.796624368,0
 .1767355393,2.7895610156\C,0,6.4539839017,-0.1081556776,3.9043311693\N
 ,0,5.716723992,0.2637766134,5.0156488343\H,0,4.8217689036,0.6802978614
 ,4.7896235509\C,0,7.7243899113,-0.6997851816,4.2083178236\C,0,8.117062
 6575,-0.855801305,5.5116923883\H,0,9.0835997327,-1.306562164,5.7138642
 908\C,0,7.3060895642,-0.449682985,6.5990667821\H,0,7.6196232686,-0.574
 5655362,7.6258999073\C,0,6.0993547041,0.1121807417,6.3051566372\H,0,8.
 3415099208,-1.008779383,3.383038868\H,0,5.394840558,0.4605426586,7.049
 4843573\\Version=ES64L-G09RevE.01\State=1-A\HF=-505.3859921\RMSD=4.987
 e-09\Dipole=0.1440692,0.0151416,3.7375298\Quadrupole=3.5030821,0.23847
 22,-3.7415543,-2.0776289,-2.9554434,1.3260674\PG=C01 [X(C5H5N3O2)]\\@


 ART, GLORY, FREEDOM FAIL, BUT NATURE STILL IS FAIR.

                                           -- BYRON
 Diagonal vibrational polarizability:
        0.0000000       0.0000000       0.0000000

 Temperature=              298.150000 Pressure=                      1.000000
 E(ZPE)=                     0.106968 E(Thermal)=                    0.114876
 E(CCSD(T))=              -506.737934 E(Empiric)=                   -0.180622
 DE(Plus)=                  -0.037581 DE(2DF)=                      -0.355345
 E(Delta-G3XP)=             -0.639280 DE(HF)=                       -0.050198
 G4(0 K)=                 -507.893991 G4 Energy=                  -507.886083
 G4 Enthalpy=             -507.885138 G4 Free Energy=             -507.928621
 1\1\GINC-B1366\Mixed\G4\G4\C5H5N3O2\ROOT\27-Aug-2021\0\\#P Geom=AllChe
 ck Guess=TCheck SCRF=Check HF/GFHFB2 SCF=Tight\\TOQMUH01\\0,1\O,0,7.48
 68781732,-0.6486142611,1.4807053412\N,0,6.3720504155,-0.12147123,1.567
 2010375\O,0,5.6846999288,0.1809843091,0.6040079965\N,0,5.796624368,0.1
 767355393,2.7895610156\C,0,6.4539839017,-0.1081556776,3.9043311693\N,0
 ,5.716723992,0.2637766134,5.0156488343\H,0,4.8217689036,0.6802978614,4
 .7896235509\C,0,7.7243899113,-0.6997851816,4.2083178236\C,0,8.11706265
 75,-0.855801305,5.5116923883\H,0,9.0835997327,-1.306562164,5.713864290
 8\C,0,7.3060895642,-0.449682985,6.5990667821\H,0,7.6196232686,-0.57456
 55362,7.6258999073\C,0,6.0993547041,0.1121807417,6.3051566372\H,0,8.34
 15099208,-1.008779383,3.383038868\H,0,5.394840558,0.4605426586,7.04948
 43573\\Version=ES64L-G09RevE.01\State=1-A\MP2/GTBas1=-506.6482964\MP4/
 GTBas1=-506.7508606\CCSD(T)/G3Bas1=-506.7379335\MP2/GTBas2=-506.683833
 8\MP4/GTBas2=-506.7884416\MP2/GTBas3=-506.9842227\MP4/GTBas3=-507.1062
 057\HF/GTLargeXP=-505.3376883\MP2/GTLargeXP=-507.6590398\HF/GFHFB1=-50
 5.3782201\HF/GFHFB2=-505.3859921\G4=-507.8939906\FreqCoord=14.14814933
 77,-1.2257033194,2.7981275783,12.0414301903,-0.2295473577,2.961580756,
 10.742526013,0.3420107786,1.1414096955,10.9540325507,0.3339817672,5.27
 15063505,12.1962620402,-0.2043846104,7.3781166421,10.8030427221,0.4984
 655596,9.4782026756,9.1118227039,1.2855766467,9.0510767908,14.59698147
 6,-1.322402345,7.9525681667,15.3390254262,-1.6172300906,10.4155891426,
 17.1655157956,-2.4690446655,10.7976386702,13.8065083787,-0.8497776882,
 12.4704289509,14.3990012133,-1.0857715088,14.4108623416,11.526109978,0
 .2119908792,11.9150192692,15.7631692851,-1.9063167624,6.3930169575,10.
 1947711852,0.8702994973,13.3215948134\PG=C01 [X(C5H5N3O2)]\NImag=0\\0.
 50577794,-0.22476185,0.13552115,-0.01514853,0.00968973,0.14437240,-0.3
 9960053,0.14808548,0.03638922,0.76450655,0.14761535,-0.15694364,-0.018
 26246,-0.23346682,0.37059302,0.01524275,-0.00830173,-0.13742092,0.1488
 1109,-0.06041258,0.69876857,-0.06895004,0.04559564,-0.06617577,-0.2476
 6205,0.06972679,-0.17220684,0.28777941,0.04626456,0.00983512,0.0308445
 7,0.06943883,-0.12260541,0.07472906,-0.11423400,0.08547847,-0.03605473
 ,0.01665425,0.01597310,-0.18518146,0.08084186,-0.38003923,0.24094433,-
 0.10366759,0.47776816,-0.03215254,0.02810164,0.04582115,-0.12730145,0.
 02531193,0.00468876,0.02430017,-0.00242721,-0.02713235,0.30847769,0.02
 820077,0.01155538,-0.02235038,0.02582319,-0.08602483,-0.00321806,-0.00
 198045,0.02157924,0.00990944,-0.11639895,0.11141863,0.05030919,-0.0244
 6316,-0.00904197,0.02766669,-0.01404279,-0.11919394,-0.00701076,0.0004
 3048,-0.10906303,0.08809254,-0.02864940,0.63563714,-0.01199918,0.00599
 732,0.00469180,0.01798031,-0.01613532,-0.00444143,0.00426702,0.0019617
 7,0.01149512,-0.17784981,0.05451689,-0.12529279,0.57980107,0.00545288,
 -0.00210097,-0.00199860,-0.01619838,-0.00842251,0.00056291,0.00178662,
 0.00692613,-0.00549248,0.05512662,-0.08097297,0.05392733,-0.18395204,0
 .27198033,-0.01985666,0.00956630,0.01004959,-0.00722692,0.00187371,-0.
 08497964,0.00360061,-0.00177402,0.00436792,-0.09783549,0.04099369,-0.2
 8534823,0.07253181,-0.02272877,0.70089048,-0.00155583,0.00042398,0.000
 24038,0.00502911,0.00031774,-0.01078919,-0.00016892,-0.00015050,0.0002
 0528,0.02319863,-0.00619827,0.00128690,-0.17833726,0.05593668,0.068448
 90,0.68356399,0.00058215,-0.00094552,-0.00018136,0.00034227,0.00616531
 ,0.00515302,-0.00011121,-0.00044978,-0.00017579,-0.00577545,0.01263354
 ,-0.00302795,0.05506104,-0.08952487,-0.03527301,-0.27771098,0.22057075
 ,0.00738263,-0.00354632,-0.00373699,-0.00969822,0.00464091,0.00943150,
 0.00197839,-0.00101120,-0.00405592,0.02028780,-0.01197814,-0.09915722,
 0.02902289,-0.01670306,-0.19939077,0.07865400,-0.02217284,0.76026480,0
 .00078124,-0.00014287,-0.00053879,-0.00079037,-0.00060028,0.00214806,-
 0.00031391,0.00030433,-0.00092641,-0.00075539,-0.00141513,-0.00565740,
 -0.01639455,0.00957936,0.00018852,-0.34909423,0.15266801,-0.06695541,0
 .36660541,-0.00016191,0.00058552,0.00026240,-0.00067414,-0.00187049,-0
 .00098546,0.00031623,0.00023637,0.00042632,-0.00127530,-0.00283182,0.0
 0273926,0.01020599,-0.00086913,0.00016950,0.15265412,-0.09304723,0.030
 14882,-0.16178716,0.09530924,-0.00140042,0.00066853,0.00089464,-0.0011
 7673,0.00058044,-0.00097694,-0.00039225,0.00017465,-0.00008086,0.00065
 386,-0.00023337,-0.00013054,0.02841049,-0.01312372,0.01556074,-0.06759
 113,0.03044825,-0.08434755,0.07027449,-0.03168525,0.08355272,0.0012428
 7,-0.00005104,-0.00751592,-0.00568835,0.00197759,0.01217909,-0.0016885
 6,0.00030275,-0.00416096,-0.01085560,0.01360359,-0.03191414,-0.2108585
 8,0.06356190,-0.01913807,-0.02572038,0.01596204,0.03865031,-0.00089810
 ,0.00273606,0.00132713,0.53677934,0.00013240,0.00150264,0.00333782,0.0
 0156637,-0.00292050,-0.00537529,0.00036606,-0.00098152,0.00186386,0.01
 352361,0.01347611,0.01429160,0.06392553,-0.10494167,0.00797931,0.01574
 286,-0.00145765,-0.01756281,0.00276877,0.00352497,-0.00085773,-0.19537
 834,0.21629616,0.00071951,-0.00054150,-0.00760591,-0.00636241,0.003358
 34,0.01423031,-0.00128431,0.00050925,-0.00517206,-0.03550890,0.0159842
 5,-0.01386655,-0.00275381,0.00026299,-0.12159999,0.02877051,-0.0129097
 5,0.03525774,0.00279981,-0.00155146,-0.00563159,-0.03420054,0.03081431
 ,0.78595907,0.00296935,-0.00104373,0.00191102,-0.00299721,0.00151424,0
 .00277697,0.00116958,-0.00093549,-0.00008199,-0.00566704,0.00546934,0.
 00317251,-0.00240808,0.00058421,-0.04157838,0.00021850,-0.00332147,0.0
 1578586,-0.00035895,-0.00009246,0.00016732,-0.13631739,0.03493449,-0.0
 9724947,0.60989973,-0.00121356,0.00121335,-0.00096253,0.00167956,-0.00
 074199,-0.00163830,-0.00092340,-0.00037336,0.00017163,0.00560038,0.003
 13050,-0.00121752,0.00015651,0.00115237,0.01955261,-0.00383420,-0.0059
 5737,-0.00837438,-0.00003352,-0.00054873,-0.00006206,0.03590837,-0.073
 61779,0.03870230,-0.21819718,0.24719760,-0.00573279,0.00263802,-0.0021
 3306,0.01023350,-0.00515068,-0.01478517,0.00045011,-0.00007904,0.00517
 203,0.00907762,-0.00399971,0.01824749,-0.06083769,0.02862435,-0.000617
 87,-0.00730805,0.00250338,-0.04987129,0.00282221,-0.00131253,0.0001916
 2,-0.05338874,0.01804358,-0.37751489,0.04332069,-0.00812886,0.69754014
 ,0.00017911,-0.00005788,-0.00010999,-0.00001141,0.00031662,0.00044927,
 -0.00000676,-0.00001163,-0.00017701,-0.00089003,-0.00074640,-0.0001003
 9,0.00317294,0.00391392,-0.00112773,0.00073658,-0.00059436,0.00010283,
 -0.00016276,-0.00035253,-0.00003531,-0.00413508,0.00472433,-0.00051562
 ,-0.27747327,0.10924914,-0.04577525,0.29038064,-0.00004958,0.00008590,
 0.00004732,0.00030493,0.00049117,-0.00021552,-0.00000475,-0.00001907,0
 .00008199,-0.00077701,-0.00210134,0.00011994,0.00391277,0.00969574,0.0
 0013341,-0.00060335,-0.00024714,-0.00005385,-0.00035235,-0.00074271,0.
 00003887,0.00411698,0.00398139,0.00005042,0.10926150,-0.09436602,0.021
 02231,-0.12277768,0.08470609,0.00026465,-0.00012911,-0.00013746,-0.000
 07620,0.00003201,0.00046264,0.00013435,-0.00006467,-0.00008521,-0.0014
 7828,0.00076906,0.00080845,-0.00118286,0.00015933,-0.00638364,-0.00030
 424,0.00013786,-0.00077550,-0.00002698,0.00003495,0.00009249,-0.027873
 99,0.01293660,-0.00274230,-0.04521888,0.02076010,-0.06762451,0.0495953
 6,-0.02242608,0.06943825,-0.00215514,0.00086228,-0.00122271,0.00451795
 ,-0.00269891,-0.00747445,0.00105465,-0.00028357,0.00308613,0.00621422,
 -0.00283273,0.00669748,-0.04155440,0.01623419,0.01395208,-0.02141096,0
 .01397913,-0.07002582,0.00568048,-0.00011004,0.00112470,0.04093861,-0.
 01437081,0.03062041,-0.16585603,0.05050152,0.04950889,-0.01119399,0.00
 803486,0.02215107,0.60040989,0.00094059,-0.00069704,0.00056592,-0.0026
 2962,0.00046125,0.00370147,-0.00036219,0.00044415,-0.00151772,-0.00301
 957,0.00123147,-0.00340911,0.01612366,-0.01547995,-0.00628046,0.014661
 95,0.00538417,0.03250395,-0.00015899,0.00545118,-0.00079083,-0.0148800
 1,0.01564511,-0.01567704,0.05161461,-0.08587875,-0.02692184,0.00741938
 ,0.00109609,-0.01035421,-0.22855490,0.21917297,0.00229607,-0.00109179,
 -0.00072359,-0.00435203,0.00223077,0.00728548,-0.00045896,0.00015209,-
 0.00258027,-0.00172758,0.00055963,-0.01157685,0.00898150,-0.00393937,0
 .00537159,-0.03926608,0.01801556,-0.01001439,-0.00108230,0.00024865,-0
 .00636676,0.00769983,-0.00488103,-0.04751619,0.09964011,-0.05053427,-0
 .22324775,-0.00557011,0.00270268,0.00838630,0.06862536,-0.01864768,0.7
 2795613,0.00022852,-0.00011309,0.00007661,-0.00024471,-0.00013370,0.00
 001316,0.00012537,0.00002876,0.00003863,0.00021401,-0.00018273,-0.0002
 2741,-0.00126346,0.00039241,0.00068204,-0.00368437,0.00549167,0.000184
 65,0.00033263,0.00061300,-0.00122125,-0.00168519,0.00291428,0.00257360
 ,0.00906665,-0.00386121,0.01896248,0.00023057,-0.00125752,-0.00063079,
 -0.07646906,0.02100371,-0.08030941,0.07688201,-0.00012148,0.00004113,-
 0.00004128,-0.00012470,-0.00047046,0.00000393,0.00002498,0.00017236,-0
 .00002390,-0.00018074,-0.00007547,0.00011863,0.00039626,-0.00065608,-0
 .00031409,0.00547839,0.00538115,-0.00020759,0.00064516,0.00139973,0.00
 053841,0.00293725,0.00296766,-0.00133465,-0.00448723,0.00188249,-0.009
 29104,-0.00124358,-0.00181556,0.00037023,0.02095624,-0.03726623,0.0313
 3639,-0.02337087,0.03340083,-0.00030401,0.00013792,-0.00025209,0.00042
 245,-0.00018889,-0.00007318,-0.00013285,0.00005691,-0.00007158,-0.0001
 3617,0.00007564,0.00035578,0.00085440,-0.00039524,-0.00013903,-0.00041
 272,0.00007380,0.00253350,0.00022709,-0.00014378,0.00003357,0.00360852
 ,-0.00182212,-0.00113659,-0.00923808,0.00399183,-0.01621441,-0.0000028
 8,0.00007448,0.00088419,-0.08244694,0.03234316,-0.32044984,0.08726692,
 -0.03413257,0.33716944,0.00165725,-0.00118650,0.00085632,-0.00197587,0
 .00365632,0.00744669,-0.00152034,0.00016252,-0.00208929,-0.00787869,0.
 00376836,-0.00465031,0.04528784,-0.02121029,0.00613535,-0.13893503,0.0
 4333986,-0.03272081,-0.00440094,-0.00075981,-0.03157028,-0.02430474,0.
 00941299,-0.02306430,-0.03951056,0.02318365,0.05172153,0.00011106,0.00
 254481,0.00315212,-0.33327769,0.12749565,-0.07211494,-0.00425839,0.001
 03784,0.00100343,0.69194332,-0.00122338,-0.00033364,-0.00034869,0.0034
 8012,0.00371759,-0.00356850,0.00016682,-0.00113429,0.00096299,0.003730
 74,-0.00136882,0.00217240,-0.02032410,0.00945128,-0.00403182,0.0424531
 9,-0.06517168,0.00914712,-0.00012532,-0.00413634,0.01488323,0.00937174
 ,-0.00741647,0.01038530,0.02233554,-0.00376964,-0.02349194,0.00255182,
 0.00412598,-0.00169178,0.12850820,-0.11900724,0.03231295,0.00038550,-0
 .00229461,-0.00048482,-0.26294833,0.25937991,-0.00080245,0.00043284,0.
 00155846,-0.00049371,0.00017122,0.00267994,-0.00188684,0.00086797,-0.0
 0201960,-0.00634427,0.00297000,-0.00047077,0.04605470,-0.02283436,-0.0
 5146626,-0.07266395,0.02796125,-0.32756221,-0.00299504,0.00142380,-0.0
 0393479,-0.02492963,0.01126364,-0.02477957,0.01352653,-0.00550145,0.04
 644115,0.00346625,-0.00183972,-0.00396206,-0.02650672,0.01083087,-0.13
 370498,-0.02838057,0.01335542,-0.00265110,-0.02727613,0.02513645,0.688
 49746,0.00354005,-0.00167504,0.00069805,-0.00580859,0.00231620,0.00128
 240,0.00165036,-0.00033350,0.00010715,0.00077706,-0.00158307,-0.002110
 99,-0.01073811,0.00659926,0.02345639,-0.00372962,0.00439220,-0.0013626
 8,-0.00071565,0.00024926,0.00123962,-0.15674491,0.05985477,0.13613909,
 0.00988969,-0.00335608,-0.01012719,-0.00025976,-0.00252453,0.00027393,
 0.00206547,0.00316796,-0.00286760,0.00056750,0.00001649,-0.00056241,-0
 .00104868,0.00035219,-0.00194409,0.16072903,-0.00162779,0.00070450,-0.
 00058868,0.00209782,-0.00195181,-0.00048471,-0.00028165,0.00106920,-0.
 00006601,-0.00151916,-0.00174851,0.00092365,0.00603077,-0.00091303,-0.
 01079377,0.00436923,0.00361274,0.00050016,0.00020598,-0.00035444,-0.00
 056462,0.05993127,-0.06583224,-0.06838536,-0.00279849,0.00465668,0.004
 35515,-0.00252630,-0.00444203,0.00002193,0.00317676,0.00745423,0.00108
 754,0.00004375,0.00061375,0.00024114,0.00037559,-0.00036569,0.00092257
 ,-0.06685911,0.05869822,0.00282343,-0.00158987,-0.01171405,-0.00850892
 ,0.00412760,0.00439886,0.00241727,-0.00115444,0.00023808,0.00077121,-0
 .00043357,-0.00565107,-0.00216446,0.00127371,0.01362425,-0.00239772,0.
 00098756,-0.00072542,-0.00070870,0.00035313,0.00062274,0.13957089,-0.0
 7000174,-0.22807854,0.01499715,-0.00747884,-0.01545370,0.00019290,0.00
 006021,0.00116668,-0.00247495,0.00090243,-0.00292730,0.00066608,-0.000
 33755,-0.00044191,-0.00088885,0.00042562,0.00010529,-0.14439445,0.0728
 7857,0.24480473,0.00003693,-0.00003435,0.00002716,0.00004661,0.0002822
 4,-0.00012633,-0.00003597,-0.00008761,-0.00007243,0.00016879,-0.000044
 42,-0.00026113,0.00089426,0.00219266,-0.00223246,0.00988980,-0.0043049
 0,-0.01128640,0.00048508,-0.00156133,0.00018976,-0.00006395,-0.0001173
 0,-0.00068356,-0.00262496,0.00514002,-0.00292733,-0.00067786,0.0001709
 3,0.00122073,-0.00896402,0.00717776,0.02050615,-0.00004207,-0.00196400
 ,-0.00014674,-0.18188853,0.07128526,0.13117591,-0.00017383,-0.00061866
 ,0.00009910,0.18294972,-0.00002915,-0.00002387,-0.00001379,0.00027509,
 0.00052328,0.00004976,-0.00008549,-0.00017761,0.00003115,-0.00002153,0
 .00009889,0.00008663,0.00212296,0.00467533,0.00092741,-0.00354084,0.00
 305358,0.00466922,-0.00155600,-0.00210612,-0.00001481,-0.00010014,-0.0
 0022622,0.00033260,0.00516212,0.00602064,0.00118886,0.00013513,-0.0004
 4848,-0.00055625,0.00659778,0.00198860,-0.00955212,-0.00195397,-0.0032
 8070,0.00017253,0.07112734,-0.07167634,-0.06516050,-0.00061701,-0.0012
 0161,-0.00001283,-0.07751628,0.06278062,0.00026136,-0.00012413,-0.0000
 8216,-0.00044635,0.00020054,0.00021173,0.00002350,-0.00001403,-0.00035
 151,0.00077008,-0.00039907,-0.00154868,-0.00536966,0.00240497,0.000060
 84,0.02312712,-0.01153998,-0.02785028,0.00043084,-0.00012835,0.0005205
 2,0.00008622,-0.00003000,0.00019706,-0.00193136,0.00071975,-0.00012977
 ,-0.00039231,0.00020353,0.00047168,-0.00561453,0.00275109,0.01010843,0
 .00030526,-0.00004036,0.00045325,0.12405946,-0.06180851,-0.18873096,0.
 00017279,-0.00004757,0.00003138,-0.13548244,0.06785213,0.20663848\\0.0
 0000802,-0.00000368,0.00000315,0.00000742,-0.00000376,-0.00000170,0.00
 001005,-0.00000478,-0.00000348,0.00000474,-0.00000210,-0.00000219,0.00
 000052,-0.00000030,-0.00000097,0.00000333,-0.00000160,-0.00000232,-0.0
 0000509,0.00000223,-0.00000740,0.00000317,-0.00000151,-0.00000181,-0.0
 0001028,0.00000492,0.00000257,0.00000418,-0.00000180,0.00000883,-0.000
 00502,0.00000246,0.00000307,-0.00000877,0.00000415,0.00000082,-0.00000
 664,0.00000298,-0.00000150,-0.00000036,0.00000042,0.00000896,-0.000005
 28,0.00000238,-0.00000603\\\@
 Job cpu time:       0 days 12 hours  0 minutes 42.1 seconds.
 File lengths (MBytes):  RWF=  34349 Int=      0 D2E=      0 Chk=     75 Scr=      1
 Normal termination of Gaussian 09 at Fri Aug 27 11:21:29 2021.
