 Entering Gaussian System, Link 0=g09
 Input=G4.TISJUB.gjf
 Output=G4.TISJUB.log
 Initial command:
 /public/home/users/caep010/software/Gaussian09/g09/l1.exe "/public/home/users/caep010/.cache/gau_scr/Gau-7739.inp" -scrdir="/public/home/users/caep010/.cache/gau_scr/"
 Entering Link 1 = /public/home/users/caep010/software/Gaussian09/g09/l1.exe PID=      7740.
  
 Copyright (c) 1988,1990,1992,1993,1995,1998,2003,2009,2015,
            Gaussian, Inc.  All Rights Reserved.
  
 This is part of the Gaussian(R) 09 program.  It is based on
 the Gaussian(R) 03 system (copyright 2003, Gaussian, Inc.),
 the Gaussian(R) 98 system (copyright 1998, Gaussian, Inc.),
 the Gaussian(R) 94 system (copyright 1995, Gaussian, Inc.),
 the Gaussian 92(TM) system (copyright 1992, Gaussian, Inc.),
 the Gaussian 90(TM) system (copyright 1990, Gaussian, Inc.),
 the Gaussian 88(TM) system (copyright 1988, Gaussian, Inc.),
 the Gaussian 86(TM) system (copyright 1986, Carnegie Mellon
 University), and the Gaussian 82(TM) system (copyright 1983,
 Carnegie Mellon University). Gaussian is a federally registered
 trademark of Gaussian, Inc.
  
 This software contains proprietary and confidential information,
 including trade secrets, belonging to Gaussian, Inc.
  
 This software is provided under written license and may be
 used, copied, transmitted, or stored only in accord with that
 written license.
  
 The following legend is applicable only to US Government
 contracts under FAR:
  
                    RESTRICTED RIGHTS LEGEND
  
 Use, reproduction and disclosure by the US Government is
 subject to restrictions as set forth in subparagraphs (a)
 and (c) of the Commercial Computer Software - Restricted
 Rights clause in FAR 52.227-19.
  
 Gaussian, Inc.
 340 Quinnipiac St., Bldg. 40, Wallingford CT 06492
  
  
 ---------------------------------------------------------------
 Warning -- This program may not be used in any manner that
 competes with the business of Gaussian, Inc. or will provide
 assistance to any competitor of Gaussian, Inc.  The licensee
 of this program is prohibited from giving any competitor of
 Gaussian, Inc. access to this program.  By using this program,
 the user acknowledges that Gaussian, Inc. is engaged in the
 business of creating and licensing software in the field of
 computational chemistry and represents and warrants to the
 licensee that it is not a competitor of Gaussian, Inc. and that
 it will not use this program in any manner prohibited above.
 ---------------------------------------------------------------
  

 Cite this work as:
 Gaussian 09, Revision E.01,
 M. J. Frisch, G. W. Trucks, H. B. Schlegel, G. E. Scuseria, 
 M. A. Robb, J. R. Cheeseman, G. Scalmani, V. Barone, B. Mennucci, 
 G. A. Petersson, H. Nakatsuji, M. Caricato, X. Li, H. P. Hratchian, 
 A. F. Izmaylov, J. Bloino, G. Zheng, J. L. Sonnenberg, M. Hada, 
 M. Ehara, K. Toyota, R. Fukuda, J. Hasegawa, M. Ishida, T. Nakajima, 
 Y. Honda, O. Kitao, H. Nakai, T. Vreven, J. A. Montgomery, Jr., 
 J. E. Peralta, F. Ogliaro, M. Bearpark, J. J. Heyd, E. Brothers, 
 K. N. Kudin, V. N. Staroverov, T. Keith, R. Kobayashi, J. Normand, 
 K. Raghavachari, A. Rendell, J. C. Burant, S. S. Iyengar, J. Tomasi, 
 M. Cossi, N. Rega, J. M. Millam, M. Klene, J. E. Knox, J. B. Cross, 
 V. Bakken, C. Adamo, J. Jaramillo, R. Gomperts, R. E. Stratmann, 
 O. Yazyev, A. J. Austin, R. Cammi, C. Pomelli, J. W. Ochterski, 
 R. L. Martin, K. Morokuma, V. G. Zakrzewski, G. A. Voth, 
 P. Salvador, J. J. Dannenberg, S. Dapprich, A. D. Daniels, 
 O. Farkas, J. B. Foresman, J. V. Ortiz, J. Cioslowski, 
 and D. J. Fox, Gaussian, Inc., Wallingford CT, 2013.
 
 ******************************************
 Gaussian 09:  ES64L-G09RevE.01 30-Nov-2015
                26-Aug-2021 
 ******************************************
 %nproc=32
 Will use up to   32 processors via shared memory.
 %mem=180GB
 ----------------
 #P G4 OPT=calcfc
 ----------------
 1/10=4,14=-1,18=20,19=15,26=3,38=1/1,3;
 2/9=110,12=2,17=6,18=5,40=1/2;
 3/5=35,7=104,11=2,16=1,25=1,30=1,71=2,74=-5,140=1/1,2,3;
 4//1;
 5/5=2,38=5/2;
 8/6=4,10=90,11=11/1;
 11/6=1,8=1,9=11,15=111,16=1/1,2,10;
 10/6=1,13=1/2;
 6/7=2,8=2,9=2,10=2,28=1/1;
 7/10=1,18=20,25=1/1,2,3,16;
 1/10=4,14=-1,18=20,19=15,26=3/3(2);
 2/9=110/2;
 99//99;
 2/9=110/2;
 3/5=35,7=104,11=2,16=1,25=1,30=1,71=1,74=-5/1,2,3;
 4/5=5,16=3,69=1/1;
 5/5=2,38=5/2;
 7//1,2,3,16;
 1/14=-1,18=20,19=15,26=3/3(-5);
 2/9=110/2;
 6/7=2,8=2,9=2,10=2,19=2,28=1/1;
 99/9=1/99;
 Leave Link    1 at Thu Aug 26 05:28:46 2021, MaxMem= 24159191040 cpu:         3.0
 (Enter /public/home/users/caep010/software/Gaussian09/g09/l101.exe)
 ------
 TISJUB
 ------
 Symbolic Z-matrix:
 Charge =  0 Multiplicity = 1
 C                     8.9663    2.5847    4.8064 
 C                     10.2089   1.8301    5.2181 
 O                     10.8974   2.2626    6.1048 
 N                     8.0987    2.0533    3.8913 
 O                     8.3723    0.9076    3.2883 
 C                     6.9285    2.6627    3.5939 
 H                     6.3452    2.2692    2.9859 
 C                     6.5934    3.8516    4.1803 
 H                     5.7876    4.2721    3.9812 
 O                     10.4596   0.7216    4.5766 
 H                     9.6019    0.6058    3.936 
 C                     8.6593    3.7922    5.3918 
 H                     9.2456    4.1839    5.9981 
 C                     7.4799    4.4088    5.0724 
 N                     7.1302    5.6745    5.732 
 O                     6.0285    6.146     5.5167 
 O                     7.9673    6.1897    6.455 
 
 NAtoms=     17 NQM=       17 NQMF=       0 NMMI=      0 NMMIF=      0
                NMic=       0 NMicF=      0.
                    Isotopes and Nuclear Properties:
 (Nuclear quadrupole moments (NQMom) in fm**2, nuclear magnetic moments (NMagM)
  in nuclear magnetons)

  Atom         1           2           3           4           5           6           7           8           9          10
 IAtWgt=          12          12          16          14          16          12           1          12           1          16
 AtmWgt=  12.0000000  12.0000000  15.9949146  14.0030740  15.9949146  12.0000000   1.0078250  12.0000000   1.0078250  15.9949146
 NucSpn=           0           0           0           2           0           0           1           0           1           0
 AtZEff=   0.0000000   0.0000000   0.0000000   0.0000000   0.0000000   0.0000000   0.0000000   0.0000000   0.0000000   0.0000000
 NQMom=    0.0000000   0.0000000   0.0000000   2.0440000   0.0000000   0.0000000   0.0000000   0.0000000   0.0000000   0.0000000
 NMagM=    0.0000000   0.0000000   0.0000000   0.4037610   0.0000000   0.0000000   2.7928460   0.0000000   2.7928460   0.0000000
 AtZNuc=   6.0000000   6.0000000   8.0000000   7.0000000   8.0000000   6.0000000   1.0000000   6.0000000   1.0000000   8.0000000

  Atom        11          12          13          14          15          16          17
 IAtWgt=           1          12           1          12          14          16          16
 AtmWgt=   1.0078250  12.0000000   1.0078250  12.0000000  14.0030740  15.9949146  15.9949146
 NucSpn=           1           0           1           0           2           0           0
 AtZEff=   0.0000000   0.0000000   0.0000000   0.0000000   0.0000000   0.0000000   0.0000000
 NQMom=    0.0000000   0.0000000   0.0000000   0.0000000   2.0440000   0.0000000   0.0000000
 NMagM=    2.7928460   0.0000000   2.7928460   0.0000000   0.4037610   0.0000000   0.0000000
 AtZNuc=   1.0000000   6.0000000   1.0000000   6.0000000   7.0000000   8.0000000   8.0000000
 Leave Link  101 at Thu Aug 26 05:28:46 2021, MaxMem= 24159191040 cpu:        10.4
 (Enter /public/home/users/caep010/software/Gaussian09/g09/l103.exe)

 GradGradGradGradGradGradGradGradGradGradGradGradGradGradGradGradGradGrad
 Berny optimization.
 Initialization pass.
                           ----------------------------
                           !    Initial Parameters    !
                           ! (Angstroms and Degrees)  !
 --------------------------                            --------------------------
 ! Name  Definition              Value          Derivative Info.                !
 --------------------------------------------------------------------------------
 ! R1    R(1,2)                  1.511          calculate D2E/DX2 analytically  !
 ! R2    R(1,4)                  1.3684         calculate D2E/DX2 analytically  !
 ! R3    R(1,12)                 1.3766         calculate D2E/DX2 analytically  !
 ! R4    R(2,3)                  1.203          calculate D2E/DX2 analytically  !
 ! R5    R(2,10)                 1.305          calculate D2E/DX2 analytically  !
 ! R6    R(4,5)                  1.3233         calculate D2E/DX2 analytically  !
 ! R7    R(4,6)                  1.3525         calculate D2E/DX2 analytically  !
 ! R8    R(6,7)                  0.9299         calculate D2E/DX2 analytically  !
 ! R9    R(6,8)                  1.3673         calculate D2E/DX2 analytically  !
 ! R10   R(8,9)                  0.9305         calculate D2E/DX2 analytically  !
 ! R11   R(8,14)                 1.3756         calculate D2E/DX2 analytically  !
 ! R12   R(10,11)                1.0768         calculate D2E/DX2 analytically  !
 ! R13   R(12,13)                0.9299         calculate D2E/DX2 analytically  !
 ! R14   R(12,14)                1.3686         calculate D2E/DX2 analytically  !
 ! R15   R(14,15)                1.4695         calculate D2E/DX2 analytically  !
 ! R16   R(15,16)                1.2175         calculate D2E/DX2 analytically  !
 ! R17   R(15,17)                1.2202         calculate D2E/DX2 analytically  !
 ! A1    A(2,1,4)              120.6433         calculate D2E/DX2 analytically  !
 ! A2    A(2,1,12)             120.3719         calculate D2E/DX2 analytically  !
 ! A3    A(4,1,12)             118.9222         calculate D2E/DX2 analytically  !
 ! A4    A(1,2,3)              119.4681         calculate D2E/DX2 analytically  !
 ! A5    A(1,2,10)             116.6315         calculate D2E/DX2 analytically  !
 ! A6    A(3,2,10)             123.8982         calculate D2E/DX2 analytically  !
 ! A7    A(1,4,5)              120.6547         calculate D2E/DX2 analytically  !
 ! A8    A(1,4,6)              121.3759         calculate D2E/DX2 analytically  !
 ! A9    A(5,4,6)              117.9567         calculate D2E/DX2 analytically  !
 ! A10   A(4,6,7)              119.7244         calculate D2E/DX2 analytically  !
 ! A11   A(4,6,8)              120.6318         calculate D2E/DX2 analytically  !
 ! A12   A(7,6,8)              119.6437         calculate D2E/DX2 analytically  !
 ! A13   A(6,8,9)              120.8915         calculate D2E/DX2 analytically  !
 ! A14   A(6,8,14)             118.1897         calculate D2E/DX2 analytically  !
 ! A15   A(9,8,14)             120.9188         calculate D2E/DX2 analytically  !
 ! A16   A(2,10,11)            103.3424         calculate D2E/DX2 analytically  !
 ! A17   A(1,12,13)            120.4062         calculate D2E/DX2 analytically  !
 ! A18   A(1,12,14)            119.2169         calculate D2E/DX2 analytically  !
 ! A19   A(13,12,14)           120.3769         calculate D2E/DX2 analytically  !
 ! A20   A(8,14,12)            121.6147         calculate D2E/DX2 analytically  !
 ! A21   A(8,14,15)            119.1196         calculate D2E/DX2 analytically  !
 ! A22   A(12,14,15)           119.233          calculate D2E/DX2 analytically  !
 ! A23   A(14,15,16)           118.0027         calculate D2E/DX2 analytically  !
 ! A24   A(14,15,17)           117.7995         calculate D2E/DX2 analytically  !
 ! A25   A(16,15,17)           124.1962         calculate D2E/DX2 analytically  !
 ! D1    D(4,1,2,3)           -173.7561         calculate D2E/DX2 analytically  !
 ! D2    D(4,1,2,10)             5.725          calculate D2E/DX2 analytically  !
 ! D3    D(12,1,2,3)             3.3349         calculate D2E/DX2 analytically  !
 ! D4    D(12,1,2,10)         -177.184          calculate D2E/DX2 analytically  !
 ! D5    D(2,1,4,5)             -4.1967         calculate D2E/DX2 analytically  !
 ! D6    D(2,1,4,6)            174.4764         calculate D2E/DX2 analytically  !
 ! D7    D(12,1,4,5)           178.6707         calculate D2E/DX2 analytically  !
 ! D8    D(12,1,4,6)            -2.6562         calculate D2E/DX2 analytically  !
 ! D9    D(2,1,12,13)            4.6084         calculate D2E/DX2 analytically  !
 ! D10   D(2,1,12,14)         -175.3012         calculate D2E/DX2 analytically  !
 ! D11   D(4,1,12,13)         -178.251          calculate D2E/DX2 analytically  !
 ! D12   D(4,1,12,14)            1.8394         calculate D2E/DX2 analytically  !
 ! D13   D(1,2,10,11)           -4.6493         calculate D2E/DX2 analytically  !
 ! D14   D(3,2,10,11)          174.8064         calculate D2E/DX2 analytically  !
 ! D15   D(1,4,6,7)           -178.3036         calculate D2E/DX2 analytically  !
 ! D16   D(1,4,6,8)              1.5982         calculate D2E/DX2 analytically  !
 ! D17   D(5,4,6,7)              0.4042         calculate D2E/DX2 analytically  !
 ! D18   D(5,4,6,8)           -179.694          calculate D2E/DX2 analytically  !
 ! D19   D(4,6,8,9)           -179.7262         calculate D2E/DX2 analytically  !
 ! D20   D(4,6,8,14)             0.2722         calculate D2E/DX2 analytically  !
 ! D21   D(7,6,8,9)              0.1757         calculate D2E/DX2 analytically  !
 ! D22   D(7,6,8,14)          -179.826          calculate D2E/DX2 analytically  !
 ! D23   D(6,8,14,12)           -1.0558         calculate D2E/DX2 analytically  !
 ! D24   D(6,8,14,15)         -178.9594         calculate D2E/DX2 analytically  !
 ! D25   D(9,8,14,12)          178.9425         calculate D2E/DX2 analytically  !
 ! D26   D(9,8,14,15)            1.0389         calculate D2E/DX2 analytically  !
 ! D27   D(1,12,14,8)           -0.0108         calculate D2E/DX2 analytically  !
 ! D28   D(1,12,14,15)         177.8905         calculate D2E/DX2 analytically  !
 ! D29   D(13,12,14,8)        -179.9204         calculate D2E/DX2 analytically  !
 ! D30   D(13,12,14,15)         -2.0192         calculate D2E/DX2 analytically  !
 ! D31   D(8,14,15,16)           4.0095         calculate D2E/DX2 analytically  !
 ! D32   D(8,14,15,17)        -175.5646         calculate D2E/DX2 analytically  !
 ! D33   D(12,14,15,16)       -173.9447         calculate D2E/DX2 analytically  !
 ! D34   D(12,14,15,17)          6.4812         calculate D2E/DX2 analytically  !
 --------------------------------------------------------------------------------
 Trust Radius=3.00D-01 FncErr=1.00D-07 GrdErr=1.00D-06
 Number of steps in this run=     86 maximum allowed number of steps=    102.
 GradGradGradGradGradGradGradGradGradGradGradGradGradGradGradGradGradGrad

 Leave Link  103 at Thu Aug 26 05:28:46 2021, MaxMem= 24159191040 cpu:         0.4
 (Enter /public/home/users/caep010/software/Gaussian09/g09/l202.exe)
                          Input orientation:                          
 ---------------------------------------------------------------------
 Center     Atomic      Atomic             Coordinates (Angstroms)
 Number     Number       Type             X           Y           Z
 ---------------------------------------------------------------------
      1          6           0        8.966300    2.584700    4.806400
      2          6           0       10.208900    1.830100    5.218100
      3          8           0       10.897400    2.262600    6.104800
      4          7           0        8.098700    2.053300    3.891300
      5          8           0        8.372300    0.907600    3.288300
      6          6           0        6.928500    2.662700    3.593900
      7          1           0        6.345200    2.269200    2.985900
      8          6           0        6.593400    3.851600    4.180300
      9          1           0        5.787600    4.272100    3.981200
     10          8           0       10.459600    0.721600    4.576600
     11          1           0        9.601900    0.605800    3.936000
     12          6           0        8.659300    3.792200    5.391800
     13          1           0        9.245600    4.183900    5.998100
     14          6           0        7.479900    4.408800    5.072400
     15          7           0        7.130200    5.674500    5.732000
     16          8           0        6.028500    6.146000    5.516700
     17          8           0        7.967300    6.189700    6.455000
 ---------------------------------------------------------------------
                    Distance matrix (angstroms):
                    1          2          3          4          5
     1  C    0.000000
     2  C    1.510951   0.000000
     3  O    2.349199   1.203048   0.000000
     4  N    1.368402   2.502631   3.574369   0.000000
     5  O    2.338830   2.819261   4.018063   1.323289   0.000000
     6  C    2.372524   3.753968   4.713477   1.352473   2.293104
     7  H    3.206856   4.483715   5.518161   1.985226   2.460596
     8  C    2.761828   4.270285   4.975242   2.362908   3.553489
     9  H    3.692209   5.200113   5.887090   3.205049   4.298912
    10  O    2.398728   1.305046   2.213989   2.795874   2.459905
    11  H    2.253359   1.873804   3.021093   2.087310   1.422151
    12  C    1.376589   2.506246   2.803058   2.364222   3.581620
    13  H    2.013852   2.660211   2.535985   3.208339   4.340485
    14  C    2.368012   3.757441   4.165493   2.706712   4.029614
    15  N    3.711450   4.951959   5.096257   4.176034   5.498892
    16  O    4.670980   6.015970   6.255625   4.865989   6.156298
    17  O    4.088020   5.055769   4.912254   4.868226   6.171920
                    6          7          8          9         10
     6  C    0.000000
     7  H    0.929917   0.000000
     8  C    1.367348   1.998045   0.000000
     9  H    2.010428   2.305027   0.930470   0.000000
    10  O    4.147558   4.674792   4.990136   5.898147   0.000000
    11  H    3.390418   3.778318   4.432378   5.290811   1.076767
    12  C    2.739322   3.669188   2.395663   3.235237   3.651605
    13  H    3.669221   4.599103   3.232489   4.004176   3.934715
    14  C    2.353480   3.196704   1.375571   2.018238   4.766537
    15  N    3.699067   4.444475   2.453343   2.614307   6.078739
    16  O    4.079282   4.640563   2.714654   2.434604   7.067004
    17  O    4.658833   5.480528   3.539572   3.814180   6.296036
                   11         12         13         14         15
    11  H    0.000000
    12  C    3.627808   0.000000
    13  H    4.145118   0.929933   0.000000
    14  C    4.500789   1.368648   2.006289   0.000000
    15  N    5.918331   2.448864   2.601464   1.469476   0.000000
    16  O    6.779500   3.532291   3.798857   2.306909   1.217542
    17  O    6.340128   2.712428   2.421991   2.306674   1.220203
                   16         17
    16  O    0.000000
    17  O    2.154359   0.000000
 Stoichiometry    C6H4N2O5
 Framework group  C1[X(C6H4N2O5)]
 Deg. of freedom    45
 Full point group                 C1      NOp   1
 Largest Abelian subgroup         C1      NOp   1
 Largest concise Abelian subgroup C1      NOp   1
                         Standard orientation:                         
 ---------------------------------------------------------------------
 Center     Atomic      Atomic             Coordinates (Angstroms)
 Number     Number       Type             X           Y           Z
 ---------------------------------------------------------------------
      1          6           0       -0.961967   -0.182257   -0.043478
      2          6           0       -2.167035   -1.090917    0.028080
      3          8           0       -2.007221   -2.279029    0.128950
      4          7           0       -1.112216    1.177807   -0.030306
      5          8           0       -2.317709    1.723539   -0.037993
      6          6           0       -0.042499    2.003999    0.017587
      7          1           0       -0.171787    2.924333    0.049473
      8          6           0        1.228180    1.499026    0.021604
      9          1           0        1.966623    2.063942    0.058292
     10          8           0       -3.337334   -0.514978   -0.014813
     11          1           0       -3.097932    0.534831   -0.010843
     12          6           0        0.308661   -0.711531   -0.062829
     13          1           0        0.434524   -1.632291   -0.096511
     14          6           0        1.384876    0.133384   -0.030027
     15          7           0        2.740833   -0.432332   -0.003477
     16          8           0        3.676915    0.333126    0.138766
     17          8           0        2.856219   -1.640078   -0.133604
 ---------------------------------------------------------------------
 Rotational constants (GHZ):      1.6063270      0.5479554      0.4092502
 Leave Link  202 at Thu Aug 26 05:28:46 2021, MaxMem= 24159191040 cpu:         0.8
 (Enter /public/home/users/caep010/software/Gaussian09/g09/l301.exe)
 Standard basis: GTBas3 (6D, 7F)
 Ernie: Thresh=  0.10000D-02 Tol=  0.10000D-05 Strict=F.
 There are   423 symmetry adapted cartesian basis functions of A   symmetry.
 There are   384 symmetry adapted basis functions of A   symmetry.
   384 basis functions,   600 primitive gaussians,   423 cartesian basis functions
    47 alpha electrons       47 beta electrons
       nuclear repulsion energy       787.1691993525 Hartrees.
 IExCor=  402 DFT=T Ex+Corr=B3LYP ExCW=0 ScaHFX=  0.200000
 ScaDFX=  0.800000  0.720000  1.000000  0.810000 ScalE2=  1.000000  1.000000
 IRadAn=      0 IRanWt=     -1 IRanGd=            0 ICorTp=0 IEmpDi=  4
 NAtoms=   17 NActive=   17 NUniq=   17 SFac= 1.00D+00 NAtFMM=   60 NAOKFM=F Big=F
 Integral buffers will be    131072 words long.
 Raffenetti 2 integral format.
 Two-electron integral symmetry is turned on.
 Leave Link  301 at Thu Aug 26 05:28:46 2021, MaxMem= 24159191040 cpu:         2.4
 (Enter /public/home/users/caep010/software/Gaussian09/g09/l302.exe)
 NPDir=0 NMtPBC=     1 NCelOv=     1 NCel=       1 NClECP=     1 NCelD=      1
         NCelK=      1 NCelE2=     1 NClLst=     1 CellRange=     0.0.
 One-electron integrals computed using PRISM.
 NBasis=   384 RedAO= T EigKep=  1.16D-04  NBF=   384
 NBsUse=   384 1.00D-06 EigRej= -1.00D+00 NBFU=   384
 Precomputing XC quadrature grid using
 IXCGrd= 4 IRadAn=           0 IRanWt=          -1 IRanGd=           0 AccXCQ= 0.00D+00.
 Generated NRdTot=       0 NPtTot=           0 NUsed=           0 NTot=          32
 NSgBfM=   422   422   422   422   422 MxSgAt=    17 MxSgA2=    17.
 Leave Link  302 at Thu Aug 26 05:28:47 2021, MaxMem= 24159191040 cpu:        18.0
 (Enter /public/home/users/caep010/software/Gaussian09/g09/l303.exe)
 DipDrv:  MaxL=1.
 Leave Link  303 at Thu Aug 26 05:28:47 2021, MaxMem= 24159191040 cpu:         1.1
 (Enter /public/home/users/caep010/software/Gaussian09/g09/l401.exe)
 ExpMin= 1.61D-01 ExpMax= 5.48D+03 ExpMxC= 8.25D+02 IAcc=1 IRadAn=         1 AccDes= 0.00D+00
 Harris functional with IExCor=  402 and IRadAn=       1 diagonalized for initial guess.
 HarFok:  IExCor=  402 AccDes= 0.00D+00 IRadAn=         1 IDoV= 1 UseB2=F ITyADJ=14
 ICtDFT=  3500011 ScaDFX=  1.000000  1.000000  1.000000  1.000000
 FoFCou: FMM=F IPFlag=           0 FMFlag=      100000 FMFlg1=           0
         NFxFlg=           0 DoJE=T BraDBF=F KetDBF=T FulRan=T
         wScrn=  0.000000 ICntrl=     500 IOpCl=  0 I1Cent=   200000004 NGrid=           0
         NMat0=    1 NMatS0=      1 NMatT0=    0 NMatD0=    1 NMtDS0=    0 NMtDT0=    0
 Petite list used in FoFCou.
 Harris En= -716.577358408100    
 JPrj=0 DoOrth=F DoCkMO=F.
 Leave Link  401 at Thu Aug 26 05:28:48 2021, MaxMem= 24159191040 cpu:        18.0
 (Enter /public/home/users/caep010/software/Gaussian09/g09/l502.exe)
 Closed shell SCF:
 Using DIIS extrapolation, IDIIS=  1040.
 Integral symmetry usage will be decided dynamically.
 Keep R1 ints in memory in canonical form, NReq=2770804379.
 IVT=      571919 IEndB=      571919 NGot= 24159191040 MDV= 21426498962
 LenX= 21426498962 LenY= 21426319592
 Requested convergence on RMS density matrix=1.00D-08 within 128 cycles.
 Requested convergence on MAX density matrix=1.00D-06.
 Requested convergence on             energy=1.00D-06.
 No special actions if energy rises.
 FoFCou: FMM=F IPFlag=           0 FMFlag=           0 FMFlg1=           0
         NFxFlg=           0 DoJE=F BraDBF=F KetDBF=F FulRan=T
         wScrn=  0.000000 ICntrl=     600 IOpCl=  0 I1Cent=           0 NGrid=           0
         NMat0=    1 NMatS0=  73920 NMatT0=    0 NMatD0=    1 NMtDS0=    0 NMtDT0=    0
 Symmetry not used in FoFCou.
 Integral accuracy reduced to 1.0D-05 until final iterations.

 Cycle   1  Pass 0  IDiag  1:
 E= -716.075070230985    
 DIIS: error= 2.56D-02 at cycle   1 NSaved=   1.
 NSaved= 1 IEnMin= 1 EnMin= -716.075070230985     IErMin= 1 ErrMin= 2.56D-02
 ErrMax= 2.56D-02  0.00D+00 EMaxC= 1.00D-01 BMatC= 5.83D-01 BMatP= 5.83D-01
 IDIUse=3 WtCom= 7.44D-01 WtEn= 2.56D-01
 Coeff-Com:  0.100D+01
 Coeff-En:   0.100D+01
 Coeff:      0.100D+01
 Gap=     0.153 Goal=   None    Shift=    0.000
 GapD=    0.153 DampG=1.000 DampE=0.500 DampFc=0.5000 IDamp=-1.
 Damping current iteration by 5.00D-01
 RMSDP=5.05D-03 MaxDP=4.26D-01              OVMax= 8.97D-01

 Cycle   2  Pass 0  IDiag  1:
 E= -715.730824005562     Delta-E=        0.344246225423 Rises=F Damp=T
 DIIS: error= 1.90D-02 at cycle   2 NSaved=   2.
 NSaved= 2 IEnMin= 1 EnMin= -716.075070230985     IErMin= 2 ErrMin= 1.90D-02
 ErrMax= 1.90D-02  0.00D+00 EMaxC= 1.00D-01 BMatC= 3.08D-01 BMatP= 5.83D-01
 IDIUse=3 WtCom= 8.10D-01 WtEn= 1.90D-01
 Coeff-Com:  0.399D+00 0.601D+00
 Coeff-En:   0.685D+00 0.315D+00
 Coeff:      0.454D+00 0.546D+00
 Gap=    -0.247 Goal=   None    Shift=    0.000
 RMSDP=2.39D-03 MaxDP=2.19D-01 DE= 3.44D-01 OVMax= 6.89D-01

 Cycle   3  Pass 0  IDiag  1:
 E= -716.237638956348     Delta-E=       -0.506814950786 Rises=F Damp=F
 DIIS: error= 1.76D-02 at cycle   3 NSaved=   3.
 NSaved= 3 IEnMin= 3 EnMin= -716.237638956348     IErMin= 3 ErrMin= 1.76D-02
 ErrMax= 1.76D-02  0.00D+00 EMaxC= 1.00D-01 BMatC= 2.98D-01 BMatP= 3.08D-01
 IDIUse=3 WtCom= 8.24D-01 WtEn= 1.76D-01
 EnCoef did     2 forward-backward iterations
 Coeff-Com:  0.250D+00 0.421D+00 0.328D+00
 Coeff-En:   0.264D+00 0.141D+00 0.596D+00
 Coeff:      0.253D+00 0.372D+00 0.376D+00
 Gap=     0.186 Goal=   None    Shift=    0.000
 RMSDP=1.60D-03 MaxDP=1.08D-01 DE=-5.07D-01 OVMax= 1.81D-01

 Cycle   4  Pass 0  IDiag  1:
 E= -716.490727430927     Delta-E=       -0.253088474578 Rises=F Damp=F
 DIIS: error= 3.48D-03 at cycle   4 NSaved=   4.
 NSaved= 4 IEnMin= 4 EnMin= -716.490727430927     IErMin= 4 ErrMin= 3.48D-03
 ErrMax= 3.48D-03  0.00D+00 EMaxC= 1.00D-01 BMatC= 1.70D-02 BMatP= 2.98D-01
 IDIUse=3 WtCom= 9.65D-01 WtEn= 3.48D-02
 Coeff-Com:  0.534D-01 0.174D+00 0.146D+00 0.627D+00
 Coeff-En:   0.000D+00 0.000D+00 0.000D+00 0.100D+01
 Coeff:      0.516D-01 0.168D+00 0.140D+00 0.640D+00
 Gap=     0.147 Goal=   None    Shift=    0.000
 RMSDP=6.03D-04 MaxDP=3.71D-02 DE=-2.53D-01 OVMax= 1.00D-01

 Cycle   5  Pass 0  IDiag  1:
 E= -716.489187216924     Delta-E=        0.001540214003 Rises=F Damp=F
 DIIS: error= 5.50D-03 at cycle   5 NSaved=   5.
 NSaved= 5 IEnMin= 4 EnMin= -716.490727430927     IErMin= 4 ErrMin= 3.48D-03
 ErrMax= 5.50D-03  0.00D+00 EMaxC= 1.00D-01 BMatC= 1.92D-02 BMatP= 1.70D-02
 IDIUse=3 WtCom= 1.19D-01 WtEn= 8.81D-01
 Coeff-Com: -0.780D-02 0.810D-01 0.453D-02 0.484D+00 0.438D+00
 Coeff-En:   0.000D+00 0.000D+00 0.000D+00 0.522D+00 0.478D+00
 Coeff:     -0.927D-03 0.963D-02 0.539D-03 0.517D+00 0.474D+00
 Gap=     0.155 Goal=   None    Shift=    0.000
 RMSDP=6.37D-04 MaxDP=4.67D-02 DE= 1.54D-03 OVMax= 9.08D-02

 Cycle   6  Pass 0  IDiag  1:
 E= -716.496801903707     Delta-E=       -0.007614686784 Rises=F Damp=F
 DIIS: error= 4.07D-03 at cycle   6 NSaved=   6.
 NSaved= 6 IEnMin= 6 EnMin= -716.496801903707     IErMin= 4 ErrMin= 3.48D-03
 ErrMax= 4.07D-03  0.00D+00 EMaxC= 1.00D-01 BMatC= 1.23D-02 BMatP= 1.70D-02
 IDIUse=3 WtCom= 9.59D-01 WtEn= 4.07D-02
 EnCoef did     4 forward-backward iterations
 Coeff-Com:  0.148D-01-0.290D-02 0.406D-02 0.242D+00 0.330D+00 0.411D+00
 Coeff-En:   0.000D+00 0.000D+00 0.000D+00 0.192D+00 0.339D+00 0.470D+00
 Coeff:      0.142D-01-0.278D-02 0.390D-02 0.240D+00 0.331D+00 0.414D+00
 Gap=     0.145 Goal=   None    Shift=    0.000
 RMSDP=2.93D-04 MaxDP=2.62D-02 DE=-7.61D-03 OVMax= 2.48D-02

 Cycle   7  Pass 0  IDiag  1:
 E= -716.506578274963     Delta-E=       -0.009776371256 Rises=F Damp=F
 DIIS: error= 5.31D-04 at cycle   7 NSaved=   7.
 NSaved= 7 IEnMin= 7 EnMin= -716.506578274963     IErMin= 7 ErrMin= 5.31D-04
 ErrMax= 5.31D-04  0.00D+00 EMaxC= 1.00D-01 BMatC= 3.12D-04 BMatP= 1.23D-02
 IDIUse=3 WtCom= 9.95D-01 WtEn= 5.31D-03
 Coeff-Com:  0.104D-01-0.846D-02 0.890D-02 0.924D-01 0.158D+00 0.245D+00
 Coeff-Com:  0.494D+00
 Coeff-En:   0.000D+00 0.000D+00 0.000D+00 0.000D+00 0.000D+00 0.000D+00
 Coeff-En:   0.100D+01
 Coeff:      0.103D-01-0.841D-02 0.885D-02 0.919D-01 0.157D+00 0.244D+00
 Coeff:      0.497D+00
 Gap=     0.147 Goal=   None    Shift=    0.000
 RMSDP=6.19D-05 MaxDP=4.78D-03 DE=-9.78D-03 OVMax= 8.02D-03

 Cycle   8  Pass 0  IDiag  1:
 E= -716.506734072755     Delta-E=       -0.000155797792 Rises=F Damp=F
 DIIS: error= 4.73D-04 at cycle   8 NSaved=   8.
 NSaved= 8 IEnMin= 8 EnMin= -716.506734072755     IErMin= 8 ErrMin= 4.73D-04
 ErrMax= 4.73D-04  0.00D+00 EMaxC= 1.00D-01 BMatC= 1.50D-04 BMatP= 3.12D-04
 IDIUse=3 WtCom= 9.95D-01 WtEn= 4.73D-03
 Coeff-Com:  0.465D-02-0.401D-02 0.961D-02 0.202D-01 0.503D-01 0.762D-01
 Coeff-Com:  0.380D+00 0.463D+00
 Coeff-En:   0.000D+00 0.000D+00 0.000D+00 0.000D+00 0.000D+00 0.000D+00
 Coeff-En:   0.298D+00 0.702D+00
 Coeff:      0.462D-02-0.399D-02 0.956D-02 0.201D-01 0.501D-01 0.759D-01
 Coeff:      0.380D+00 0.464D+00
 Gap=     0.150 Goal=   None    Shift=    0.000
 RMSDP=3.87D-05 MaxDP=2.67D-03 DE=-1.56D-04 OVMax= 4.12D-03

 Cycle   9  Pass 0  IDiag  1:
 E= -716.506845307558     Delta-E=       -0.000111234803 Rises=F Damp=F
 DIIS: error= 1.64D-04 at cycle   9 NSaved=   9.
 NSaved= 9 IEnMin= 9 EnMin= -716.506845307558     IErMin= 9 ErrMin= 1.64D-04
 ErrMax= 1.64D-04  0.00D+00 EMaxC= 1.00D-01 BMatC= 1.71D-05 BMatP= 1.50D-04
 IDIUse=3 WtCom= 9.98D-01 WtEn= 1.64D-03
 Coeff-Com:  0.123D-02-0.702D-03 0.561D-02 0.467D-02 0.140D-01 0.702D-02
 Coeff-Com:  0.159D+00 0.300D+00 0.509D+00
 Coeff-En:   0.000D+00 0.000D+00 0.000D+00 0.000D+00 0.000D+00 0.000D+00
 Coeff-En:   0.000D+00 0.975D-02 0.990D+00
 Coeff:      0.123D-02-0.701D-03 0.560D-02 0.466D-02 0.140D-01 0.701D-02
 Coeff:      0.159D+00 0.299D+00 0.510D+00
 Gap=     0.151 Goal=   None    Shift=    0.000
 RMSDP=1.45D-05 MaxDP=1.14D-03 DE=-1.11D-04 OVMax= 2.03D-03

 Cycle  10  Pass 0  IDiag  1:
 E= -716.506860302759     Delta-E=       -0.000014995201 Rises=F Damp=F
 DIIS: error= 4.24D-05 at cycle  10 NSaved=  10.
 NSaved=10 IEnMin=10 EnMin= -716.506860302759     IErMin=10 ErrMin= 4.24D-05
 ErrMax= 4.24D-05  0.00D+00 EMaxC= 1.00D-01 BMatC= 1.26D-06 BMatP= 1.71D-05
 IDIUse=1 WtCom= 1.00D+00 WtEn= 0.00D+00
 Coeff-Com: -0.655D-04 0.228D-04 0.136D-02 0.165D-02 0.455D-02-0.494D-02
 Coeff-Com:  0.396D-01 0.998D-01 0.270D+00 0.588D+00
 Coeff:     -0.655D-04 0.228D-04 0.136D-02 0.165D-02 0.455D-02-0.494D-02
 Coeff:      0.396D-01 0.998D-01 0.270D+00 0.588D+00
 Gap=     0.151 Goal=   None    Shift=    0.000
 RMSDP=3.21D-06 MaxDP=2.05D-04 DE=-1.50D-05 OVMax= 3.73D-04

 Initial convergence to 1.0D-05 achieved.  Increase integral accuracy.
 Cycle  11  Pass 1  IDiag  1:
 E= -716.506922511015     Delta-E=       -0.000062208256 Rises=F Damp=F
 DIIS: error= 2.84D-05 at cycle   1 NSaved=   1.
 NSaved= 1 IEnMin= 1 EnMin= -716.506922511015     IErMin= 1 ErrMin= 2.84D-05
 ErrMax= 2.84D-05  0.00D+00 EMaxC= 1.00D-01 BMatC= 4.48D-07 BMatP= 4.48D-07
 IDIUse=1 WtCom= 1.00D+00 WtEn= 0.00D+00
 Coeff-Com:  0.100D+01
 Coeff:      0.100D+01
 Gap=     0.151 Goal=   None    Shift=    0.000
 RMSDP=3.21D-06 MaxDP=2.05D-04 DE=-6.22D-05 OVMax= 4.03D-04

 Cycle  12  Pass 1  IDiag  1:
 E= -716.506921986998     Delta-E=        0.000000524017 Rises=F Damp=F
 DIIS: error= 4.70D-05 at cycle   2 NSaved=   2.
 NSaved= 2 IEnMin= 1 EnMin= -716.506922511015     IErMin= 1 ErrMin= 2.84D-05
 ErrMax= 4.70D-05  0.00D+00 EMaxC= 1.00D-01 BMatC= 1.03D-06 BMatP= 4.48D-07
 IDIUse=1 WtCom= 1.00D+00 WtEn= 0.00D+00
 Coeff-Com:  0.617D+00 0.383D+00
 Coeff:      0.617D+00 0.383D+00
 Gap=     0.151 Goal=   None    Shift=    0.000
 RMSDP=2.52D-06 MaxDP=1.48D-04 DE= 5.24D-07 OVMax= 3.19D-04

 Cycle  13  Pass 1  IDiag  1:
 E= -716.506922857658     Delta-E=       -0.000000870659 Rises=F Damp=F
 DIIS: error= 9.45D-06 at cycle   3 NSaved=   3.
 NSaved= 3 IEnMin= 3 EnMin= -716.506922857658     IErMin= 3 ErrMin= 9.45D-06
 ErrMax= 9.45D-06  0.00D+00 EMaxC= 1.00D-01 BMatC= 5.95D-08 BMatP= 4.48D-07
 IDIUse=1 WtCom= 1.00D+00 WtEn= 0.00D+00
 Coeff-Com:  0.122D+00 0.198D+00 0.680D+00
 Coeff:      0.122D+00 0.198D+00 0.680D+00
 Gap=     0.151 Goal=   None    Shift=    0.000
 RMSDP=1.01D-06 MaxDP=6.98D-05 DE=-8.71D-07 OVMax= 1.23D-04

 Cycle  14  Pass 1  IDiag  1:
 E= -716.506922868065     Delta-E=       -0.000000010407 Rises=F Damp=F
 DIIS: error= 8.70D-06 at cycle   4 NSaved=   4.
 NSaved= 4 IEnMin= 4 EnMin= -716.506922868065     IErMin= 4 ErrMin= 8.70D-06
 ErrMax= 8.70D-06  0.00D+00 EMaxC= 1.00D-01 BMatC= 4.99D-08 BMatP= 5.95D-08
 IDIUse=1 WtCom= 1.00D+00 WtEn= 0.00D+00
 Coeff-Com:  0.261D-02 0.975D-01 0.536D+00 0.364D+00
 Coeff:      0.261D-02 0.975D-01 0.536D+00 0.364D+00
 Gap=     0.151 Goal=   None    Shift=    0.000
 RMSDP=6.27D-07 MaxDP=5.59D-05 DE=-1.04D-08 OVMax= 8.83D-05

 Cycle  15  Pass 1  IDiag  1:
 E= -716.506922907338     Delta-E=       -0.000000039273 Rises=F Damp=F
 DIIS: error= 2.28D-06 at cycle   5 NSaved=   5.
 NSaved= 5 IEnMin= 5 EnMin= -716.506922907338     IErMin= 5 ErrMin= 2.28D-06
 ErrMax= 2.28D-06  0.00D+00 EMaxC= 1.00D-01 BMatC= 3.23D-09 BMatP= 4.99D-08
 IDIUse=1 WtCom= 1.00D+00 WtEn= 0.00D+00
 Coeff-Com: -0.862D-02 0.504D-01 0.313D+00 0.255D+00 0.391D+00
 Coeff:     -0.862D-02 0.504D-01 0.313D+00 0.255D+00 0.391D+00
 Gap=     0.151 Goal=   None    Shift=    0.000
 RMSDP=1.51D-07 MaxDP=1.12D-05 DE=-3.93D-08 OVMax= 1.90D-05

 Cycle  16  Pass 1  IDiag  1:
 E= -716.506922909877     Delta-E=       -0.000000002538 Rises=F Damp=F
 DIIS: error= 5.92D-07 at cycle   6 NSaved=   6.
 NSaved= 6 IEnMin= 6 EnMin= -716.506922909877     IErMin= 6 ErrMin= 5.92D-07
 ErrMax= 5.92D-07  0.00D+00 EMaxC= 1.00D-01 BMatC= 1.61D-10 BMatP= 3.23D-09
 IDIUse=1 WtCom= 1.00D+00 WtEn= 0.00D+00
 Coeff-Com: -0.575D-02 0.260D-01 0.164D+00 0.140D+00 0.246D+00 0.430D+00
 Coeff:     -0.575D-02 0.260D-01 0.164D+00 0.140D+00 0.246D+00 0.430D+00
 Gap=     0.151 Goal=   None    Shift=    0.000
 RMSDP=4.35D-08 MaxDP=2.62D-06 DE=-2.54D-09 OVMax= 8.29D-06

 Cycle  17  Pass 1  IDiag  1:
 E= -716.506922909984     Delta-E=       -0.000000000108 Rises=F Damp=F
 DIIS: error= 2.14D-07 at cycle   7 NSaved=   7.
 NSaved= 7 IEnMin= 7 EnMin= -716.506922909984     IErMin= 7 ErrMin= 2.14D-07
 ErrMax= 2.14D-07  0.00D+00 EMaxC= 1.00D-01 BMatC= 3.24D-11 BMatP= 1.61D-10
 IDIUse=1 WtCom= 1.00D+00 WtEn= 0.00D+00
 Coeff-Com: -0.230D-02 0.876D-02 0.559D-01 0.499D-01 0.964D-01 0.309D+00
 Coeff-Com:  0.482D+00
 Coeff:     -0.230D-02 0.876D-02 0.559D-01 0.499D-01 0.964D-01 0.309D+00
 Coeff:      0.482D+00
 Gap=     0.151 Goal=   None    Shift=    0.000
 RMSDP=1.65D-08 MaxDP=1.37D-06 DE=-1.08D-10 OVMax= 3.23D-06

 Cycle  18  Pass 1  IDiag  1:
 E= -716.506922910008     Delta-E=       -0.000000000024 Rises=F Damp=F
 DIIS: error= 5.47D-08 at cycle   8 NSaved=   8.
 NSaved= 8 IEnMin= 8 EnMin= -716.506922910008     IErMin= 8 ErrMin= 5.47D-08
 ErrMax= 5.47D-08  0.00D+00 EMaxC= 1.00D-01 BMatC= 2.94D-12 BMatP= 3.24D-11
 IDIUse=1 WtCom= 1.00D+00 WtEn= 0.00D+00
 Coeff-Com: -0.681D-03 0.205D-02 0.132D-01 0.128D-01 0.269D-01 0.133D+00
 Coeff-Com:  0.295D+00 0.517D+00
 Coeff:     -0.681D-03 0.205D-02 0.132D-01 0.128D-01 0.269D-01 0.133D+00
 Coeff:      0.295D+00 0.517D+00
 Gap=     0.151 Goal=   None    Shift=    0.000
 RMSDP=4.76D-09 MaxDP=4.19D-07 DE=-2.41D-11 OVMax= 5.85D-07

 SCF Done:  E(RB3LYP) =  -716.506922910     A.U. after   18 cycles
            NFock= 18  Conv=0.48D-08     -V/T= 2.0048
 KE= 7.130755774017D+02 PE=-3.252275986816D+03 EE= 1.035524287152D+03
 Leave Link  502 at Thu Aug 26 05:30:23 2021, MaxMem= 24159191040 cpu:       462.8
 (Enter /public/home/users/caep010/software/Gaussian09/g09/l801.exe)
 DoSCS=F DFT=T ScalE2(SS,OS)=  1.000000  1.000000
 Range of M.O.s used for correlation:     1   384
 NBasis=   384 NAE=    47 NBE=    47 NFC=     0 NFV=     0
 NROrb=    384 NOA=    47 NOB=    47 NVA=   337 NVB=   337

 **** Warning!!: The largest alpha MO coefficient is  0.58424710D+02

 Leave Link  801 at Thu Aug 26 05:30:23 2021, MaxMem= 24159191040 cpu:         0.7
 (Enter /public/home/users/caep010/software/Gaussian09/g09/l1101.exe)
 Using compressed storage, NAtomX=    17.
 Will process     18 centers per pass.
 Leave Link 1101 at Thu Aug 26 05:30:24 2021, MaxMem= 24159191040 cpu:        21.8
 (Enter /public/home/users/caep010/software/Gaussian09/g09/l1102.exe)
 Symmetrizing basis deriv contribution to polar:
 IMax=3 JMax=2 DiffMx= 0.00D+00
 Leave Link 1102 at Thu Aug 26 05:30:25 2021, MaxMem= 24159191040 cpu:         1.9
 (Enter /public/home/users/caep010/software/Gaussian09/g09/l1110.exe)
 Forming Gx(P) for the SCF density, NAtomX=    17.
 Integral derivatives from FoFJK, PRISM(SPDF).
 Do as many integral derivatives as possible in FoFJK.
 G2DrvN: MDV=   24159190800.
 G2DrvN: will do    18 centers at a time, making    1 passes.
 Calling FoFCou, ICntrl=  3107 FMM=F I1Cent=   0 AccDes= 0.00D+00.
 FoFJK:  IHMeth= 1 ICntrl=    3107 DoSepK=F KAlg= 0 I1Cent=   0 FoldK=F
 IRaf=         0 NMat=   1 IRICut=       1 DoRegI=T DoRafI=F ISym2E= 0.
 FoFCou: FMM=F IPFlag=           0 FMFlag=      100000 FMFlg1=           0
         NFxFlg=           0 DoJE=F BraDBF=F KetDBF=F FulRan=T
         wScrn=  0.000000 ICntrl=    3107 IOpCl=  0 I1Cent=           0 NGrid=           0
         NMat0=    1 NMatS0=      1 NMatT0=    0 NMatD0=    1 NMtDS0=    0 NMtDT0=    0
 Symmetry not used in FoFCou.
 End of G2Drv F.D. properties file   721 does not exist.
 End of G2Drv F.D. properties file   722 does not exist.
 End of G2Drv F.D. properties file   788 does not exist.
 Leave Link 1110 at Thu Aug 26 05:30:49 2021, MaxMem= 24159191040 cpu:       757.3
 (Enter /public/home/users/caep010/software/Gaussian09/g09/l1002.exe)
 Minotr:  Closed shell wavefunction.
          IDoAtm=11111111111111111
          Direct CPHF calculation.
          Differentiating once with respect to nuclear coordinates.
          Requested convergence is 1.0D-08 RMS, and 1.0D-07 maximum.
          Secondary convergence is 1.0D-12 RMS, and 1.0D-12 maximum.
          NewPWx=T KeepS1=F KeepF1=F KeepIn=T MapXYZ=F SortEE=F KeepMc=T.
          MDV=   24159190482 using IRadAn=       2.
 Generate precomputed XC quadrature information.
 Keep R1 ints in memory in canonical form, NReq=2770238975.
 FoFCou: FMM=F IPFlag=           0 FMFlag=           0 FMFlg1=           0
         NFxFlg=           0 DoJE=F BraDBF=F KetDBF=F FulRan=T
         wScrn=  0.000000 ICntrl=     600 IOpCl=  0 I1Cent=           0 NGrid=           0
         NMat0=    1 NMatS0=  73920 NMatT0=    0 NMatD0=    1 NMtDS0=    0 NMtDT0=    0
 Symmetry not used in FoFCou.
          Solving linear equations simultaneously, MaxMat=       0.
          There are    54 degrees of freedom in the 1st order CPHF.  IDoFFX=6 NUNeed=     0.
     48 vectors produced by pass  0 Test12= 2.93D-14 1.85D-09 XBig12= 2.15D-01 1.65D-01.
 AX will form    48 AO Fock derivatives at one time.
     48 vectors produced by pass  1 Test12= 2.93D-14 1.85D-09 XBig12= 1.03D-01 6.74D-02.
     48 vectors produced by pass  2 Test12= 2.93D-14 1.85D-09 XBig12= 1.49D-03 6.69D-03.
     48 vectors produced by pass  3 Test12= 2.93D-14 1.85D-09 XBig12= 1.34D-05 5.56D-04.
     48 vectors produced by pass  4 Test12= 2.93D-14 1.85D-09 XBig12= 7.03D-08 4.76D-05.
     48 vectors produced by pass  5 Test12= 2.93D-14 1.85D-09 XBig12= 1.65D-10 1.74D-06.
     32 vectors produced by pass  6 Test12= 2.93D-14 1.85D-09 XBig12= 2.84D-13 6.53D-08.
      3 vectors produced by pass  7 Test12= 2.93D-14 1.85D-09 XBig12= 9.19D-16 2.49D-09.
 InvSVY:  IOpt=1 It=  1 EMax= 5.55D-16
 Solved reduced A of dimension   323 with    54 vectors.
 End of Minotr F.D. properties file   721 does not exist.
 End of Minotr F.D. properties file   722 does not exist.
 End of Minotr F.D. properties file   788 does not exist.
 Leave Link 1002 at Thu Aug 26 05:31:37 2021, MaxMem= 24159191040 cpu:      1522.1
 (Enter /public/home/users/caep010/software/Gaussian09/g09/l601.exe)
 Copying SCF densities to generalized density rwf, IOpCl= 0 IROHF=0.

 **********************************************************************

            Population analysis using the SCF density.

 **********************************************************************

 Orbital symmetries:
       Occupied  (A) (A) (A) (A) (A) (A) (A) (A) (A) (A) (A) (A)
                 (A) (A) (A) (A) (A) (A) (A) (A) (A) (A) (A) (A)
                 (A) (A) (A) (A) (A) (A) (A) (A) (A) (A) (A) (A)
                 (A) (A) (A) (A) (A) (A) (A) (A) (A) (A) (A)
       Virtual   (A) (A) (A) (A) (A) (A) (A) (A) (A) (A) (A) (A)
                 (A) (A) (A) (A) (A) (A) (A) (A) (A) (A) (A) (A)
                 (A) (A) (A) (A) (A) (A) (A) (A) (A) (A) (A) (A)
                 (A) (A) (A) (A) (A) (A) (A) (A) (A) (A) (A) (A)
                 (A) (A) (A) (A) (A) (A) (A) (A) (A) (A) (A) (A)
                 (A) (A) (A) (A) (A) (A) (A) (A) (A) (A) (A) (A)
                 (A) (A) (A) (A) (A) (A) (A) (A) (A) (A) (A) (A)
                 (A) (A) (A) (A) (A) (A) (A) (A) (A) (A) (A) (A)
                 (A) (A) (A) (A) (A) (A) (A) (A) (A) (A) (A) (A)
                 (A) (A) (A) (A) (A) (A) (A) (A) (A) (A) (A) (A)
                 (A) (A) (A) (A) (A) (A) (A) (A) (A) (A) (A) (A)
                 (A) (A) (A) (A) (A) (A) (A) (A) (A) (A) (A) (A)
                 (A) (A) (A) (A) (A) (A) (A) (A) (A) (A) (A) (A)
                 (A) (A) (A) (A) (A) (A) (A) (A) (A) (A) (A) (A)
                 (A) (A) (A) (A) (A) (A) (A) (A) (A) (A) (A) (A)
                 (A) (A) (A) (A) (A) (A) (A) (A) (A) (A) (A) (A)
                 (A) (A) (A) (A) (A) (A) (A) (A) (A) (A) (A) (A)
                 (A) (A) (A) (A) (A) (A) (A) (A) (A) (A) (A) (A)
                 (A) (A) (A) (A) (A) (A) (A) (A) (A) (A) (A) (A)
                 (A) (A) (A) (A) (A) (A) (A) (A) (A) (A) (A) (A)
                 (A) (A) (A) (A) (A) (A) (A) (A) (A) (A) (A) (A)
                 (A) (A) (A) (A) (A) (A) (A) (A) (A) (A) (A) (A)
                 (A) (A) (A) (A) (A) (A) (A) (A) (A) (A) (A) (A)
                 (A) (A) (A) (A) (A) (A) (A) (A) (A) (A) (A) (A)
                 (A) (A) (A) (A) (A) (A) (A) (A) (A) (A) (A) (A)
                 (A) (A) (A) (A) (A) (A) (A) (A) (A) (A) (A) (A)
                 (A) (A) (A) (A) (A) (A) (A) (A) (A) (A) (A) (A)
                 (A) (A) (A) (A) (A) (A) (A) (A) (A) (A) (A) (A)
                 (A)
 The electronic state is 1-A.
 Alpha  occ. eigenvalues --  -19.20349 -19.20212 -19.18759 -19.16831 -19.12819
 Alpha  occ. eigenvalues --  -14.59796 -14.53739 -10.32407 -10.29672 -10.29659
 Alpha  occ. eigenvalues --  -10.28354 -10.25717 -10.25271  -1.26336  -1.16401
 Alpha  occ. eigenvalues --   -1.09763  -1.08654  -1.01788  -0.97348  -0.88964
 Alpha  occ. eigenvalues --   -0.86744  -0.77312  -0.74901  -0.68971  -0.61918
 Alpha  occ. eigenvalues --   -0.60533  -0.58893  -0.58106  -0.57015  -0.54732
 Alpha  occ. eigenvalues --   -0.54343  -0.53462  -0.53392  -0.49144  -0.46948
 Alpha  occ. eigenvalues --   -0.44965  -0.44553  -0.40682  -0.40131  -0.34457
 Alpha  occ. eigenvalues --   -0.34107  -0.33586  -0.32215  -0.31171  -0.31091
 Alpha  occ. eigenvalues --   -0.28917  -0.28557
 Alpha virt. eigenvalues --   -0.13479  -0.09566  -0.06339   0.03365   0.07788
 Alpha virt. eigenvalues --    0.10553   0.11131   0.12189   0.15145   0.16036
 Alpha virt. eigenvalues --    0.16505   0.19608   0.22460   0.22619   0.24130
 Alpha virt. eigenvalues --    0.26195   0.27028   0.29931   0.31880   0.33775
 Alpha virt. eigenvalues --    0.34765   0.39302   0.41757   0.41992   0.42299
 Alpha virt. eigenvalues --    0.44207   0.44621   0.45554   0.46505   0.47193
 Alpha virt. eigenvalues --    0.48560   0.49170   0.50600   0.53595   0.54098
 Alpha virt. eigenvalues --    0.56042   0.58156   0.60240   0.60801   0.61524
 Alpha virt. eigenvalues --    0.62386   0.63305   0.65317   0.66843   0.69287
 Alpha virt. eigenvalues --    0.69725   0.71416   0.72209   0.72621   0.76004
 Alpha virt. eigenvalues --    0.76099   0.76805   0.77804   0.78250   0.80246
 Alpha virt. eigenvalues --    0.81718   0.82477   0.83402   0.85208   0.86123
 Alpha virt. eigenvalues --    0.87442   0.89245   0.91117   0.91295   0.92064
 Alpha virt. eigenvalues --    0.92867   0.93313   0.94543   0.95126   0.96253
 Alpha virt. eigenvalues --    0.96319   0.96920   0.99945   1.00561   1.01634
 Alpha virt. eigenvalues --    1.01959   1.02789   1.04871   1.06208   1.06874
 Alpha virt. eigenvalues --    1.10992   1.12006   1.13399   1.15370   1.15952
 Alpha virt. eigenvalues --    1.19329   1.22378   1.23381   1.24140   1.26592
 Alpha virt. eigenvalues --    1.27970   1.30444   1.31784   1.32274   1.33151
 Alpha virt. eigenvalues --    1.34484   1.35766   1.36736   1.39379   1.40993
 Alpha virt. eigenvalues --    1.42190   1.42582   1.43380   1.44935   1.46316
 Alpha virt. eigenvalues --    1.47514   1.48379   1.50581   1.53073   1.53783
 Alpha virt. eigenvalues --    1.57421   1.58433   1.59842   1.62231   1.62976
 Alpha virt. eigenvalues --    1.64016   1.64589   1.65386   1.66830   1.74449
 Alpha virt. eigenvalues --    1.75796   1.77329   1.79304   1.83439   1.84723
 Alpha virt. eigenvalues --    1.85067   1.88686   1.92241   1.94434   1.94601
 Alpha virt. eigenvalues --    1.98427   2.00623   2.08603   2.11671   2.14218
 Alpha virt. eigenvalues --    2.19593   2.21725   2.23588   2.25179   2.26050
 Alpha virt. eigenvalues --    2.29423   2.34706   2.39785   2.41562   2.47740
 Alpha virt. eigenvalues --    2.50904   2.59146   2.60636   2.63910   2.66516
 Alpha virt. eigenvalues --    2.77271   2.82843   2.83116   2.86922   2.89643
 Alpha virt. eigenvalues --    2.91022   2.93323   2.98018   2.98246   2.99514
 Alpha virt. eigenvalues --    3.00751   3.02893   3.07403   3.07771   3.10878
 Alpha virt. eigenvalues --    3.11406   3.12098   3.15215   3.16820   3.19089
 Alpha virt. eigenvalues --    3.20321   3.21071   3.25096   3.27192   3.27840
 Alpha virt. eigenvalues --    3.31273   3.33360   3.36447   3.38018   3.38357
 Alpha virt. eigenvalues --    3.39426   3.42735   3.43998   3.46264   3.47470
 Alpha virt. eigenvalues --    3.54753   3.55087   3.57683   3.58735   3.60101
 Alpha virt. eigenvalues --    3.61736   3.63456   3.64116   3.68337   3.69899
 Alpha virt. eigenvalues --    3.72240   3.77766   3.78394   3.79318   3.85800
 Alpha virt. eigenvalues --    3.90941   3.91764   3.94840   3.96430   4.00381
 Alpha virt. eigenvalues --    4.01043   4.01786   4.03953   4.06898   4.07793
 Alpha virt. eigenvalues --    4.09014   4.12960   4.13460   4.14493   4.14892
 Alpha virt. eigenvalues --    4.17407   4.18576   4.19545   4.20263   4.23534
 Alpha virt. eigenvalues --    4.27025   4.28003   4.30249   4.30797   4.33322
 Alpha virt. eigenvalues --    4.34716   4.37710   4.37764   4.38862   4.39796
 Alpha virt. eigenvalues --    4.41294   4.41741   4.42799   4.43764   4.45339
 Alpha virt. eigenvalues --    4.46213   4.47847   4.47900   4.49131   4.50888
 Alpha virt. eigenvalues --    4.51867   4.53205   4.55191   4.56509   4.57971
 Alpha virt. eigenvalues --    4.59323   4.59809   4.61516   4.61681   4.64528
 Alpha virt. eigenvalues --    4.66611   4.70177   4.71854   4.77310   4.86008
 Alpha virt. eigenvalues --    4.86760   4.87967   4.88783   4.92405   4.94652
 Alpha virt. eigenvalues --    4.96709   4.99412   4.99991   5.01841   5.02956
 Alpha virt. eigenvalues --    5.03628   5.05617   5.06395   5.06464   5.07136
 Alpha virt. eigenvalues --    5.08477   5.12165   5.14818   5.18320   5.22677
 Alpha virt. eigenvalues --    5.25864   5.27921   5.29879   5.32960   5.34229
 Alpha virt. eigenvalues --    5.35058   5.36040   5.41796   5.43569   5.48044
 Alpha virt. eigenvalues --    5.51984   5.54911   5.55531   5.57752   5.59057
 Alpha virt. eigenvalues --    5.61902   5.65587   5.68852   5.72375   5.75932
 Alpha virt. eigenvalues --    5.82341   5.85175   5.87682   5.90251   5.97044
 Alpha virt. eigenvalues --    5.99346   6.01247   6.02567   6.08576   6.11372
 Alpha virt. eigenvalues --    6.11791   6.17246   6.22743   6.24593   6.29872
 Alpha virt. eigenvalues --    6.33021   6.38489   6.54495   6.70424   6.73871
 Alpha virt. eigenvalues --    6.76161   6.79018   6.85996   6.89983   7.05784
 Alpha virt. eigenvalues --    7.22374   8.53051  10.00035  10.37161  10.84571
 Alpha virt. eigenvalues --   11.24995  11.28895  11.38221  11.91507  12.28746
 Alpha virt. eigenvalues --   12.93421  13.04061  13.09184  13.18626  13.43881
 Alpha virt. eigenvalues --   16.93099  23.99085
          Condensed to atoms (all electrons):
               1          2          3          4          5          6
     1  C    5.385202   0.244596  -0.101689   0.383780  -0.040954  -0.029962
     2  C    0.244596   4.142689   0.769154  -0.010592  -0.005262  -0.000426
     3  O   -0.101689   0.769154   7.672916   0.001205  -0.000083  -0.000055
     4  N    0.383780  -0.010592   0.001205   5.758637   0.354460   0.473599
     5  O   -0.040954  -0.005262  -0.000083   0.354460   8.206652  -0.029735
     6  C   -0.029962  -0.000426  -0.000055   0.473599  -0.029735   4.752696
     7  H    0.003018  -0.000079   0.000001  -0.011639   0.003851   0.334776
     8  C   -0.061014   0.001011   0.000024   0.016371   0.000892   0.474767
     9  H   -0.000002   0.000013   0.000000   0.002767  -0.000072  -0.017830
    10  O   -0.078603   0.475138  -0.036986  -0.000686  -0.056355   0.000098
    11  H    0.009818  -0.039724   0.002958  -0.020066   0.097016   0.002236
    12  C    0.212146   0.001042   0.007243   0.027940   0.001554  -0.079027
    13  H   -0.052578   0.001463   0.021178   0.004217  -0.000078  -0.000654
    14  C   -0.024299   0.002977   0.001512  -0.041804   0.001295   0.005268
    15  N    0.003369  -0.000078  -0.000011   0.000025   0.000001   0.001669
    16  O   -0.000011  -0.000000   0.000000  -0.000005  -0.000000   0.000858
    17  O    0.001216  -0.000021   0.000002   0.000003  -0.000000  -0.000008
               7          8          9         10         11         12
     1  C    0.003018  -0.061014  -0.000002  -0.078603   0.009818   0.212146
     2  C   -0.000079   0.001011   0.000013   0.475138  -0.039724   0.001042
     3  O    0.000001   0.000024   0.000000  -0.036986   0.002958   0.007243
     4  N   -0.011639   0.016371   0.002767  -0.000686  -0.020066   0.027940
     5  O    0.003851   0.000892  -0.000072  -0.056355   0.097016   0.001554
     6  C    0.334776   0.474767  -0.017830   0.000098   0.002236  -0.079027
     7  H    0.513790  -0.007047  -0.000387   0.000028  -0.000068   0.002142
     8  C   -0.007047   4.954805   0.335315   0.000039  -0.000235   0.031020
     9  H   -0.000387   0.335315   0.541143  -0.000000   0.000001   0.007241
    10  O    0.000028   0.000039  -0.000000   7.853077   0.245010   0.004792
    11  H   -0.000068  -0.000235   0.000001   0.245010   0.328944  -0.002429
    12  C    0.002142   0.031020   0.007241   0.004792  -0.002429   5.214645
    13  H    0.000063   0.010173  -0.000224   0.000456  -0.000122   0.330731
    14  C   -0.002134   0.406576  -0.020752  -0.000107   0.000066   0.353168
    15  N   -0.000070  -0.033631  -0.014833  -0.000000   0.000000  -0.020232
    16  O   -0.000012   0.008471   0.027577   0.000000  -0.000000   0.007569
    17  O    0.000001   0.007979   0.000578   0.000000   0.000000   0.006038
              13         14         15         16         17
     1  C   -0.052578  -0.024299   0.003369  -0.000011   0.001216
     2  C    0.001463   0.002977  -0.000078  -0.000000  -0.000021
     3  O    0.021178   0.001512  -0.000011   0.000000   0.000002
     4  N    0.004217  -0.041804   0.000025  -0.000005   0.000003
     5  O   -0.000078   0.001295   0.000001  -0.000000  -0.000000
     6  C   -0.000654   0.005268   0.001669   0.000858  -0.000008
     7  H    0.000063  -0.002134  -0.000070  -0.000012   0.000001
     8  C    0.010173   0.406576  -0.033631   0.008471   0.007979
     9  H   -0.000224  -0.020752  -0.014833   0.027577   0.000578
    10  O    0.000456  -0.000107  -0.000000   0.000000   0.000000
    11  H   -0.000122   0.000066   0.000000  -0.000000   0.000000
    12  C    0.330731   0.353168  -0.020232   0.007569   0.006038
    13  H    0.535091  -0.011653  -0.018130   0.000578   0.027435
    14  C   -0.011653   5.027346   0.315549  -0.134042  -0.128273
    15  N   -0.018130   0.315549   5.275852   0.550640   0.543960
    16  O    0.000578  -0.134042   0.550640   7.985919  -0.101295
    17  O    0.027435  -0.128273   0.543960  -0.101295   7.983277
 Mulliken charges:
               1
     1  C    0.145967
     2  C    0.418098
     3  O   -0.337369
     4  N    0.061790
     5  O   -0.533182
     6  C    0.111730
     7  H    0.163766
     8  C   -0.145514
     9  H    0.139465
    10  O   -0.405901
    11  H    0.376594
    12  C   -0.105586
    13  H    0.152054
    14  C    0.249307
    15  N    0.395920
    16  O   -0.346248
    17  O   -0.340891
 Sum of Mulliken charges =  -0.00000
 Mulliken charges with hydrogens summed into heavy atoms:
               1
     1  C    0.145967
     2  C    0.418098
     3  O   -0.337369
     4  N    0.061790
     5  O   -0.533182
     6  C    0.275496
     8  C   -0.006049
    10  O   -0.029307
    12  C    0.046468
    14  C    0.249307
    15  N    0.395920
    16  O   -0.346248
    17  O   -0.340891
 APT charges:
               1
     1  C   -0.158876
     2  C   -1.048185
     3  O    0.500838
     4  N   -0.584762
     5  O   -0.002312
     6  C    0.013305
     7  H    0.589792
     8  C   -0.288015
     9  H    0.517414
    10  O    0.512554
    11  H    0.246981
    12  C   -0.357903
    13  H    0.333569
    14  C   -0.195973
    15  N   -1.268076
    16  O    0.770568
    17  O    0.419082
 Sum of APT charges =  -0.00000
 APT charges with hydrogens summed into heavy atoms:
               1
     1  C   -0.158876
     2  C   -1.048185
     3  O    0.500838
     4  N   -0.584762
     5  O   -0.002312
     6  C    0.603097
     8  C    0.229398
    10  O    0.759535
    12  C   -0.024334
    14  C   -0.195973
    15  N   -1.268076
    16  O    0.770568
    17  O    0.419082
 Electronic spatial extent (au):  <R**2>=           2436.0634
 Charge=             -0.0000 electrons
 Dipole moment (field-independent basis, Debye):
    X=              1.9831    Y=              4.8813    Z=             -0.1735  Tot=              5.2716
 Quadrupole moment (field-independent basis, Debye-Ang):
   XX=            -94.0157   YY=            -74.9980   ZZ=            -68.4471
   XY=             -0.5940   XZ=              0.0033   YZ=              0.4629
 Traceless Quadrupole moment (field-independent basis, Debye-Ang):
   XX=            -14.8621   YY=              4.1556   ZZ=             10.7065
   XY=             -0.5940   XZ=              0.0033   YZ=              0.4629
 Octapole moment (field-independent basis, Debye-Ang**2):
  XXX=            -11.6249  YYY=             32.8441  ZZZ=              0.3623  XYY=             20.9506
  XXY=             18.5659  XXZ=             -1.6742  XZZ=              1.0367  YZZ=             -3.6057
  YYZ=             -0.3237  XYZ=             -2.4575
 Hexadecapole moment (field-independent basis, Debye-Ang**3):
 XXXX=          -2333.7300 YYYY=           -768.8817 ZZZZ=            -58.9157 XXXY=            -31.8641
 XXXZ=             -5.9569 YYYX=             -9.9378 YYYZ=              4.5392 ZZZX=              0.0012
 ZZZY=             -0.1451 XXYY=           -532.2484 XXZZ=           -332.3077 YYZZ=           -137.0356
 XXYZ=             -0.8889 YYXZ=              4.2726 ZZXY=             -3.9294
 N-N= 7.871691993525D+02 E-N=-3.252275985032D+03  KE= 7.130755774017D+02
  Exact polarizability:   0.000   0.000   0.000   0.000   0.000   0.000
 Approx polarizability: 248.331 -21.309 222.329   3.511   4.102  68.575
 No NMR shielding tensors so no spin-rotation constants.
 Leave Link  601 at Thu Aug 26 05:31:37 2021, MaxMem= 24159191040 cpu:        15.7
 (Enter /public/home/users/caep010/software/Gaussian09/g09/l701.exe)
 Compute integral second derivatives.
 ... and contract with generalized density number  0.
 Leave Link  701 at Thu Aug 26 05:31:38 2021, MaxMem= 24159191040 cpu:        18.8
 (Enter /public/home/users/caep010/software/Gaussian09/g09/l702.exe)
 L702 exits ... SP integral derivatives will be done elsewhere.
 Leave Link  702 at Thu Aug 26 05:31:39 2021, MaxMem= 24159191040 cpu:         0.8
 (Enter /public/home/users/caep010/software/Gaussian09/g09/l703.exe)
 Compute integral second derivatives, UseDBF=F ICtDFT=           0.
 Integral derivatives from FoFJK, PRISM(SPDF).
 Calling FoFJK, ICntrl=    100147 FMM=F ISym2X=0 I1Cent= 0 IOpClX= 0 NMat=1 NMatS=1 NMatT=0.
 FoFJK:  IHMeth= 1 ICntrl=  100147 DoSepK=F KAlg= 0 I1Cent=   0 FoldK=F
 IRaf=         0 NMat=   1 IRICut=       1 DoRegI=T DoRafI=F ISym2E= 0.
 FoFCou: FMM=F IPFlag=           0 FMFlag=      100000 FMFlg1=         800
         NFxFlg=           0 DoJE=F BraDBF=F KetDBF=F FulRan=T
         wScrn=  0.000000 ICntrl=  100147 IOpCl=  0 I1Cent=           0 NGrid=           0
         NMat0=    1 NMatS0=      1 NMatT0=    0 NMatD0=    1 NMtDS0=    0 NMtDT0=    0
 Symmetry not used in FoFCou.
 Leave Link  703 at Thu Aug 26 05:32:27 2021, MaxMem= 24159191040 cpu:      1541.7
 (Enter /public/home/users/caep010/software/Gaussian09/g09/l716.exe)
 Dipole        = 7.80226958D-01 1.92044481D+00-6.82671890D-02
 Polarizability= 0.00000000D+00 0.00000000D+00 0.00000000D+00
                 0.00000000D+00 0.00000000D+00 0.00000000D+00
 ***** Axes restored to original set *****
 -------------------------------------------------------------------
 Center     Atomic                   Forces (Hartrees/Bohr)
 Number     Number              X              Y              Z
 -------------------------------------------------------------------
      1        6          -0.001713760   -0.004439394   -0.003194545
      2        6           0.011836433   -0.005523452    0.003493564
      3        8           0.000824072    0.011556873    0.007292956
      4        7           0.004299847   -0.024337453   -0.010763524
      5        8          -0.008109188    0.018011467    0.008127523
      6        6           0.093694773    0.073514407    0.102659935
      7        1          -0.095342019   -0.079716289   -0.110075925
      8        6           0.134118244   -0.067411814    0.034721698
      9        1          -0.143509795    0.073808639   -0.035855646
     10        8          -0.026707685   -0.004699561   -0.018938323
     11        1           0.022562684   -0.004287741    0.008020534
     12        6          -0.094926454   -0.063574852   -0.099884897
     13        1           0.107066816    0.065957282    0.109758359
     14        6          -0.005165253    0.010110983    0.005732304
     15        7           0.004380770    0.008133244    0.003837740
     16        8          -0.010265735   -0.002988983   -0.006567078
     17        8           0.006956249   -0.004113356    0.001635325
 -------------------------------------------------------------------
 Cartesian Forces:  Max     0.143509795 RMS     0.055659878
 FormGI is forming the generalized inverse of G from B-inverse, IUseBI=4.
 Leave Link  716 at Thu Aug 26 05:32:28 2021, MaxMem= 24159191040 cpu:         1.2
 (Enter /public/home/users/caep010/software/Gaussian09/g09/l103.exe)

 GradGradGradGradGradGradGradGradGradGradGradGradGradGradGradGradGradGrad
 Berny optimization.
 Red2BG is reusing G-inverse.
 Internal  Forces:  Max     0.166845282 RMS     0.033651877
 Search for a local minimum.
 Step number   1 out of a maximum of   86
 All quantities printed in internal units (Hartrees-Bohrs-Radians)
 RMS Force = .33652D-01 SwitMx=.10000D-02 MixMth= 1
 Mixed Optimization -- RFO/linear search
 Second derivative matrix not updated -- analytic derivatives used.
 ITU=  0
     Eigenvalues ---    0.00401   0.00448   0.01259   0.01739   0.01898
     Eigenvalues ---    0.02041   0.02272   0.02492   0.02851   0.02991
     Eigenvalues ---    0.03852   0.06756   0.07724   0.10871   0.11086
     Eigenvalues ---    0.11102   0.11329   0.12365   0.17773   0.18314
     Eigenvalues ---    0.19732   0.21500   0.22053   0.22662   0.23304
     Eigenvalues ---    0.24657   0.27113   0.30310   0.31717   0.34521
     Eigenvalues ---    0.41149   0.41503   0.44583   0.48490   0.49643
     Eigenvalues ---    0.51424   0.55864   0.63359   0.75921   0.81639
     Eigenvalues ---    0.85512   0.85846   0.85865   0.90840   1.38742
 RFO step:  Lambda=-9.60931698D-02 EMin= 4.01101637D-03
 Linear search not attempted -- first point.
 Maximum step size (   0.300) exceeded in Quadratic search.
    -- Step size scaled by   0.841
 Iteration  1 RMS(Cart)=  0.04200306 RMS(Int)=  0.00075166
 Iteration  2 RMS(Cart)=  0.00104632 RMS(Int)=  0.00001224
 Iteration  3 RMS(Cart)=  0.00000163 RMS(Int)=  0.00001215
 Iteration  4 RMS(Cart)=  0.00000000 RMS(Int)=  0.00001215
 ITry= 1 IFail=0 DXMaxC= 1.68D-01 DCOld= 1.00D+10 DXMaxT= 3.00D-01 DXLimC= 3.00D+00 Rises=F
 Variable       Old X    -DE/DX   Delta X   Delta X   Delta X     New X
                                 (Linear)    (Quad)   (Total)
    R1        2.85528   0.00845   0.00000   0.00892   0.00892   2.86420
    R2        2.58590   0.00661   0.00000   0.01221   0.01221   2.59811
    R3        2.60138   0.01059   0.00000   0.01278   0.01278   2.61415
    R4        2.27343   0.01000   0.00000   0.00221   0.00221   2.27565
    R5        2.46618   0.01220   0.00000   0.02112   0.02112   2.48730
    R6        2.50065  -0.02097   0.00000  -0.05018  -0.05018   2.45047
    R7        2.55580   0.00444   0.00000   0.01595   0.01595   2.57175
    R8        1.75729   0.16551   0.00000   0.14577   0.14577   1.90306
    R9        2.58391   0.01283   0.00000   0.01238   0.01238   2.59629
   R10        1.75833   0.16531   0.00000   0.14618   0.14618   1.90452
   R11        2.59945   0.01267   0.00000   0.01957   0.01957   2.61902
   R12        2.03479  -0.02229   0.00000  -0.11555  -0.11555   1.91925
   R13        1.75732   0.16685   0.00000   0.14692   0.14692   1.90424
   R14        2.58637   0.01463   0.00000   0.01917   0.01917   2.60554
   R15        2.77691   0.00014   0.00000  -0.00045  -0.00045   2.77646
   R16        2.30082   0.00930   0.00000   0.00896   0.00896   2.30979
   R17        2.30585   0.00400   0.00000   0.00216   0.00216   2.30801
    A1        2.10562   0.00922   0.00000   0.01044   0.01044   2.11606
    A2        2.10089  -0.00963   0.00000  -0.01733  -0.01733   2.08355
    A3        2.07558   0.00044   0.00000   0.00710   0.00709   2.08268
    A4        2.08511  -0.01357   0.00000  -0.00820  -0.00820   2.07691
    A5        2.03560   0.00614   0.00000  -0.00027  -0.00028   2.03533
    A6        2.16243   0.00744   0.00000   0.00851   0.00850   2.17094
    A7        2.10582   0.00421   0.00000   0.01270   0.01270   2.11852
    A8        2.11841   0.00149   0.00000  -0.01096  -0.01098   2.10743
    A9        2.05873  -0.00569   0.00000  -0.00162  -0.00163   2.05711
   A10        2.08959  -0.01234   0.00000  -0.04982  -0.04982   2.03976
   A11        2.10542   0.00185   0.00000   0.00826   0.00825   2.11368
   A12        2.08818   0.01050   0.00000   0.04157   0.04157   2.12974
   A13        2.10995  -0.00009   0.00000  -0.00148  -0.00148   2.10847
   A14        2.06280  -0.00168   0.00000   0.00172   0.00172   2.06452
   A15        2.11043   0.00177   0.00000  -0.00023  -0.00023   2.11020
   A16        1.80366   0.01919   0.00000   0.03905   0.03905   1.84272
   A17        2.10148  -0.00378   0.00000  -0.01637  -0.01637   2.08511
   A18        2.08073  -0.00016   0.00000   0.00360   0.00360   2.08433
   A19        2.10097   0.00394   0.00000   0.01278   0.01277   2.11375
   A20        2.12258  -0.00190   0.00000  -0.00948  -0.00948   2.11310
   A21        2.07903   0.00001   0.00000   0.00281   0.00280   2.08183
   A22        2.08101   0.00191   0.00000   0.00681   0.00680   2.08781
   A23        2.05954  -0.00743   0.00000  -0.01282  -0.01282   2.04671
   A24        2.05599  -0.00453   0.00000  -0.00587  -0.00588   2.05011
   A25        2.16763   0.01197   0.00000   0.01872   0.01872   2.18635
    D1       -3.03262  -0.00011   0.00000  -0.00620  -0.00618  -3.03879
    D2        0.09992   0.00110   0.00000  -0.00143  -0.00142   0.09850
    D3        0.05821   0.00033   0.00000  -0.00121  -0.00121   0.05699
    D4       -3.09244   0.00154   0.00000   0.00357   0.00354  -3.08890
    D5       -0.07325   0.00081   0.00000   0.00523   0.00525  -0.06799
    D6        3.04519   0.00126   0.00000   0.01082   0.01084   3.05603
    D7        3.11839   0.00067   0.00000   0.00102   0.00099   3.11938
    D8       -0.04636   0.00112   0.00000   0.00660   0.00658  -0.03977
    D9        0.08043  -0.00143   0.00000  -0.00987  -0.00986   0.07057
   D10       -3.05958  -0.00167   0.00000  -0.01034  -0.01033  -3.06991
   D11       -3.11107  -0.00074   0.00000  -0.00485  -0.00488  -3.11594
   D12        0.03210  -0.00098   0.00000  -0.00532  -0.00535   0.02676
   D13       -0.08115   0.00192   0.00000   0.00860   0.00858  -0.07257
   D14        3.05095   0.00307   0.00000   0.01350   0.01352   3.06447
   D15       -3.11198  -0.00062   0.00000  -0.00464  -0.00460  -3.11658
   D16        0.02789  -0.00061   0.00000  -0.00373  -0.00371   0.02418
   D17        0.00705  -0.00006   0.00000   0.00099   0.00099   0.00805
   D18       -3.13625  -0.00005   0.00000   0.00190   0.00188  -3.13437
   D19       -3.13681   0.00002   0.00000  -0.00032  -0.00032  -3.13713
   D20        0.00475  -0.00005   0.00000  -0.00031  -0.00030   0.00445
   D21        0.00307   0.00000   0.00000   0.00051   0.00053   0.00359
   D22       -3.13856  -0.00007   0.00000   0.00051   0.00054  -3.13801
   D23       -0.01843   0.00026   0.00000   0.00123   0.00122  -0.01720
   D24       -3.12343  -0.00044   0.00000  -0.00322  -0.00321  -3.12664
   D25        3.12314   0.00019   0.00000   0.00123   0.00124   3.12437
   D26        0.01813  -0.00052   0.00000  -0.00321  -0.00320   0.01493
   D27       -0.00019   0.00029   0.00000   0.00175   0.00175   0.00156
   D28        3.10478   0.00096   0.00000   0.00612   0.00612   3.11089
   D29       -3.14020   0.00006   0.00000   0.00131   0.00130  -3.13891
   D30       -0.03524   0.00073   0.00000   0.00568   0.00567  -0.02958
   D31        0.06998   0.00047   0.00000   0.00106   0.00108   0.07106
   D32       -3.06418  -0.00052   0.00000  -0.00281  -0.00280  -3.06698
   D33       -3.03591  -0.00014   0.00000  -0.00293  -0.00295  -3.03886
   D34        0.11312  -0.00112   0.00000  -0.00681  -0.00682   0.10629
         Item               Value     Threshold  Converged?
 Maximum Force            0.166845     0.000450     NO 
 RMS     Force            0.033652     0.000300     NO 
 Maximum Displacement     0.168052     0.001800     NO 
 RMS     Displacement     0.041903     0.001200     NO 
 Predicted change in Energy=-5.119905D-02
 Lowest energy point so far.  Saving SCF results.
 GradGradGradGradGradGradGradGradGradGradGradGradGradGradGradGradGradGrad

 Leave Link  103 at Thu Aug 26 05:32:28 2021, MaxMem= 24159191040 cpu:        13.6
 (Enter /public/home/users/caep010/software/Gaussian09/g09/l202.exe)
                          Input orientation:                          
 ---------------------------------------------------------------------
 Center     Atomic      Atomic             Coordinates (Angstroms)
 Number     Number       Type             X           Y           Z
 ---------------------------------------------------------------------
      1          6           0        8.959047    2.572599    4.802303
      2          6           0       10.213005    1.830012    5.218728
      3          8           0       10.893112    2.282955    6.103287
      4          7           0        8.086384    2.039167    3.883525
      5          8           0        8.339445    0.917614    3.283860
      6          6           0        6.915083    2.667017    3.590371
      7          1           0        6.309641    2.213657    2.925489
      8          6           0        6.583614    3.862632    4.180480
      9          1           0        5.713236    4.321806    3.962954
     10          8           0       10.477944    0.712890    4.575075
     11          1           0        9.690829    0.564620    3.950614
     12          6           0        8.659190    3.784992    5.397157
     13          1           0        9.307872    4.188687    6.054168
     14          6           0        7.476695    4.420090    5.081836
     15          7           0        7.135732    5.688643    5.739997
     16          8           0        6.030406    6.158185    5.512474
     17          8           0        7.979365    6.190834    6.466482
 ---------------------------------------------------------------------
                    Distance matrix (angstroms):
                    1          2          3          4          5
     1  C    0.000000
     2  C    1.515670   0.000000
     3  O    2.348842   1.204220   0.000000
     4  N    1.374861   2.519728   3.586711   0.000000
     5  O    2.329926   2.843662   4.041601   1.296735   0.000000
     6  C    2.378126   3.772057   4.720908   1.360912   2.276657
     7  H    3.266592   4.543388   5.577760   2.026104   2.434802
     8  C    2.773721   4.287422   4.976379   2.381496   3.544010
     9  H    3.781470   5.294707   5.963980   3.293718   4.352777
    10  O    2.411888   1.316224   2.230000   2.820782   2.506457
    11  H    2.300622   1.866011   3.005355   2.180145   1.547710
    12  C    1.383351   2.503622   2.783010   2.380565   3.576328
    13  H    2.073785   2.660935   2.479358   3.290009   4.394585
    14  C    2.385105   3.770230   4.157237   2.734312   4.030434
    15  N    3.730077   4.962899   5.084152   4.203440   5.499478
    16  O    4.683770   6.026069   6.245989   4.883322   6.145077
    17  O    4.101328   5.055967   4.888083   4.890752   6.169732
                    6          7          8          9         10
     6  C    0.000000
     7  H    1.007056   0.000000
     8  C    1.373898   2.090259   0.000000
     9  H    2.078841   2.424113   1.007827   0.000000
    10  O    4.181177   4.727387   5.024181   6.008445   0.000000
    11  H    3.500659   3.899056   4.537016   5.471549   1.015621
    12  C    2.748865   3.754813   2.407145   3.320204   3.663536
    13  H    3.756490   4.762222   3.322439   4.160805   3.954485
    14  C    2.369208   3.298514   1.385928   2.090776   4.796628
    15  N    3.714809   4.547462   2.463990   2.655112   6.106190
    16  O    4.082327   4.725438   2.711054   2.423612   7.092994
    17  O    4.671403   5.580730   3.548866   3.859567   6.310958
                   11         12         13         14         15
    11  H    0.000000
    12  C    3.677983   0.000000
    13  H    4.207785   1.007681   0.000000
    14  C    4.587669   1.378794   2.086189   0.000000
    15  N    5.998836   2.462184   2.658338   1.469238   0.000000
    16  O    6.864844   3.543424   3.861882   2.301777   1.222286
    17  O    6.396326   2.719135   2.437935   2.303357   1.221348
                   16         17
    16  O    0.000000
    17  O    2.170170   0.000000
 Stoichiometry    C6H4N2O5
 Framework group  C1[X(C6H4N2O5)]
 Deg. of freedom    45
 Full point group                 C1      NOp   1
 RotChk:  IX=0 Diff= 3.20D-03
 Largest Abelian subgroup         C1      NOp   1
 Largest concise Abelian subgroup C1      NOp   1
                         Standard orientation:                         
 ---------------------------------------------------------------------
 Center     Atomic      Atomic             Coordinates (Angstroms)
 Number     Number       Type             X           Y           Z
 ---------------------------------------------------------------------
      1          6           0       -0.972367   -0.172812   -0.036977
      2          6           0       -2.171539   -1.097487    0.027974
      3          8           0       -1.989317   -2.284002    0.123484
      4          7           0       -1.124121    1.193600   -0.025547
      5          8           0       -2.298853    1.742646   -0.034101
      6          6           0       -0.038956    2.013840    0.015747
      7          1           0       -0.217996    3.004437    0.044490
      8          6           0        1.236693    1.503638    0.018702
      9          1           0        2.037079    2.115117    0.053226
     10          8           0       -3.357734   -0.529119   -0.020466
     11          1           0       -3.181033    0.471004   -0.024545
     12          6           0        0.301030   -0.713027   -0.053959
     13          1           0        0.414574   -1.713814   -0.084857
     14          6           0        1.393749    0.127395   -0.026977
     15          7           0        2.747822   -0.442420   -0.005660
     16          8           0        3.680752    0.335665    0.129276
     17          8           0        2.851377   -1.653225   -0.127809
 ---------------------------------------------------------------------
 Rotational constants (GHZ):      1.5832175      0.5466361      0.4069261
 Leave Link  202 at Thu Aug 26 05:32:28 2021, MaxMem= 24159191040 cpu:         0.2
 (Enter /public/home/users/caep010/software/Gaussian09/g09/l301.exe)
 Standard basis: GTBas3 (6D, 7F)
 Ernie: Thresh=  0.10000D-02 Tol=  0.10000D-05 Strict=F.
 There are   423 symmetry adapted cartesian basis functions of A   symmetry.
 There are   384 symmetry adapted basis functions of A   symmetry.
   384 basis functions,   600 primitive gaussians,   423 cartesian basis functions
    47 alpha electrons       47 beta electrons
       nuclear repulsion energy       783.4906218087 Hartrees.
 IExCor=  402 DFT=T Ex+Corr=B3LYP ExCW=0 ScaHFX=  0.200000
 ScaDFX=  0.800000  0.720000  1.000000  0.810000 ScalE2=  1.000000  1.000000
 IRadAn=      0 IRanWt=     -1 IRanGd=            0 ICorTp=0 IEmpDi=  4
 NAtoms=   17 NActive=   17 NUniq=   17 SFac= 1.00D+00 NAtFMM=   60 NAOKFM=F Big=F
 Integral buffers will be    131072 words long.
 Raffenetti 2 integral format.
 Two-electron integral symmetry is turned on.
 Leave Link  301 at Thu Aug 26 05:32:28 2021, MaxMem= 24159191040 cpu:         1.8
 (Enter /public/home/users/caep010/software/Gaussian09/g09/l302.exe)
 NPDir=0 NMtPBC=     1 NCelOv=     1 NCel=       1 NClECP=     1 NCelD=      1
         NCelK=      1 NCelE2=     1 NClLst=     1 CellRange=     0.0.
 One-electron integrals computed using PRISM.
 NBasis=   384 RedAO= T EigKep=  1.23D-04  NBF=   384
 NBsUse=   384 1.00D-06 EigRej= -1.00D+00 NBFU=   384
 Precomputing XC quadrature grid using
 IXCGrd= 4 IRadAn=           0 IRanWt=          -1 IRanGd=           0 AccXCQ= 0.00D+00.
 Generated NRdTot=       0 NPtTot=           0 NUsed=           0 NTot=          32
 NSgBfM=   422   422   422   422   422 MxSgAt=    17 MxSgA2=    17.
 Leave Link  302 at Thu Aug 26 05:32:29 2021, MaxMem= 24159191040 cpu:        17.9
 (Enter /public/home/users/caep010/software/Gaussian09/g09/l303.exe)
 DipDrv:  MaxL=1.
 Leave Link  303 at Thu Aug 26 05:32:29 2021, MaxMem= 24159191040 cpu:         1.0
 (Enter /public/home/users/caep010/software/Gaussian09/g09/l401.exe)
 Initial guess from the checkpoint file:  "/public/home/users/caep010/.cache/gau_scr/Gau-7740.chk"
 B after Tr=    -0.000000   -0.000000    0.000000
         Rot=    1.000000    0.000120   -0.000077    0.000276 Ang=   0.04 deg.
 Guess basis will be translated and rotated to current coordinates.
 JPrj=2 DoOrth=T DoCkMO=T.
 Generating alternative initial guess.
 ExpMin= 1.61D-01 ExpMax= 5.48D+03 ExpMxC= 8.25D+02 IAcc=1 IRadAn=         1 AccDes= 0.00D+00
 Harris functional with IExCor=  402 and IRadAn=       1 diagonalized for initial guess.
 HarFok:  IExCor=  402 AccDes= 0.00D+00 IRadAn=         1 IDoV= 1 UseB2=F ITyADJ=14
 ICtDFT=  3500011 ScaDFX=  1.000000  1.000000  1.000000  1.000000
 FoFCou: FMM=F IPFlag=           0 FMFlag=      100000 FMFlg1=           0
         NFxFlg=           0 DoJE=T BraDBF=F KetDBF=T FulRan=T
         wScrn=  0.000000 ICntrl=     500 IOpCl=  0 I1Cent=   200000004 NGrid=           0
         NMat0=    1 NMatS0=      1 NMatT0=    0 NMatD0=    1 NMtDS0=    0 NMtDT0=    0
 Petite list used in FoFCou.
 Harris En= -716.605056905156    
 Leave Link  401 at Thu Aug 26 05:32:30 2021, MaxMem= 24159191040 cpu:        22.4
 (Enter /public/home/users/caep010/software/Gaussian09/g09/l502.exe)
 Closed shell SCF:
 Using DIIS extrapolation, IDIIS=  1040.
 Integral symmetry usage will be decided dynamically.
 Keep R1 ints in memory in canonical form, NReq=2770804379.
 IVT=      571919 IEndB=      571919 NGot= 24159191040 MDV= 21426498962
 LenX= 21426498962 LenY= 21426319592
 Requested convergence on RMS density matrix=1.00D-08 within 128 cycles.
 Requested convergence on MAX density matrix=1.00D-06.
 Requested convergence on             energy=1.00D-06.
 No special actions if energy rises.
 FoFCou: FMM=F IPFlag=           0 FMFlag=           0 FMFlg1=           0
         NFxFlg=           0 DoJE=F BraDBF=F KetDBF=F FulRan=T
         wScrn=  0.000000 ICntrl=     600 IOpCl=  0 I1Cent=           0 NGrid=           0
         NMat0=    1 NMatS0=  73920 NMatT0=    0 NMatD0=    1 NMtDS0=    0 NMtDT0=    0
 Symmetry not used in FoFCou.
 Integral accuracy reduced to 1.0D-05 until final iterations.

 Cycle   1  Pass 0  IDiag  1:
 E= -716.552530600703    
 DIIS: error= 2.72D-03 at cycle   1 NSaved=   1.
 NSaved= 1 IEnMin= 1 EnMin= -716.552530600703     IErMin= 1 ErrMin= 2.72D-03
 ErrMax= 2.72D-03  0.00D+00 EMaxC= 1.00D-01 BMatC= 8.21D-03 BMatP= 8.21D-03
 IDIUse=3 WtCom= 9.73D-01 WtEn= 2.72D-02
 Coeff-Com:  0.100D+01
 Coeff-En:   0.100D+01
 Coeff:      0.100D+01
 Gap=     0.997 Goal=   None    Shift=    0.000
 GapD=    0.997 DampG=2.000 DampE=1.000 DampFc=2.0000 IDamp=-1.
 RMSDP=6.23D-04 MaxDP=2.94D-02              OVMax= 3.68D-02

 Cycle   2  Pass 0  IDiag  1:
 E= -716.560027888320     Delta-E=       -0.007497287617 Rises=F Damp=F
 DIIS: error= 1.11D-03 at cycle   2 NSaved=   2.
 NSaved= 2 IEnMin= 2 EnMin= -716.560027888320     IErMin= 2 ErrMin= 1.11D-03
 ErrMax= 1.11D-03  0.00D+00 EMaxC= 1.00D-01 BMatC= 1.48D-03 BMatP= 8.21D-03
 IDIUse=3 WtCom= 9.89D-01 WtEn= 1.11D-02
 Coeff-Com:  0.201D+00 0.799D+00
 Coeff-En:   0.000D+00 0.100D+01
 Coeff:      0.199D+00 0.801D+00
 Gap=     0.157 Goal=   None    Shift=    0.000
 RMSDP=1.98D-04 MaxDP=1.17D-02 DE=-7.50D-03 OVMax= 2.78D-02

 Cycle   3  Pass 0  IDiag  1:
 E= -716.559549503520     Delta-E=        0.000478384800 Rises=F Damp=F
 DIIS: error= 1.44D-03 at cycle   3 NSaved=   3.
 NSaved= 3 IEnMin= 2 EnMin= -716.560027888320     IErMin= 2 ErrMin= 1.11D-03
 ErrMax= 1.44D-03  0.00D+00 EMaxC= 1.00D-01 BMatC= 2.13D-03 BMatP= 1.48D-03
 IDIUse=3 WtCom= 2.09D-01 WtEn= 7.91D-01
 Coeff-Com:  0.213D-01 0.541D+00 0.438D+00
 Coeff-En:   0.000D+00 0.567D+00 0.433D+00
 Coeff:      0.444D-02 0.561D+00 0.434D+00
 Gap=     0.152 Goal=   None    Shift=    0.000
 RMSDP=1.21D-04 MaxDP=1.12D-02 DE= 4.78D-04 OVMax= 2.49D-02

 Cycle   4  Pass 0  IDiag  1:
[...]
 \H,0,9.721689927,0.5180433564,3.9685189128\C,0,8.6358830707,3.76176207
 13,5.4266108091\H,0,9.3400068586,4.1592419937,6.1448535367\C,0,7.46263
 41934,4.4185576749,5.1075909204\N,0,7.1361935144,5.6993357193,5.749539
 2538\O,0,6.082371784,6.2300735536,5.4235689847\O,0,7.9373392271,6.1400
 799093,6.5591598305\\Version=ES64L-G09RevE.01\State=1-A\HF=-712.872179
 6\RMSD=9.642e-09\Dipole=-1.7395848,0.0788882,-1.0683664\Quadrupole=0.9
 086473,-6.2022385,5.2935912,7.5522476,0.2366411,-4.8106863\PG=C01 [X(C
 6H4N2O5)]\\@


 SCIENCE IS A VERY HUMAN FORM OF KNOWLEDGE.
 WE ARE ALWAYS AT THE BRINK OF THE KNOWN,
 WE ALWAYS FEEL FORWARD FOR WHAT IS HOPED.
 EVERY JUDGEMENT IN SCIENCE STANDS ON THE EDGE OF ERROR, AND IS PERSONAL.
 SCIENCE IS A TRIBUTE TO WHAT WE CAN KNOW ALTHOUGH WE ARE FALLIBLE.

                     -- J. BRONOWSKI
 Diagonal vibrational polarizability:
        0.0000000       0.0000000       0.0000000

 Temperature=              298.150000 Pressure=                      1.000000
 E(ZPE)=                     0.108739 E(Thermal)=                    0.118895
 E(CCSD(T))=              -714.652570 E(Empiric)=                   -0.236198
 DE(Plus)=                  -0.050823 DE(2DF)=                      -0.492244
 E(Delta-G3XP)=             -0.867320 DE(HF)=                       -0.071055
 G4(0 K)=                 -716.261471 G4 Energy=                  -716.251315
 G4 Enthalpy=             -716.250371 G4 Free Energy=             -716.298334
 1\1\GINC-B1851\Mixed\G4\G4\C6H4N2O5\ROOT\26-Aug-2021\0\\#P Geom=AllChe
 ck Guess=TCheck SCRF=Check HF/GFHFB2 SCF=Tight\\TISJUB\\0,1\C,0,8.9407
 346743,2.55357317,4.8191155092\C,0,10.2375320263,1.8542477334,5.189466
 4609\O,0,10.9663837319,2.366770024,5.9996362841\N,0,8.0668471714,2.016
 9440166,3.8988526406\O,0,8.3028711709,0.9006786029,3.3081630249\C,0,6.
 9070771614,2.6753257099,3.5895644402\H,0,6.3026890893,2.1601425748,2.8
 572700561\C,0,6.5829817234,3.8728621369,4.1775931583\H,0,5.663668047,4
 .3822741078,3.9241352146\O,0,10.4836966291,0.7064876452,4.5851609631\H
 ,0,9.721689927,0.5180433564,3.9685189128\C,0,8.6358830707,3.7617620713
 ,5.4266108091\H,0,9.3400068586,4.1592419937,6.1448535367\C,0,7.4626341
 934,4.4185576749,5.1075909204\N,0,7.1361935144,5.6993357193,5.74953925
 38\O,0,6.082371784,6.2300735536,5.4235689847\O,0,7.9373392271,6.140079
 9093,6.5591598305\\Version=ES64L-G09RevE.01\State=1-A\MP2/GTBas1=-714.
 5582854\MP4/GTBas1=-714.6777769\CCSD(T)/G3Bas1=-714.6525695\MP2/GTBas2
 =-714.6057198\MP4/GTBas2=-714.7285999\MP2/GTBas3=-715.0230918\MP4/GTBa
 s3=-715.1700212\HF/GTLargeXP=-712.8038669\MP2/GTLargeXP=-715.9378464\H
 F/GFHFB1=-712.8609263\HF/GFHFB2=-712.8721796\G4=-716.2614712\FreqCoord
 =16.8955399612,4.8255539516,9.1068085151,19.3461318063,3.5040203986,9.
 8066703869,20.7234619213,4.4725471649,11.3376694739,15.2441319097,3.81
 14718168,7.3677637233,15.6901526296,1.7020358932,6.2515221199,13.05248
 42137,5.055632908,6.7832937283,11.9103562796,4.0820778743,5.3994578937
 ,12.4400325951,7.3186487891,7.8945069638,10.7027815164,8.2812979029,7.
 415540864,19.8113154892,1.3350681657,8.6646984955,18.3713315109,0.9789
 600686,7.4994138984,16.3194539192,7.1087000918,10.2548082589,17.650055
 0421,7.8598282884,11.6120903111,14.1023348554,8.3498639079,9.651948038
 3,13.4854513735,10.7701836489,10.86505458,11.4940169101,11.7731328041,
 10.249060044,14.9993973629,11.6030694626,12.3950157415\PG=C01 [X(C6H4N
 2O5)]\NImag=0\\0.47955060,-0.13108055,0.57282649,0.13691239,0.20900506
 ,0.35903846,-0.11621620,0.02924909,-0.00731862,0.58274589,0.03816216,-
 0.11290528,-0.00086527,0.06005621,0.60673598,-0.00140078,-0.00660303,-
 0.07995580,0.28596146,0.30854529,0.59012572,-0.04105502,-0.00649734,-0
 .04357278,-0.33968093,-0.15883661,-0.27562466,0.36886469,0.00207406,0.
 01861309,0.00049427,-0.14911985,-0.19967297,-0.17846480,0.17525711,0.2
 2756804,-0.03787321,-0.00502934,-0.00784927,-0.26916667,-0.18472335,-0
 .37187931,0.33268795,0.24207214,0.40844137,-0.18668090,0.02701577,-0.0
 5606476,-0.01385764,-0.02218087,-0.02343820,-0.00640654,0.00359426,-0.
 00336229,0.56081831,-0.00220570,-0.13735448,-0.04503809,-0.01438737,0.
 04158418,0.01864441,0.01040252,-0.00813936,-0.00039254,-0.13401234,0.6
 0377305,-0.07550745,-0.02620967,-0.13790534,-0.01825273,0.01363372,-0.
 00308593,0.00116623,-0.00478229,0.00009944,0.14899266,0.18813475,0.412
 46760,0.02272751,-0.02576201,-0.01022410,-0.01022272,0.02408711,0.0120
 9255,0.00049257,-0.00844001,-0.00551519,-0.10639386,0.05043101,0.00393
 020,0.12993124,-0.01617550,-0.02954698,-0.03806481,0.01310003,-0.02418
 127,-0.00488069,-0.00120360,0.00793627,0.00426860,0.05980124,-0.300113
 97,-0.12096053,-0.08237131,0.37985374,-0.00384361,-0.04424242,-0.01992
 511,0.00479101,0.00219298,0.00040887,-0.00070639,-0.00039259,-0.000370
 08,0.01016156,-0.12699939,-0.13838389,0.00746302,0.17751453,0.15625902
 ,-0.03675436,-0.02397253,-0.04524219,0.00112041,0.00080431,-0.00268446
 ,-0.00129272,-0.00017053,0.00002929,-0.21874274,0.06787110,-0.04711772
 ,-0.01425922,0.04033962,0.00812379,0.51694714,0.00738418,0.04683033,0.
 03013134,0.00253983,-0.00350825,-0.00476750,-0.00197870,0.00030342,-0.
 00006471,0.01950534,-0.13183218,-0.02488018,0.06256364,-0.05375094,-0.
 00528950,-0.07880133,0.62113812,-0.02437555,0.00992744,-0.00040535,-0.
 00152982,-0.00588591,0.00121477,-0.00117513,0.00109968,-0.00153877,-0.
 07929945,0.00628518,-0.12247035,0.02291064,-0.01961260,0.01650409,0.19
 951024,0.27870696,0.44001526,-0.00173279,0.00533605,-0.00046187,0.0007
 2820,-0.00136181,-0.00086504,-0.00079107,0.00010378,-0.00022126,-0.021
 32361,-0.01226881,-0.02479506,0.00239456,-0.00337365,0.00193133,-0.141
 20351,-0.07210070,-0.11630735,0.15178735,0.00312887,-0.00100078,-0.001
 63945,0.00002839,0.00082174,0.00012287,0.00038428,-0.00012351,0.000391
 66,0.01522966,0.00832580,0.01237106,-0.00128596,0.00028270,0.00207813,
 -0.08060834,-0.11933592,-0.10795175,0.07559312,0.11960831,-0.00193036,
 -0.00021717,0.00310482,0.00005990,-0.00077294,0.00018910,-0.00003524,0
 .00021107,-0.00022243,-0.00649683,-0.00534991,-0.00326307,0.00332050,0
 .00073259,-0.00145833,-0.12196857,-0.10246843,-0.18195426,0.13233681,0
 .11201014,0.18430154,-0.00365264,-0.01161244,-0.00841426,-0.00102418,-
 0.00135574,-0.00094120,-0.00026048,0.00117227,0.00058035,0.00304641,0.
 03474379,0.02490439,-0.00428885,0.00053151,-0.00604767,-0.12400277,0.0
 8330320,0.01147130,0.00935873,-0.01486009,-0.00583034,0.61251040,-0.01
 052609,-0.03379372,-0.02754885,-0.00239654,0.00103161,-0.00021787,0.00
 009098,-0.00001386,0.00001670,0.07218602,-0.03178237,0.02518551,-0.006
 87226,0.00856349,-0.00248529,0.03944293,-0.30125565,-0.13792781,0.0046
 6827,-0.00584790,-0.00292072,-0.16907890,0.58512202,-0.00769166,-0.028
 25024,-0.02634053,-0.00163492,0.00045281,-0.00171398,-0.00013850,0.000
 71426,0.00043398,0.04982043,0.00105752,0.03308502,-0.01097398,0.002285
 39,0.00009286,-0.01771529,-0.10966338,-0.14017409,0.00716436,-0.015504
 85,-0.00263911,0.19478718,0.19012966,0.38770633,0.00045587,-0.00064014
 ,0.00011876,-0.00050315,-0.00005859,0.00014328,0.00012719,0.00011286,0
 .00007623,0.00388522,0.00138266,-0.00295373,-0.00017797,-0.00004946,0.
 00027246,-0.00097267,0.00069814,-0.00122837,-0.00052190,-0.00108876,0.
 00153814,-0.26724321,0.12019734,-0.06685684,0.27802563,-0.00050214,-0.
 00066546,-0.00050726,-0.00006042,-0.00036951,0.00023831,-0.00003551,0.
 00017601,0.00001067,0.00196196,-0.00095756,-0.00595825,0.00086306,-0.0
 0090335,0.00038892,0.02182912,-0.00723619,0.00815133,-0.00131692,-0.00
 031571,0.00162491,0.12063081,-0.11482616,0.02753636,-0.13207440,0.1157
 4478,0.00021023,-0.00059621,-0.00065064,0.00014214,0.00023905,-0.00053
 508,-0.00002248,0.00010628,0.00018169,-0.00256841,-0.00633141,0.004028
 10,0.00087986,-0.00019927,-0.00021726,0.01283333,-0.00546630,0.0062868
 8,0.00138624,0.00177195,-0.00196050,-0.06656906,0.02725732,-0.06414512
 ,0.07362841,-0.02632170,0.05732761,-0.00315979,0.03422252,0.00898068,-
 0.12371759,0.06473593,-0.00163837,0.02235419,-0.04384960,-0.02467732,0
 .00377850,-0.01254492,-0.00538187,-0.03331940,0.01294350,-0.01784540,-
 0.00247370,0.00311764,0.00148260,0.00038386,-0.00009910,0.00016711,-0.
 00021209,-0.00112993,-0.00091717,0.00008940,0.00006253,0.00001286,0.37
 132239,0.02198433,-0.02424710,-0.01405610,0.07847060,-0.27562995,-0.09
 649026,-0.01906773,-0.03933715,-0.04868373,0.00067961,-0.01825817,-0.0
 1116555,-0.01105134,0.02227888,0.00256752,-0.00176642,0.00259824,0.001
 62391,0.00044918,-0.00013886,0.00018241,0.00015151,-0.00135609,-0.0008
 3420,0.00001131,0.00020918,0.00005756,-0.04280622,0.38541020,0.0008541
 5,-0.00618053,0.01465323,0.00748741,-0.10534827,-0.11961049,-0.0082052
 8,-0.06465062,-0.03283259,0.00341709,-0.01968219,-0.01171804,-0.033806
 38,0.01802953,-0.00208607,-0.00176864,0.00477258,0.00048136,0.00053200
 ,-0.00017096,0.00025105,-0.00006485,-0.00166024,-0.00110167,-0.0000213
 2,0.00009026,0.00018057,0.18747484,0.20445405,0.29317344,-0.00417623,0
 .00011058,-0.00099516,0.02068352,-0.03144817,-0.00485123,0.00204378,0.
 01585681,0.00717755,-0.00715681,0.03343880,0.01694255,0.01323186,-0.02
 605808,-0.00246927,0.00504778,-0.00689925,-0.00211943,-0.00073728,0.00
 019855,-0.00024272,0.00033038,0.00268372,0.00158042,-0.00004023,-0.000
 26821,-0.00012123,-0.23030458,-0.03146766,-0.15539980,0.20345773,0.001
 40512,-0.00188264,0.00132791,-0.03401888,-0.01439922,-0.02869422,0.004
 16822,-0.00486543,-0.00537121,0.01190072,-0.00975819,0.00046295,-0.010
 86185,-0.00697240,-0.00510396,0.00003405,-0.00019778,-0.00091537,-0.00
 000621,0.00002665,0.00011712,0.00031245,0.00002552,-0.00021292,-0.0000
 0658,-0.00007953,0.00002867,-0.01770234,-0.05329409,-0.03240146,0.0456
 9012,0.09098497,-0.00013506,0.00049461,-0.00227713,-0.00655803,-0.0270
 3332,-0.02642627,-0.00058750,0.00216676,0.00831477,0.00261125,0.014347
 99,0.01231000,0.00763979,-0.01489972,-0.01481448,0.00249618,-0.0053866
 7,-0.00076429,-0.00037940,0.00024919,-0.00023399,0.00000348,0.00131561
 ,0.00152538,0.00005288,-0.00014002,-0.00018821,-0.14625338,-0.04128215
 ,-0.14348573,0.14310449,0.07092397,0.16805846,-0.11840485,0.03858516,-
 0.01105622,-0.00885182,0.02601697,0.00860636,-0.00044228,0.00449475,0.
 00285738,0.05120144,-0.02925117,0.01373702,-0.00778171,0.00275210,-0.0
 0767437,-0.02640188,0.02894494,0.00390780,-0.00025532,0.00036209,0.000
 46759,-0.03674387,-0.02205398,-0.04474544,-0.00027801,-0.00128727,-0.0
 0378573,-0.00415418,0.00452099,-0.00041501,-0.00259592,-0.00050582,-0.
 00169945,0.60785125,0.07323100,-0.26865098,-0.09072001,0.02243034,-0.0
 1287339,0.00278026,-0.00352856,-0.00677062,-0.00661636,-0.06039761,-0.
 01733104,-0.05024145,0.00738867,0.00442925,0.00306986,0.03040563,-0.03
 734127,-0.00353808,0.00037699,-0.00045898,0.00034113,0.00771328,0.0490
 6084,0.03101783,-0.00140110,-0.00011163,-0.00381701,0.00024665,0.00041
 226,-0.00033288,0.00108426,-0.00030644,0.00081704,-0.11437686,0.557114
 82,0.01199636,-0.11304691,-0.12888795,0.00621355,0.00509734,0.01205835
 ,-0.00247792,-0.00145167,-0.00280016,-0.00698783,-0.03017120,-0.024899
 54,-0.00459142,0.00008377,0.00406707,0.00487954,-0.00447943,-0.0024145
 0,0.00047719,0.00033165,-0.00007834,-0.02493745,0.01183424,0.00172195,
 -0.00386164,-0.00374358,-0.00071215,-0.00325643,0.00242088,0.00066305,
 -0.00063865,-0.00020868,-0.00103348,0.22270755,0.20109073,0.42148085,0
 .01001920,0.00066742,0.00462016,0.00022356,0.00039970,0.00309268,-0.00
 277793,0.00047399,-0.00103462,0.00086689,0.00423570,-0.00183417,-0.000
 07254,0.00072223,0.00084567,-0.00023037,0.00061408,0.00053440,-0.00011
 613,-0.00013806,0.00011516,-0.00212669,0.00385376,-0.00185518,-0.00028
 740,-0.00055352,-0.00074273,-0.00029220,-0.00118229,-0.00147140,0.0007
 7778,-0.00019353,0.00041446,-0.17694160,-0.06914586,-0.13234044,0.1805
 3934,-0.01772226,-0.00537114,-0.01735016,-0.00355300,-0.00288812,-0.00
 143753,0.00082755,0.00159483,0.00204945,0.00439198,-0.00228411,-0.0040
 7042,-0.00070458,-0.00088131,-0.00061490,0.00059180,-0.00073167,0.0001
 7754,-0.00014102,-0.00009978,0.00013380,0.00416567,-0.00067252,-0.0009
 1168,0.00056323,0.00066818,0.00061228,0.00061262,0.00179035,0.00107030
 ,-0.00089650,0.00009927,-0.00046885,-0.06842894,-0.09091417,-0.0759913
 4,0.07248210,0.09034886,-0.00761889,-0.00549752,-0.00502866,0.00046462
 ,0.00110725,-0.00312828,-0.00079812,0.00182135,0.00001352,-0.00173002,
 -0.00417148,0.00419611,-0.00010344,0.00030416,-0.00050361,0.00051975,0
 .00019176,0.00003701,0.00011325,0.00013568,-0.00027416,-0.00164775,-0.
 00111236,0.00292983,0.00000036,-0.00010745,0.00022233,-0.00027901,-0.0
 0008329,0.00053789,-0.00005390,-0.00001542,-0.00010996,-0.13186208,-0.
 07645531,-0.17883057,0.14538060,0.08700556,0.18136938,0.00248838,0.061
 29391,0.03696586,0.00744707,0.00038904,0.00063326,-0.00121862,-0.00161
 167,-0.00151353,-0.05970080,0.00107912,-0.03283127,0.00656947,0.000298
 08,0.00447428,0.04399501,-0.04717289,-0.00835203,0.00134175,0.00415038
 ,-0.00105498,-0.19878502,-0.01269733,-0.09486399,-0.01144743,-0.009675
 89,-0.01736972,0.00010595,0.00004832,0.00087021,0.00031927,-0.00011720
 ,-0.00009270,-0.27289363,0.07133403,-0.08586769,-0.01027376,0.00962404
 ,-0.00448663,0.60706414,0.02710988,-0.02761772,-0.00650708,-0.00256767
 ,-0.00414602,-0.00897806,0.00034402,0.00317173,0.00268588,-0.00089759,
 0.00871218,0.01030230,0.00371416,-0.01054367,-0.00457718,-0.01319323,-
 0.02104418,-0.02799147,0.00370382,-0.00161215,-0.00351992,-0.05705972,
 -0.12629911,-0.07776807,0.00980698,0.01139709,0.01023367,0.00259136,0.
 00045288,0.00276449,-0.00374808,0.00077498,-0.00212863,0.11465666,-0.1
 4501271,0.02129968,-0.00856923,0.01141464,-0.00233555,-0.10984044,0.46
 490431,0.01422084,0.01552467,0.02790739,-0.00133334,-0.00707549,0.0012
 9735,-0.00021381,0.00142649,0.00027920,-0.03414658,0.01157603,-0.02194
 142,0.00674816,-0.00677915,-0.00022968,0.01425873,-0.04988908,-0.01576
 412,-0.00135200,-0.00323220,0.00424237,-0.12438473,-0.04918041,-0.1775
 7332,-0.00440560,-0.00232142,0.00113159,0.00256244,0.00112432,0.001207
 32,-0.00250877,0.00021266,-0.00113354,-0.05704111,-0.00661908,-0.10714
 836,-0.01659208,0.00938869,0.00217998,0.22777853,0.14529800,0.38366446
 ,-0.00413716,0.00513688,-0.00480867,0.00127302,0.00180586,0.00151979,-
 0.00003511,-0.00095386,-0.00068178,-0.00530819,0.00236627,-0.00109238,
 0.00083526,-0.00280809,-0.00062176,-0.00043557,-0.00370155,-0.00776118
 ,0.00089635,-0.00106398,-0.00062821,0.01585084,-0.01386946,0.00105689,
 -0.00360905,-0.00168929,-0.00069426,-0.00008077,-0.00011359,0.00006133
 ,-0.00086854,0.00015425,-0.00047140,-0.00044584,0.02525449,0.01639054,
 -0.00277737,-0.00083635,0.00089357,-0.10026437,0.00829472,-0.00481192,
 0.79856010,0.00331814,0.00765843,0.00149214,0.00457689,-0.00005637,0.0
 0239288,-0.00266253,-0.00045762,-0.00204493,0.00219232,-0.00924851,-0.
 00396334,-0.00389924,0.00929476,0.00440312,-0.00334332,0.00824694,-0.0
 0184823,-0.00007987,0.00069661,-0.00010207,-0.00730282,-0.02276523,-0.
 01978157,0.00122642,0.00016970,0.00374908,-0.00267417,-0.00002386,-0.0
 0154431,0.00399709,-0.00092004,0.00195033,0.01948058,-0.02664405,-0.00
 530827,-0.00334569,0.00012269,0.00127115,0.00667898,-0.11281286,-0.014
 71561,-0.10285389,0.54517023,-0.00601939,0.00266441,0.00652330,0.00336
 475,0.00060791,0.00335015,-0.00181883,-0.00094464,-0.00176227,-0.00120
 853,-0.00385100,-0.00451097,-0.00134756,0.00510718,0.00143013,-0.00752
 274,-0.00207852,0.00155471,0.00002663,-0.00073616,0.00029986,0.0054268
 0,-0.02401223,-0.01259341,0.00124608,0.00186980,-0.00222886,-0.0016427
 6,0.00010572,-0.00128087,0.00208595,-0.00052743,0.00101581,0.01254812,
 -0.00158752,0.00722883,-0.00077673,0.00288831,-0.00360600,-0.00588693,
 -0.01367533,-0.09712530,0.29588052,0.14128940,0.51795901,-0.00075867,0
 .00059854,0.00092292,0.00078382,-0.00037399,0.00052794,-0.00036292,0.0
 0027135,-0.00006707,0.00107677,-0.00216665,-0.00086639,-0.00033447,0.0
 0202903,0.00107298,-0.00054613,0.00225123,0.00151969,-0.00013604,0.000
 18823,0.00002992,-0.00363839,-0.00522706,-0.00628730,0.00177839,0.0008
 1297,0.00184409,-0.00064678,0.00060335,-0.00009518,0.00066217,-0.00029
 287,0.00025313,0.00312447,0.00217560,0.00169912,0.00133171,-0.00123100
 ,-0.00037962,-0.02447476,0.04072711,-0.00189594,-0.41595665,0.17379700
 ,-0.10243564,0.51254546,0.00150291,-0.00257981,0.00029776,-0.00244088,
 0.00009574,-0.00122869,0.00110831,-0.00000333,0.00069740,0.00057870,0.
 00230980,0.00178760,0.00085105,-0.00289033,-0.00143827,0.00134046,-0.0
 0060104,0.00084974,0.00009674,-0.00011932,-0.00002496,0.00228175,-0.00
 168209,-0.00012817,0.00130853,-0.00323666,-0.00114845,0.00122684,-0.00
 067746,0.00025819,-0.00100904,0.00041207,-0.00035466,-0.00311130,-0.00
 290741,-0.00575942,-0.00010371,0.00050046,-0.00016584,0.05173535,-0.02
 902784,0.00036843,0.18242356,-0.21143430,0.02847149,-0.22684276,0.2102
 1696,0.00152450,-0.00028481,-0.00077941,-0.00084764,0.00010323,-0.0008
 9874,0.00048977,0.00015831,0.00044247,0.00096056,0.00001834,0.00081513
 ,0.00028909,-0.00067942,-0.00017011,0.00091369,0.00143670,0.00096497,-
 0.00003095,0.00003398,0.00001456,-0.00129056,-0.00496745,-0.00341690,0
 .00217383,-0.00146780,0.00018060,0.00032009,-0.00014393,0.00023367,-0.
 00022364,0.00010723,-0.00010554,-0.00181902,-0.00235230,-0.00000320,0.
 00037079,-0.00089247,0.00029436,0.00542987,-0.00672606,0.01954464,-0.0
 9669536,0.02291212,-0.12462142,0.16087216,-0.02539525,0.11547126,0.001
 48706,-0.00265091,-0.00036214,-0.00093126,-0.00084151,-0.00113338,0.00
 044121,0.00073430,0.00070419,0.00089754,0.00088598,0.00095970,0.000668
 28,-0.00047767,0.00007235,0.00020526,-0.00026779,0.00081165,-0.0000731
 5,-0.00011928,0.00015211,0.00088144,0.00072854,-0.00072901,0.00071932,
 0.00130313,0.00093646,0.00032677,0.00053605,0.00055082,-0.00067468,0.0
 0004035,-0.00039875,-0.00598625,0.00720904,0.00059562,0.00213752,0.000
 25465,0.00158733,0.00972736,-0.01507276,-0.01688281,-0.28349695,-0.089
 10590,-0.19191975,-0.07444798,-0.01094651,-0.07243718,0.34811852,-0.00
 108843,-0.00031226,-0.00045139,-0.00190678,0.00036110,-0.00096137,0.00
 122760,0.00002044,0.00073367,-0.00154918,0.00235494,0.00035379,0.00134
 985,-0.00285487,-0.00107155,-0.00080331,-0.00228199,-0.00115055,0.0003
 2103,-0.00070890,0.00002292,0.00626345,-0.00350878,-0.00013875,0.00001
 158,0.00033683,-0.00017550,0.00104669,-0.00018925,0.00053206,-0.001264
 93,0.00035229,-0.00057146,-0.00079888,-0.00169447,-0.00199779,-0.00021
 710,-0.00269646,-0.00189270,-0.02551583,-0.02271154,-0.04510685,-0.097
 54598,-0.18699653,-0.13559140,0.01267992,0.04162457,0.01813957,0.10779
 029,0.17890490,0.00067748,-0.00145833,-0.00122201,-0.00184308,-0.00027
 503,-0.00141043,0.00103268,0.00041599,0.00104845,-0.00066063,0.0019229
 9,0.00117716,0.00128824,-0.00224959,-0.00060344,0.00045507,-0.00080564
 ,-0.00157332,0.00044514,-0.00026092,-0.00031911,0.00295437,-0.00370580
 ,0.00220279,0.00007707,0.00065693,0.00109845,0.00089107,0.00020284,0.0
 0073389,-0.00126716,0.00027014,-0.00065181,-0.00473340,0.00316316,-0.0
 0041186,0.00127342,-0.00158860,-0.00029918,-0.02383252,-0.03837666,-0.
 02053857,-0.19753571,-0.13015187,-0.29163272,-0.05671481,0.00291310,-0
 .00796634,0.27749278,0.16932730,0.32036807\\-0.00000271,-0.00000367,0.
 00000196,0.00000682,-0.00000742,-0.00000641,0.00000312,0.00000877,0.00
 000397,-0.00001605,0.00003322,0.00000700,-0.00000219,-0.00001549,-0.00
 001164,0.00001811,-0.00000848,0.00000602,-0.00000188,-0.00000082,-0.00
 000083,-0.00000740,0.00000015,-0.00000259,0.00000646,-0.00000631,-0.00
 000073,0.00002437,0.00001845,0.00004096,-0.00000926,-0.00001382,-0.000
 02224,0.00000687,0.00000479,0.00000828,-0.00001225,-0.00000296,-0.0000
 0909,0.00000003,-0.00000504,-0.00000625,-0.00000746,-0.00000056,-0.000
 00257,-0.00000161,-0.00000180,-0.00000285,-0.00000497,0.00000099,-0.00
 000298\\\@
 Job cpu time:       0 days 20 hours  4 minutes 37.1 seconds.
 File lengths (MBytes):  RWF= 120299 Int=      0 D2E=      0 Chk=    111 Scr=      1
 Normal termination of Gaussian 09 at Thu Aug 26 12:35:31 2021.
