 Entering Gaussian System, Link 0=g09
 Input=G4.VUBZUN.gjf
 Output=G4.VUBZUN.log
 Initial command:
 /public/home/users/caep010/software/Gaussian09/g09/l1.exe "/public/home/users/caep010/.cache/gau_scr/Gau-105086.inp" -scrdir="/public/home/users/caep010/.cache/gau_scr/"
 Entering Link 1 = /public/home/users/caep010/software/Gaussian09/g09/l1.exe PID=    105087.
  
 Copyright (c) 1988,1990,1992,1993,1995,1998,2003,2009,2015,
            Gaussian, Inc.  All Rights Reserved.
  
 This is part of the Gaussian(R) 09 program.  It is based on
 the Gaussian(R) 03 system (copyright 2003, Gaussian, Inc.),
 the Gaussian(R) 98 system (copyright 1998, Gaussian, Inc.),
 the Gaussian(R) 94 system (copyright 1995, Gaussian, Inc.),
 the Gaussian 92(TM) system (copyright 1992, Gaussian, Inc.),
 the Gaussian 90(TM) system (copyright 1990, Gaussian, Inc.),
 the Gaussian 88(TM) system (copyright 1988, Gaussian, Inc.),
 the Gaussian 86(TM) system (copyright 1986, Carnegie Mellon
 University), and the Gaussian 82(TM) system (copyright 1983,
 Carnegie Mellon University). Gaussian is a federally registered
 trademark of Gaussian, Inc.
  
 This software contains proprietary and confidential information,
 including trade secrets, belonging to Gaussian, Inc.
  
 This software is provided under written license and may be
 used, copied, transmitted, or stored only in accord with that
 written license.
  
 The following legend is applicable only to US Government
 contracts under FAR:
  
                    RESTRICTED RIGHTS LEGEND
  
 Use, reproduction and disclosure by the US Government is
 subject to restrictions as set forth in subparagraphs (a)
 and (c) of the Commercial Computer Software - Restricted
 Rights clause in FAR 52.227-19.
  
 Gaussian, Inc.
 340 Quinnipiac St., Bldg. 40, Wallingford CT 06492
  
  
 ---------------------------------------------------------------
 Warning -- This program may not be used in any manner that
 competes with the business of Gaussian, Inc. or will provide
 assistance to any competitor of Gaussian, Inc.  The licensee
 of this program is prohibited from giving any competitor of
 Gaussian, Inc. access to this program.  By using this program,
 the user acknowledges that Gaussian, Inc. is engaged in the
 business of creating and licensing software in the field of
 computational chemistry and represents and warrants to the
 licensee that it is not a competitor of Gaussian, Inc. and that
 it will not use this program in any manner prohibited above.
 ---------------------------------------------------------------
  

 Cite this work as:
 Gaussian 09, Revision E.01,
 M. J. Frisch, G. W. Trucks, H. B. Schlegel, G. E. Scuseria, 
 M. A. Robb, J. R. Cheeseman, G. Scalmani, V. Barone, B. Mennucci, 
 G. A. Petersson, H. Nakatsuji, M. Caricato, X. Li, H. P. Hratchian, 
 A. F. Izmaylov, J. Bloino, G. Zheng, J. L. Sonnenberg, M. Hada, 
 M. Ehara, K. Toyota, R. Fukuda, J. Hasegawa, M. Ishida, T. Nakajima, 
 Y. Honda, O. Kitao, H. Nakai, T. Vreven, J. A. Montgomery, Jr., 
 J. E. Peralta, F. Ogliaro, M. Bearpark, J. J. Heyd, E. Brothers, 
 K. N. Kudin, V. N. Staroverov, T. Keith, R. Kobayashi, J. Normand, 
 K. Raghavachari, A. Rendell, J. C. Burant, S. S. Iyengar, J. Tomasi, 
 M. Cossi, N. Rega, J. M. Millam, M. Klene, J. E. Knox, J. B. Cross, 
 V. Bakken, C. Adamo, J. Jaramillo, R. Gomperts, R. E. Stratmann, 
 O. Yazyev, A. J. Austin, R. Cammi, C. Pomelli, J. W. Ochterski, 
 R. L. Martin, K. Morokuma, V. G. Zakrzewski, G. A. Voth, 
 P. Salvador, J. J. Dannenberg, S. Dapprich, A. D. Daniels, 
 O. Farkas, J. B. Foresman, J. V. Ortiz, J. Cioslowski, 
 and D. J. Fox, Gaussian, Inc., Wallingford CT, 2013.
 
 ******************************************
 Gaussian 09:  ES64L-G09RevE.01 30-Nov-2015
                26-Aug-2021 
 ******************************************
 %nproc=32
 Will use up to   32 processors via shared memory.
 %mem=180GB
 ----------------
 #P G4 OPT=calcfc
 ----------------
 1/10=4,14=-1,18=20,19=15,26=3,38=1/1,3;
 2/9=110,12=2,17=6,18=5,40=1/2;
 3/5=35,7=104,11=2,16=1,25=1,30=1,71=2,74=-5,140=1/1,2,3;
 4//1;
 5/5=2,38=5/2;
 8/6=4,10=90,11=11/1;
 11/6=1,8=1,9=11,15=111,16=1/1,2,10;
 10/6=1,13=1/2;
 6/7=2,8=2,9=2,10=2,28=1/1;
 7/10=1,18=20,25=1/1,2,3,16;
 1/10=4,14=-1,18=20,19=15,26=3/3(2);
 2/9=110/2;
 99//99;
 2/9=110/2;
 3/5=35,7=104,11=2,16=1,25=1,30=1,71=1,74=-5/1,2,3;
 4/5=5,16=3,69=1/1;
 5/5=2,38=5/2;
 7//1,2,3,16;
 1/14=-1,18=20,19=15,26=3/3(-5);
 2/9=110/2;
 6/7=2,8=2,9=2,10=2,19=2,28=1/1;
 99/9=1/99;
 Leave Link    1 at Thu Aug 26 01:50:53 2021, MaxMem= 24159191040 cpu:         3.5
 (Enter /public/home/users/caep010/software/Gaussian09/g09/l101.exe)
 ------
 VUBZUN
 ------
 Symbolic Z-matrix:
 Charge =  0 Multiplicity = 1
 N                     5.3539    1.9812    2.7903 
 C                     6.1768    2.7339    1.8061 
 N                     4.5373    2.637     3.6542 
 O                     4.0295    3.691     3.2539 
 O                     4.3361    2.11      4.7523 
 C                     7.2957    1.7151    2.0805 
 O                     7.3692    0.8655    0.9117 
 H                     8.1985    2.0334    2.2985 
 N                     8.3167   -0.1799    1.0774 
 O                     8.437    -0.8378    0.0754 
 O                     8.8415   -0.2928    2.1518 
 C                     6.4866    1.1232    3.2447 
 H                     6.7858    1.3733    4.1443 
 H                     6.4334    3.625     2.1397 
 H                     5.7967    2.7243    0.9186 
 H                     6.2332    0.1224    3.1394 
 
 Add atom      9 valence  3 ND=      2 dihedral       7      9     10     11
 NAtoms=     16 NQM=       16 NQMF=       0 NMMI=      0 NMMIF=      0
                NMic=       0 NMicF=      0.
                    Isotopes and Nuclear Properties:
 (Nuclear quadrupole moments (NQMom) in fm**2, nuclear magnetic moments (NMagM)
  in nuclear magnetons)

  Atom         1           2           3           4           5           6           7           8           9          10
 IAtWgt=          14          12          14          16          16          12          16           1          14          16
 AtmWgt=  14.0030740  12.0000000  14.0030740  15.9949146  15.9949146  12.0000000  15.9949146   1.0078250  14.0030740  15.9949146
 NucSpn=           2           0           2           0           0           0           0           1           2           0
 AtZEff=   0.0000000   0.0000000   0.0000000   0.0000000   0.0000000   0.0000000   0.0000000   0.0000000   0.0000000   0.0000000
 NQMom=    2.0440000   0.0000000   2.0440000   0.0000000   0.0000000   0.0000000   0.0000000   0.0000000   2.0440000   0.0000000
 NMagM=    0.4037610   0.0000000   0.4037610   0.0000000   0.0000000   0.0000000   0.0000000   2.7928460   0.4037610   0.0000000
 AtZNuc=   7.0000000   6.0000000   7.0000000   8.0000000   8.0000000   6.0000000   8.0000000   1.0000000   7.0000000   8.0000000

  Atom        11          12          13          14          15          16
 IAtWgt=          16          12           1           1           1           1
 AtmWgt=  15.9949146  12.0000000   1.0078250   1.0078250   1.0078250   1.0078250
 NucSpn=           0           0           1           1           1           1
 AtZEff=   0.0000000   0.0000000   0.0000000   0.0000000   0.0000000   0.0000000
 NQMom=    0.0000000   0.0000000   0.0000000   0.0000000   0.0000000   0.0000000
 NMagM=    0.0000000   0.0000000   2.7928460   2.7928460   2.7928460   2.7928460
 AtZNuc=   8.0000000   6.0000000   1.0000000   1.0000000   1.0000000   1.0000000
 Leave Link  101 at Thu Aug 26 01:50:53 2021, MaxMem= 24159191040 cpu:        10.1
 (Enter /public/home/users/caep010/software/Gaussian09/g09/l103.exe)

 GradGradGradGradGradGradGradGradGradGradGradGradGradGradGradGradGradGrad
 Berny optimization.
 Initialization pass.
                           ----------------------------
                           !    Initial Parameters    !
                           ! (Angstroms and Degrees)  !
 --------------------------                            --------------------------
 ! Name  Definition              Value          Derivative Info.                !
 --------------------------------------------------------------------------------
 ! R1    R(1,2)                  1.4874         calculate D2E/DX2 analytically  !
 ! R2    R(1,3)                  1.3577         calculate D2E/DX2 analytically  !
 ! R3    R(1,12)                 1.4919         calculate D2E/DX2 analytically  !
 ! R4    R(2,6)                  1.5379         calculate D2E/DX2 analytically  !
 ! R5    R(2,14)                 0.9855         calculate D2E/DX2 analytically  !
 ! R6    R(2,15)                 0.9655         calculate D2E/DX2 analytically  !
 ! R7    R(3,4)                  1.2365         calculate D2E/DX2 analytically  !
 ! R8    R(3,5)                  1.2345         calculate D2E/DX2 analytically  !
 ! R9    R(6,7)                  1.4468         calculate D2E/DX2 analytically  !
 ! R10   R(6,8)                  0.9818         calculate D2E/DX2 analytically  !
 ! R11   R(6,12)                 1.5363         calculate D2E/DX2 analytically  !
 ! R12   R(7,9)                  1.4206         calculate D2E/DX2 analytically  !
 ! R13   R(9,10)                 1.2047         calculate D2E/DX2 analytically  !
 ! R14   R(9,11)                 1.201          calculate D2E/DX2 analytically  !
 ! R15   R(12,13)                0.9805         calculate D2E/DX2 analytically  !
 ! R16   R(12,16)                1.0377         calculate D2E/DX2 analytically  !
 ! A1    A(2,1,3)              120.6217         calculate D2E/DX2 analytically  !
 ! A2    A(2,1,12)              94.1592         calculate D2E/DX2 analytically  !
 ! A3    A(3,1,12)             122.7289         calculate D2E/DX2 analytically  !
 ! A4    A(1,2,6)               87.0889         calculate D2E/DX2 analytically  !
 ! A5    A(1,2,14)             112.1878         calculate D2E/DX2 analytically  !
 ! A6    A(1,2,15)             112.6681         calculate D2E/DX2 analytically  !
 ! A7    A(6,2,14)             110.4366         calculate D2E/DX2 analytically  !
 ! A8    A(6,2,15)             116.3488         calculate D2E/DX2 analytically  !
 ! A9    A(14,2,15)            115.0022         calculate D2E/DX2 analytically  !
 ! A10   A(1,3,4)              116.9199         calculate D2E/DX2 analytically  !
 ! A11   A(1,3,5)              117.247          calculate D2E/DX2 analytically  !
 ! A12   A(4,3,5)              125.7957         calculate D2E/DX2 analytically  !
 ! A13   A(2,6,7)              106.3692         calculate D2E/DX2 analytically  !
 ! A14   A(2,6,8)              119.5947         calculate D2E/DX2 analytically  !
 ! A15   A(2,6,12)              90.4167         calculate D2E/DX2 analytically  !
 ! A16   A(7,6,8)              108.847          calculate D2E/DX2 analytically  !
 ! A17   A(7,6,12)             114.3731         calculate D2E/DX2 analytically  !
 ! A18   A(8,6,12)             116.1627         calculate D2E/DX2 analytically  !
 ! A19   A(6,7,9)              111.8256         calculate D2E/DX2 analytically  !
 ! A20   A(7,9,10)             111.806          calculate D2E/DX2 analytically  !
 ! A21   A(7,9,11)             117.7074         calculate D2E/DX2 analytically  !
 ! A22   A(10,9,11)            130.4716         calculate D2E/DX2 analytically  !
 ! A23   A(1,12,6)              86.989          calculate D2E/DX2 analytically  !
 ! A24   A(1,12,13)            111.3736         calculate D2E/DX2 analytically  !
 ! A25   A(1,12,16)            109.776          calculate D2E/DX2 analytically  !
 ! A26   A(6,12,13)            115.8669         calculate D2E/DX2 analytically  !
 ! A27   A(6,12,16)            115.0404         calculate D2E/DX2 analytically  !
 ! A28   A(13,12,16)           114.432          calculate D2E/DX2 analytically  !
 ! D1    D(3,1,2,6)            141.2142         calculate D2E/DX2 analytically  !
 ! D2    D(3,1,2,14)            30.3079         calculate D2E/DX2 analytically  !
 ! D3    D(3,1,2,15)          -101.3746         calculate D2E/DX2 analytically  !
 ! D4    D(12,1,2,6)             8.9166         calculate D2E/DX2 analytically  !
 ! D5    D(12,1,2,14)         -101.9897         calculate D2E/DX2 analytically  !
 ! D6    D(12,1,2,15)          126.3278         calculate D2E/DX2 analytically  !
 ! D7    D(2,1,3,4)             32.2439         calculate D2E/DX2 analytically  !
 ! D8    D(2,1,3,5)           -149.8502         calculate D2E/DX2 analytically  !
 ! D9    D(12,1,3,4)           150.969          calculate D2E/DX2 analytically  !
 ! D10   D(12,1,3,5)           -31.1251         calculate D2E/DX2 analytically  !
 ! D11   D(2,1,12,6)            -8.9266         calculate D2E/DX2 analytically  !
 ! D12   D(2,1,12,13)          107.725          calculate D2E/DX2 analytically  !
 ! D13   D(2,1,12,16)         -124.4891         calculate D2E/DX2 analytically  !
 ! D14   D(3,1,12,6)          -139.7579         calculate D2E/DX2 analytically  !
 ! D15   D(3,1,12,13)          -23.1062         calculate D2E/DX2 analytically  !
 ! D16   D(3,1,12,16)          104.6797         calculate D2E/DX2 analytically  !
 ! D17   D(1,2,6,7)            106.9772         calculate D2E/DX2 analytically  !
 ! D18   D(1,2,6,8)           -129.3787         calculate D2E/DX2 analytically  !
 ! D19   D(1,2,6,12)            -8.6337         calculate D2E/DX2 analytically  !
 ! D20   D(14,2,6,7)          -140.405          calculate D2E/DX2 analytically  !
 ! D21   D(14,2,6,8)           -16.7609         calculate D2E/DX2 analytically  !
 ! D22   D(14,2,6,12)          103.984          calculate D2E/DX2 analytically  !
 ! D23   D(15,2,6,7)            -6.9416         calculate D2E/DX2 analytically  !
 ! D24   D(15,2,6,8)           116.7025         calculate D2E/DX2 analytically  !
 ! D25   D(15,2,6,12)         -122.5526         calculate D2E/DX2 analytically  !
 ! D26   D(2,6,7,9)           -176.249          calculate D2E/DX2 analytically  !
 ! D27   D(8,6,7,9)             53.649          calculate D2E/DX2 analytically  !
 ! D28   D(12,6,7,9)           -78.1203         calculate D2E/DX2 analytically  !
 ! D29   D(2,6,12,1)             8.6085         calculate D2E/DX2 analytically  !
 ! D30   D(2,6,12,13)         -103.7304         calculate D2E/DX2 analytically  !
 ! D31   D(2,6,12,16)          119.0584         calculate D2E/DX2 analytically  !
 ! D32   D(7,6,12,1)           -99.6138         calculate D2E/DX2 analytically  !
 ! D33   D(7,6,12,13)          148.0473         calculate D2E/DX2 analytically  !
 ! D34   D(7,6,12,16)           10.8361         calculate D2E/DX2 analytically  !
 ! D35   D(8,6,12,1)           132.2382         calculate D2E/DX2 analytically  !
 ! D36   D(8,6,12,13)           19.8993         calculate D2E/DX2 analytically  !
 ! D37   D(8,6,12,16)         -117.312          calculate D2E/DX2 analytically  !
 ! D38   D(6,7,9,10)          -175.7826         calculate D2E/DX2 analytically  !
 ! D39   D(6,7,9,11)             5.4764         calculate D2E/DX2 analytically  !
 ! D40   D(7,9,10,11)         -178.5347         calculate D2E/DX2 analytically  !
 --------------------------------------------------------------------------------
 Trust Radius=3.00D-01 FncErr=1.00D-07 GrdErr=1.00D-06
 Number of steps in this run=     94 maximum allowed number of steps=    100.
 GradGradGradGradGradGradGradGradGradGradGradGradGradGradGradGradGradGrad

 Leave Link  103 at Thu Aug 26 01:50:54 2021, MaxMem= 24159191040 cpu:         0.5
 (Enter /public/home/users/caep010/software/Gaussian09/g09/l202.exe)
                          Input orientation:                          
 ---------------------------------------------------------------------
 Center     Atomic      Atomic             Coordinates (Angstroms)
 Number     Number       Type             X           Y           Z
 ---------------------------------------------------------------------
      1          7           0        5.353900    1.981200    2.790300
      2          6           0        6.176800    2.733900    1.806100
      3          7           0        4.537300    2.637000    3.654200
      4          8           0        4.029500    3.691000    3.253900
      5          8           0        4.336100    2.110000    4.752300
      6          6           0        7.295700    1.715100    2.080500
      7          8           0        7.369200    0.865500    0.911700
      8          1           0        8.198500    2.033400    2.298500
      9          7           0        8.316700   -0.179900    1.077400
     10          8           0        8.437000   -0.837800    0.075400
     11          8           0        8.841500   -0.292800    2.151800
     12          6           0        6.486600    1.123200    3.244700
     13          1           0        6.785800    1.373300    4.144300
     14          1           0        6.433400    3.625000    2.139700
     15          1           0        5.796700    2.724300    0.918600
     16          1           0        6.233200    0.122400    3.139400
 ---------------------------------------------------------------------
                    Distance matrix (angstroms):
                    1          2          3          4          5
     1  N    0.000000
     2  C    1.487404   0.000000
     3  N    1.357657   2.472412   0.000000
     4  O    2.211872   2.760989   1.236534   0.000000
     5  O    2.214035   3.529522   1.234518   2.199720   0.000000
     6  C    2.084517   1.537916   3.306842   3.993634   4.006706
     7  O    2.972433   2.390123   4.321941   4.962151   5.049622
     8  H    2.887272   2.195548   3.950524   4.587046   4.576586
     9  N    4.047538   3.687873   5.372028   6.172609   5.881642
    10  O    4.982263   4.567370   6.331643   7.073821   6.883335
    11  O    4.212139   4.047351   5.419139   6.343550   5.730155
    12  C    1.491862   2.181720   2.501810   3.554015   2.805581
    13  H    2.062328   2.772957   2.625431   3.709681   2.629339
    14  H    2.071395   0.985491   2.620124   2.650384   3.676897
    15  H    2.061924   0.965518   3.012842   3.084012   4.148249
    16  H    2.085708   2.932712   3.076412   4.195749   3.186062
                    6          7          8          9         10
     6  C    0.000000
     7  O    1.446830   0.000000
     8  H    0.981777   1.993726   0.000000
     9  N    2.374800   1.420589   2.530564   0.000000
    10  O    3.440972   2.177344   3.639072   1.204703   0.000000
    11  O    2.535004   2.246592   2.417887   1.201040   2.184510
    12  C    1.536343   2.507645   2.157397   3.121622   4.206429
    13  H    2.153159   3.323841   2.416285   3.763238   4.916439
    14  H    2.096374   3.162048   2.382013   4.376364   5.309645
    15  H    2.148371   2.434736   2.854840   3.848376   4.513394
    16  H    2.187891   2.608705   2.867305   2.946897   3.894459
                   11         12         13         14         15
    11  O    0.000000
    12  C    2.957201   0.000000
    13  H    3.312378   0.980485   0.000000
    14  H    4.598723   2.735481   3.035253   0.000000
    15  H    4.460323   2.906927   3.634372   1.645519   0.000000
    16  H    2.819747   1.037738   1.697039   3.647970   3.448531
                   16
    16  H    0.000000
 Stoichiometry    C3H5N3O5
 Framework group  C1[X(C3H5N3O5)]
 Deg. of freedom    42
 Full point group                 C1      NOp   1
 Largest Abelian subgroup         C1      NOp   1
 Largest concise Abelian subgroup C1      NOp   1
                         Standard orientation:                         
 ---------------------------------------------------------------------
 Center     Atomic      Atomic             Coordinates (Angstroms)
 Number     Number       Type             X           Y           Z
 ---------------------------------------------------------------------
      1          7           0        1.301588   -0.097939   -0.308252
      2          6           0        0.666084   -1.233024    0.412919
      3          7           0        2.634958    0.132314   -0.197169
      4          8           0        3.362770   -0.855470   -0.043584
      5          8           0        3.016864    1.301943   -0.297922
      6          6           0       -0.525882   -0.297101    0.674552
      7          8           0       -1.596145   -0.749079   -0.187751
      8          1           0       -0.873993   -0.198862    1.587270
      9          7           0       -2.736076    0.094200   -0.101077
     10          8           0       -3.655216   -0.327089   -0.756061
     11          8           0       -2.644308    1.090729    0.563005
     12          6           0        0.273236    0.893300    0.122549
     13          1           0        0.633014    1.513836    0.791014
     14          1           0        1.129511   -1.444109    1.256643
     15          1           0        0.497837   -1.991037   -0.160957
     16          1           0       -0.142013    1.352823   -0.710102
 ---------------------------------------------------------------------
 Rotational constants (GHZ):      3.6258890      0.5253794      0.4864020
 Leave Link  202 at Thu Aug 26 01:50:54 2021, MaxMem= 24159191040 cpu:         0.4
 (Enter /public/home/users/caep010/software/Gaussian09/g09/l301.exe)
 Standard basis: GTBas3 (6D, 7F)
 Ernie: Thresh=  0.10000D-02 Tol=  0.10000D-05 Strict=F.
 There are   366 symmetry adapted cartesian basis functions of A   symmetry.
 There are   333 symmetry adapted basis functions of A   symmetry.
   333 basis functions,   519 primitive gaussians,   366 cartesian basis functions
    42 alpha electrons       42 beta electrons
       nuclear repulsion energy       652.6228750938 Hartrees.
 IExCor=  402 DFT=T Ex+Corr=B3LYP ExCW=0 ScaHFX=  0.200000
 ScaDFX=  0.800000  0.720000  1.000000  0.810000 ScalE2=  1.000000  1.000000
 IRadAn=      0 IRanWt=     -1 IRanGd=            0 ICorTp=0 IEmpDi=  4
 NAtoms=   16 NActive=   16 NUniq=   16 SFac= 1.00D+00 NAtFMM=   60 NAOKFM=F Big=F
 Integral buffers will be    131072 words long.
 Raffenetti 2 integral format.
 Two-electron integral symmetry is turned on.
 Leave Link  301 at Thu Aug 26 01:50:54 2021, MaxMem= 24159191040 cpu:         2.2
 (Enter /public/home/users/caep010/software/Gaussian09/g09/l302.exe)
 NPDir=0 NMtPBC=     1 NCelOv=     1 NCel=       1 NClECP=     1 NCelD=      1
         NCelK=      1 NCelE2=     1 NClLst=     1 CellRange=     0.0.
 One-electron integrals computed using PRISM.
 NBasis=   333 RedAO= T EigKep=  2.25D-04  NBF=   333
 NBsUse=   333 1.00D-06 EigRej= -1.00D+00 NBFU=   333
 Precomputing XC quadrature grid using
 IXCGrd= 4 IRadAn=           0 IRanWt=          -1 IRanGd=           0 AccXCQ= 0.00D+00.
 Generated NRdTot=       0 NPtTot=           0 NUsed=           0 NTot=          32
 NSgBfM=   365   365   365   365   365 MxSgAt=    16 MxSgA2=    16.
 Leave Link  302 at Thu Aug 26 01:50:54 2021, MaxMem= 24159191040 cpu:        16.7
 (Enter /public/home/users/caep010/software/Gaussian09/g09/l303.exe)
 DipDrv:  MaxL=1.
 Leave Link  303 at Thu Aug 26 01:50:55 2021, MaxMem= 24159191040 cpu:         0.9
 (Enter /public/home/users/caep010/software/Gaussian09/g09/l401.exe)
 ExpMin= 1.61D-01 ExpMax= 5.48D+03 ExpMxC= 8.25D+02 IAcc=1 IRadAn=         1 AccDes= 0.00D+00
 Harris functional with IExCor=  402 and IRadAn=       1 diagonalized for initial guess.
 HarFok:  IExCor=  402 AccDes= 0.00D+00 IRadAn=         1 IDoV= 1 UseB2=F ITyADJ=14
 ICtDFT=  3500011 ScaDFX=  1.000000  1.000000  1.000000  1.000000
 FoFCou: FMM=F IPFlag=           0 FMFlag=      100000 FMFlg1=           0
         NFxFlg=           0 DoJE=T BraDBF=F KetDBF=T FulRan=T
         wScrn=  0.000000 ICntrl=     500 IOpCl=  0 I1Cent=   200000004 NGrid=           0
         NMat0=    1 NMatS0=      1 NMatT0=    0 NMatD0=    1 NMtDS0=    0 NMtDT0=    0
 Petite list used in FoFCou.
 Harris En= -657.501587226440    
 JPrj=0 DoOrth=F DoCkMO=F.
 Leave Link  401 at Thu Aug 26 01:50:55 2021, MaxMem= 24159191040 cpu:        17.0
 (Enter /public/home/users/caep010/software/Gaussian09/g09/l502.exe)
 Closed shell SCF:
 Using DIIS extrapolation, IDIIS=  1040.
 Integral symmetry usage will be decided dynamically.
 Keep R1 ints in memory in canonical form, NReq=1571469486.
 IVT=      434772 IEndB=      434772 NGot= 24159191040 MDV= 22612436803
 LenX= 22612436803 LenY= 22612302406
 Requested convergence on RMS density matrix=1.00D-08 within 128 cycles.
 Requested convergence on MAX density matrix=1.00D-06.
 Requested convergence on             energy=1.00D-06.
 No special actions if energy rises.
 FoFCou: FMM=F IPFlag=           0 FMFlag=           0 FMFlg1=           0
         NFxFlg=           0 DoJE=F BraDBF=F KetDBF=F FulRan=T
         wScrn=  0.000000 ICntrl=     600 IOpCl=  0 I1Cent=           0 NGrid=           0
         NMat0=    1 NMatS0=  55611 NMatT0=    0 NMatD0=    1 NMtDS0=    0 NMtDT0=    0
 Symmetry not used in FoFCou.
 Integral accuracy reduced to 1.0D-05 until final iterations.

 Cycle   1  Pass 0  IDiag  1:
 E= -656.973488231782    
 DIIS: error= 3.43D-02 at cycle   1 NSaved=   1.
 NSaved= 1 IEnMin= 1 EnMin= -656.973488231782     IErMin= 1 ErrMin= 3.43D-02
 ErrMax= 3.43D-02  0.00D+00 EMaxC= 1.00D-01 BMatC= 6.26D-01 BMatP= 6.26D-01
 IDIUse=3 WtCom= 6.57D-01 WtEn= 3.43D-01
 Coeff-Com:  0.100D+01
 Coeff-En:   0.100D+01
 Coeff:      0.100D+01
 Gap=     0.199 Goal=   None    Shift=    0.000
 GapD=    0.199 DampG=1.000 DampE=0.500 DampFc=0.5000 IDamp=-1.
 Damping current iteration by 5.00D-01
 RMSDP=3.99D-03 MaxDP=2.77D-01              OVMax= 3.57D-01

 Cycle   2  Pass 0  IDiag  1:
 E= -656.999966855635     Delta-E=       -0.026478623854 Rises=F Damp=T
 DIIS: error= 1.85D-02 at cycle   2 NSaved=   2.
 NSaved= 2 IEnMin= 2 EnMin= -656.999966855635     IErMin= 2 ErrMin= 1.85D-02
 ErrMax= 1.85D-02  0.00D+00 EMaxC= 1.00D-01 BMatC= 1.67D-01 BMatP= 6.26D-01
 IDIUse=3 WtCom= 8.15D-01 WtEn= 1.85D-01
 Coeff-Com:  0.318D+00 0.682D+00
 Coeff-En:   0.478D+00 0.522D+00
 Coeff:      0.347D+00 0.653D+00
 Gap=     0.176 Goal=   None    Shift=    0.000
 RMSDP=1.18D-03 MaxDP=6.68D-02 DE=-2.65D-02 OVMax= 2.17D-01

 Cycle   3  Pass 0  IDiag  1:
 E= -657.394159910721     Delta-E=       -0.394193055086 Rises=F Damp=F
 DIIS: error= 6.43D-03 at cycle   3 NSaved=   3.
 NSaved= 3 IEnMin= 3 EnMin= -657.394159910721     IErMin= 3 ErrMin= 6.43D-03
 ErrMax= 6.43D-03  0.00D+00 EMaxC= 1.00D-01 BMatC= 2.83D-02 BMatP= 1.67D-01
 IDIUse=3 WtCom= 9.36D-01 WtEn= 6.43D-02
 Coeff-Com:  0.146D+00 0.300D+00 0.554D+00
 Coeff-En:   0.000D+00 0.000D+00 0.100D+01
 Coeff:      0.136D+00 0.281D+00 0.583D+00
 Gap=     0.230 Goal=   None    Shift=    0.000
 RMSDP=7.78D-04 MaxDP=3.74D-02 DE=-3.94D-01 OVMax= 8.55D-02

 Cycle   4  Pass 0  IDiag  1:
 E= -657.403757736154     Delta-E=       -0.009597825433 Rises=F Damp=F
 DIIS: error= 4.52D-03 at cycle   4 NSaved=   4.
 NSaved= 4 IEnMin= 4 EnMin= -657.403757736154     IErMin= 4 ErrMin= 4.52D-03
 ErrMax= 4.52D-03  0.00D+00 EMaxC= 1.00D-01 BMatC= 1.92D-02 BMatP= 2.83D-02
 IDIUse=3 WtCom= 9.55D-01 WtEn= 4.52D-02
 Coeff-Com:  0.423D-01 0.706D-01 0.429D+00 0.458D+00
 Coeff-En:   0.000D+00 0.000D+00 0.403D+00 0.597D+00
 Coeff:      0.404D-01 0.674D-01 0.428D+00 0.464D+00
 Gap=     0.208 Goal=   None    Shift=    0.000
 RMSDP=3.79D-04 MaxDP=2.30D-02 DE=-9.60D-03 OVMax= 5.26D-02

 Cycle   5  Pass 0  IDiag  1:
 E= -657.417737282873     Delta-E=       -0.013979546719 Rises=F Damp=F
 DIIS: error= 2.26D-03 at cycle   5 NSaved=   5.
 NSaved= 5 IEnMin= 5 EnMin= -657.417737282873     IErMin= 5 ErrMin= 2.26D-03
 ErrMax= 2.26D-03  0.00D+00 EMaxC= 1.00D-01 BMatC= 1.61D-03 BMatP= 1.92D-02
 IDIUse=3 WtCom= 9.77D-01 WtEn= 2.26D-02
 Coeff-Com:  0.134D-01 0.139D-01 0.217D+00 0.293D+00 0.462D+00
 Coeff-En:   0.000D+00 0.000D+00 0.000D+00 0.146D-01 0.985D+00
 Coeff:      0.131D-01 0.136D-01 0.212D+00 0.287D+00 0.474D+00
 Gap=     0.210 Goal=   None    Shift=    0.000
 RMSDP=1.36D-04 MaxDP=8.78D-03 DE=-1.40D-02 OVMax= 1.52D-02

 Cycle   6  Pass 0  IDiag  1:
 E= -657.418652872492     Delta-E=       -0.000915589619 Rises=F Damp=F
 DIIS: error= 1.14D-03 at cycle   6 NSaved=   6.
 NSaved= 6 IEnMin= 6 EnMin= -657.418652872492     IErMin= 6 ErrMin= 1.14D-03
 ErrMax= 1.14D-03  0.00D+00 EMaxC= 1.00D-01 BMatC= 4.85D-04 BMatP= 1.61D-03
 IDIUse=3 WtCom= 9.89D-01 WtEn= 1.14D-02
 Coeff-Com:  0.279D-02-0.155D-02 0.868D-01 0.133D+00 0.358D+00 0.422D+00
 Coeff-En:   0.000D+00 0.000D+00 0.000D+00 0.000D+00 0.264D+00 0.736D+00
 Coeff:      0.276D-02-0.153D-02 0.858D-01 0.131D+00 0.356D+00 0.425D+00
 Gap=     0.210 Goal=   None    Shift=    0.000
 RMSDP=5.53D-05 MaxDP=3.51D-03 DE=-9.16D-04 OVMax= 6.09D-03

 Cycle   7  Pass 0  IDiag  1:
 E= -657.419014950033     Delta-E=       -0.000362077541 Rises=F Damp=F
 DIIS: error= 1.10D-04 at cycle   7 NSaved=   7.
 NSaved= 7 IEnMin= 7 EnMin= -657.419014950033     IErMin= 7 ErrMin= 1.10D-04
 ErrMax= 1.10D-04  0.00D+00 EMaxC= 1.00D-01 BMatC= 1.69D-05 BMatP= 4.85D-04
 IDIUse=3 WtCom= 9.99D-01 WtEn= 1.10D-03
 Coeff-Com:  0.307D-03-0.198D-02 0.296D-01 0.464D-01 0.157D+00 0.238D+00
 Coeff-Com:  0.531D+00
 Coeff-En:   0.000D+00 0.000D+00 0.000D+00 0.000D+00 0.000D+00 0.000D+00
 Coeff-En:   0.100D+01
 Coeff:      0.306D-03-0.197D-02 0.295D-01 0.464D-01 0.157D+00 0.238D+00
 Coeff:      0.531D+00
 Gap=     0.210 Goal=   None    Shift=    0.000
 RMSDP=1.04D-05 MaxDP=6.40D-04 DE=-3.62D-04 OVMax= 8.78D-04

 Cycle   8  Pass 0  IDiag  1:
 E= -657.419027003843     Delta-E=       -0.000012053810 Rises=F Damp=F
 DIIS: error= 3.68D-05 at cycle   8 NSaved=   8.
 NSaved= 8 IEnMin= 8 EnMin= -657.419027003843     IErMin= 8 ErrMin= 3.68D-05
 ErrMax= 3.68D-05  0.00D+00 EMaxC= 1.00D-01 BMatC= 1.39D-06 BMatP= 1.69D-05
 IDIUse=1 WtCom= 1.00D+00 WtEn= 0.00D+00
 Coeff-Com: -0.130D-03-0.104D-02 0.813D-02 0.126D-01 0.544D-01 0.949D-01
 Coeff-Com:  0.287D+00 0.544D+00
 Coeff:     -0.130D-03-0.104D-02 0.813D-02 0.126D-01 0.544D-01 0.949D-01
 Coeff:      0.287D+00 0.544D+00
 Gap=     0.210 Goal=   None    Shift=    0.000
 RMSDP=4.26D-06 MaxDP=2.54D-04 DE=-1.21D-05 OVMax= 3.78D-04

 Initial convergence to 1.0D-05 achieved.  Increase integral accuracy.
 Cycle   9  Pass 1  IDiag  1:
 E= -657.419075819628     Delta-E=       -0.000048815785 Rises=F Damp=F
 DIIS: error= 1.38D-05 at cycle   1 NSaved=   1.
 NSaved= 1 IEnMin= 1 EnMin= -657.419075819628     IErMin= 1 ErrMin= 1.38D-05
 ErrMax= 1.38D-05  0.00D+00 EMaxC= 1.00D-01 BMatC= 4.62D-07 BMatP= 4.62D-07
 IDIUse=1 WtCom= 1.00D+00 WtEn= 0.00D+00
 Coeff-Com:  0.100D+01
 Coeff:      0.100D+01
 Gap=     0.210 Goal=   None    Shift=    0.000
 RMSDP=4.26D-06 MaxDP=2.54D-04 DE=-4.88D-05 OVMax= 5.18D-04

 Cycle  10  Pass 1  IDiag  1:
 E= -657.419074887052     Delta-E=        0.000000932576 Rises=F Damp=F
 DIIS: error= 4.06D-05 at cycle   2 NSaved=   2.
 NSaved= 2 IEnMin= 1 EnMin= -657.419075819628     IErMin= 1 ErrMin= 1.38D-05
 ErrMax= 4.06D-05  0.00D+00 EMaxC= 1.00D-01 BMatC= 1.71D-06 BMatP= 4.62D-07
 IDIUse=1 WtCom= 1.00D+00 WtEn= 0.00D+00
 Coeff-Com:  0.674D+00 0.326D+00
 Coeff:      0.674D+00 0.326D+00
 Gap=     0.210 Goal=   None    Shift=    0.000
 RMSDP=3.46D-06 MaxDP=2.68D-04 DE= 9.33D-07 OVMax= 4.72D-04

 Cycle  11  Pass 1  IDiag  1:
 E= -657.419076146577     Delta-E=       -0.000001259525 Rises=F Damp=F
 DIIS: error= 1.18D-05 at cycle   3 NSaved=   3.
 NSaved= 3 IEnMin= 3 EnMin= -657.419076146577     IErMin= 3 ErrMin= 1.18D-05
 ErrMax= 1.18D-05  0.00D+00 EMaxC= 1.00D-01 BMatC= 5.42D-08 BMatP= 4.62D-07
 IDIUse=1 WtCom= 1.00D+00 WtEn= 0.00D+00
 Coeff-Com:  0.171D+00 0.163D+00 0.666D+00
 Coeff:      0.171D+00 0.163D+00 0.666D+00
 Gap=     0.210 Goal=   None    Shift=    0.000
 RMSDP=9.67D-07 MaxDP=8.14D-05 DE=-1.26D-06 OVMax= 1.71D-04

 Cycle  12  Pass 1  IDiag  1:
 E= -657.419076155223     Delta-E=       -0.000000008646 Rises=F Damp=F
 DIIS: error= 9.09D-06 at cycle   4 NSaved=   4.
 NSaved= 4 IEnMin= 4 EnMin= -657.419076155223     IErMin= 4 ErrMin= 9.09D-06
 ErrMax= 9.09D-06  0.00D+00 EMaxC= 1.00D-01 BMatC= 4.32D-08 BMatP= 5.42D-08
 IDIUse=1 WtCom= 1.00D+00 WtEn= 0.00D+00
 Coeff-Com: -0.230D-02 0.611D-01 0.525D+00 0.416D+00
 Coeff:     -0.230D-02 0.611D-01 0.525D+00 0.416D+00
 Gap=     0.210 Goal=   None    Shift=    0.000
 RMSDP=5.51D-07 MaxDP=4.48D-05 DE=-8.65D-09 OVMax= 8.25D-05

 Cycle  13  Pass 1  IDiag  1:
 E= -657.419076187340     Delta-E=       -0.000000032117 Rises=F Damp=F
 DIIS: error= 1.06D-06 at cycle   5 NSaved=   5.
 NSaved= 5 IEnMin= 5 EnMin= -657.419076187340     IErMin= 5 ErrMin= 1.06D-06
 ErrMax= 1.06D-06  0.00D+00 EMaxC= 1.00D-01 BMatC= 1.61D-09 BMatP= 4.32D-08
 IDIUse=1 WtCom= 1.00D+00 WtEn= 0.00D+00
 Coeff-Com: -0.107D-01 0.284D-01 0.283D+00 0.259D+00 0.440D+00
 Coeff:     -0.107D-01 0.284D-01 0.283D+00 0.259D+00 0.440D+00
 Gap=     0.210 Goal=   None    Shift=    0.000
 RMSDP=9.75D-08 MaxDP=5.50D-06 DE=-3.21D-08 OVMax= 9.29D-06

 Cycle  14  Pass 1  IDiag  1:
 E= -657.419076188534     Delta-E=       -0.000000001195 Rises=F Damp=F
 DIIS: error= 3.57D-07 at cycle   6 NSaved=   6.
 NSaved= 6 IEnMin= 6 EnMin= -657.419076188534     IErMin= 6 ErrMin= 3.57D-07
 ErrMax= 3.57D-07  0.00D+00 EMaxC= 1.00D-01 BMatC= 7.23D-11 BMatP= 1.61D-09
 IDIUse=1 WtCom= 1.00D+00 WtEn= 0.00D+00
 Coeff-Com: -0.581D-02 0.122D-01 0.126D+00 0.120D+00 0.247D+00 0.500D+00
 Coeff:     -0.581D-02 0.122D-01 0.126D+00 0.120D+00 0.247D+00 0.500D+00
 Gap=     0.210 Goal=   None    Shift=    0.000
 RMSDP=2.19D-08 MaxDP=1.14D-06 DE=-1.19D-09 OVMax= 1.46D-06

 Cycle  15  Pass 1  IDiag  1:
 E= -657.419076188606     Delta-E=       -0.000000000072 Rises=F Damp=F
 DIIS: error= 8.13D-08 at cycle   7 NSaved=   7.
 NSaved= 7 IEnMin= 7 EnMin= -657.419076188606     IErMin= 7 ErrMin= 8.13D-08
 ErrMax= 8.13D-08  0.00D+00 EMaxC= 1.00D-01 BMatC= 6.50D-12 BMatP= 7.23D-11
 IDIUse=1 WtCom= 1.00D+00 WtEn= 0.00D+00
 Coeff-Com: -0.165D-02 0.268D-02 0.286D-01 0.295D-01 0.722D-01 0.258D+00
 Coeff-Com:  0.610D+00
 Coeff:     -0.165D-02 0.268D-02 0.286D-01 0.295D-01 0.722D-01 0.258D+00
 Coeff:      0.610D+00
 Gap=     0.210 Goal=   None    Shift=    0.000
 RMSDP=9.88D-09 MaxDP=6.97D-07 DE=-7.19D-11 OVMax= 1.36D-06

 SCF Done:  E(RB3LYP) =  -657.419076189     A.U. after   15 cycles
            NFock= 15  Conv=0.99D-08     -V/T= 2.0049
 KE= 6.541895800665D+02 PE=-2.847107159840D+03 EE= 8.828756284910D+02
 Leave Link  502 at Thu Aug 26 01:51:41 2021, MaxMem= 24159191040 cpu:       278.5
 (Enter /public/home/users/caep010/software/Gaussian09/g09/l801.exe)
 DoSCS=F DFT=T ScalE2(SS,OS)=  1.000000  1.000000
 Range of M.O.s used for correlation:     1   333
 NBasis=   333 NAE=    42 NBE=    42 NFC=     0 NFV=     0
 NROrb=    333 NOA=    42 NOB=    42 NVA=   291 NVB=   291

 **** Warning!!: The largest alpha MO coefficient is  0.47450656D+02

 Leave Link  801 at Thu Aug 26 01:51:41 2021, MaxMem= 24159191040 cpu:         0.6
 (Enter /public/home/users/caep010/software/Gaussian09/g09/l1101.exe)
 Using compressed storage, NAtomX=    16.
 Will process     17 centers per pass.
 Leave Link 1101 at Thu Aug 26 01:51:43 2021, MaxMem= 24159191040 cpu:        30.5
 (Enter /public/home/users/caep010/software/Gaussian09/g09/l1102.exe)
 Symmetrizing basis deriv contribution to polar:
 IMax=3 JMax=2 DiffMx= 0.00D+00
 Leave Link 1102 at Thu Aug 26 01:51:43 2021, MaxMem= 24159191040 cpu:         1.2
 (Enter /public/home/users/caep010/software/Gaussian09/g09/l1110.exe)
 Forming Gx(P) for the SCF density, NAtomX=    16.
 Integral derivatives from FoFJK, PRISM(SPDF).
 Do as many integral derivatives as possible in FoFJK.
 G2DrvN: MDV=   24159190808.
 G2DrvN: will do    17 centers at a time, making    1 passes.
 Calling FoFCou, ICntrl=  3107 FMM=F I1Cent=   0 AccDes= 0.00D+00.
 FoFJK:  IHMeth= 1 ICntrl=    3107 DoSepK=F KAlg= 0 I1Cent=   0 FoldK=F
 IRaf=         0 NMat=   1 IRICut=       1 DoRegI=T DoRafI=F ISym2E= 0.
 FoFCou: FMM=F IPFlag=           0 FMFlag=      100000 FMFlg1=           0
         NFxFlg=           0 DoJE=F BraDBF=F KetDBF=F FulRan=T
         wScrn=  0.000000 ICntrl=    3107 IOpCl=  0 I1Cent=           0 NGrid=           0
         NMat0=    1 NMatS0=      1 NMatT0=    0 NMatD0=    1 NMtDS0=    0 NMtDT0=    0
 Symmetry not used in FoFCou.
 End of G2Drv F.D. properties file   721 does not exist.
 End of G2Drv F.D. properties file   722 does not exist.
 End of G2Drv F.D. properties file   788 does not exist.
 Leave Link 1110 at Thu Aug 26 01:52:00 2021, MaxMem= 24159191040 cpu:       516.4
 (Enter /public/home/users/caep010/software/Gaussian09/g09/l1002.exe)
 Minotr:  Closed shell wavefunction.
          IDoAtm=1111111111111111
          Direct CPHF calculation.
          Differentiating once with respect to nuclear coordinates.
          Requested convergence is 1.0D-08 RMS, and 1.0D-07 maximum.
          Secondary convergence is 1.0D-12 RMS, and 1.0D-12 maximum.
          NewPWx=T KeepS1=F KeepF1=F KeepIn=T MapXYZ=F SortEE=F KeepMc=T.
          MDV=   24159190543 using IRadAn=       2.
 Generate precomputed XC quadrature information.
 Keep R1 ints in memory in canonical form, NReq=1571040703.
 FoFCou: FMM=F IPFlag=           0 FMFlag=           0 FMFlg1=           0
         NFxFlg=           0 DoJE=F BraDBF=F KetDBF=F FulRan=T
         wScrn=  0.000000 ICntrl=     600 IOpCl=  0 I1Cent=           0 NGrid=           0
         NMat0=    1 NMatS0=  55611 NMatT0=    0 NMatD0=    1 NMtDS0=    0 NMtDT0=    0
 Symmetry not used in FoFCou.
          Solving linear equations simultaneously, MaxMat=       0.
          There are    51 degrees of freedom in the 1st order CPHF.  IDoFFX=6 NUNeed=     0.
     45 vectors produced by pass  0 Test12= 2.40D-14 1.96D-09 XBig12= 2.70D-01 1.95D-01.
 AX will form    45 AO Fock derivatives at one time.
     45 vectors produced by pass  1 Test12= 2.40D-14 1.96D-09 XBig12= 5.04D-02 1.14D-01.
     45 vectors produced by pass  2 Test12= 2.40D-14 1.96D-09 XBig12= 1.12D-03 7.57D-03.
     45 vectors produced by pass  3 Test12= 2.40D-14 1.96D-09 XBig12= 1.25D-05 6.11D-04.
     45 vectors produced by pass  4 Test12= 2.40D-14 1.96D-09 XBig12= 5.58D-08 3.45D-05.
     45 vectors produced by pass  5 Test12= 2.40D-14 1.96D-09 XBig12= 1.18D-10 1.16D-06.
     27 vectors produced by pass  6 Test12= 2.40D-14 1.96D-09 XBig12= 1.51D-13 3.99D-08.
 InvSVY:  IOpt=1 It=  1 EMax= 5.55D-16
 Solved reduced A of dimension   297 with    51 vectors.
 End of Minotr F.D. properties file   721 does not exist.
 End of Minotr F.D. properties file   722 does not exist.
 End of Minotr F.D. properties file   788 does not exist.
 Leave Link 1002 at Thu Aug 26 01:52:27 2021, MaxMem= 24159191040 cpu:       875.1
 (Enter /public/home/users/caep010/software/Gaussian09/g09/l601.exe)
 Copying SCF densities to generalized density rwf, IOpCl= 0 IROHF=0.

 **********************************************************************

            Population analysis using the SCF density.

 **********************************************************************

 Orbital symmetries:
       Occupied  (A) (A) (A) (A) (A) (A) (A) (A) (A) (A) (A) (A)
                 (A) (A) (A) (A) (A) (A) (A) (A) (A) (A) (A) (A)
                 (A) (A) (A) (A) (A) (A) (A) (A) (A) (A) (A) (A)
                 (A) (A) (A) (A) (A) (A)
       Virtual   (A) (A) (A) (A) (A) (A) (A) (A) (A) (A) (A) (A)
                 (A) (A) (A) (A) (A) (A) (A) (A) (A) (A) (A) (A)
                 (A) (A) (A) (A) (A) (A) (A) (A) (A) (A) (A) (A)
                 (A) (A) (A) (A) (A) (A) (A) (A) (A) (A) (A) (A)
                 (A) (A) (A) (A) (A) (A) (A) (A) (A) (A) (A) (A)
                 (A) (A) (A) (A) (A) (A) (A) (A) (A) (A) (A) (A)
                 (A) (A) (A) (A) (A) (A) (A) (A) (A) (A) (A) (A)
                 (A) (A) (A) (A) (A) (A) (A) (A) (A) (A) (A) (A)
                 (A) (A) (A) (A) (A) (A) (A) (A) (A) (A) (A) (A)
                 (A) (A) (A) (A) (A) (A) (A) (A) (A) (A) (A) (A)
                 (A) (A) (A) (A) (A) (A) (A) (A) (A) (A) (A) (A)
                 (A) (A) (A) (A) (A) (A) (A) (A) (A) (A) (A) (A)
                 (A) (A) (A) (A) (A) (A) (A) (A) (A) (A) (A) (A)
                 (A) (A) (A) (A) (A) (A) (A) (A) (A) (A) (A) (A)
                 (A) (A) (A) (A) (A) (A) (A) (A) (A) (A) (A) (A)
                 (A) (A) (A) (A) (A) (A) (A) (A) (A) (A) (A) (A)
                 (A) (A) (A) (A) (A) (A) (A) (A) (A) (A) (A) (A)
                 (A) (A) (A) (A) (A) (A) (A) (A) (A) (A) (A) (A)
                 (A) (A) (A) (A) (A) (A) (A) (A) (A) (A) (A) (A)
                 (A) (A) (A) (A) (A) (A) (A) (A) (A) (A) (A) (A)
                 (A) (A) (A) (A) (A) (A) (A) (A) (A) (A) (A) (A)
                 (A) (A) (A) (A) (A) (A) (A) (A) (A) (A) (A) (A)
                 (A) (A) (A) (A) (A) (A) (A) (A) (A) (A) (A) (A)
                 (A) (A) (A) (A) (A) (A) (A) (A) (A) (A) (A) (A)
                 (A) (A) (A)
 The electronic state is 1-A.
 Alpha  occ. eigenvalues --  -19.25108 -19.22603 -19.21632 -19.17244 -19.17191
 Alpha  occ. eigenvalues --  -14.64414 -14.59286 -14.41774 -10.28890 -10.25122
 Alpha  occ. eigenvalues --  -10.24898  -1.30428  -1.23928  -1.12152  -1.10078
 Alpha  occ. eigenvalues --   -1.05355  -1.00977  -0.84983  -0.76707  -0.73252
 Alpha  occ. eigenvalues --   -0.66164  -0.61650  -0.60579  -0.59572  -0.57188
 Alpha  occ. eigenvalues --   -0.56809  -0.55936  -0.52757  -0.51139  -0.49074
 Alpha  occ. eigenvalues --   -0.47757  -0.46284  -0.44032  -0.41021  -0.36739
 Alpha  occ. eigenvalues --   -0.36024  -0.35185  -0.33555  -0.32376  -0.31061
 Alpha  occ. eigenvalues --   -0.29801  -0.29143
 Alpha virt. eigenvalues --   -0.08126  -0.05438   0.03170   0.05453   0.08098
 Alpha virt. eigenvalues --    0.08623   0.10546   0.14110   0.14945   0.17369
 Alpha virt. eigenvalues --    0.17803   0.18059   0.19028   0.23313   0.24097
 Alpha virt. eigenvalues --    0.26764   0.32640   0.34903   0.38326   0.39358
 Alpha virt. eigenvalues --    0.41784   0.43238   0.43493   0.45378   0.47855
 Alpha virt. eigenvalues --    0.49739   0.51181   0.53629   0.54266   0.55225
 Alpha virt. eigenvalues --    0.58004   0.59540   0.62110   0.63445   0.65547
 Alpha virt. eigenvalues --    0.66203   0.67465   0.69428   0.70311   0.70869
 Alpha virt. eigenvalues --    0.72597   0.74477   0.75332   0.76199   0.77146
 Alpha virt. eigenvalues --    0.78116   0.78770   0.79979   0.81291   0.82860
 Alpha virt. eigenvalues --    0.84382   0.85224   0.86810   0.88501   0.91714
 Alpha virt. eigenvalues --    0.92020   0.93386   0.93957   0.94645   0.96212
 Alpha virt. eigenvalues --    0.96611   0.98496   0.99449   1.01476   1.03641
 Alpha virt. eigenvalues --    1.05802   1.08065   1.08391   1.10897   1.11871
 Alpha virt. eigenvalues --    1.13387   1.14887   1.16983   1.18779   1.20200
 Alpha virt. eigenvalues --    1.21880   1.25978   1.26883   1.29108   1.32249
 Alpha virt. eigenvalues --    1.32568   1.33407   1.35729   1.38257   1.40234
 Alpha virt. eigenvalues --    1.41520   1.42928   1.46257   1.47855   1.48626
 Alpha virt. eigenvalues --    1.50290   1.52854   1.54540   1.56041   1.57100
 Alpha virt. eigenvalues --    1.59736   1.61196   1.62790   1.63017   1.64037
 Alpha virt. eigenvalues --    1.64630   1.67252   1.70729   1.71037   1.74445
 Alpha virt. eigenvalues --    1.76845   1.80787   1.82132   1.86469   1.88005
 Alpha virt. eigenvalues --    1.91256   1.93561   1.97055   1.99142   2.03211
 Alpha virt. eigenvalues --    2.07285   2.10576   2.19151   2.19748   2.22188
 Alpha virt. eigenvalues --    2.23631   2.28165   2.31490   2.42601   2.44615
 Alpha virt. eigenvalues --    2.50701   2.53929   2.56248   2.59551   2.69071
 Alpha virt. eigenvalues --    2.76747   2.81274   2.89111   2.94734   2.98911
 Alpha virt. eigenvalues --    3.04380   3.07438   3.09447   3.12344   3.14987
 Alpha virt. eigenvalues --    3.16760   3.18945   3.21807   3.26782   3.31706
 Alpha virt. eigenvalues --    3.33847   3.35508   3.37463   3.41313   3.41409
 Alpha virt. eigenvalues --    3.44510   3.46681   3.47744   3.50650   3.52238
 Alpha virt. eigenvalues --    3.53327   3.55463   3.55964   3.57291   3.60473
 Alpha virt. eigenvalues --    3.61369   3.64455   3.65421   3.68933   3.72341
 Alpha virt. eigenvalues --    3.76067   3.80152   3.85869   3.93969   3.95877
 Alpha virt. eigenvalues --    3.96919   3.98714   4.00083   4.01147   4.03067
 Alpha virt. eigenvalues --    4.05443   4.07374   4.10491   4.11622   4.12451
 Alpha virt. eigenvalues --    4.14300   4.14898   4.19849   4.20859   4.23061
 Alpha virt. eigenvalues --    4.25119   4.26499   4.28230   4.29184   4.30774
 Alpha virt. eigenvalues --    4.32104   4.32281   4.34852   4.37246   4.38994
 Alpha virt. eigenvalues --    4.40833   4.42985   4.45630   4.47245   4.48663
 Alpha virt. eigenvalues --    4.50151   4.52121   4.52847   4.55774   4.58950
 Alpha virt. eigenvalues --    4.60966   4.63663   4.66571   4.67327   4.68775
 Alpha virt. eigenvalues --    4.70729   4.71947   4.74652   4.78516   4.83110
 Alpha virt. eigenvalues --    4.85250   4.85676   4.86714   4.89076   4.89865
 Alpha virt. eigenvalues --    4.91778   4.96574   4.97732   4.97941   4.98527
 Alpha virt. eigenvalues --    5.01334   5.02759   5.03076   5.03416   5.04658
 Alpha virt. eigenvalues --    5.06805   5.07763   5.08267   5.09544   5.11750
 Alpha virt. eigenvalues --    5.13943   5.16145   5.18382   5.27014   5.31550
 Alpha virt. eigenvalues --    5.32292   5.33263   5.39230   5.44914   5.45310
 Alpha virt. eigenvalues --    5.48994   5.50669   5.51782   5.53398   5.57064
 Alpha virt. eigenvalues --    5.61959   5.62934   5.68144   5.70220   5.78905
 Alpha virt. eigenvalues --    5.81667   5.82273   5.93152   5.98462   6.04036
 Alpha virt. eigenvalues --    6.08611   6.12923   6.14239   6.18315   6.22619
 Alpha virt. eigenvalues --    6.23032   6.23981   6.29724   6.42038   6.50224
 Alpha virt. eigenvalues --    6.70000   6.77549   6.81127   6.85932   6.98537
 Alpha virt. eigenvalues --    7.01954   7.41560   8.96178   9.66799  11.18400
 Alpha virt. eigenvalues --   11.30634  11.39327  11.40565  11.94301  12.50515
 Alpha virt. eigenvalues --   13.06358  13.06466  13.11310  13.13540  13.68293
 Alpha virt. eigenvalues --   20.07015
          Condensed to atoms (all electrons):
               1          2          3          4          5          6
     1  N    6.521312   0.325885   0.338579  -0.130136  -0.127554  -0.065221
     2  C    0.325885   4.882672  -0.039410   0.011176   0.005040   0.344215
     3  N    0.338579  -0.039410   5.035800   0.570665   0.574538   0.004203
     4  O   -0.130136   0.011176   0.570665   8.012098  -0.083418   0.001331
     5  O   -0.127554   0.005040   0.574538  -0.083418   8.007139   0.000955
     6  C   -0.065221   0.344215   0.004203   0.001331   0.000955   4.703780
     7  O   -0.000167  -0.009207   0.000067  -0.000001  -0.000002   0.259480
     8  H    0.005320  -0.034451  -0.000037   0.000017   0.000007   0.381254
     9  N    0.000003   0.002088   0.000003   0.000000  -0.000000  -0.058346
    10  O    0.000004  -0.000145  -0.000000  -0.000000   0.000000   0.004895
    11  O    0.000266   0.000916  -0.000001   0.000000   0.000000   0.005172
    12  C    0.310580  -0.141390  -0.033504   0.004729   0.008921   0.364423
    13  H   -0.033973   0.008199   0.001285   0.000202   0.008707  -0.013760
    14  H   -0.033070   0.371361   0.000684   0.007180   0.000279  -0.017653
    15  H   -0.017478   0.378481   0.000214   0.000091  -0.000097  -0.018851
    16  H   -0.023743   0.006243   0.000113  -0.000076   0.000074  -0.017277
               7          8          9         10         11         12
     1  N   -0.000167   0.005320   0.000003   0.000004   0.000266   0.310580
     2  C   -0.009207  -0.034451   0.002088  -0.000145   0.000916  -0.141390
     3  N    0.000067  -0.000037   0.000003  -0.000000  -0.000001  -0.033504
     4  O   -0.000001   0.000017   0.000000  -0.000000   0.000000   0.004729
     5  O   -0.000002   0.000007  -0.000000   0.000000   0.000000   0.008921
     6  C    0.259480   0.381254  -0.058346   0.004895   0.005172   0.364423
     7  O    8.003029  -0.030250   0.317259  -0.095613  -0.104706  -0.021680
     8  H   -0.030250   0.606520  -0.001741   0.000015   0.011248  -0.050516
     9  N    0.317259  -0.001741   4.839509   0.621645   0.526511  -0.001741
    10  O   -0.095613   0.000015   0.621645   7.874034  -0.059799  -0.000129
    11  O   -0.104706   0.011248   0.526511  -0.059799   7.959623   0.006558
    12  C   -0.021680  -0.050516  -0.001741  -0.000129   0.006558   4.928705
    13  H    0.002194  -0.004213  -0.000075   0.000001  -0.000035   0.367950
    14  H    0.001933  -0.005132  -0.000060   0.000002   0.000021   0.007741
    15  H    0.001986   0.004273   0.000012  -0.000011   0.000022   0.006420
    16  H   -0.003061   0.004381   0.002207  -0.000185   0.000406   0.372108
              13         14         15         16
     1  N   -0.033973  -0.033070  -0.017478  -0.023743
     2  C    0.008199   0.371361   0.378481   0.006243
     3  N    0.001285   0.000684   0.000214   0.000113
     4  O    0.000202   0.007180   0.000091  -0.000076
     5  O    0.008707   0.000279  -0.000097   0.000074
     6  C   -0.013760  -0.017653  -0.018851  -0.017277
     7  O    0.002194   0.001933   0.001986  -0.003061
     8  H   -0.004213  -0.005132   0.004273   0.004381
     9  N   -0.000075  -0.000060   0.000012   0.002207
    10  O    0.000001   0.000002  -0.000011  -0.000185
    11  O   -0.000035   0.000021   0.000022   0.000406
    12  C    0.367950   0.007741   0.006420   0.372108
    13  H    0.560634   0.001348  -0.000741  -0.040850
    14  H    0.001348   0.572326  -0.046317  -0.000661
    15  H   -0.000741  -0.046317   0.547553  -0.000146
    16  H   -0.040850  -0.000661  -0.000146   0.550359
 Mulliken charges:
               1
     1  N   -0.070606
     2  C   -0.111672
     3  N    0.546801
     4  O   -0.393857
     5  O   -0.394588
     6  C    0.121399
     7  O   -0.321259
     8  H    0.113305
     9  N    0.752725
    10  O   -0.344714
    11  O   -0.346202
    12  C   -0.129174
    13  H    0.143127
    14  H    0.140019
    15  H    0.144589
    16  H    0.150109
 Sum of Mulliken charges =  -0.00000
 Mulliken charges with hydrogens summed into heavy atoms:
               1
     1  N   -0.070606
     2  C    0.172935
     3  N    0.546801
     4  O   -0.393857
     5  O   -0.394588
     6  C    0.234704
     7  O   -0.321259
     9  N    0.752725
    10  O   -0.344714
    11  O   -0.346202
    12  C    0.164062
 APT charges:
               1
     1  N   -0.080843
     2  C   -0.540964
     3  N   -1.146827
     4  O    0.548581
     5  O    0.406569
     6  C   -0.324555
     7  O   -0.187032
     8  H    0.380413
     9  N   -1.059743
    10  O    1.018465
    11  O    0.046657
    12  C   -0.564967
    13  H    0.385950
    14  H    0.403555
    15  H    0.377254
    16  H    0.337485
 Sum of APT charges =  -0.00000
 APT charges with hydrogens summed into heavy atoms:
               1
     1  N   -0.080843
     2  C    0.239846
     3  N   -1.146827
     4  O    0.548581
     5  O    0.406569
     6  C    0.055858
     7  O   -0.187032
     9  N   -1.059743
    10  O    1.018465
    11  O    0.046657
    12  C    0.158468
 Electronic spatial extent (au):  <R**2>=           2095.4619
 Charge=              0.0000 electrons
 Dipole moment (field-independent basis, Debye):
    X=             -1.8795    Y=             -0.7932    Z=              2.0386  Tot=              2.8840
 Quadrupole moment (field-independent basis, Debye-Ang):
   XX=            -85.3211   YY=            -61.5889   ZZ=            -57.5312
   XY=             -0.9058   XZ=             -0.3534   YZ=             -1.8275
 Traceless Quadrupole moment (field-independent basis, Debye-Ang):
   XX=            -17.1740   YY=              6.5582   ZZ=             10.6158
   XY=             -0.9058   XZ=             -0.3534   YZ=             -1.8275
 Octapole moment (field-independent basis, Debye-Ang**2):
  XXX=            -34.6622  YYY=             -3.9304  ZZZ=              0.5597  XYY=             -6.4615
  XXY=             -2.9234  XXZ=              8.9822  XZZ=              0.9610  YZZ=              0.2852
  YYZ=             -0.0883  XYZ=              6.0757
 Hexadecapole moment (field-independent basis, Debye-Ang**3):
 XXXX=          -2294.7949 YYYY=           -291.4353 ZZZZ=           -117.0621 XXXY=              4.5971
 XXXZ=            -23.1349 YYYX=             -4.7565 YYYZ=              2.7695 ZZZX=              0.5434
 ZZZY=             -0.2960 XXYY=           -418.0012 XXZZ=           -341.6851 YYZZ=            -67.1080
 XXYZ=             -7.7370 YYXZ=              6.0059 ZZXY=             -0.5379
 N-N= 6.526228750938D+02 E-N=-2.847107180706D+03  KE= 6.541895800665D+02
  Exact polarizability:   0.000   0.000   0.000   0.000   0.000   0.000
 Approx polarizability: 136.440  -0.409 133.012  12.880   9.047  82.518
 No NMR shielding tensors so no spin-rotation constants.
 Leave Link  601 at Thu Aug 26 01:52:28 2021, MaxMem= 24159191040 cpu:        15.4
 (Enter /public/home/users/caep010/software/Gaussian09/g09/l701.exe)
 Compute integral second derivatives.
 ... and contract with generalized density number  0.
 Leave Link  701 at Thu Aug 26 01:52:29 2021, MaxMem= 24159191040 cpu:        17.7
 (Enter /public/home/users/caep010/software/Gaussian09/g09/l702.exe)
 L702 exits ... SP integral derivatives will be done elsewhere.
 Leave Link  702 at Thu Aug 26 01:52:29 2021, MaxMem= 24159191040 cpu:         0.8
 (Enter /public/home/users/caep010/software/Gaussian09/g09/l703.exe)
 Compute integral second derivatives, UseDBF=F ICtDFT=           0.
 Integral derivatives from FoFJK, PRISM(SPDF).
 Calling FoFJK, ICntrl=    100147 FMM=F ISym2X=0 I1Cent= 0 IOpClX= 0 NMat=1 NMatS=1 NMatT=0.
 FoFJK:  IHMeth= 1 ICntrl=  100147 DoSepK=F KAlg= 0 I1Cent=   0 FoldK=F
 IRaf=         0 NMat=   1 IRICut=       1 DoRegI=T DoRafI=F ISym2E= 0.
 FoFCou: FMM=F IPFlag=           0 FMFlag=      100000 FMFlg1=         800
         NFxFlg=           0 DoJE=F BraDBF=F KetDBF=F FulRan=T
         wScrn=  0.000000 ICntrl=  100147 IOpCl=  0 I1Cent=           0 NGrid=           0
         NMat0=    1 NMatS0=      1 NMatT0=    0 NMatD0=    1 NMtDS0=    0 NMtDT0=    0
 Symmetry not used in FoFCou.
 Leave Link  703 at Thu Aug 26 01:53:01 2021, MaxMem= 24159191040 cpu:      1005.5
 (Enter /public/home/users/caep010/software/Gaussian09/g09/l716.exe)
 Dipole        =-7.39447377D-01-3.12077495D-01 8.02040499D-01
 Polarizability= 0.00000000D+00 0.00000000D+00 0.00000000D+00
                 0.00000000D+00 0.00000000D+00 0.00000000D+00
 ***** Axes restored to original set *****
 -------------------------------------------------------------------
 Center     Atomic                   Forces (Hartrees/Bohr)
 Number     Number              X              Y              Z
 -------------------------------------------------------------------
      1        7           0.004607286    0.000320241   -0.007248620
      2        6           0.020498961   -0.083488342    0.084961012
      3        7          -0.016188074    0.012806938    0.017065116
      4        8           0.008794142   -0.012268793    0.000662868
      5        8           0.005429705    0.001654190   -0.012414630
      6        6          -0.078749814   -0.040899071   -0.032969210
      7        8           0.002960972    0.002428387    0.009573523
      8        1           0.087086808    0.035363607    0.021083991
      9        7          -0.006717192   -0.008958082   -0.021728855
     10        8           0.001603221    0.003844785    0.008509625
     11        8           0.004731282    0.001485158    0.007954974
     12        6          -0.038828373    0.015201873   -0.088109658
     13        1           0.033784636    0.021569720    0.092252447
     14        1           0.019085549    0.088826635    0.028516444
     15        1          -0.043730386    0.002084026   -0.109113477
     16        1          -0.004368724   -0.039971272    0.001004450
 -------------------------------------------------------------------
 Cartesian Forces:  Max     0.109113477 RMS     0.040585223
 FormGI is forming the generalized inverse of G from B-inverse, IUseBI=4.
 Leave Link  716 at Thu Aug 26 01:53:01 2021, MaxMem= 24159191040 cpu:         1.1
 (Enter /public/home/users/caep010/software/Gaussian09/g09/l103.exe)

 GradGradGradGradGradGradGradGradGradGradGradGradGradGradGradGradGradGrad
 Berny optimization.
 Red2BG is reusing G-inverse.
 Internal  Forces:  Max     0.117488938 RMS     0.023088079
 Search for a local minimum.
 Step number   1 out of a maximum of   94
 All quantities printed in internal units (Hartrees-Bohrs-Radians)
 RMS Force = .23088D-01 SwitMx=.10000D-02 MixMth= 1
 Mixed Optimization -- RFO/linear search
 Second derivative matrix not updated -- analytic derivatives used.
 ITU=  0
     Eigenvalues ---    0.00183   0.00613   0.00839   0.01347   0.01885
     Eigenvalues ---    0.01948   0.02780   0.04283   0.04513   0.04732
     Eigenvalues ---    0.05432   0.05933   0.05977   0.06146   0.06845
     Eigenvalues ---    0.07870   0.09338   0.09902   0.11772   0.13400
     Eigenvalues ---    0.15617   0.19848   0.22713   0.24902   0.26221
     Eigenvalues ---    0.26542   0.28042   0.30019   0.30718   0.32950
     Eigenvalues ---    0.34492   0.41738   0.46627   0.48580   0.57385
     Eigenvalues ---    0.62550   0.63924   0.64559   0.66907   0.70050
     Eigenvalues ---    0.72054   0.84661
 RFO step:  Lambda=-6.51299838D-02 EMin= 1.83266794D-03
 Linear search not attempted -- first point.
 Maximum step size (   0.300) exceeded in Quadratic search.
    -- Step size scaled by   0.958
 Iteration  1 RMS(Cart)=  0.03328070 RMS(Int)=  0.00063619
 Iteration  2 RMS(Cart)=  0.00050542 RMS(Int)=  0.00007052
 Iteration  3 RMS(Cart)=  0.00000034 RMS(Int)=  0.00007052
 ITry= 1 IFail=0 DXMaxC= 1.43D-01 DCOld= 1.00D+10 DXMaxT= 3.00D-01 DXLimC= 3.00D+00 Rises=F
 Variable       Old X    -DE/DX   Delta X   Delta X   Delta X     New X
                                 (Linear)    (Quad)   (Total)
    R1        2.81079  -0.00076   0.00000  -0.01204  -0.01205   2.79873
    R2        2.56560   0.00562   0.00000   0.02652   0.02652   2.59212
    R3        2.81921  -0.00004   0.00000  -0.01309  -0.01313   2.80608
    R4        2.90624   0.00689   0.00000   0.01750   0.01754   2.92378
    R5        1.86231   0.09494   0.00000   0.13217   0.13217   1.99447
    R6        1.82456   0.11749   0.00000   0.14803   0.14803   1.97259
    R7        2.33671  -0.01429   0.00000  -0.02230  -0.02230   2.31441
    R8        2.33290  -0.01263   0.00000  -0.01927  -0.01927   2.31363
    R9        2.73411  -0.00264   0.00000  -0.01931  -0.01931   2.71480
   R10        1.85529   0.09623   0.00000   0.13112   0.13112   1.98641
   R11        2.90327   0.00734   0.00000   0.02158   0.02160   2.92487
   R12        2.68452   0.00179   0.00000   0.00520   0.00520   2.68972
   R13        2.27656  -0.00902   0.00000  -0.01442  -0.01442   2.26214
   R14        2.26964   0.00904   0.00000   0.01225   0.01225   2.28189
   R15        1.85285   0.10045   0.00000   0.13590   0.13590   1.98875
   R16        1.96104   0.03952   0.00000   0.07200   0.07200   2.03304
    A1        2.10525  -0.00110   0.00000  -0.00181  -0.00183   2.10342
    A2        1.64339   0.00284   0.00000   0.00862   0.00860   1.65199
    A3        2.14202  -0.00233   0.00000  -0.01392  -0.01391   2.12811
    A4        1.51999  -0.00003   0.00000   0.00278   0.00277   1.52276
    A5        1.95805  -0.00001   0.00000   0.00270   0.00253   1.96058
    A6        1.96643   0.00097   0.00000   0.01189   0.01186   1.97829
    A7        1.92748   0.00345   0.00000   0.02643   0.02640   1.95388
    A8        2.03067  -0.00040   0.00000  -0.00146  -0.00149   2.02918
    A9        2.00717  -0.00304   0.00000  -0.03170  -0.03163   1.97554
   A10        2.04064  -0.00354   0.00000  -0.01032  -0.01032   2.03032
   A11        2.04635  -0.00423   0.00000  -0.01302  -0.01302   2.03332
   A12        2.19555   0.00780   0.00000   0.02350   0.02350   2.21904
   A13        1.85649   0.00313   0.00000   0.01703   0.01701   1.87350
   A14        2.08732  -0.00192   0.00000  -0.01743  -0.01745   2.06988
   A15        1.57807  -0.00256   0.00000  -0.01446  -0.01443   1.56364
   A16        1.89974  -0.00013   0.00000   0.00629   0.00636   1.90610
   A17        1.99619  -0.00023   0.00000   0.00089   0.00095   1.99713
   A18        2.02742   0.00152   0.00000   0.00514   0.00485   2.03227
   A19        1.95172   0.00683   0.00000   0.01811   0.01811   1.96984
   A20        1.95138   0.00526   0.00000   0.01254   0.01252   1.96390
   A21        2.05438  -0.00420   0.00000  -0.01196  -0.01198   2.04240
   A22        2.27716  -0.00102   0.00000  -0.00033  -0.00035   2.27681
   A23        1.51824  -0.00042   0.00000   0.00176   0.00176   1.52000
   A24        1.94384   0.00075   0.00000   0.00999   0.00995   1.95379
   A25        1.91595   0.00383   0.00000   0.02989   0.02982   1.94578
   A26        2.02226  -0.00021   0.00000  -0.00475  -0.00483   2.01743
   A27        2.00783   0.00012   0.00000   0.00445   0.00416   2.01200
   A28        1.99721  -0.00277   0.00000  -0.02774  -0.02795   1.96927
    D1        2.46465  -0.00055   0.00000  -0.00682  -0.00684   2.45781
    D2        0.52897  -0.00428   0.00000  -0.03692  -0.03696   0.49202
    D3       -1.76932  -0.00085   0.00000  -0.00529  -0.00527  -1.77459
    D4        0.15562   0.00077   0.00000   0.00531   0.00530   0.16093
    D5       -1.78006  -0.00296   0.00000  -0.02479  -0.02481  -1.80487
    D6        2.20484   0.00047   0.00000   0.00684   0.00688   2.21171
    D7        0.56276  -0.00120   0.00000  -0.00389  -0.00390   0.55886
    D8       -2.61538  -0.00018   0.00000   0.00115   0.00114  -2.61424
    D9        2.63491  -0.00029   0.00000  -0.00656  -0.00655   2.62836
   D10       -0.54324   0.00073   0.00000  -0.00151  -0.00150  -0.54474
   D11       -0.15580  -0.00075   0.00000  -0.00510  -0.00509  -0.16089
   D12        1.88016  -0.00104   0.00000  -0.00814  -0.00820   1.87196
   D13       -2.17274  -0.00115   0.00000  -0.01390  -0.01398  -2.18673
   D14       -2.43924  -0.00033   0.00000  -0.00144  -0.00139  -2.44062
   D15       -0.40328  -0.00062   0.00000  -0.00448  -0.00450  -0.40778
   D16        1.82701  -0.00074   0.00000  -0.01024  -0.01028   1.81673
   D17        1.86711  -0.00094   0.00000  -0.00448  -0.00453   1.86258
   D18       -2.25808   0.00023   0.00000   0.00629   0.00611  -2.25197
   D19       -0.15069  -0.00032   0.00000  -0.00319  -0.00314  -0.15383
   D20       -2.45053  -0.00062   0.00000   0.00212   0.00220  -2.44833
   D21       -0.29253   0.00055   0.00000   0.01289   0.01284  -0.27970
   D22        1.81486   0.00000   0.00000   0.00341   0.00358   1.81844
   D23       -0.12115  -0.00195   0.00000  -0.01909  -0.01910  -0.14025
   D24        2.03684  -0.00078   0.00000  -0.00832  -0.00846   2.02838
   D25       -2.13895  -0.00133   0.00000  -0.01780  -0.01772  -2.15666
   D26       -3.07613  -0.00024   0.00000  -0.00444  -0.00440  -3.08053
   D27        0.93635   0.00009   0.00000   0.00135   0.00126   0.93761
   D28       -1.36346  -0.00171   0.00000  -0.01232  -0.01227  -1.37572
   D29        0.15025   0.00029   0.00000   0.00324   0.00320   0.15345
   D30       -1.81044  -0.00031   0.00000  -0.00816  -0.00812  -1.81856
   D31        2.07796   0.00435   0.00000   0.03779   0.03776   2.11572
   D32       -1.73859  -0.00193   0.00000  -0.00885  -0.00889  -1.74748
   D33        2.58391  -0.00252   0.00000  -0.02025  -0.02021   2.56370
   D34        0.18913   0.00214   0.00000   0.02569   0.02567   0.21480
   D35        2.30799  -0.00297   0.00000  -0.02392  -0.02399   2.28401
   D36        0.34731  -0.00356   0.00000  -0.03532  -0.03531   0.31200
   D37       -2.04748   0.00110   0.00000   0.01062   0.01058  -2.03690
   D38       -3.06799  -0.00034   0.00000  -0.00741  -0.00743  -3.07542
   D39        0.09558  -0.00197   0.00000  -0.01801  -0.01799   0.07759
   D40       -3.11602  -0.00186   0.00000  -0.01219  -0.01221  -3.12823
         Item               Value     Threshold  Converged?
 Maximum Force            0.117489     0.000450     NO 
 RMS     Force            0.023088     0.000300     NO 
 Maximum Displacement     0.142662     0.001800     NO 
 RMS     Displacement     0.033279     0.001200     NO 
 Predicted change in Energy=-3.572575D-02
 Lowest energy point so far.  Saving SCF results.
 GradGradGradGradGradGradGradGradGradGradGradGradGradGradGradGradGradGrad

 Leave Link  103 at Thu Aug 26 01:53:01 2021, MaxMem= 24159191040 cpu:         9.0
 (Enter /public/home/users/caep010/software/Gaussian09/g09/l202.exe)
                          Input orientation:                          
 ---------------------------------------------------------------------
 Center     Atomic      Atomic             Coordinates (Angstroms)
 Number     Number       Type             X           Y           Z
 ---------------------------------------------------------------------
      1          7           0        5.344751    1.980462    2.780709
      2          6           0        6.167245    2.733540    1.806125
      3          7           0        4.530124    2.642759    3.663474
      4          8           0        4.045955    3.696674    3.270014
      5          8           0        4.339581    2.099585    4.744036
      6          6           0        7.290607    1.703107    2.070847
      7          8           0        7.372787    0.852919    0.915737
      8          1           0        8.251451    2.056455    2.309318
      9          7           0        8.323383   -0.195555    1.067280
     10          8           0        8.439414   -0.856168    0.075760
     11          8           0        8.865917   -0.293128    2.141638
     12          6           0        6.462200    1.116853    3.239457
     13          1           0        6.790113    1.377743    4.204836
     14          1           0        6.423738    3.695516    2.156477
     15          1           0        5.764541    2.740664    0.843107
     16          1           0        6.216092    0.073372    3.149986
 ---------------------------------------------------------------------
                    Distance matrix (angstroms):
                    1          2          3          4          5
     1  N    0.000000
     2  C    1.481025   0.000000
     3  N    1.371688   2.477528   0.000000
     4  O    2.207188   2.751449   1.224732   0.000000
     5  O    2.208894   3.517609   1.224320   2.193092   0.000000
     6  C    2.089781   1.547195   3.322600   3.992503   4.001461
     7  O    2.976979   2.404758   4.339852   4.969646   5.040872
     8  H    2.945656   2.248458   4.003219   4.615133   4.607867
     9  N    4.067325   3.711392   5.402320   6.188529   5.887010
    10  O    4.994011   4.587256   6.355841   7.087603   6.880254
    11  O    4.239838   4.068922   5.452936   6.357971   5.743280
    12  C    1.484912   2.180624   2.498219   3.534778   2.781192
    13  H    2.116714   2.824883   2.645919   3.712377   2.610919
    14  H    2.120210   1.055430   2.639149   2.625609   3.685942
    15  H    2.123307   1.043851   3.080234   3.123680   4.202231
    16  H    2.128988   2.980746   3.115751   4.225189   3.188703
                    6          7          8          9         10
     6  C    0.000000
     7  O    1.436611   0.000000
     8  H    1.051163   2.040250   0.000000
     9  N    2.383001   1.423340   2.572817   0.000000
    10  O    3.442385   2.182711   3.675253   1.197073   0.000000
    11  O    2.543928   2.246262   2.434384   1.207522   2.183293
    12  C    1.547774   2.509683   2.224732   3.147185   4.220327
    13  H    2.215912   3.381290   2.487800   3.830202   4.975924
    14  H    2.174509   3.243531   2.459759   4.464912   5.395383
    15  H    2.216472   2.480991   2.966924   3.901194   4.547633
    16  H    2.230507   2.633914   2.963449   2.975007   3.906158
                   11         12         13         14         15
    11  O    0.000000
    12  C    2.995181   0.000000
    13  H    3.370098   1.052401   0.000000
    14  H    4.676937   2.797111   3.114816   0.000000
    15  H    4.528644   2.977581   3.769692   1.752491   0.000000
    16  H    2.858787   1.075838   1.773018   3.761663   3.555283
                   16
    16  H    0.000000
 Stoichiometry    C3H5N3O5
 Framework group  C1[X(C3H5N3O5)]
 Deg. of freedom    42
 Full point group                 C1      NOp   1
 RotChk:  IX=0 Diff= 7.59D-03
 Largest Abelian subgroup         C1      NOp   1
 Largest concise Abelian subgroup C1      NOp   1
                         Standard orientation:                         
 ---------------------------------------------------------------------
 Center     Atomic      Atomic             Coordinates (Angstroms)
 Number     Number       Type             X           Y           Z
 ---------------------------------------------------------------------
      1          7           0        1.306766   -0.105236   -0.317974
      2          6           0        0.678337   -1.237086    0.401352
      3          7           0        2.651256    0.137460   -0.195608
      4          8           0        3.367101   -0.842198   -0.028860
      5          8           0        3.007409    1.304256   -0.299063
      6          6           0       -0.528200   -0.304286    0.662059
      7          8           0       -1.598866   -0.740465   -0.190744
      8          1           0       -0.886588   -0.208244    1.645562
      9          7           0       -2.750075    0.091927   -0.102780
     10          8           0       -3.663128   -0.317296   -0.759935
     11          8           0       -2.662397    1.078224    0.588335
     12          6           0        0.287610    0.887865    0.106331
     13          1           0        0.665189    1.555532    0.826887
     14          1           0        1.189465   -1.479348    1.292414
     15          1           0        0.498527   -2.065596   -0.207635
     16          1           0       -0.149647    1.389479   -0.739019
 ---------------------------------------------------------------------
 Rotational constants (GHZ):      3.6149374      0.5222031      0.4841254
 Leave Link  202 at Thu Aug 26 01:53:02 2021, MaxMem= 24159191040 cpu:         0.3
 (Enter /public/home/users/caep010/software/Gaussian09/g09/l301.exe)
 Standard basis: GTBas3 (6D, 7F)
 Ernie: Thresh=  0.10000D-02 Tol=  0.10000D-05 Strict=F.
 There are   366 symmetry adapted cartesian basis functions of A   symmetry.
 There are   333 symmetry adapted basis functions of A   symmetry.
   333 basis functions,   519 primitive gaussians,   366 cartesian basis functions
    42 alpha electrons       42 beta electrons
       nuclear repulsion energy       650.3648737855 Hartrees.
 IExCor=  402 DFT=T Ex+Corr=B3LYP ExCW=0 ScaHFX=  0.200000
 ScaDFX=  0.800000  0.720000  1.000000  0.810000 ScalE2=  1.000000  1.000000
 IRadAn=      0 IRanWt=     -1 IRanGd=            0 ICorTp=0 IEmpDi=  4
 NAtoms=   16 NActive=   16 NUniq=   16 SFac= 1.00D+00 NAtFMM=   60 NAOKFM=F Big=F
 Integral buffers will be    131072 words long.
 Raffenetti 2 integral format.
 Two-electron integral symmetry is turned on.
 Leave Link  301 at Thu Aug 26 01:53:02 2021, MaxMem= 24159191040 cpu:         1.6
 (Enter /public/home/users/caep010/software/Gaussian09/g09/l302.exe)
 NPDir=0 NMtPBC=     1 NCelOv=     1 NCel=       1 NClECP=     1 NCelD=      1
         NCelK=      1 NCelE2=     1 NClLst=     1 CellRange=     0.0.
 One-electron integrals computed using PRISM.
 NBasis=   333 RedAO= T EigKep=  2.32D-04  NBF=   333
 NBsUse=   333 1.00D-06 EigRej= -1.00D+00 NBFU=   333
 Precomputing XC quadrature grid using
 IXCGrd= 4 IRadAn=           0 IRanWt=          -1 IRanGd=           0 AccXCQ= 0.00D+00.
 Generated NRdTot=       0 NPtTot=           0 NUsed=           0 NTot=          32
 NSgBfM=   365   365   365   365   365 MxSgAt=    16 MxSgA2=    16.
 Leave Link  302 at Thu Aug 26 01:53:02 2021, MaxMem= 24159191040 cpu:        16.6
 (Enter /public/home/users/caep010/software/Gaussian09/g09/l303.exe)
 DipDrv:  MaxL=1.
 Leave Link  303 at Thu Aug 26 01:53:02 2021, MaxMem= 24159191040 cpu:         0.9
 (Enter /public/home/users/caep010/software/Gaussian09/g09/l401.exe)
 Initial guess from the checkpoint file:  "/public/home/users/caep010/.cache/gau_scr/Gau-105087.chk"
 B after Tr=     0.000000   -0.000000    0.000000
         Rot=    0.999996   -0.002707   -0.000173   -0.000575 Ang=  -0.32 deg.
 Guess basis will be translated and rotated to current coordinates.
 JPrj=2 DoOrth=T DoCkMO=T.
 Generating alternative initial guess.
 ExpMin= 1.61D-01 ExpMax= 5.48D+03 ExpMxC= 8.25D+02 IAcc=1 IRadAn=         1 AccDes= 0.00D+00
 Harris functional with IExCor=  402 and IRadAn=       1 diagonalized for initial guess.
 HarFok:  IExCor=  402 AccDes= 0.00D+00 IRadAn=         1 IDoV= 1 UseB2=F ITyADJ=14
 ICtDFT=  3500011 ScaDFX=  1.000000  1.000000  1.000000  1.000000
 FoFCou: FMM=F IPFlag=           0 FMFlag=      100000 FMFlg1=           0
         NFxFlg=           0 DoJE=T BraDBF=F KetDBF=T FulRan=T
         wScrn=  0.000000 ICntrl=     500 IOpCl=  0 I1Cent=   200000004 NGrid=           0
         NMat0=    1 NMatS0=      1 NMatT0=    0 NMatD0=    1 NMtDS0=    0 NMtDT0=    0
 Petite list used in FoFCou.
 Harris En= -657.513942019444    
 Leave Link  401 at Thu Aug 26 01:53:03 2021, MaxMem= 24159191040 cpu:        20.9
 (Enter /public/home/users/caep010/software/Gaussian09/g09/l502.exe)
 Closed shell SCF:
 Using DIIS extrapolation, IDIIS=  1040.
 Integral symmetry usage will be decided dynamically.
 Keep R1 ints in memory in canonical form, NReq=1571469486.
 IVT=      434772 IEndB=      434772 NGot= 24159191040 MDV= 22612436803
 LenX= 22612436803 LenY= 22612302406
 Requested convergence on RMS density matrix=1.00D-08 within 128 cycles.
 Requested convergence on MAX density matrix=1.00D-06.
 Requested convergence on             energy=1.00D-06.
 No special actions if energy rises.
 FoFCou: FMM=F IPFlag=           0 FMFlag=           0 FMFlg1=           0
         NFxFlg=           0 DoJE=F BraDBF=F KetDBF=F FulRan=T
         wScrn=  0.000000 ICntrl=     600 IOpCl=  0 I1Cent=           0 NGrid=           0
         NMat0=    1 NMatS0=  55611 NMatT0=    0 NMatD0=    1 NMtDS0=    0 NMtDT0=    0
 Symmetry not used in FoFCou.
 Integral accuracy reduced to 1.0D-05 until final iterations.

 Cycle   1  Pass 0  IDiag  1:
 E= -657.452232404811    
 DIIS: error= 3.73D-03 at cycle   1 NSaved=   1.
 NSaved= 1 IEnMin= 1 EnMin= -657.452232404811     IErMin= 1 ErrMin= 3.73D-03
 ErrMax= 3.73D-03  0.00D+00 EMaxC= 1.00D-01 BMatC= 5.07D-03 BMatP= 5.07D-03
 IDIUse=3 WtCom= 9.63D-01 WtEn= 3.73D-02
 Coeff-Com:  0.100D+01
 Coeff-En:   0.100D+01
 Coeff:      0.100D+01
 Gap=     1.146 Goal=   None    Shift=    0.000
 GapD=    1.146 DampG=2.000 DampE=1.000 DampFc=2.0000 IDamp=-1.
 RMSDP=3.15D-04 MaxDP=1.60D-02              OVMax= 1.67D-02

 Cycle   2  Pass 0  IDiag  1:
 E= -657.456932476750     Delta-E=       -0.004700071939 Rises=F Damp=F
 DIIS: error= 1.47D-03 at cycle   2 NSaved=   2.
 NSaved= 2 IEnMin= 2 EnMin= -657.456932476750     IErMin= 2 ErrMin= 1.47D-03
 ErrMax= 1.47D-03  0.00D+00 EMaxC= 1.00D-01 BMatC= 9.36D-04 BMatP= 5.07D-03
 IDIUse=3 WtCom= 9.85D-01 WtEn= 1.47D-02
 Coeff-Com:  0.218D+00 0.782D+00
 Coeff-En:   0.000D+00 0.100D+01
 Coeff:      0.215D+00 0.785D+00
 Gap=     0.216 Goal=   None    Shift=    0.000
 RMSDP=1.65D-04 MaxDP=9.21D-03 DE=-4.70D-03 OVMax= 1.25D-02

 Cycle   3  Pass 0  IDiag  1:
 E= -657.456900173165     Delta-E=        0.000032303584 Rises=F Damp=F
 DIIS: error= 1.28D-03 at cycle   3 NSaved=   3.
 NSaved= 3 IEnMin= 2 EnMin= -657.456932476750     IErMin= 3 ErrMin= 1.28D-03
 ErrMax= 1.28D-03  0.00D+00 EMaxC= 1.00D-01 BMatC= 1.10D-03 BMatP= 9.36D-04
 IDIUse=3 WtCom= 2.19D-01 WtEn= 7.81D-01
 Coeff-Com:  0.295D-01 0.516D+00 0.455D+00
 Coeff-En:   0.000D+00 0.508D+00 0.492D+00
 Coeff:      0.646D-02 0.509D+00 0.484D+00
 Gap=     0.216 Goal=   None    Shift=    0.000
 RMSDP=1.05D-04 MaxDP=5.64D-03 DE= 3.23D-05 OVMax= 1.19D-02

 Cycle   4  Pass 0  IDiag  1:
 E= -657.457647714523     Delta-E=       -0.000747541358 Rises=F Damp=F
 DIIS: error= 8.01D-04 at cycle   4 NSaved=   4.
 NSaved= 4 IEnMin= 4 EnMin= -657.457647714523     IErMin= 4 ErrMin= 8.01D-04
 ErrMax= 8.01D-04  0.00D+00 EMaxC= 1.00D-01 BMatC= 2.40D-04 BMatP= 9.36D-04
 IDIUse=3 WtCom= 9.92D-01 WtEn= 8.01D-03
 Coeff-Com:  0.320D-02 0.301D+00 0.343D+00 0.353D+00
 Coeff-En:   0.000D+00 0.000D+00 0.154D+00 0.846D+00
 Coeff:      0.318D-02 0.298D+00 0.342D+00 0.357D+00
 Gap=     0.214 Goal=   None    Shift=    0.000
 RMSDP=4.02D-05 MaxDP=2.83D-03 DE=-7.48D-04 OVMax= 5.78D-03

 Cycle   5  Pass 0  IDiag  1:
 E= -657.457826374907     Delta-E=       -0.000178660384 Rises=F Damp=F
 DIIS: error= 1.33D-04 at cycle   5 NSaved=   5.
 NSaved= 5 IEnMin= 5 EnMin= -657.457826374907     IErMin= 5 ErrMin= 1.33D-04
 ErrMax= 1.33D-04  0.00D+00 EMaxC= 1.00D-01 BMatC= 1.06D-05 BMatP= 2.40D-04
 IDIUse=3 WtCom= 9.99D-01 WtEn= 1.33D-03
 Coeff-Com: -0.334D-02 0.877D-01 0.120D+00 0.206D+00 0.590D+00
 Coeff-En:   0.000D+00 0.000D+00 0.000D+00 0.621D-02 0.994D+00
 Coeff:     -0.333D-02 0.876D-01 0.120D+00 0.206D+00 0.591D+00
 Gap=     0.214 Goal=   None    Shift=    0.000
 RMSDP=9.53D-06 MaxDP=5.48D-04 DE=-1.79D-04 OVMax= 1.02D-03

 Initial convergence to 1.0D-05 achieved.  Increase integral accuracy.
 Cycle   6  Pass 1  IDiag  1:
 E= -657.457901165142     Delta-E=       -0.000074790235 Rises=F Damp=F
 DIIS: error= 3.93D-05 at cycle   1 NSaved=   1.
 NSaved= 1 IEnMin= 1 EnMin= -657.457901165142     IErMin= 1 ErrMin= 3.93D-05
 ErrMax= 3.93D-05  0.00D+00 EMaxC= 1.00D-01 BMatC= 2.26D-06 BMatP= 2.26D-06
 IDIUse=1 WtCom= 1.00D+00 WtEn= 0.00D+00
 Coeff-Com:  0.100D+01
 Coeff:      0.100D+01
 Gap=     0.214 Goal=   None    Shift=    0.000
 RMSDP=9.53D-06 MaxDP=5.48D-04 DE=-7.48D-05 OVMax= 1.07D-03

 Cycle   7  Pass 1  IDiag  1:
 E= -657.457894763852     Delta-E=        0.000006401291 Rises=F Damp=F
 DIIS: error= 9.33D-05 at cycle   2 NSaved=   2.
 NSaved= 2 IEnMin= 1 EnMin= -657.457901165142     IErMin= 1 ErrMin= 3.93D-05
 ErrMax= 9.33D-05  0.00D+00 EMaxC= 1.00D-01 BMatC= 1.07D-05 BMatP= 2.26D-06
 IDIUse=1 WtCom= 1.00D+00 WtEn= 0.00D+00
 Coeff-Com:  0.689D+00 0.311D+00
 Coeff:      0.689D+00 0.311D+00
 Gap=     0.214 Goal=   None    Shift=    0.000
 RMSDP=7.80D-06 MaxDP=4.88D-04 DE= 6.40D-06 OVMax= 7.36D-04

 Cycle   8  Pass 1  IDiag  1:
 E= -657.457902785257     Delta-E=       -0.000008021405 Rises=F Damp=F
 DIIS: error= 1.78D-05 at cycle   3 NSaved=   3.
 NSaved= 3 IEnMin= 3 EnMin= -657.457902785257     IErMin= 3 ErrMin= 1.78D-05
 ErrMax= 1.78D-05  0.00D+00 EMaxC= 1.00D-01 BMatC= 1.36D-07 BMatP= 2.26D-06
 IDIUse=1 WtCom= 1.00D+00 WtEn= 0.00D+00
 Coeff-Com:  0.345D+00 0.173D+00 0.481D+00
 Coeff:      0.345D+00 0.173D+00 0.481D+00
 Gap=     0.214 Goal=   None    Shift=    0.000
 RMSDP=1.33D-06 MaxDP=8.52D-05 DE=-8.02D-06 OVMax= 1.81D-04

 Cycle   9  Pass 1  IDiag  1:
 E= -657.457902844884     Delta-E=       -0.000000059627 Rises=F Damp=F
 DIIS: error= 1.17D-05 at cycle   4 NSaved=   4.
 NSaved= 4 IEnMin= 4 EnMin= -657.457902844884     IErMin= 4 ErrMin= 1.17D-05
 ErrMax= 1.17D-05  0.00D+00 EMaxC= 1.00D-01 BMatC= 5.97D-08 BMatP= 1.36D-07
 IDIUse=1 WtCom= 1.00D+00 WtEn= 0.00D+00
 Coeff-Com:  0.338D-01 0.308D-01 0.400D+00 0.536D+00
 Coeff:      0.338D-01 0.308D-01 0.400D+00 0.536D+00
 Gap=     0.214 Goal=   None    Shift=    0.000
 RMSDP=6.41D-07 MaxDP=3.79D-05 DE=-5.96D-08 OVMax= 7.51D-05

 Cycle  10  Pass 1  IDiag  1:
 E= -657.457902887784     Delta-E=       -0.000000042900 Rises=F Damp=F
 DIIS: error= 2.22D-06 at cycle   5 NSaved=   5.
 NSaved= 5 IEnMin= 5 EnMin= -657.457902887784     IErMin= 5 ErrMin= 2.22D-06
 ErrMax= 2.22D-06  0.00D+00 EMaxC= 1.00D-01 BMatC= 3.73D-09 BMatP= 5.97D-08
 IDIUse=1 WtCom= 1.00D+00 WtEn= 0.00D+00
 Coeff-Com: -0.981D-02 0.330D-02 0.197D+00 0.323D+00 0.487D+00
 Coeff:     -0.981D-02 0.330D-02 0.197D+00 0.323D+00 0.487D+00
[...]
   XY=             -0.7468   XZ=             -0.3791   YZ=             -2.1304
 Traceless Quadrupole moment (field-independent basis, Debye-Ang):
   XX=            -19.0124   YY=              7.8126   ZZ=             11.1998
   XY=             -0.7468   XZ=             -0.3791   YZ=             -2.1304
 Octapole moment (field-independent basis, Debye-Ang**2):
  XXX=            -33.7764  YYY=             -4.7019  ZZZ=              1.9637  XYY=             -6.3219
  XXY=             -5.6358  XXZ=              8.0320  XZZ=              1.3165  YZZ=              0.2212
  YYZ=             -0.0299  XYZ=              7.2119
 Hexadecapole moment (field-independent basis, Debye-Ang**3):
 XXXX=          -2440.7913 YYYY=           -301.3830 ZZZZ=           -127.5648 XXXY=              9.8879
 XXXZ=            -27.4816 YYYX=             -6.0236 YYYZ=              2.9588 ZZZX=              0.7966
 ZZZY=             -0.9949 XXYY=           -440.1170 XXZZ=           -362.4698 YYZZ=            -70.5665
 XXYZ=             -9.7133 YYXZ=              7.2694 ZZXY=             -0.3330
 N-N= 6.489281585793D+02 E-N=-2.836852647070D+03  KE= 6.530364479639D+02
 No NMR shielding tensors so no spin-rotation constants.
 Leave Link  601 at Thu Aug 26 05:02:26 2021, MaxMem= 24159191040 cpu:        40.8
 (Enter /public/home/users/caep010/software/Gaussian09/g09/l9999.exe)
 1\1\GINC-B0953\SP\RHF\GFHFB2\C3H5N3O5\ROOT\26-Aug-2021\0\\#P Geom=AllC
 heck Guess=TCheck SCRF=Check HF/GFHFB2 SCF=Tight\\VUBZUN\\0,1\N,0,5.31
 8671622,1.9752654393,2.7628923575\C,0,6.1554357988,2.7203084419,1.8026
 76033\N,0,4.5419250827,2.6572302815,3.6812437942\O,0,4.0988780905,3.73
 6313132,3.3162765132\O,0,4.351598983,2.0957449555,4.7493703869\C,0,7.2
 769909672,1.6847017632,2.0626131082\O,0,7.3902125541,0.8502536502,0.91
 07438992\H,0,8.2530510938,2.0762656933,2.3423871579\N,0,8.3452800305,-
 0.1982066681,1.0677935571\O,0,8.4461818987,-0.8774674352,0.0889955571\
 O,0,8.9113474092,-0.2655152594,2.1327760422\C,0,6.4203441573,1.1016331
 606,3.2161929254\H,0,6.7789021039,1.3539155287,4.2172362303\H,0,6.3900
 992476,3.7330948232,2.1399290654\H,0,5.7558412521,2.7448897708,0.78827
 97563\H,0,6.1931397086,0.0363727229,3.1593936161\\Version=ES64L-G09Rev
 E.01\State=1-A\HF=-654.122038\RMSD=8.493e-09\Dipole=0.9672143,0.380425
 6,-0.3486393\Quadrupole=-2.2467678,2.1518612,0.0949066,8.8611967,6.505
 9183,-5.3519948\PG=C01 [X(C3H5N3O5)]\\@


 ADAM SMITH SAID, "THE REAL PRICE OF ANYTHING IS THE TOIL AND TROUBLE
 OF ACQUIRING IT."  BUT IN ALL UNDERTAKINGS WITH NATURE WE SHOULD FIRST
 READ CAREFULLY THE SMALL PRINT IN THE CONTRACT. THIS MIGHT DISCLOSE
 THAT THE REAL PRICE IS TO BE PAID BY THOSE WHO INHERIT THE DEPLETION
 AND DESPOILATION THAT FOLLOWS.
                               -- E. R. HARRISON IN "COSMOLOGY" (1980)
 Diagonal vibrational polarizability:
        0.0000000       0.0000000       0.0000000

 Temperature=              298.150000 Pressure=                      1.000000
 E(ZPE)=                     0.107402 E(Thermal)=                    0.117041
 E(CCSD(T))=              -655.714166 E(Empiric)=                   -0.215357
 DE(Plus)=                  -0.049031 DE(2DF)=                      -0.465517
 E(Delta-G3XP)=             -0.766357 DE(HF)=                       -0.067385
 G4(0 K)=                 -657.170410 G4 Energy=                  -657.160771
 G4 Enthalpy=             -657.159827 G4 Free Energy=             -657.207002
 1\1\GINC-B0953\Mixed\G4\G4\C3H5N3O5\ROOT\26-Aug-2021\0\\#P Geom=AllChe
 ck Guess=TCheck SCRF=Check HF/GFHFB2 SCF=Tight\\VUBZUN\\0,1\N,0,5.3186
 71622,1.9752654393,2.7628923575\C,0,6.1554357988,2.7203084419,1.802676
 033\N,0,4.5419250827,2.6572302815,3.6812437942\O,0,4.0988780905,3.7363
 13132,3.3162765132\O,0,4.351598983,2.0957449555,4.7493703869\C,0,7.276
 9909672,1.6847017632,2.0626131082\O,0,7.3902125541,0.8502536502,0.9107
 438992\H,0,8.2530510938,2.0762656933,2.3423871579\N,0,8.3452800305,-0.
 1982066681,1.0677935571\O,0,8.4461818987,-0.8774674352,0.0889955571\O,
 0,8.9113474092,-0.2655152594,2.1327760422\C,0,6.4203441573,1.101633160
 6,3.2161929254\H,0,6.7789021039,1.3539155287,4.2172362303\H,0,6.390099
 2476,3.7330948232,2.1399290654\H,0,5.7558412521,2.7448897708,0.7882797
 563\H,0,6.1931397086,0.0363727229,3.1593936161\\Version=ES64L-G09RevE.
 01\State=1-A\MP2/GTBas1=-655.6299405\MP4/GTBas1=-655.7363706\CCSD(T)/G
 3Bas1=-655.7141656\MP2/GTBas2=-655.6742726\MP4/GTBas2=-655.7854014\MP2
 /GTBas3=-656.0666195\MP4/GTBas3=-656.2018878\HF/GTLargeXP=-654.0572985
 \MP2/GTLargeXP=-656.8773084\HF/GFHFB1=-654.1111836\HF/GFHFB2=-654.1220
 38\G4=-657.1704103\FreqCoord=10.0508327563,3.73271072,5.2211098904,11.
 6320878883,5.1406379521,3.4065640086,8.5829945225,5.021437504,6.956542
 5994,7.7457570432,7.0606085662,6.2668543909,8.2233303179,3.9603840102,
 8.9750093349,13.7515199994,3.183624948,3.8977738926,13.9654777911,1.60
 67465423,1.7210565467,15.5960063279,3.9235735394,4.4264702257,15.77029
 376,-0.3745563205,2.0178373893,15.9609706571,-1.6581731431,0.16817723,
 16.8400060785,-0.5017511244,4.0303626225,12.1326921362,2.0817849724,6.
 0777238195,12.8102684579,2.5585295562,7.969421513,12.0755375399,7.0545
 26844,4.0438798774,10.8769636308,5.1870899318,1.4896328555,11.70333795
 2,0.0687344849,5.9703886805\PG=C01 [X(C3H5N3O5)]\NImag=0\\0.41390263,-
 0.13743978,0.41030619,-0.13674755,-0.12373698,0.42374540,-0.08304823,-
 0.04654586,0.07079846,0.38664936,-0.03406947,-0.11952953,0.06011229,0.
 01819681,0.58581178,0.03119098,0.03721461,-0.11190550,0.08311282,0.008
 30896,0.59577660,-0.09876473,0.01710794,0.01348611,-0.02270469,0.00561
 885,0.01723995,0.43119850,0.05065370,-0.12012298,0.00677877,-0.0071051
 4,0.01682100,0.00389769,-0.17465790,0.76155814,0.05067190,0.01374054,-
 0.12847484,0.00747504,-0.01401503,-0.02897185,-0.09718127,-0.26734966,
 0.73526054,-0.01583345,0.05272752,0.00642672,0.00118628,0.00229770,-0.
 00500351,-0.16586008,0.15183988,-0.02633989,0.14618423,0.04784275,-0.0
 6571372,-0.01116672,-0.00139027,-0.00206871,0.00437067,0.14643957,-0.4
 2954022,0.10923578,-0.21355812,0.53268075,0.01887919,-0.02074247,0.025
 70180,0.00028456,-0.00288893,0.00030637,-0.02754718,0.09989691,-0.1591
 7171,0.02860686,-0.15273216,0.15767843,-0.00228823,-0.00663224,0.04369
 205,0.00364839,0.00438095,0.00467167,-0.12100635,-0.01328366,0.0800345
 1,0.03223110,0.01408783,-0.02188111,0.08562587,0.00472015,0.02908493,-
 0.00074952,0.00267497,-0.00181661,-0.00187554,-0.01511117,-0.20329187,
 0.15811707,0.00190454,-0.04201701,0.08048304,0.00713206,0.21724567,0.0
 3857360,0.00997894,-0.08253208,-0.00120382,-0.00530937,0.00324456,0.07
 310672,0.16611923,-0.43251316,-0.00766594,0.05711327,-0.02191286,-0.10
 958169,-0.23132683,0.53572243,-0.07959538,0.02140041,0.03790594,-0.117
 42436,0.03790925,-0.02639661,-0.01286404,-0.00267958,-0.00113996,0.001
 75694,0.00198622,0.00028327,0.00226781,0.00013992,0.00155770,0.6551274
 4,0.01549592,-0.00347560,0.00356899,0.05292299,-0.10217558,0.00191773,
 0.00241667,-0.00153203,-0.00080360,0.00104858,-0.00004473,-0.00080910,
 -0.00040843,-0.00000933,0.00222711,0.03892453,0.42369740,0.03173949,0.
 00167964,-0.01164366,-0.03707539,0.00618547,-0.06719076,0.00485005,-0.
 00049786,-0.00217817,-0.00112249,0.00251030,0.00011301,0.00047253,-0.0
 0030123,-0.00031160,0.02014614,0.03987311,0.42359518,-0.00250125,0.000
 95096,0.00240801,-0.00324175,0.01886878,0.02076977,0.00095220,-0.00225
 371,-0.00260721,-0.00095564,0.00108697,0.00063214,-0.00103226,0.000375
 15,0.00138225,-0.07517558,0.00160834,-0.01680836,0.17022286,-0.0000968
 9,-0.00000306,-0.00161461,0.00665033,-0.02639720,-0.02300232,-0.001191
 77,0.00132721,0.00240133,0.00093517,-0.00055169,-0.00064948,0.00076722
 ,-0.00003757,-0.00164876,-0.01050635,-0.08687375,-0.05621322,-0.082167
 34,0.22915997,-0.00073619,0.00049748,-0.00107678,0.00836542,-0.0015501
 4,0.00528584,-0.00021306,0.00136416,-0.00031157,0.00034125,-0.00151910
 ,0.00029028,0.00083582,-0.00091270,0.00078090,-0.03312475,-0.03760865,
 -0.17237876,0.05343834,0.10645341,0.35285115,-0.00235704,0.00185386,0.
 00240316,-0.01076807,-0.00605692,-0.00245276,-0.00050603,-0.00146292,-
 0.00143829,-0.00006204,0.00065549,0.00007505,-0.00000027,0.00002750,0.
 00065488,-0.27825863,-0.09287678,-0.06124437,0.00869893,0.00211456,-0.
 00042086,0.29123042,0.00074917,-0.00129345,0.00015397,0.01761697,0.009
 95735,0.00790829,0.00028870,0.00084760,-0.00006968,-0.00027580,0.00006
 558,0.00006895,0.00010258,0.00009283,-0.00075528,-0.08630968,-0.080519
 34,-0.01917689,-0.01369476,-0.01646736,-0.01655242,0.09365114,0.087988
 23,0.00082710,-0.00010108,-0.00186532,-0.00484010,-0.00443461,-0.00147
 565,0.00043019,0.00040297,0.00124845,0.00028872,-0.00091682,-0.0001122
 5,-0.00015997,0.00001171,-0.00030936,-0.05567853,-0.02016575,-0.062401
 12,-0.02271149,-0.02368578,-0.02024767,0.06426930,0.03380042,0.0772836
 9,0.00008332,-0.00009124,-0.00241076,-0.00036035,-0.00502576,-0.002124
 51,-0.00280592,0.00249272,0.00325729,0.00118719,-0.00144105,-0.0005593
 7,0.00131121,-0.00020044,-0.00205008,-0.00436037,0.02339833,0.03501925
 ,-0.06934513,-0.00556606,-0.02469927,0.00010740,-0.00650186,-0.0048827
 2,0.38910673,-0.00109764,0.00079948,0.00294673,-0.00175722,0.00162035,
 -0.00216663,0.00327676,-0.00313756,-0.00440384,-0.00155380,0.00205130,
 0.00071802,-0.00153136,0.00014153,0.00242947,0.02104554,-0.04794560,-0
 .02836141,-0.01135575,-0.05232015,-0.00775737,0.00067389,0.00427059,0.
 00451389,-0.07359571,0.48141236,-0.00134198,0.00224412,0.00016280,-0.0
 0352543,-0.00405748,-0.00621559,0.00202822,-0.00125316,-0.00125897,-0.
 00094591,0.00151425,0.00002579,-0.00052641,0.00023727,0.00020451,0.029
 55571,-0.02142502,0.01743434,-0.03043370,0.00014903,-0.12321858,-0.002
 14997,-0.00378790,-0.00129123,0.16613738,0.25396215,1.03655119,-0.0000
 7600,0.00018115,0.00042920,0.00150927,0.00180533,0.00188457,0.00061039
 ,-0.00056221,-0.00085831,-0.00031802,0.00022506,0.00021589,-0.00029813
 ,0.00000003,0.00063127,-0.00233449,0.00409704,-0.00868568,-0.00064500,
 0.04346658,0.03801011,-0.00021485,0.00109914,0.00089836,-0.11070239,0.
 03779364,0.02599245,0.08529516,0.00125785,-0.00095088,-0.00140554,-0.0
 0155534,-0.00163553,-0.00277629,-0.00123870,0.00139521,0.00213744,0.00
 078424,-0.00085228,-0.00045882,0.00064973,-0.00004009,-0.00120080,0.00
 870972,0.00135420,0.00969223,0.03273848,-0.05287185,-0.05441341,-0.000
 11560,-0.00031295,-0.00054293,0.03604447,-0.27122431,-0.23904713,-0.07
 056819,0.30200056,0.00109238,-0.00113034,-0.00072649,-0.00023754,-0.00
 088498,-0.00094326,-0.00125580,0.00120276,0.00159244,0.00074417,-0.000
 89889,-0.00029780,0.00053135,-0.00009419,-0.00078868,-0.00034845,-0.00
 025263,0.00403016,0.01883741,-0.03178119,0.00136326,0.00121598,0.00039
 621,-0.00018764,0.02238380,-0.23539442,-0.45612229,-0.02111420,0.31727
 431,0.54772066,-0.00020597,0.00060357,0.00087049,0.00072276,0.00078949
 ,-0.00024850,0.00099640,-0.00067824,-0.00132235,-0.00042372,0.00040566
 ,0.00028793,-0.00042277,-0.00001217,0.00081609,-0.00222163,-0.00558928
 ,-0.00932397,-0.02715255,0.03688457,-0.04359095,-0.00039836,0.00267982
 ,0.00146763,-0.20724479,0.02968492,-0.19205224,0.02855868,-0.00747342,
 -0.02074880,0.20933218,0.00011728,-0.00038657,-0.00038629,0.00054962,0
 .00062462,0.00182881,-0.00081339,0.00057449,0.00108129,0.00033459,-0.0
 0022479,-0.00027525,0.00036339,0.00007803,-0.00078804,0.00050931,-0.00
 062816,0.00806331,0.03905920,-0.00460261,0.03105507,0.00258990,-0.0013
 0336,0.00007243,0.03204851,-0.12093367,0.01448962,-0.01705394,0.024972
 50,-0.04833229,-0.05810655,0.10273413,0.00095438,-0.00132911,0.0005361
 9,0.00205293,0.00170008,0.00166904,-0.00039404,0.00012157,0.00019370,0
 .00031692,-0.00055802,0.00001295,-0.00003261,-0.00009787,0.00031751,0.
 00061100,-0.00628311,-0.00989871,-0.04107395,0.02892567,-0.00954076,0.
 00147432,0.00253477,0.00187616,-0.18500997,0.00827307,-0.46270321,-0.0
 3799571,-0.02851996,-0.09670489,0.26196440,-0.00557838,0.57082787,-0.1
 1451096,0.08495234,-0.04200914,-0.00066056,0.00398464,-0.00287737,-0.0
 2525951,0.00473505,0.00165002,0.00439204,-0.00225628,0.00125434,0.0019
 9784,0.00060436,-0.00289316,-0.09308254,-0.04786935,0.04372666,0.00241
 192,0.00606264,0.00024644,-0.00766390,-0.01067425,0.01796992,-0.000650
 69,0.00053992,0.00419225,0.00011382,-0.00057629,-0.00164216,-0.0004924
 0,-0.00053489,-0.00125331,0.37571695,0.04133387,-0.10173896,0.02272142
 ,0.01169138,-0.03813475,0.04986998,0.01565011,-0.02265176,-0.00569492,
 0.00372217,0.00479674,-0.00121258,-0.00424691,-0.00064705,0.00498879,-
 0.03517935,-0.08652108,0.01924880,0.01289406,0.00746591,-0.02122093,-0
 .00205500,-0.00419762,0.01055894,-0.00128385,0.00495392,-0.00464098,-0
 .00018850,-0.00172205,0.00010930,0.00057010,-0.00113236,0.00230970,0.0
 4601921,0.61545583,-0.03842295,0.03952680,-0.09485011,-0.00829026,0.04
 078630,-0.02563993,0.01736257,-0.01814173,0.01326184,0.00460387,-0.003
 74423,-0.00370969,0.00153479,-0.00250122,-0.00168735,0.02988815,0.0217
 8486,-0.10851637,0.01448084,0.00122258,-0.03491646,-0.00345089,-0.0052
 1507,0.00721729,-0.00367209,0.00348763,-0.00251302,0.00006422,-0.00017
 188,0.00124401,0.00061888,-0.00045347,0.00205081,0.06297320,0.00646622
 ,0.57193315,-0.01721464,0.00285277,-0.02284191,-0.00282066,-0.00183487
 ,0.00075336,0.00553392,-0.00239493,-0.00867680,-0.00018412,0.00114885,
 0.00053734,0.00042831,-0.00202184,0.00385774,0.01027598,0.00797941,0.0
 1583519,-0.00310426,-0.00027723,0.00590254,0.00086717,0.00092663,-0.00
 083036,0.00218636,-0.00216897,0.00061047,-0.00033447,0.00059367,0.0000
 8336,-0.00052917,0.00024270,-0.00088621,-0.07423059,-0.02220672,-0.076
 48502,0.07837106,0.01096184,0.00149656,0.02044198,0.00077565,-0.001074
 97,-0.00086613,-0.00117834,0.00296560,0.00325543,-0.00035095,-0.000814
 75,-0.00009301,-0.00039591,0.00004994,-0.00119167,0.00209155,0.0009427
 3,0.00795233,0.00091103,-0.00056910,0.00094937,0.00005610,0.00126626,-
 0.00035448,-0.00071838,0.00037063,-0.00033020,0.00007233,0.00000880,0.
 00014432,-0.00000775,0.00002406,0.00024820,-0.02231583,-0.06849459,-0.
 06482411,0.01970962,0.06978148,-0.00589086,0.00303327,-0.00543530,0.00
 014348,0.00026208,-0.00053435,0.00277994,0.00090957,-0.00106471,-0.000
 49812,-0.00065298,0.00036566,0.00005846,-0.00092898,0.00106239,-0.0070
 4733,-0.00564170,-0.01292242,0.00209614,0.00103715,-0.00249453,0.00015
 672,-0.00047988,0.00116021,-0.00168292,0.00121396,-0.00064491,0.000231
 44,-0.00026202,0.00012382,0.00048119,-0.00021878,0.00076088,-0.0805533
 7,-0.06178729,-0.27095337,0.08985520,0.06252803,0.29142819,-0.01004155
 ,-0.01994315,0.00184700,-0.05894144,-0.05122288,-0.01936593,0.00545917
 ,-0.00650107,-0.00369937,-0.00051864,0.00357601,-0.00134181,-0.0000507
 9,0.00031611,0.00115743,0.00872325,0.02096968,0.00922160,-0.00312060,0
 .00378491,-0.00186696,0.00120356,-0.00109546,0.00093306,0.00153847,-0.
 00016514,0.00142491,-0.00090313,0.00109284,0.00057917,-0.00043242,0.00
 002118,-0.00064467,-0.00317670,0.00062643,-0.00157503,0.00029322,0.000
 12324,-0.00014599,0.05996273,-0.00794924,-0.01403646,0.00330037,-0.054
 32913,-0.27319562,-0.08039330,0.00437043,-0.00238498,-0.00102402,-0.00
 028027,0.00205747,-0.00108478,-0.00059510,0.00041033,-0.00018126,-0.00
 344256,-0.01118918,-0.00451260,0.00134422,-0.00107488,0.00108749,0.000
 14506,0.00135045,-0.00046031,-0.00089633,0.00020402,-0.00021830,0.0002
 5027,-0.00027932,-0.00017602,0.00017587,0.00009617,0.00017814,-0.00025
 451,-0.00037457,0.00007265,-0.00002837,-0.00023381,0.00025979,0.060310
 62,0.29735286,0.00884911,0.02406967,0.00300711,-0.01964729,-0.08421095
 ,-0.08127678,-0.00159651,0.00373643,0.00420600,-0.00017559,-0.00172062
 ,0.00003823,-0.00053812,-0.00005841,-0.00103948,-0.00115392,0.00356549
 ,-0.00038915,0.00081737,-0.00040928,-0.00047385,0.00000848,-0.00017436
 ,0.00103405,-0.00027766,0.00074520,-0.00002150,0.00006931,-0.00021380,
 -0.00006675,0.00030605,-0.00032517,0.00032595,0.00110113,-0.00073813,-
 0.00100782,0.00000453,0.00031348,-0.00015832,0.01843260,0.08235589,0.0
 8280753,0.00855120,0.00030800,0.02188629,-0.09200491,0.00252910,-0.102
 15986,0.00275555,-0.00265284,0.00346039,-0.00041689,0.00037776,-0.0005
 2526,-0.00203732,0.00015821,0.00108630,-0.00823240,-0.00405114,-0.0204
 5141,0.00227147,-0.00270209,-0.00036986,-0.00116484,0.00252484,-0.0004
 6638,-0.00086510,0.00044138,-0.00095531,0.00018256,-0.00020089,0.00014
 598,0.00039743,0.00027656,0.00097236,-0.00116440,0.00088034,0.00180152
 ,0.00062776,-0.00027692,0.00000510,-0.00060730,0.00089352,-0.00576180,
 0.09116566,0.00279492,-0.00125086,0.01636782,0.00005568,-0.04740804,-0
 .00393716,0.00172792,-0.00150822,0.00014777,-0.00050388,0.00063856,0.0
 0039530,-0.00066668,0.00010271,0.00035296,0.00693082,-0.00053254,0.015
 87144,-0.00091040,0.00251686,0.00060735,0.00056994,-0.00132733,0.00054
 045,0.00099784,-0.00062114,0.00076615,-0.00031239,0.00023351,-0.000033
 84,-0.00038281,-0.00008247,-0.00090422,-0.00049735,-0.00269171,0.00145
 134,0.00018618,-0.00030339,0.00048053,-0.01165816,0.00175612,-0.027209
 49,0.00164956,0.05080093,0.00051982,0.00484533,-0.01549555,-0.09658593
 ,-0.00131476,-0.27958927,-0.00367685,0.00315965,-0.00113841,0.00052417
 ,-0.00081606,0.00064115,0.00121844,-0.00041850,-0.00078853,-0.00031734
 ,0.00002035,0.00130916,0.00056773,-0.00059258,0.00055086,0.00034340,0.
 00013678,-0.00014319,-0.00040933,0.00064854,0.00003225,0.00005828,-0.0
 0008668,-0.00008063,0.00036699,-0.00040896,0.00023426,0.00142525,-0.00
 038555,-0.00180279,-0.00044968,0.00028588,-0.00033300,-0.00483207,0.00
 033636,-0.00681490,0.10157023,-0.00552562,0.30353961,0.00390027,0.0277
 1376,0.00185592,-0.00174106,0.00182901,0.00100590,0.00226521,0.0045108
 6,-0.00328569,-0.00236518,0.00081355,0.00079817,-0.00037441,-0.0007073
 8,0.00057070,-0.00460200,-0.01806651,-0.00629923,0.00171667,0.00184175
 ,-0.00211800,-0.00071345,-0.00108720,0.00248527,0.00081405,-0.00023048
 ,0.00198957,-0.00044341,-0.00014257,-0.00026665,-0.00048367,0.00039654
 ,-0.00105583,-0.06374032,-0.06822733,-0.00143181,-0.00016588,-0.009457
 29,0.00001091,0.00061218,0.00028553,-0.00043768,0.00054153,0.00001880,
 -0.00032311,0.06477946,0.00472556,-0.01318509,0.00266732,0.00154856,-0
 .00139856,-0.00029935,-0.00270568,-0.00131961,0.00324409,0.00092845,-0
 .00046250,-0.00061562,0.00027654,0.00065355,-0.00080777,-0.00152975,-0
 .00454740,-0.00201341,0.00054475,0.00129928,-0.00047962,0.00022979,-0.
 00041747,0.00076095,0.00033880,0.00035826,0.00139758,-0.00030534,-0.00
 007551,-0.00014812,0.00045620,0.00018999,-0.00102052,-0.06191940,-0.30
 436588,-0.01974666,-0.00270688,-0.00541545,0.00024726,-0.00023518,-0.0
 0045861,0.00027404,-0.00015539,-0.00032298,0.00011582,0.06050897,0.329
 46797,-0.00015842,0.01020958,0.00085233,-0.00082694,0.00131108,-0.0025
 3946,0.00058095,-0.00034731,-0.00067957,-0.00010122,-0.00001865,0.0000
 3064,-0.00032972,0.00041590,0.00055079,0.00525898,0.02003193,0.0013488
 7,-0.00179530,-0.00059195,0.00353667,0.00055586,0.00121209,-0.00178641
 ,0.00098095,-0.00085500,-0.00042156,0.00016881,-0.00000472,-0.00015593
 ,0.00010716,0.00017610,0.00004223,-0.00331070,-0.02059276,-0.05011018,
 -0.00726974,-0.02845942,-0.00036024,-0.00012393,0.00045989,-0.00017030
 ,-0.00023829,0.00062921,-0.00012102,0.00650155,0.01642402,0.04998314\\
 0.00003289,-0.00001420,0.00001958,-0.00010979,-0.00012230,-0.00024072,
 0.00000696,-0.00001113,-0.00001264,-0.00000942,0.00000081,0.00000290,-
 0.00000914,0.00000680,0.00000609,-0.00007147,-0.00003031,-0.00003513,-
 0.00000245,0.00000744,0.00000889,0.00006280,0.00001929,0.00003198,0.00
 001198,0.00001593,0.00001661,-0.00000279,-0.00000307,0.00000227,-0.000
 00366,-0.00000336,-0.00000513,-0.00001165,0.00006062,-0.00004872,0.000
 01790,0.00002200,0.00004750,0.00004106,0.00010556,0.00005057,0.0000633
 2,-0.00002151,0.00017657,-0.00001654,-0.00003257,-0.00002061\\\@
 Job cpu time:       0 days 12 hours  1 minutes 32.9 seconds.
 File lengths (MBytes):  RWF=  66317 Int=      0 D2E=      0 Chk=     89 Scr=      1
 Normal termination of Gaussian 09 at Thu Aug 26 05:02:26 2021.
