 Entering Gaussian System, Link 0=g09
 Input=G4.VAZCAC01.gjf
 Output=G4.VAZCAC01.log
 Initial command:
 /public/home/users/caep010/software/Gaussian09/g09/l1.exe "/public/home/users/caep010/.cache/gau_scr/Gau-619.inp" -scrdir="/public/home/users/caep010/.cache/gau_scr/"
 Entering Link 1 = /public/home/users/caep010/software/Gaussian09/g09/l1.exe PID=       620.
  
 Copyright (c) 1988,1990,1992,1993,1995,1998,2003,2009,2015,
            Gaussian, Inc.  All Rights Reserved.
  
 This is part of the Gaussian(R) 09 program.  It is based on
 the Gaussian(R) 03 system (copyright 2003, Gaussian, Inc.),
 the Gaussian(R) 98 system (copyright 1998, Gaussian, Inc.),
 the Gaussian(R) 94 system (copyright 1995, Gaussian, Inc.),
 the Gaussian 92(TM) system (copyright 1992, Gaussian, Inc.),
 the Gaussian 90(TM) system (copyright 1990, Gaussian, Inc.),
 the Gaussian 88(TM) system (copyright 1988, Gaussian, Inc.),
 the Gaussian 86(TM) system (copyright 1986, Carnegie Mellon
 University), and the Gaussian 82(TM) system (copyright 1983,
 Carnegie Mellon University). Gaussian is a federally registered
 trademark of Gaussian, Inc.
  
 This software contains proprietary and confidential information,
 including trade secrets, belonging to Gaussian, Inc.
  
 This software is provided under written license and may be
 used, copied, transmitted, or stored only in accord with that
 written license.
  
 The following legend is applicable only to US Government
 contracts under FAR:
  
                    RESTRICTED RIGHTS LEGEND
  
 Use, reproduction and disclosure by the US Government is
 subject to restrictions as set forth in subparagraphs (a)
 and (c) of the Commercial Computer Software - Restricted
 Rights clause in FAR 52.227-19.
  
 Gaussian, Inc.
 340 Quinnipiac St., Bldg. 40, Wallingford CT 06492
  
  
 ---------------------------------------------------------------
 Warning -- This program may not be used in any manner that
 competes with the business of Gaussian, Inc. or will provide
 assistance to any competitor of Gaussian, Inc.  The licensee
 of this program is prohibited from giving any competitor of
 Gaussian, Inc. access to this program.  By using this program,
 the user acknowledges that Gaussian, Inc. is engaged in the
 business of creating and licensing software in the field of
 computational chemistry and represents and warrants to the
 licensee that it is not a competitor of Gaussian, Inc. and that
 it will not use this program in any manner prohibited above.
 ---------------------------------------------------------------
  

 Cite this work as:
 Gaussian 09, Revision E.01,
 M. J. Frisch, G. W. Trucks, H. B. Schlegel, G. E. Scuseria, 
 M. A. Robb, J. R. Cheeseman, G. Scalmani, V. Barone, B. Mennucci, 
 G. A. Petersson, H. Nakatsuji, M. Caricato, X. Li, H. P. Hratchian, 
 A. F. Izmaylov, J. Bloino, G. Zheng, J. L. Sonnenberg, M. Hada, 
 M. Ehara, K. Toyota, R. Fukuda, J. Hasegawa, M. Ishida, T. Nakajima, 
 Y. Honda, O. Kitao, H. Nakai, T. Vreven, J. A. Montgomery, Jr., 
 J. E. Peralta, F. Ogliaro, M. Bearpark, J. J. Heyd, E. Brothers, 
 K. N. Kudin, V. N. Staroverov, T. Keith, R. Kobayashi, J. Normand, 
 K. Raghavachari, A. Rendell, J. C. Burant, S. S. Iyengar, J. Tomasi, 
 M. Cossi, N. Rega, J. M. Millam, M. Klene, J. E. Knox, J. B. Cross, 
 V. Bakken, C. Adamo, J. Jaramillo, R. Gomperts, R. E. Stratmann, 
 O. Yazyev, A. J. Austin, R. Cammi, C. Pomelli, J. W. Ochterski, 
 R. L. Martin, K. Morokuma, V. G. Zakrzewski, G. A. Voth, 
 P. Salvador, J. J. Dannenberg, S. Dapprich, A. D. Daniels, 
 O. Farkas, J. B. Foresman, J. V. Ortiz, J. Cioslowski, 
 and D. J. Fox, Gaussian, Inc., Wallingford CT, 2013.
 
 ******************************************
 Gaussian 09:  ES64L-G09RevE.01 30-Nov-2015
                24-Aug-2021 
 ******************************************
 %nproc=32
 Will use up to   32 processors via shared memory.
 %mem=180GB
 ----------------
 #P G4 OPT=calcfc
 ----------------
 1/10=4,14=-1,18=20,19=15,26=3,38=1/1,3;
 2/9=110,12=2,17=6,18=5,40=1/2;
 3/5=35,7=104,11=2,16=1,25=1,30=1,71=2,74=-5,140=1/1,2,3;
 4//1;
 5/5=2,38=5/2;
 8/6=4,10=90,11=11/1;
 11/6=1,8=1,9=11,15=111,16=1/1,2,10;
 10/6=1,13=1/2;
 6/7=2,8=2,9=2,10=2,28=1/1;
 7/10=1,18=20,25=1/1,2,3,16;
 1/10=4,14=-1,18=20,19=15,26=3/3(2);
 2/9=110/2;
 99//99;
 2/9=110/2;
 3/5=35,7=104,11=2,16=1,25=1,30=1,71=1,74=-5/1,2,3;
 4/5=5,16=3,69=1/1;
 5/5=2,38=5/2;
 7//1,2,3,16;
 1/14=-1,18=20,19=15,26=3/3(-5);
 2/9=110/2;
 6/7=2,8=2,9=2,10=2,19=2,28=1/1;
 99/9=1/99;
 Leave Link    1 at Tue Aug 24 22:06:44 2021, MaxMem= 24159191040 cpu:         4.0
 (Enter /public/home/users/caep010/software/Gaussian09/g09/l101.exe)
 --------
 VAZCAC01
 --------
 Symbolic Z-matrix:
 Charge =  0 Multiplicity = 1
 N                    -0.6265    1.7303    9.1309 
 N                     0.3116    2.3881    9.8318 
 C                     1.4059    1.7784    9.4137 
 N                     1.2806    0.8047    8.5049 
 C                    -0.0244    0.8085    8.3568 
 N                     2.7061    2.1285    9.9525 
 N                    -1.9665    2.0741    9.3164 
 H                    -2.3839    1.2787    9.1945 
 O                     2.7411    2.9883    10.8158 
 O                     3.6784    1.5423    9.4875 
 N                    -0.7201   -0.1293    7.5069 
 O                    -1.9299   -0.2275    7.6313 
 O                    -0.0407   -0.7652    6.7241 
 H                    -2.2863    2.4164    8.5589 
 
 NAtoms=     14 NQM=       14 NQMF=       0 NMMI=      0 NMMIF=      0
                NMic=       0 NMicF=      0.
                    Isotopes and Nuclear Properties:
 (Nuclear quadrupole moments (NQMom) in fm**2, nuclear magnetic moments (NMagM)
  in nuclear magnetons)

  Atom         1           2           3           4           5           6           7           8           9          10
 IAtWgt=          14          14          12          14          12          14          14           1          16          16
 AtmWgt=  14.0030740  14.0030740  12.0000000  14.0030740  12.0000000  14.0030740  14.0030740   1.0078250  15.9949146  15.9949146
 NucSpn=           2           2           0           2           0           2           2           1           0           0
 AtZEff=   0.0000000   0.0000000   0.0000000   0.0000000   0.0000000   0.0000000   0.0000000   0.0000000   0.0000000   0.0000000
 NQMom=    2.0440000   2.0440000   0.0000000   2.0440000   0.0000000   2.0440000   2.0440000   0.0000000   0.0000000   0.0000000
 NMagM=    0.4037610   0.4037610   0.0000000   0.4037610   0.0000000   0.4037610   0.4037610   2.7928460   0.0000000   0.0000000
 AtZNuc=   7.0000000   7.0000000   6.0000000   7.0000000   6.0000000   7.0000000   7.0000000   1.0000000   8.0000000   8.0000000

  Atom        11          12          13          14
 IAtWgt=          14          16          16           1
 AtmWgt=  14.0030740  15.9949146  15.9949146   1.0078250
 NucSpn=           2           0           0           1
 AtZEff=   0.0000000   0.0000000   0.0000000   0.0000000
 NQMom=    2.0440000   0.0000000   0.0000000   0.0000000
 NMagM=    0.4037610   0.0000000   0.0000000   2.7928460
 AtZNuc=   7.0000000   8.0000000   8.0000000   1.0000000
 Leave Link  101 at Tue Aug 24 22:06:45 2021, MaxMem= 24159191040 cpu:        11.0
 (Enter /public/home/users/caep010/software/Gaussian09/g09/l103.exe)

 GradGradGradGradGradGradGradGradGradGradGradGradGradGradGradGradGradGrad
 Berny optimization.
 Initialization pass.
                           ----------------------------
                           !    Initial Parameters    !
                           ! (Angstroms and Degrees)  !
 --------------------------                            --------------------------
 ! Name  Definition              Value          Derivative Info.                !
 --------------------------------------------------------------------------------
 ! R1    R(1,2)                  1.3431         calculate D2E/DX2 analytically  !
 ! R2    R(1,5)                  1.3459         calculate D2E/DX2 analytically  !
 ! R3    R(1,7)                  1.3958         calculate D2E/DX2 analytically  !
 ! R4    R(2,3)                  1.3206         calculate D2E/DX2 analytically  !
 ! R5    R(3,4)                  1.3378         calculate D2E/DX2 analytically  !
 ! R6    R(3,6)                  1.4503         calculate D2E/DX2 analytically  !
 ! R7    R(4,5)                  1.3134         calculate D2E/DX2 analytically  !
 ! R8    R(5,11)                 1.4442         calculate D2E/DX2 analytically  !
 ! R9    R(6,9)                  1.2189         calculate D2E/DX2 analytically  !
 ! R10   R(6,10)                 1.2269         calculate D2E/DX2 analytically  !
 ! R11   R(7,8)                  0.9065         calculate D2E/DX2 analytically  !
 ! R12   R(7,14)                 0.8906         calculate D2E/DX2 analytically  !
 ! R13   R(11,12)                1.2201         calculate D2E/DX2 analytically  !
 ! R14   R(11,13)                1.216          calculate D2E/DX2 analytically  !
 ! A1    A(2,1,5)              108.8512         calculate D2E/DX2 analytically  !
 ! A2    A(2,1,7)              118.721          calculate D2E/DX2 analytically  !
 ! A3    A(5,1,7)              132.4241         calculate D2E/DX2 analytically  !
 ! A4    A(1,2,3)              100.8028         calculate D2E/DX2 analytically  !
 ! A5    A(2,3,4)              118.2608         calculate D2E/DX2 analytically  !
 ! A6    A(2,3,6)              120.9172         calculate D2E/DX2 analytically  !
 ! A7    A(4,3,6)              120.7997         calculate D2E/DX2 analytically  !
 ! A8    A(3,4,5)               99.646          calculate D2E/DX2 analytically  !
 ! A9    A(1,5,4)              112.4345         calculate D2E/DX2 analytically  !
 ! A10   A(1,5,11)             124.5898         calculate D2E/DX2 analytically  !
 ! A11   A(4,5,11)             122.896          calculate D2E/DX2 analytically  !
 ! A12   A(3,6,9)              117.3315         calculate D2E/DX2 analytically  !
 ! A13   A(3,6,10)             117.0219         calculate D2E/DX2 analytically  !
 ! A14   A(9,6,10)             125.6412         calculate D2E/DX2 analytically  !
 ! A15   A(1,7,8)              102.0083         calculate D2E/DX2 analytically  !
 ! A16   A(1,7,14)             109.0473         calculate D2E/DX2 analytically  !
 ! A17   A(8,7,14)              93.2976         calculate D2E/DX2 analytically  !
 ! A18   A(5,11,12)            118.0272         calculate D2E/DX2 analytically  !
 ! A19   A(5,11,13)            116.6958         calculate D2E/DX2 analytically  !
 ! A20   A(12,11,13)           125.276          calculate D2E/DX2 analytically  !
 ! D1    D(5,1,2,3)             -0.5969         calculate D2E/DX2 analytically  !
 ! D2    D(7,1,2,3)            178.7859         calculate D2E/DX2 analytically  !
 ! D3    D(2,1,5,4)              0.3435         calculate D2E/DX2 analytically  !
 ! D4    D(2,1,5,11)           177.1692         calculate D2E/DX2 analytically  !
 ! D5    D(7,1,5,4)           -178.9232         calculate D2E/DX2 analytically  !
 ! D6    D(7,1,5,11)            -2.0976         calculate D2E/DX2 analytically  !
 ! D7    D(2,1,7,8)           -147.2619         calculate D2E/DX2 analytically  !
 ! D8    D(2,1,7,14)           114.9417         calculate D2E/DX2 analytically  !
 ! D9    D(5,1,7,8)             31.9468         calculate D2E/DX2 analytically  !
 ! D10   D(5,1,7,14)           -65.8496         calculate D2E/DX2 analytically  !
 ! D11   D(1,2,3,4)              0.7303         calculate D2E/DX2 analytically  !
 ! D12   D(1,2,3,6)           -177.5641         calculate D2E/DX2 analytically  !
 ! D13   D(2,3,4,5)             -0.5326         calculate D2E/DX2 analytically  !
 ! D14   D(6,3,4,5)            177.7639         calculate D2E/DX2 analytically  !
 ! D15   D(2,3,6,9)              1.1074         calculate D2E/DX2 analytically  !
 ! D16   D(2,3,6,10)          -178.0995         calculate D2E/DX2 analytically  !
 ! D17   D(4,3,6,9)           -177.1435         calculate D2E/DX2 analytically  !
 ! D18   D(4,3,6,10)             3.6495         calculate D2E/DX2 analytically  !
 ! D19   D(3,4,5,1)              0.0858         calculate D2E/DX2 analytically  !
 ! D20   D(3,4,5,11)          -176.802          calculate D2E/DX2 analytically  !
 ! D21   D(1,5,11,12)          -10.7916         calculate D2E/DX2 analytically  !
 ! D22   D(1,5,11,13)          169.5538         calculate D2E/DX2 analytically  !
 ! D23   D(4,5,11,12)          165.7136         calculate D2E/DX2 analytically  !
 ! D24   D(4,5,11,13)          -13.9409         calculate D2E/DX2 analytically  !
 --------------------------------------------------------------------------------
 Trust Radius=3.00D-01 FncErr=1.00D-07 GrdErr=1.00D-06
 Number of steps in this run=     68 maximum allowed number of steps=    100.
 GradGradGradGradGradGradGradGradGradGradGradGradGradGradGradGradGradGrad

 Leave Link  103 at Tue Aug 24 22:06:45 2021, MaxMem= 24159191040 cpu:         0.8
 (Enter /public/home/users/caep010/software/Gaussian09/g09/l202.exe)
                          Input orientation:                          
 ---------------------------------------------------------------------
 Center     Atomic      Atomic             Coordinates (Angstroms)
 Number     Number       Type             X           Y           Z
 ---------------------------------------------------------------------
      1          7           0       -0.626500    1.730300    9.130900
      2          7           0        0.311600    2.388100    9.831800
      3          6           0        1.405900    1.778400    9.413700
      4          7           0        1.280600    0.804700    8.504900
      5          6           0       -0.024400    0.808500    8.356800
      6          7           0        2.706100    2.128500    9.952500
      7          7           0       -1.966500    2.074100    9.316400
      8          1           0       -2.383900    1.278700    9.194500
      9          8           0        2.741100    2.988300   10.815800
     10          8           0        3.678400    1.542300    9.487500
     11          7           0       -0.720100   -0.129300    7.506900
     12          8           0       -1.929900   -0.227500    7.631300
     13          8           0       -0.040700   -0.765200    6.724100
     14          1           0       -2.286300    2.416400    8.558900
 ---------------------------------------------------------------------
                    Distance matrix (angstroms):
                    1          2          3          4          5
     1  N    0.000000
     2  N    1.343128   0.000000
     3  C    2.052545   1.320619   0.000000
     4  N    2.210349   2.281837   1.337800   0.000000
     5  C    1.345909   2.187157   2.025710   1.313382   0.000000
     6  N    3.455403   2.411554   1.450309   2.424880   3.426994
     7  N    1.395782   2.356687   3.386737   3.579604   2.508850
     8  H    1.815611   2.983729   3.828881   3.758828   2.547561
     9  O    3.970161   2.689046   2.283090   3.498775   4.294904
    10  O    4.323734   3.488447   2.285923   2.694253   3.940517
    11  N    2.470678   3.578668   3.434397   2.423048   1.444229
    12  O    2.789379   4.087528   4.281138   3.483665   2.287045
    13  O    3.516158   4.441308   3.974481   2.716923   2.267710
    14  H    1.884901   2.893123   3.843185   3.914495   2.782513
                    6          7          8          9         10
     6  N    0.000000
     7  N    4.716012   0.000000
     8  H    5.215824   0.906501   0.000000
     9  O    1.218921   5.024486   5.640653   0.000000
    10  O    1.226875   5.672476   6.075098   2.175736   0.000000
    11  N    4.776763   3.111716   2.756572   5.713856   5.105274
    12  O    5.694840   2.852764   2.217735   6.503895   6.166904
    13  O    5.132346   4.300041   3.971271   6.210409   5.176161
    14  H    5.191249   0.890644   1.306857   5.540345   6.099508
                   11         12         13         14
    11  N    0.000000
    12  O    1.220137   0.000000
    13  O    1.216030   2.163610   0.000000
    14  H    3.168639   2.824477   4.304856   0.000000
 Stoichiometry    C2H2N6O4
 Framework group  C1[X(C2H2N6O4)]
 Deg. of freedom    36
 Full point group                 C1      NOp   1
 Largest Abelian subgroup         C1      NOp   1
 Largest concise Abelian subgroup C1      NOp   1
                         Standard orientation:                         
 ---------------------------------------------------------------------
 Center     Atomic      Atomic             Coordinates (Angstroms)
 Number     Number       Type             X           Y           Z
 ---------------------------------------------------------------------
      1          7           0        0.598058    1.118848    0.052887
      2          7           0       -0.732485    1.302276    0.054926
      3          6           0       -1.154849    0.051310    0.027967
      4          7           0       -0.241099   -0.925804    0.023640
      5          6           0        0.854901   -0.202249    0.038654
      6          7           0       -2.570916   -0.255918   -0.033353
      7          7           0        1.429676    2.239838    0.051727
      8          1           0        2.140304    1.946987   -0.428887
      9          8           0       -3.345964    0.683727   -0.079577
     10          8           0       -2.885138   -1.441785   -0.019040
     11          7           0        2.177029   -0.779788   -0.026349
     12          8           0        3.114753   -0.039075   -0.272827
     13          8           0        2.259899   -1.977767    0.165244
     14          1           0        1.889138    2.261681    0.814398
 ---------------------------------------------------------------------
 Rotational constants (GHZ):      2.0352586      0.6431808      0.4913569
 Leave Link  202 at Tue Aug 24 22:06:45 2021, MaxMem= 24159191040 cpu:         0.6
 (Enter /public/home/users/caep010/software/Gaussian09/g09/l301.exe)
 Standard basis: GTBas3 (6D, 7F)
 Ernie: Thresh=  0.10000D-02 Tol=  0.10000D-05 Strict=F.
 There are   382 symmetry adapted cartesian basis functions of A   symmetry.
 There are   346 symmetry adapted basis functions of A   symmetry.
   346 basis functions,   542 primitive gaussians,   382 cartesian basis functions
    44 alpha electrons       44 beta electrons
       nuclear repulsion energy       722.0151444396 Hartrees.
 IExCor=  402 DFT=T Ex+Corr=B3LYP ExCW=0 ScaHFX=  0.200000
 ScaDFX=  0.800000  0.720000  1.000000  0.810000 ScalE2=  1.000000  1.000000
 IRadAn=      0 IRanWt=     -1 IRanGd=            0 ICorTp=0 IEmpDi=  4
 NAtoms=   14 NActive=   14 NUniq=   14 SFac= 1.00D+00 NAtFMM=   60 NAOKFM=F Big=F
 Integral buffers will be    131072 words long.
 Raffenetti 2 integral format.
 Two-electron integral symmetry is turned on.
 Leave Link  301 at Tue Aug 24 22:06:46 2021, MaxMem= 24159191040 cpu:         2.1
 (Enter /public/home/users/caep010/software/Gaussian09/g09/l302.exe)
 NPDir=0 NMtPBC=     1 NCelOv=     1 NCel=       1 NClECP=     1 NCelD=      1
         NCelK=      1 NCelE2=     1 NClLst=     1 CellRange=     0.0.
 One-electron integrals computed using PRISM.
 NBasis=   346 RedAO= T EigKep=  1.19D-04  NBF=   346
 NBsUse=   346 1.00D-06 EigRej= -1.00D+00 NBFU=   346
 Precomputing XC quadrature grid using
 IXCGrd= 4 IRadAn=           0 IRanWt=          -1 IRanGd=           0 AccXCQ= 0.00D+00.
 Generated NRdTot=       0 NPtTot=           0 NUsed=           0 NTot=          32
 NSgBfM=   381   381   381   381   381 MxSgAt=    14 MxSgA2=    14.
 Leave Link  302 at Tue Aug 24 22:06:46 2021, MaxMem= 24159191040 cpu:        17.9
 (Enter /public/home/users/caep010/software/Gaussian09/g09/l303.exe)
 DipDrv:  MaxL=1.
 Leave Link  303 at Tue Aug 24 22:06:47 2021, MaxMem= 24159191040 cpu:         3.2
 (Enter /public/home/users/caep010/software/Gaussian09/g09/l401.exe)
 ExpMin= 1.61D-01 ExpMax= 5.48D+03 ExpMxC= 8.25D+02 IAcc=1 IRadAn=         1 AccDes= 0.00D+00
 Harris functional with IExCor=  402 and IRadAn=       1 diagonalized for initial guess.
 HarFok:  IExCor=  402 AccDes= 0.00D+00 IRadAn=         1 IDoV= 1 UseB2=F ITyADJ=14
 ICtDFT=  3500011 ScaDFX=  1.000000  1.000000  1.000000  1.000000
 FoFCou: FMM=F IPFlag=           0 FMFlag=      100000 FMFlg1=           0
         NFxFlg=           0 DoJE=T BraDBF=F KetDBF=T FulRan=T
         wScrn=  0.000000 ICntrl=     500 IOpCl=  0 I1Cent=   200000004 NGrid=           0
         NMat0=    1 NMatS0=      1 NMatT0=    0 NMatD0=    1 NMtDS0=    0 NMtDT0=    0
 Petite list used in FoFCou.
 Harris En= -706.564834644862    
 JPrj=0 DoOrth=F DoCkMO=F.
 Leave Link  401 at Tue Aug 24 22:06:48 2021, MaxMem= 24159191040 cpu:        17.2
 (Enter /public/home/users/caep010/software/Gaussian09/g09/l502.exe)
 Closed shell SCF:
 Using DIIS extrapolation, IDIIS=  1040.
 Integral symmetry usage will be decided dynamically.
 Keep R1 ints in memory in canonical form, NReq=1830452538.
 IVT=      471290 IEndB=      471290 NGot= 24159191040 MDV= 22356829255
 LenX= 22356829255 LenY= 22356682890
 Requested convergence on RMS density matrix=1.00D-08 within 128 cycles.
 Requested convergence on MAX density matrix=1.00D-06.
 Requested convergence on             energy=1.00D-06.
 No special actions if energy rises.
 FoFCou: FMM=F IPFlag=           0 FMFlag=           0 FMFlg1=           0
         NFxFlg=           0 DoJE=F BraDBF=F KetDBF=F FulRan=T
         wScrn=  0.000000 ICntrl=     600 IOpCl=  0 I1Cent=           0 NGrid=           0
         NMat0=    1 NMatS0=  60031 NMatT0=    0 NMatD0=    1 NMtDS0=    0 NMtDT0=    0
 Symmetry not used in FoFCou.
 Integral accuracy reduced to 1.0D-05 until final iterations.

 Cycle   1  Pass 0  IDiag  1:
 E= -706.118571451064    
 DIIS: error= 4.39D-02 at cycle   1 NSaved=   1.
 NSaved= 1 IEnMin= 1 EnMin= -706.118571451064     IErMin= 1 ErrMin= 4.39D-02
 ErrMax= 4.39D-02  0.00D+00 EMaxC= 1.00D-01 BMatC= 6.04D-01 BMatP= 6.04D-01
 IDIUse=3 WtCom= 5.61D-01 WtEn= 4.39D-01
 Coeff-Com:  0.100D+01
 Coeff-En:   0.100D+01
 Coeff:      0.100D+01
 Gap=     0.241 Goal=   None    Shift=    0.000
 GapD=    0.241 DampG=1.000 DampE=0.500 DampFc=0.5000 IDamp=-1.
 Damping current iteration by 5.00D-01
 RMSDP=4.60D-03 MaxDP=2.79D-01              OVMax= 3.08D-01

 Cycle   2  Pass 0  IDiag  1:
 E= -706.110416633708     Delta-E=        0.008154817356 Rises=F Damp=T
 DIIS: error= 1.56D-02 at cycle   2 NSaved=   2.
 NSaved= 2 IEnMin= 1 EnMin= -706.118571451064     IErMin= 2 ErrMin= 1.56D-02
 ErrMax= 1.56D-02  0.00D+00 EMaxC= 1.00D-01 BMatC= 1.82D-01 BMatP= 6.04D-01
 IDIUse=3 WtCom= 8.44D-01 WtEn= 1.56D-01
 Coeff-Com:  0.333D+00 0.667D+00
 Coeff-En:   0.507D+00 0.493D+00
 Coeff:      0.360D+00 0.640D+00
 Gap=     0.151 Goal=   None    Shift=    0.000
 RMSDP=1.37D-03 MaxDP=7.48D-02 DE= 8.15D-03 OVMax= 2.23D-01

 Cycle   3  Pass 0  IDiag  1:
 E= -706.501845688865     Delta-E=       -0.391429055157 Rises=F Damp=F
 DIIS: error= 1.16D-02 at cycle   3 NSaved=   3.
 NSaved= 3 IEnMin= 3 EnMin= -706.501845688865     IErMin= 3 ErrMin= 1.16D-02
 ErrMax= 1.16D-02  0.00D+00 EMaxC= 1.00D-01 BMatC= 5.58D-02 BMatP= 1.82D-01
 IDIUse=3 WtCom= 8.84D-01 WtEn= 1.16D-01
 Coeff-Com:  0.187D+00 0.363D+00 0.450D+00
 Coeff-En:   0.000D+00 0.000D+00 0.100D+01
 Coeff:      0.165D+00 0.321D+00 0.514D+00
 Gap=     0.172 Goal=   None    Shift=    0.000
 RMSDP=1.05D-03 MaxDP=8.64D-02 DE=-3.91D-01 OVMax= 1.23D-01

 Cycle   4  Pass 0  IDiag  1:
 E= -706.501067924899     Delta-E=        0.000777763966 Rises=F Damp=F
 DIIS: error= 1.27D-02 at cycle   4 NSaved=   4.
 NSaved= 4 IEnMin= 3 EnMin= -706.501845688865     IErMin= 3 ErrMin= 1.16D-02
 ErrMax= 1.27D-02  0.00D+00 EMaxC= 1.00D-01 BMatC= 5.78D-02 BMatP= 5.58D-02
 IDIUse=3 WtCom= 8.73D-01 WtEn= 1.27D-01
 Coeff-Com:  0.536D-01 0.810D-01 0.460D+00 0.406D+00
 Coeff-En:   0.000D+00 0.000D+00 0.503D+00 0.497D+00
 Coeff:      0.468D-01 0.707D-01 0.465D+00 0.417D+00
 Gap=     0.169 Goal=   None    Shift=    0.000
 RMSDP=5.95D-04 MaxDP=4.99D-02 DE= 7.78D-04 OVMax= 1.03D-01

 Cycle   5  Pass 0  IDiag  1:
 E= -706.544618938562     Delta-E=       -0.043551013663 Rises=F Damp=F
 DIIS: error= 1.31D-03 at cycle   5 NSaved=   5.
 NSaved= 5 IEnMin= 5 EnMin= -706.544618938562     IErMin= 5 ErrMin= 1.31D-03
 ErrMax= 1.31D-03  0.00D+00 EMaxC= 1.00D-01 BMatC= 2.06D-03 BMatP= 5.58D-02
 IDIUse=3 WtCom= 9.87D-01 WtEn= 1.31D-02
 Coeff-Com:  0.109D-01 0.569D-02 0.222D+00 0.247D+00 0.515D+00
 Coeff-En:   0.000D+00 0.000D+00 0.000D+00 0.000D+00 0.100D+01
 Coeff:      0.107D-01 0.562D-02 0.219D+00 0.243D+00 0.521D+00
 Gap=     0.171 Goal=   None    Shift=    0.000
 RMSDP=1.37D-04 MaxDP=9.99D-03 DE=-4.36D-02 OVMax= 1.31D-02

 Cycle   6  Pass 0  IDiag  1:
 E= -706.546057273928     Delta-E=       -0.001438335366 Rises=F Damp=F
 DIIS: error= 9.50D-04 at cycle   6 NSaved=   6.
 NSaved= 6 IEnMin= 6 EnMin= -706.546057273928     IErMin= 6 ErrMin= 9.50D-04
 ErrMax= 9.50D-04  0.00D+00 EMaxC= 1.00D-01 BMatC= 3.42D-04 BMatP= 2.06D-03
 IDIUse=3 WtCom= 9.91D-01 WtEn= 9.50D-03
 Coeff-Com:  0.234D-02-0.318D-02 0.981D-01 0.116D+00 0.344D+00 0.443D+00
 Coeff-En:   0.000D+00 0.000D+00 0.000D+00 0.000D+00 0.135D+00 0.865D+00
 Coeff:      0.232D-02-0.315D-02 0.972D-01 0.115D+00 0.342D+00 0.447D+00
 Gap=     0.170 Goal=   None    Shift=    0.000
 RMSDP=5.80D-05 MaxDP=4.52D-03 DE=-1.44D-03 OVMax= 8.26D-03

 Cycle   7  Pass 0  IDiag  1:
 E= -706.546285464674     Delta-E=       -0.000228190746 Rises=F Damp=F
 DIIS: error= 5.87D-04 at cycle   7 NSaved=   7.
 NSaved= 7 IEnMin= 7 EnMin= -706.546285464674     IErMin= 7 ErrMin= 5.87D-04
 ErrMax= 5.87D-04  0.00D+00 EMaxC= 1.00D-01 BMatC= 7.73D-05 BMatP= 3.42D-04
 IDIUse=3 WtCom= 9.94D-01 WtEn= 5.87D-03
 Coeff-Com: -0.749D-04-0.287D-02 0.360D-01 0.437D-01 0.171D+00 0.335D+00
 Coeff-Com:  0.418D+00
 Coeff-En:   0.000D+00 0.000D+00 0.000D+00 0.000D+00 0.000D+00 0.191D+00
 Coeff-En:   0.809D+00
 Coeff:     -0.745D-04-0.286D-02 0.358D-01 0.434D-01 0.170D+00 0.334D+00
 Coeff:      0.420D+00
 Gap=     0.170 Goal=   None    Shift=    0.000
 RMSDP=2.55D-05 MaxDP=2.41D-03 DE=-2.28D-04 OVMax= 4.59D-03

 Cycle   8  Pass 0  IDiag  1:
 E= -706.546335470337     Delta-E=       -0.000050005662 Rises=F Damp=F
 DIIS: error= 2.46D-04 at cycle   8 NSaved=   8.
 NSaved= 8 IEnMin= 8 EnMin= -706.546335470337     IErMin= 8 ErrMin= 2.46D-04
 ErrMax= 2.46D-04  0.00D+00 EMaxC= 1.00D-01 BMatC= 1.32D-05 BMatP= 7.73D-05
 IDIUse=3 WtCom= 9.98D-01 WtEn= 2.46D-03
 Coeff-Com: -0.412D-03-0.145D-02 0.121D-01 0.146D-01 0.751D-01 0.181D+00
 Coeff-Com:  0.313D+00 0.406D+00
 Coeff-En:   0.000D+00 0.000D+00 0.000D+00 0.000D+00 0.000D+00 0.000D+00
 Coeff-En:   0.162D+00 0.838D+00
 Coeff:     -0.411D-03-0.144D-02 0.121D-01 0.145D-01 0.750D-01 0.181D+00
 Coeff:      0.313D+00 0.407D+00
 Gap=     0.170 Goal=   None    Shift=    0.000
 RMSDP=1.01D-05 MaxDP=9.11D-04 DE=-5.00D-05 OVMax= 1.69D-03

 Cycle   9  Pass 0  IDiag  1:
 E= -706.546345278975     Delta-E=       -0.000009808639 Rises=F Damp=F
 DIIS: error= 3.95D-05 at cycle   9 NSaved=   9.
 NSaved= 9 IEnMin= 9 EnMin= -706.546345278975     IErMin= 9 ErrMin= 3.95D-05
 ErrMax= 3.95D-05  0.00D+00 EMaxC= 1.00D-01 BMatC= 1.02D-06 BMatP= 1.32D-05
 IDIUse=1 WtCom= 1.00D+00 WtEn= 0.00D+00
 Coeff-Com: -0.236D-03-0.293D-03 0.978D-03 0.739D-03 0.151D-01 0.498D-01
 Coeff-Com:  0.115D+00 0.257D+00 0.562D+00
 Coeff:     -0.236D-03-0.293D-03 0.978D-03 0.739D-03 0.151D-01 0.498D-01
 Coeff:      0.115D+00 0.257D+00 0.562D+00
 Gap=     0.170 Goal=   None    Shift=    0.000
 RMSDP=2.62D-06 MaxDP=1.76D-04 DE=-9.81D-06 OVMax= 2.52D-04

 Initial convergence to 1.0D-05 achieved.  Increase integral accuracy.
 Cycle  10  Pass 1  IDiag  1:
 E= -706.546337366678     Delta-E=        0.000007912297 Rises=F Damp=F
 DIIS: error= 1.64D-05 at cycle   1 NSaved=   1.
 NSaved= 1 IEnMin= 1 EnMin= -706.546337366678     IErMin= 1 ErrMin= 1.64D-05
 ErrMax= 1.64D-05  0.00D+00 EMaxC= 1.00D-01 BMatC= 1.93D-07 BMatP= 1.93D-07
 IDIUse=1 WtCom= 1.00D+00 WtEn= 0.00D+00
 Coeff-Com:  0.100D+01
 Coeff:      0.100D+01
 Gap=     0.170 Goal=   None    Shift=    0.000
 RMSDP=2.62D-06 MaxDP=1.76D-04 DE= 7.91D-06 OVMax= 9.25D-05

 Cycle  11  Pass 1  IDiag  1:
 E= -706.546337425989     Delta-E=       -0.000000059311 Rises=F Damp=F
 DIIS: error= 1.42D-05 at cycle   2 NSaved=   2.
 NSaved= 2 IEnMin= 2 EnMin= -706.546337425989     IErMin= 2 ErrMin= 1.42D-05
 ErrMax= 1.42D-05  0.00D+00 EMaxC= 1.00D-01 BMatC= 1.22D-07 BMatP= 1.93D-07
 IDIUse=1 WtCom= 1.00D+00 WtEn= 0.00D+00
 Coeff-Com:  0.419D+00 0.581D+00
 Coeff:      0.419D+00 0.581D+00
 Gap=     0.170 Goal=   None    Shift=    0.000
 RMSDP=1.31D-06 MaxDP=8.53D-05 DE=-5.93D-08 OVMax= 8.93D-05

 Cycle  12  Pass 1  IDiag  1:
 E= -706.546337470975     Delta-E=       -0.000000044986 Rises=F Damp=F
 DIIS: error= 9.20D-06 at cycle   3 NSaved=   3.
 NSaved= 3 IEnMin= 3 EnMin= -706.546337470975     IErMin= 3 ErrMin= 9.20D-06
 ErrMax= 9.20D-06  0.00D+00 EMaxC= 1.00D-01 BMatC= 6.39D-08 BMatP= 1.22D-07
 IDIUse=1 WtCom= 1.00D+00 WtEn= 0.00D+00
 Coeff-Com:  0.238D-01 0.414D+00 0.562D+00
 Coeff:      0.238D-01 0.414D+00 0.562D+00
 Gap=     0.170 Goal=   None    Shift=    0.000
 RMSDP=7.29D-07 MaxDP=5.89D-05 DE=-4.50D-08 OVMax= 9.27D-05

 Cycle  13  Pass 1  IDiag  1:
 E= -706.546337504401     Delta-E=       -0.000000033426 Rises=F Damp=F
 DIIS: error= 7.66D-06 at cycle   4 NSaved=   4.
 NSaved= 4 IEnMin= 4 EnMin= -706.546337504401     IErMin= 4 ErrMin= 7.66D-06
 ErrMax= 7.66D-06  0.00D+00 EMaxC= 1.00D-01 BMatC= 1.76D-08 BMatP= 6.39D-08
 IDIUse=1 WtCom= 1.00D+00 WtEn= 0.00D+00
 Coeff-Com: -0.111D-01 0.275D+00 0.429D+00 0.306D+00
 Coeff:     -0.111D-01 0.275D+00 0.429D+00 0.306D+00
 Gap=     0.170 Goal=   None    Shift=    0.000
 RMSDP=3.36D-07 MaxDP=2.31D-05 DE=-3.34D-08 OVMax= 4.82D-05

 Cycle  14  Pass 1  IDiag  1:
 E= -706.546337517925     Delta-E=       -0.000000013524 Rises=F Damp=F
 DIIS: error= 1.08D-06 at cycle   5 NSaved=   5.
 NSaved= 5 IEnMin= 5 EnMin= -706.546337517925     IErMin= 5 ErrMin= 1.08D-06
 ErrMax= 1.08D-06  0.00D+00 EMaxC= 1.00D-01 BMatC= 5.41D-10 BMatP= 1.76D-08
 IDIUse=1 WtCom= 1.00D+00 WtEn= 0.00D+00
 Coeff-Com: -0.898D-02 0.137D+00 0.220D+00 0.193D+00 0.459D+00
 Coeff:     -0.898D-02 0.137D+00 0.220D+00 0.193D+00 0.459D+00
 Gap=     0.170 Goal=   None    Shift=    0.000
 RMSDP=6.18D-08 MaxDP=3.77D-06 DE=-1.35D-08 OVMax= 7.39D-06

 Cycle  15  Pass 1  IDiag  1:
 E= -706.546337518295     Delta-E=       -0.000000000370 Rises=F Damp=F
 DIIS: error= 3.24D-07 at cycle   6 NSaved=   6.
 NSaved= 6 IEnMin= 6 EnMin= -706.546337518295     IErMin= 6 ErrMin= 3.24D-07
 ErrMax= 3.24D-07  0.00D+00 EMaxC= 1.00D-01 BMatC= 5.79D-11 BMatP= 5.41D-10
 IDIUse=1 WtCom= 1.00D+00 WtEn= 0.00D+00
 Coeff-Com: -0.472D-02 0.616D-01 0.998D-01 0.923D-01 0.294D+00 0.457D+00
 Coeff:     -0.472D-02 0.616D-01 0.998D-01 0.923D-01 0.294D+00 0.457D+00
 Gap=     0.170 Goal=   None    Shift=    0.000
 RMSDP=2.07D-08 MaxDP=1.63D-06 DE=-3.70D-10 OVMax= 1.91D-06

 Cycle  16  Pass 1  IDiag  1:
 E= -706.546337518342     Delta-E=       -0.000000000047 Rises=F Damp=F
 DIIS: error= 7.57D-08 at cycle   7 NSaved=   7.
 NSaved= 7 IEnMin= 7 EnMin= -706.546337518342     IErMin= 7 ErrMin= 7.57D-08
 ErrMax= 7.57D-08  0.00D+00 EMaxC= 1.00D-01 BMatC= 4.17D-12 BMatP= 5.79D-11
 IDIUse=1 WtCom= 1.00D+00 WtEn= 0.00D+00
 Coeff-Com: -0.146D-02 0.167D-01 0.273D-01 0.256D-01 0.102D+00 0.255D+00
 Coeff-Com:  0.574D+00
 Coeff:     -0.146D-02 0.167D-01 0.273D-01 0.256D-01 0.102D+00 0.255D+00
 Coeff:      0.574D+00
 Gap=     0.170 Goal=   None    Shift=    0.000
 RMSDP=8.21D-09 MaxDP=5.63D-07 DE=-4.73D-11 OVMax= 9.75D-07

 SCF Done:  E(RB3LYP) =  -706.546337518     A.U. after   16 cycles
            NFock= 16  Conv=0.82D-08     -V/T= 2.0050
 KE= 7.030333083672D+02 PE=-3.098927219152D+03 EE= 9.673324288266D+02
 Leave Link  502 at Tue Aug 24 22:07:45 2021, MaxMem= 24159191040 cpu:       305.0
 (Enter /public/home/users/caep010/software/Gaussian09/g09/l801.exe)
 DoSCS=F DFT=T ScalE2(SS,OS)=  1.000000  1.000000
 Range of M.O.s used for correlation:     1   346
 NBasis=   346 NAE=    44 NBE=    44 NFC=     0 NFV=     0
 NROrb=    346 NOA=    44 NOB=    44 NVA=   302 NVB=   302

 **** Warning!!: The largest alpha MO coefficient is  0.56749778D+02

 Leave Link  801 at Tue Aug 24 22:07:45 2021, MaxMem= 24159191040 cpu:         0.9
 (Enter /public/home/users/caep010/software/Gaussian09/g09/l1101.exe)
 Using compressed storage, NAtomX=    14.
 Will process     15 centers per pass.
 Leave Link 1101 at Tue Aug 24 22:07:46 2021, MaxMem= 24159191040 cpu:        19.3
 (Enter /public/home/users/caep010/software/Gaussian09/g09/l1102.exe)
 Symmetrizing basis deriv contribution to polar:
 IMax=3 JMax=2 DiffMx= 0.00D+00
 Leave Link 1102 at Tue Aug 24 22:07:47 2021, MaxMem= 24159191040 cpu:         1.1
 (Enter /public/home/users/caep010/software/Gaussian09/g09/l1110.exe)
 Forming Gx(P) for the SCF density, NAtomX=    14.
 Integral derivatives from FoFJK, PRISM(SPDF).
 Do as many integral derivatives as possible in FoFJK.
 G2DrvN: MDV=   24159190824.
 G2DrvN: will do    15 centers at a time, making    1 passes.
 Calling FoFCou, ICntrl=  3107 FMM=F I1Cent=   0 AccDes= 0.00D+00.
 FoFJK:  IHMeth= 1 ICntrl=    3107 DoSepK=F KAlg= 0 I1Cent=   0 FoldK=F
 IRaf=         0 NMat=   1 IRICut=       1 DoRegI=T DoRafI=F ISym2E= 0.
 FoFCou: FMM=F IPFlag=           0 FMFlag=      100000 FMFlg1=           0
         NFxFlg=           0 DoJE=F BraDBF=F KetDBF=F FulRan=T
         wScrn=  0.000000 ICntrl=    3107 IOpCl=  0 I1Cent=           0 NGrid=           0
         NMat0=    1 NMatS0=      1 NMatT0=    0 NMatD0=    1 NMtDS0=    0 NMtDT0=    0
 Symmetry not used in FoFCou.
 End of G2Drv F.D. properties file   721 does not exist.
 End of G2Drv F.D. properties file   722 does not exist.
 End of G2Drv F.D. properties file   788 does not exist.
 Leave Link 1110 at Tue Aug 24 22:08:04 2021, MaxMem= 24159191040 cpu:       541.2
 (Enter /public/home/users/caep010/software/Gaussian09/g09/l1002.exe)
 Minotr:  Closed shell wavefunction.
          IDoAtm=11111111111111
          Direct CPHF calculation.
          Differentiating once with respect to nuclear coordinates.
          Requested convergence is 1.0D-08 RMS, and 1.0D-07 maximum.
          Secondary convergence is 1.0D-12 RMS, and 1.0D-12 maximum.
          NewPWx=T KeepS1=F KeepF1=F KeepIn=T MapXYZ=F SortEE=F KeepMc=T.
          MDV=   24159190550 using IRadAn=       2.
 Generate precomputed XC quadrature information.
 Keep R1 ints in memory in canonical form, NReq=1829986810.
 FoFCou: FMM=F IPFlag=           0 FMFlag=           0 FMFlg1=           0
         NFxFlg=           0 DoJE=F BraDBF=F KetDBF=F FulRan=T
         wScrn=  0.000000 ICntrl=     600 IOpCl=  0 I1Cent=           0 NGrid=           0
         NMat0=    1 NMatS0=  60031 NMatT0=    0 NMatD0=    1 NMtDS0=    0 NMtDT0=    0
 Symmetry not used in FoFCou.
          Solving linear equations simultaneously, MaxMat=       0.
          There are    45 degrees of freedom in the 1st order CPHF.  IDoFFX=6 NUNeed=     0.
     39 vectors produced by pass  0 Test12= 2.95D-14 2.22D-09 XBig12= 2.69D-01 1.71D-01.
 AX will form    39 AO Fock derivatives at one time.
     39 vectors produced by pass  1 Test12= 2.95D-14 2.22D-09 XBig12= 3.21D-02 7.56D-02.
     39 vectors produced by pass  2 Test12= 2.95D-14 2.22D-09 XBig12= 1.13D-03 3.84D-03.
     39 vectors produced by pass  3 Test12= 2.95D-14 2.22D-09 XBig12= 2.49D-05 6.91D-04.
     39 vectors produced by pass  4 Test12= 2.95D-14 2.22D-09 XBig12= 1.26D-07 4.62D-05.
     39 vectors produced by pass  5 Test12= 2.95D-14 2.22D-09 XBig12= 4.08D-10 1.94D-06.
     33 vectors produced by pass  6 Test12= 2.95D-14 2.22D-09 XBig12= 9.24D-13 1.13D-07.
      5 vectors produced by pass  7 Test12= 2.95D-14 2.22D-09 XBig12= 1.53D-15 4.13D-09.
 InvSVY:  IOpt=1 It=  1 EMax= 2.22D-15
 Solved reduced A of dimension   272 with    39 vectors.
 End of Minotr F.D. properties file   721 does not exist.
 End of Minotr F.D. properties file   722 does not exist.
 End of Minotr F.D. properties file   788 does not exist.
 Leave Link 1002 at Tue Aug 24 22:08:36 2021, MaxMem= 24159191040 cpu:      1004.1
 (Enter /public/home/users/caep010/software/Gaussian09/g09/l601.exe)
 Copying SCF densities to generalized density rwf, IOpCl= 0 IROHF=0.

 **********************************************************************

            Population analysis using the SCF density.

 **********************************************************************

 Orbital symmetries:
       Occupied  (A) (A) (A) (A) (A) (A) (A) (A) (A) (A) (A) (A)
                 (A) (A) (A) (A) (A) (A) (A) (A) (A) (A) (A) (A)
                 (A) (A) (A) (A) (A) (A) (A) (A) (A) (A) (A) (A)
                 (A) (A) (A) (A) (A) (A) (A) (A)
       Virtual   (A) (A) (A) (A) (A) (A) (A) (A) (A) (A) (A) (A)
                 (A) (A) (A) (A) (A) (A) (A) (A) (A) (A) (A) (A)
                 (A) (A) (A) (A) (A) (A) (A) (A) (A) (A) (A) (A)
                 (A) (A) (A) (A) (A) (A) (A) (A) (A) (A) (A) (A)
                 (A) (A) (A) (A) (A) (A) (A) (A) (A) (A) (A) (A)
                 (A) (A) (A) (A) (A) (A) (A) (A) (A) (A) (A) (A)
                 (A) (A) (A) (A) (A) (A) (A) (A) (A) (A) (A) (A)
                 (A) (A) (A) (A) (A) (A) (A) (A) (A) (A) (A) (A)
                 (A) (A) (A) (A) (A) (A) (A) (A) (A) (A) (A) (A)
                 (A) (A) (A) (A) (A) (A) (A) (A) (A) (A) (A) (A)
                 (A) (A) (A) (A) (A) (A) (A) (A) (A) (A) (A) (A)
                 (A) (A) (A) (A) (A) (A) (A) (A) (A) (A) (A) (A)
                 (A) (A) (A) (A) (A) (A) (A) (A) (A) (A) (A) (A)
                 (A) (A) (A) (A) (A) (A) (A) (A) (A) (A) (A) (A)
                 (A) (A) (A) (A) (A) (A) (A) (A) (A) (A) (A) (A)
                 (A) (A) (A) (A) (A) (A) (A) (A) (A) (A) (A) (A)
                 (A) (A) (A) (A) (A) (A) (A) (A) (A) (A) (A) (A)
                 (A) (A) (A) (A) (A) (A) (A) (A) (A) (A) (A) (A)
                 (A) (A) (A) (A) (A) (A) (A) (A) (A) (A) (A) (A)
                 (A) (A) (A) (A) (A) (A) (A) (A) (A) (A) (A) (A)
                 (A) (A) (A) (A) (A) (A) (A) (A) (A) (A) (A) (A)
                 (A) (A) (A) (A) (A) (A) (A) (A) (A) (A) (A) (A)
                 (A) (A) (A) (A) (A) (A) (A) (A) (A) (A) (A) (A)
                 (A) (A) (A) (A) (A) (A) (A) (A) (A) (A) (A) (A)
                 (A) (A) (A) (A) (A) (A) (A) (A) (A) (A) (A) (A)
                 (A) (A)
 The electronic state is 1-A.
 Alpha  occ. eigenvalues --  -19.22650 -19.22253 -19.19210 -19.19075 -14.62322
 Alpha  occ. eigenvalues --  -14.58890 -14.52558 -14.43210 -14.41011 -14.40288
 Alpha  occ. eigenvalues --  -10.35691 -10.33104  -1.28777  -1.24982  -1.18221
 Alpha  occ. eigenvalues --   -1.11097  -1.07374  -1.05355  -0.96635  -0.90247
 Alpha  occ. eigenvalues --   -0.81426  -0.77295  -0.70313  -0.63129  -0.62045
 Alpha  occ. eigenvalues --   -0.60669  -0.58215  -0.57977  -0.56223  -0.56003
 Alpha  occ. eigenvalues --   -0.55010  -0.51867  -0.50331  -0.42381  -0.38995
 Alpha  occ. eigenvalues --   -0.36902  -0.36204  -0.35850  -0.34968  -0.34108
 Alpha  occ. eigenvalues --   -0.33052  -0.32781  -0.32513  -0.30716
 Alpha virt. eigenvalues --   -0.13696  -0.10807  -0.01931   0.02453   0.05261
 Alpha virt. eigenvalues --    0.08733   0.10287   0.12306   0.15303   0.18918
 Alpha virt. eigenvalues --    0.19624   0.21420   0.22449   0.27128   0.29447
 Alpha virt. eigenvalues --    0.31609   0.34196   0.35456   0.35888   0.39728
 Alpha virt. eigenvalues --    0.42401   0.43479   0.46416   0.48570   0.49687
 Alpha virt. eigenvalues --    0.50264   0.50837   0.51728   0.53893   0.54710
 Alpha virt. eigenvalues --    0.55105   0.57950   0.58745   0.60340   0.61037
 Alpha virt. eigenvalues --    0.62018   0.64003   0.64792   0.66820   0.68179
 Alpha virt. eigenvalues --    0.69557   0.73307   0.73831   0.74974   0.75085
 Alpha virt. eigenvalues --    0.76712   0.77583   0.78196   0.79571   0.81034
 Alpha virt. eigenvalues --    0.83564   0.83779   0.85493   0.86488   0.87135
 Alpha virt. eigenvalues --    0.88690   0.89888   0.90587   0.93200   0.94166
 Alpha virt. eigenvalues --    0.94978   0.95903   0.96139   0.96599   0.98017
 Alpha virt. eigenvalues --    0.99447   1.00667   1.04228   1.05035   1.07050
 Alpha virt. eigenvalues --    1.07719   1.09239   1.11057   1.11446   1.12640
 Alpha virt. eigenvalues --    1.18233   1.21299   1.23618   1.24599   1.26827
 Alpha virt. eigenvalues --    1.27968   1.28260   1.29829   1.31505   1.32061
 Alpha virt. eigenvalues --    1.32983   1.35046   1.35333   1.38710   1.42502
 Alpha virt. eigenvalues --    1.46169   1.46476   1.49995   1.52361   1.53658
 Alpha virt. eigenvalues --    1.55930   1.57304   1.57593   1.58829   1.59381
 Alpha virt. eigenvalues --    1.60459   1.62740   1.63713   1.68510   1.70187
 Alpha virt. eigenvalues --    1.71993   1.72753   1.74947   1.77140   1.77760
 Alpha virt. eigenvalues --    1.82187   1.84862   1.86630   1.87524   1.89909
 Alpha virt. eigenvalues --    1.97210   2.01366   2.04061   2.08745   2.12931
 Alpha virt. eigenvalues --    2.14277   2.16898   2.17412   2.25734   2.30356
 Alpha virt. eigenvalues --    2.38127   2.43541   2.45505   2.50126   2.61611
 Alpha virt. eigenvalues --    2.67653   2.73919   2.78487   2.84302   2.87067
 Alpha virt. eigenvalues --    2.89719   2.94139   2.96722   2.97052   3.02066
 Alpha virt. eigenvalues --    3.05530   3.07951   3.09177   3.11300   3.20193
 Alpha virt. eigenvalues --    3.23530   3.25035   3.29363   3.37519   3.38098
 Alpha virt. eigenvalues --    3.41586   3.46014   3.46868   3.48500   3.52390
 Alpha virt. eigenvalues --    3.54265   3.57819   3.58482   3.60629   3.61928
 Alpha virt. eigenvalues --    3.64456   3.66126   3.70743   3.72241   3.74341
 Alpha virt. eigenvalues --    3.77937   3.80025   3.82646   3.84582   3.89533
 Alpha virt. eigenvalues --    3.90031   3.92165   3.93009   3.96649   3.97181
 Alpha virt. eigenvalues --    3.98648   4.00160   4.02067   4.02388   4.03928
 Alpha virt. eigenvalues --    4.04431   4.05762   4.08152   4.09637   4.10092
 Alpha virt. eigenvalues --    4.10855   4.12555   4.15600   4.18034   4.18847
 Alpha virt. eigenvalues --    4.19955   4.21421   4.24657   4.26713   4.28864
 Alpha virt. eigenvalues --    4.29285   4.29942   4.30646   4.32414   4.32923
 Alpha virt. eigenvalues --    4.34927   4.36385   4.38314   4.40309   4.42101
 Alpha virt. eigenvalues --    4.42721   4.43653   4.46137   4.47840   4.48878
 Alpha virt. eigenvalues --    4.50708   4.52585   4.53580   4.55249   4.57150
 Alpha virt. eigenvalues --    4.58980   4.60644   4.61408   4.62208   4.68035
 Alpha virt. eigenvalues --    4.69563   4.71362   4.73015   4.73302   4.75278
 Alpha virt. eigenvalues --    4.79138   4.79813   4.83907   4.87787   4.90572
 Alpha virt. eigenvalues --    4.94390   4.94888   4.97603   4.98176   4.99131
 Alpha virt. eigenvalues --    4.99658   5.01340   5.02944   5.03361   5.03760
 Alpha virt. eigenvalues --    5.06723   5.07200   5.10826   5.16102   5.16985
 Alpha virt. eigenvalues --    5.17794   5.22325   5.26391   5.27579   5.30361
 Alpha virt. eigenvalues --    5.33400   5.36761   5.40258   5.44923   5.48586
 Alpha virt. eigenvalues --    5.51106   5.52442   5.55739   5.57693   5.61190
 Alpha virt. eigenvalues --    5.64631   5.72811   5.74997   5.85664   5.86228
 Alpha virt. eigenvalues --    5.88205   5.91911   5.97203   6.02384   6.04747
 Alpha virt. eigenvalues --    6.10516   6.13455   6.21000   6.22654   6.22991
 Alpha virt. eigenvalues --    6.29605   6.38606   6.47683   6.68721   6.77463
 Alpha virt. eigenvalues --    6.84238   6.88675   7.02256   7.06462   8.61180
 Alpha virt. eigenvalues --   10.70142  11.07432  11.14142  11.24764  11.27106
 Alpha virt. eigenvalues --   11.35469  11.36999  11.42612  12.86238  12.97239
 Alpha virt. eigenvalues --   13.08894  13.16569  14.10820  17.09669  20.63226
 Alpha virt. eigenvalues --   21.18360  27.13760
          Condensed to atoms (all electrons):
               1          2          3          4          5          6
     1  N    6.222941   0.358741  -0.098010  -0.030446   0.365795   0.000401
     2  N    0.358741   6.556472   0.481984  -0.071831  -0.063532  -0.014664
     3  C   -0.098010   0.481984   4.623635   0.520444  -0.126738   0.294438
     4  N   -0.030446  -0.071831   0.520444   6.417332   0.477833  -0.012903
     5  C    0.365795  -0.063532  -0.126738   0.477833   4.741609  -0.008571
     6  N    0.000401  -0.014664   0.294438  -0.012903  -0.008571   5.325872
     7  N    0.367405  -0.045547   0.005891   0.004836  -0.052874   0.000045
     8  H   -0.040724   0.003192  -0.000460   0.000378   0.001422  -0.000001
     9  O    0.001210   0.004905  -0.095250   0.001503  -0.000188   0.528578
    10  O    0.000011   0.001876  -0.095464   0.001437   0.001138   0.532561
    11  N   -0.008204   0.000501  -0.007367  -0.011319   0.314536  -0.000018
    12  O   -0.009348   0.000017  -0.000001   0.000881  -0.086424  -0.000000
    13  O    0.001284  -0.000069   0.000762  -0.000850  -0.091980  -0.000003
    14  H   -0.041603   0.001019  -0.000360   0.000163   0.001330  -0.000002
               7          8          9         10         11         12
     1  N    0.367405  -0.040724   0.001210   0.000011  -0.008204  -0.009348
     2  N   -0.045547   0.003192   0.004905   0.001876   0.000501   0.000017
     3  C    0.005891  -0.000460  -0.095250  -0.095464  -0.007367  -0.000001
     4  N    0.004836   0.000378   0.001503   0.001437  -0.011319   0.000881
     5  C   -0.052874   0.001422  -0.000188   0.001138   0.314536  -0.086424
     6  N    0.000045  -0.000001   0.528578   0.532561  -0.000018  -0.000000
     7  N    6.307262   0.363588   0.000001   0.000000  -0.001050  -0.011535
     8  H    0.363588   0.434876  -0.000000  -0.000000  -0.001502   0.031460
     9  O    0.000001  -0.000000   7.959874  -0.071379  -0.000000  -0.000000
    10  O    0.000000  -0.000000  -0.071379   7.961361  -0.000002   0.000000
    11  N   -0.001050  -0.001502  -0.000000  -0.000002   5.356844   0.499359
    12  O   -0.011535   0.031460  -0.000000   0.000000   0.499359   8.005612
    13  O    0.000005   0.000309   0.000000   0.000000   0.518641  -0.066571
    14  H    0.372104  -0.047842  -0.000000  -0.000000   0.000195   0.004067
              13         14
     1  N    0.001284  -0.041603
     2  N   -0.000069   0.001019
     3  C    0.000762  -0.000360
     4  N   -0.000850   0.000163
     5  C   -0.091980   0.001330
     6  N   -0.000003  -0.000002
     7  N    0.000005   0.372104
     8  H    0.000309  -0.047842
     9  O    0.000000  -0.000000
    10  O    0.000000  -0.000000
    11  N    0.518641   0.000195
    12  O   -0.066571   0.004067
    13  O    7.929197   0.000008
    14  H    0.000008   0.453868
 Mulliken charges:
               1
     1  N   -0.089453
     2  N   -0.213064
     3  C    0.496496
     4  N   -0.297457
     5  C    0.526645
     6  N    0.354266
     7  N   -0.310131
     8  H    0.255303
     9  O   -0.329253
    10  O   -0.331540
    11  N    0.339387
    12  O   -0.367516
    13  O   -0.290734
    14  H    0.257052
 Sum of Mulliken charges =  -0.00000
 Mulliken charges with hydrogens summed into heavy atoms:
               1
     1  N   -0.089453
     2  N   -0.213064
     3  C    0.496496
     4  N   -0.297457
     5  C    0.526645
     6  N    0.354266
     7  N    0.202224
     9  O   -0.329253
    10  O   -0.331540
    11  N    0.339387
    12  O   -0.367516
    13  O   -0.290734
 APT charges:
               1
     1  N   -0.350327
     2  N    0.116200
     3  C   -0.032119
     4  N   -0.172068
     5  C    0.116472
     6  N   -1.261490
     7  N   -0.557323
     8  H    0.436030
     9  O    0.691185
    10  O    0.525585
    11  N   -1.147628
    12  O    0.515806
    13  O    0.539604
    14  H    0.580072
 Sum of APT charges =  -0.00000
 APT charges with hydrogens summed into heavy atoms:
               1
     1  N   -0.350327
     2  N    0.116200
     3  C   -0.032119
     4  N   -0.172068
     5  C    0.116472
     6  N   -1.261490
     7  N    0.458779
     9  O    0.691185
    10  O    0.525585
    11  N   -1.147628
    12  O    0.515806
    13  O    0.539604
 Electronic spatial extent (au):  <R**2>=           2030.1186
 Charge=             -0.0000 electrons
 Dipole moment (field-independent basis, Debye):
    X=              3.9034    Y=              2.4871    Z=              0.7365  Tot=              4.6867
 Quadrupole moment (field-independent basis, Debye-Ang):
   XX=            -76.7659   YY=            -73.5817   ZZ=            -60.0177
   XY=              6.5532   XZ=              1.3855   YZ=              2.1642
 Traceless Quadrupole moment (field-independent basis, Debye-Ang):
   XX=             -6.6442   YY=             -3.4599   ZZ=             10.1041
   XY=              6.5532   XZ=              1.3855   YZ=              2.1642
 Octapole moment (field-independent basis, Debye-Ang**2):
  XXX=             28.9205  YYY=             -1.0088  ZZZ=              0.3581  XYY=             15.0762
  XXY=             17.2513  XXZ=              5.3973  XZZ=              1.8903  YZZ=             -0.1265
  YYZ=              3.0733  XYZ=              3.7476
 Hexadecapole moment (field-independent basis, Debye-Ang**3):
 XXXX=          -1895.5966 YYYY=           -648.2600 ZZZZ=            -52.6471 XXXY=             41.9084
 XXXZ=              8.1868 YYYX=             22.1903 YYYZ=             12.8745 ZZZX=              2.0135
 ZZZY=              1.9710 XXYY=           -391.0837 XXZZ=           -268.6105 YYZZ=           -100.7645
 XXYZ=              7.2429 YYXZ=              5.2624 ZZXY=              3.3604
 N-N= 7.220151444396D+02 E-N=-3.098927228726D+03  KE= 7.030333083672D+02
  Exact polarizability:   0.000   0.000   0.000   0.000   0.000   0.000
 Approx polarizability: 161.894   2.973 194.388  -2.699  -7.589  62.841
 No NMR shielding tensors so no spin-rotation constants.
 Leave Link  601 at Tue Aug 24 22:08:37 2021, MaxMem= 24159191040 cpu:        17.7
 (Enter /public/home/users/caep010/software/Gaussian09/g09/l701.exe)
 Compute integral second derivatives.
 ... and contract with generalized density number  0.
 Leave Link  701 at Tue Aug 24 22:08:38 2021, MaxMem= 24159191040 cpu:        20.9
 (Enter /public/home/users/caep010/software/Gaussian09/g09/l702.exe)
 L702 exits ... SP integral derivatives will be done elsewhere.
 Leave Link  702 at Tue Aug 24 22:08:38 2021, MaxMem= 24159191040 cpu:         0.8
 (Enter /public/home/users/caep010/software/Gaussian09/g09/l703.exe)
 Compute integral second derivatives, UseDBF=F ICtDFT=           0.
 Integral derivatives from FoFJK, PRISM(SPDF).
 Calling FoFJK, ICntrl=    100147 FMM=F ISym2X=0 I1Cent= 0 IOpClX= 0 NMat=1 NMatS=1 NMatT=0.
 FoFJK:  IHMeth= 1 ICntrl=  100147 DoSepK=F KAlg= 0 I1Cent=   0 FoldK=F
 IRaf=         0 NMat=   1 IRICut=       1 DoRegI=T DoRafI=F ISym2E= 0.
 FoFCou: FMM=F IPFlag=           0 FMFlag=      100000 FMFlg1=         800
         NFxFlg=           0 DoJE=F BraDBF=F KetDBF=F FulRan=T
         wScrn=  0.000000 ICntrl=  100147 IOpCl=  0 I1Cent=           0 NGrid=           0
         NMat0=    1 NMatS0=      1 NMatT0=    0 NMatD0=    1 NMtDS0=    0 NMtDT0=    0
 Symmetry not used in FoFCou.
 Leave Link  703 at Tue Aug 24 22:09:15 2021, MaxMem= 24159191040 cpu:      1161.2
 (Enter /public/home/users/caep010/software/Gaussian09/g09/l716.exe)
 Dipole        = 1.53572533D+00 9.78487812D-01 2.89775770D-01
 Polarizability= 0.00000000D+00 0.00000000D+00 0.00000000D+00
                 0.00000000D+00 0.00000000D+00 0.00000000D+00
 ***** Axes restored to original set *****
 -------------------------------------------------------------------
 Center     Atomic                   Forces (Hartrees/Bohr)
 Number     Number              X              Y              Z
 -------------------------------------------------------------------
      1        7           0.005560677    0.019708735    0.009018643
      2        7          -0.006599709   -0.004168836   -0.002971323
      3        6           0.011401030    0.000787793    0.002265307
      4        7          -0.007247070    0.001222514    0.002470444
      5        6           0.004901315   -0.011587622   -0.008065620
      6        7           0.022581341    0.003233029    0.000225169
      7        7           0.100565155    0.028788265    0.130623901
      8        1          -0.067231167   -0.132534215    0.009919592
      9        8          -0.005208945    0.001090188    0.001538076
     10        8          -0.010697622    0.001049390    0.001133196
     11        7           0.011291404   -0.010007413   -0.014507565
     12        8          -0.015732123    0.005401395    0.006984323
     13        8           0.000817247    0.002643768    0.002715998
     14        1          -0.044401533    0.094373007   -0.141350139
 -------------------------------------------------------------------
 Cartesian Forces:  Max     0.141350139 RMS     0.044583330
 FormGI is forming the generalized inverse of G from B-inverse, IUseBI=4.
 Leave Link  716 at Tue Aug 24 22:09:15 2021, MaxMem= 24159191040 cpu:         1.0
 (Enter /public/home/users/caep010/software/Gaussian09/g09/l103.exe)

 GradGradGradGradGradGradGradGradGradGradGradGradGradGradGradGradGradGrad
 Berny optimization.
 Red2BG is reusing G-inverse.
 Internal  Forces:  Max     0.172430234 RMS     0.030552422
 Search for a local minimum.
 Step number   1 out of a maximum of   68
 All quantities printed in internal units (Hartrees-Bohrs-Radians)
 RMS Force = .30552D-01 SwitMx=.10000D-02 MixMth= 1
 Mixed Optimization -- RFO/linear search
 Second derivative matrix not updated -- analytic derivatives used.
 ITU=  0
     Eigenvalues ---    0.00012   0.00157   0.00428   0.01130   0.01924
     Eigenvalues ---    0.02821   0.05024   0.05829   0.07861   0.11374
     Eigenvalues ---    0.11546   0.17721   0.18746   0.20218   0.20526
     Eigenvalues ---    0.22097   0.23240   0.24475   0.25089   0.27380
     Eigenvalues ---    0.27813   0.32577   0.36543   0.37993   0.40735
     Eigenvalues ---    0.45028   0.48590   0.50016   0.51961   0.61213
     Eigenvalues ---    0.62252   0.64541   0.78943   0.81393   0.89023
     Eigenvalues ---    0.98035
 RFO step:  Lambda=-6.01073173D-02 EMin= 1.18040008D-04
 Linear search not attempted -- first point.
 Iteration  1 RMS(Cart)=  0.04414381 RMS(Int)=  0.00253416
 Iteration  2 RMS(Cart)=  0.00233592 RMS(Int)=  0.00003925
 Iteration  3 RMS(Cart)=  0.00001060 RMS(Int)=  0.00003771
 Iteration  4 RMS(Cart)=  0.00000000 RMS(Int)=  0.00003771
 ITry= 1 IFail=0 DXMaxC= 1.74D-01 DCOld= 1.00D+10 DXMaxT= 3.00D-01 DXLimC= 3.00D+00 Rises=F
 Variable       Old X    -DE/DX   Delta X   Delta X   Delta X     New X
                                 (Linear)    (Quad)   (Total)
    R1        2.53814  -0.00108   0.00000  -0.01306  -0.01308   2.52506
    R2        2.54340   0.01037   0.00000   0.02877   0.02874   2.57214
    R3        2.63765   0.00821   0.00000   0.01254   0.01254   2.65018
    R4        2.49561   0.00609   0.00000   0.00906   0.00908   2.50469
    R5        2.52808   0.00720   0.00000   0.00913   0.00917   2.53724
    R6        2.74069   0.00836   0.00000   0.02324   0.02324   2.76393
    R7        2.48193   0.00306   0.00000  -0.00231  -0.00231   2.47962
    R8        2.72920   0.00585   0.00000   0.01557   0.01557   2.74476
    R9        2.30343   0.00170   0.00000   0.00062   0.00062   2.30405
   R10        2.31846  -0.00940   0.00000  -0.01605  -0.01605   2.30241
   R11        1.71304   0.14591   0.00000   0.14544   0.14544   1.85848
   R12        1.68307   0.17243   0.00000   0.16010   0.16010   1.84317
   R13        2.30573   0.01588   0.00000   0.01996   0.01996   2.32568
   R14        2.29796  -0.00268   0.00000  -0.00866  -0.00866   2.28931
    A1        1.89981   0.00017   0.00000  -0.00037  -0.00043   1.89938
    A2        2.07207   0.00363   0.00000   0.00377   0.00379   2.07587
    A3        2.31124  -0.00379   0.00000  -0.00336  -0.00333   2.30790
    A4        1.75934   0.00611   0.00000   0.01692   0.01689   1.77624
    A5        2.06404  -0.00831   0.00000  -0.02170  -0.02167   2.04237
    A6        2.11040   0.00078   0.00000   0.00074   0.00072   2.11112
    A7        2.10835   0.00755   0.00000   0.02112   0.02110   2.12945
    A8        1.73915   0.00671   0.00000   0.02032   0.02037   1.75952
    A9        1.96235  -0.00466   0.00000  -0.01505  -0.01509   1.94726
   A10        2.17450  -0.00569   0.00000  -0.00896  -0.00895   2.16555
   A11        2.14494   0.01037   0.00000   0.02434   0.02435   2.16929
   A12        2.04782  -0.00394   0.00000  -0.01318  -0.01319   2.03463
   A13        2.04242  -0.00406   0.00000  -0.01088  -0.01090   2.03152
   A14        2.19285   0.00803   0.00000   0.02420   0.02418   2.21703
   A15        1.78038   0.01333   0.00000   0.04548   0.04546   1.82584
   A16        1.90323  -0.01058   0.00000  -0.02826  -0.02828   1.87495
   A17        1.62835   0.02401   0.00000   0.12533   0.12527   1.75362
   A18        2.05996  -0.01091   0.00000  -0.02617  -0.02617   2.03379
   A19        2.03673   0.00224   0.00000   0.00757   0.00757   2.04430
   A20        2.18648   0.00868   0.00000   0.01862   0.01862   2.20509
    D1       -0.01042   0.00038   0.00000   0.00554   0.00560  -0.00482
    D2        3.12040   0.00042   0.00000   0.00819   0.00824   3.12864
    D3        0.00600   0.00035   0.00000  -0.00020  -0.00019   0.00580
    D4        3.09219   0.00107   0.00000   0.00716   0.00707   3.09925
    D5       -3.12280   0.00023   0.00000  -0.00342  -0.00337  -3.12617
    D6       -0.03661   0.00095   0.00000   0.00394   0.00389  -0.03272
    D7       -2.57021   0.01385   0.00000   0.05970   0.05975  -2.51045
    D8        2.00611  -0.01457   0.00000  -0.08666  -0.08668   1.91943
    D9        0.55758   0.01395   0.00000   0.06315   0.06316   0.62074
   D10       -1.14929  -0.01447   0.00000  -0.08322  -0.08327  -1.23256
   D11        0.01275  -0.00115   0.00000  -0.01009  -0.01005   0.00269
   D12       -3.09908  -0.00171   0.00000  -0.01651  -0.01642  -3.11550
   D13       -0.00929   0.00136   0.00000   0.00995   0.00993   0.00063
   D14        3.10257   0.00179   0.00000   0.01600   0.01599   3.11856
   D15        0.01933   0.00096   0.00000   0.00562   0.00567   0.02500
   D16       -3.10842  -0.00091   0.00000  -0.00458  -0.00454  -3.11296
   D17       -3.09174   0.00067   0.00000  -0.00022  -0.00027  -3.09201
   D18        0.06370  -0.00120   0.00000  -0.01043  -0.01048   0.05322
   D19        0.00150  -0.00092   0.00000  -0.00522  -0.00529  -0.00379
   D20       -3.08578  -0.00104   0.00000  -0.01124  -0.01134  -3.09712
   D21       -0.18835   0.00097   0.00000   0.00155   0.00153  -0.18682
   D22        2.95927  -0.00002   0.00000  -0.00147  -0.00149   2.95778
   D23        2.89225   0.00123   0.00000   0.00831   0.00833   2.90058
   D24       -0.24332   0.00024   0.00000   0.00529   0.00531  -0.23800
         Item               Value     Threshold  Converged?
 Maximum Force            0.172430     0.000450     NO 
 RMS     Force            0.030552     0.000300     NO 
 Maximum Displacement     0.173702     0.001800     NO 
 RMS     Displacement     0.044684     0.001200     NO 
 Predicted change in Energy=-3.293938D-02
 Lowest energy point so far.  Saving SCF results.
 GradGradGradGradGradGradGradGradGradGradGradGradGradGradGradGradGradGrad

 Leave Link  103 at Tue Aug 24 22:09:15 2021, MaxMem= 24159191040 cpu:         5.5
 (Enter /public/home/users/caep010/software/Gaussian09/g09/l202.exe)
                          Input orientation:                          
 ---------------------------------------------------------------------
 Center     Atomic      Atomic             Coordinates (Angstroms)
 Number     Number       Type             X           Y           Z
 ---------------------------------------------------------------------
      1          7           0       -0.618644    1.715810    9.135976
      2          7           0        0.316922    2.364890    9.835158
      3          6           0        1.426116    1.769660    9.420263
      4          7           0        1.289948    0.792465    8.509624
      5          6           0       -0.012345    0.785229    8.349174
      6          7           0        2.731079    2.149285    9.960797
      7          7           0       -1.965126    2.062690    9.318821
      8          1           0       -2.452593    1.211579    9.246776
      9          8           0        2.734689    3.012749   10.821604
     10          8           0        3.698191    1.570185    9.498424
     11          7           0       -0.725675   -0.142192    7.488528
     12          8           0       -1.945842   -0.202678    7.637376
     13          8           0       -0.066203   -0.781692    6.698754
     14          1           0       -2.265117    2.508319    8.504724
 ---------------------------------------------------------------------
                    Distance matrix (angstroms):
                    1          2          3          4          5
     1  N    0.000000
     2  N    1.336204   0.000000
     3  C    2.065130   1.325424   0.000000
     4  N    2.210794   2.275157   1.342652   0.000000
     5  C    1.361117   2.193603   2.045851   1.312160   0.000000
     6  N    3.476906   2.427020   1.462608   2.454327   3.461843
     7  N    1.402416   2.359167   3.405390   3.586611   2.526950
     8  H    1.905228   3.057209   3.922491   3.837403   2.634819
     9  O    3.970924   2.690427   2.285037   3.515991   4.315201
    10  O    4.334471   3.489689   2.282154   2.717022   3.962955
    11  N    2.485500   3.588751   3.466551   2.445191   1.452467
    12  O    2.772697   4.067277   4.294053   3.495921   2.284956
    13  O    3.533095   4.459236   4.017837   2.756150   2.276406
    14  H    1.933241   2.908186   3.874148   3.947489   2.840461
                    6          7          8          9         10
     6  N    0.000000
     7  N    4.740673   0.000000
     8  H    5.315973   0.983465   0.000000
     9  O    1.219251   5.024862   5.712459   0.000000
    10  O    1.218381   5.687529   6.166366   2.181773   0.000000
    11  N    4.828264   3.122133   2.811828   5.747797   5.151942
    12  O    5.727443   2.821261   2.201610   6.510426   6.201745
    13  O    5.201571   4.308267   4.020000   6.264238   5.247870
    14  H    5.216419   0.975363   1.505764   5.533574   6.117890
                   11         12         13         14
    11  N    0.000000
    12  O    1.230699   0.000000
    13  O    1.211448   2.179292   0.000000
    14  H    3.229202   2.864216   4.349819   0.000000
 Stoichiometry    C2H2N6O4
 Framework group  C1[X(C2H2N6O4)]
 Deg. of freedom    36
 Full point group                 C1      NOp   1
 RotChk:  IX=0 Diff= 7.44D-03
 Largest Abelian subgroup         C1      NOp   1
 Largest concise Abelian subgroup C1      NOp   1
                         Standard orientation:                         
 ---------------------------------------------------------------------
 Center     Atomic      Atomic             Coordinates (Angstroms)
 Number     Number       Type             X           Y           Z
 ---------------------------------------------------------------------
      1          7           0        0.594531    1.110908    0.045865
      2          7           0       -0.730085    1.286482    0.042716
      3          6           0       -1.168533    0.035918    0.018202
      4          7           0       -0.241566   -0.935344    0.008410
      5          6           0        0.860732   -0.223822    0.029396
      6          7           0       -2.600483   -0.258584   -0.026620
      7          7           0        1.428478    2.238398    0.054151
      8          1           0        2.195448    1.983842   -0.506351
      9          8           0       -3.353413    0.699554   -0.067109
     10          8           0       -2.911871   -1.436449   -0.015465
     11          7           0        2.198865   -0.786201   -0.023419
     12          8           0        3.116436   -0.000466   -0.258585
     13          8           0        2.304858   -1.978361    0.164004
     14          1           0        1.855103    2.279743    0.930288
 ---------------------------------------------------------------------
 Rotational constants (GHZ):      2.0352491      0.6345118      0.4863431
 Leave Link  202 at Tue Aug 24 22:09:15 2021, MaxMem= 24159191040 cpu:         0.3
 (Enter /public/home/users/caep010/software/Gaussian09/g09/l301.exe)
 Standard basis: GTBas3 (6D, 7F)
 Ernie: Thresh=  0.10000D-02 Tol=  0.10000D-05 Strict=F.
 There are   382 symmetry adapted cartesian basis functions of A   symmetry.
 There are   346 symmetry adapted basis functions of A   symmetry.
   346 basis functions,   542 primitive gaussians,   382 cartesian basis functions
    44 alpha electrons       44 beta electrons
       nuclear repulsion energy       718.5535354048 Hartrees.
 IExCor=  402 DFT=T Ex+Corr=B3LYP ExCW=0 ScaHFX=  0.200000
 ScaDFX=  0.800000  0.720000  1.000000  0.810000 ScalE2=  1.000000  1.000000
 IRadAn=      0 IRanWt=     -1 IRanGd=            0 ICorTp=0 IEmpDi=  4
 NAtoms=   14 NActive=   14 NUniq=   14 SFac= 1.00D+00 NAtFMM=   60 NAOKFM=F Big=F
 Integral buffers will be    131072 words long.
 Raffenetti 2 integral format.
 Two-electron integral symmetry is turned on.
 Leave Link  301 at Tue Aug 24 22:09:15 2021, MaxMem= 24159191040 cpu:         1.9
 (Enter /public/home/users/caep010/software/Gaussian09/g09/l302.exe)
 NPDir=0 NMtPBC=     1 NCelOv=     1 NCel=       1 NClECP=     1 NCelD=      1
         NCelK=      1 NCelE2=     1 NClLst=     1 CellRange=     0.0.
 One-electron integrals computed using PRISM.
 NBasis=   346 RedAO= T EigKep=  1.22D-04  NBF=   346
 NBsUse=   346 1.00D-06 EigRej= -1.00D+00 NBFU=   346
 Precomputing XC quadrature grid using
 IXCGrd= 4 IRadAn=           0 IRanWt=          -1 IRanGd=           0 AccXCQ= 0.00D+00.
 Generated NRdTot=       0 NPtTot=           0 NUsed=           0 NTot=          32
 NSgBfM=   381   381   381   381   381 MxSgAt=    14 MxSgA2=    14.
 Leave Link  302 at Tue Aug 24 22:09:16 2021, MaxMem= 24159191040 cpu:        16.7
 (Enter /public/home/users/caep010/software/Gaussian09/g09/l303.exe)
 DipDrv:  MaxL=1.
 Leave Link  303 at Tue Aug 24 22:09:16 2021, MaxMem= 24159191040 cpu:         1.0
 (Enter /public/home/users/caep010/software/Gaussian09/g09/l401.exe)
 Initial guess from the checkpoint file:  "/public/home/users/caep010/.cache/gau_scr/Gau-620.chk"
 B after Tr=     0.000000   -0.000000    0.000000
         Rot=    0.999999   -0.000843   -0.000023   -0.000976 Ang=  -0.15 deg.
 Guess basis will be translated and rotated to current coordinates.
 JPrj=2 DoOrth=T DoCkMO=T.
 Generating alternative initial guess.
 ExpMin= 1.61D-01 ExpMax= 5.48D+03 ExpMxC= 8.25D+02 IAcc=1 IRadAn=         1 AccDes= 0.00D+00
 Harris functional with IExCor=  402 and IRadAn=       1 diagonalized for initial guess.
 HarFok:  IExCor=  402 AccDes= 0.00D+00 IRadAn=         1 IDoV= 1 UseB2=F ITyADJ=14
 ICtDFT=  3500011 ScaDFX=  1.000000  1.000000  1.000000  1.000000
 FoFCou: FMM=F IPFlag=           0 FMFlag=      100000 FMFlg1=           0
         NFxFlg=           0 DoJE=T BraDBF=F KetDBF=T FulRan=T
         wScrn=  0.000000 ICntrl=     500 IOpCl=  0 I1Cent=   200000004 NGrid=           0
         NMat0=    1 NMatS0=      1 NMatT0=    0 NMatD0=    1 NMtDS0=    0 NMtDT0=    0
 Petite list used in FoFCou.
 Harris En= -706.588838860363    
 Leave Link  401 at Tue Aug 24 22:09:17 2021, MaxMem= 24159191040 cpu:        20.3
 (Enter /public/home/users/caep010/software/Gaussian09/g09/l502.exe)
 Closed shell SCF:
 Using DIIS extrapolation, IDIIS=  1040.
 Integral symmetry usage will be decided dynamically.
 Keep R1 ints in memory in canonical form, NReq=1830452538.
 IVT=      471290 IEndB=      471290 NGot= 24159191040 MDV= 22356829255
 LenX= 22356829255 LenY= 22356682890
 Requested convergence on RMS density matrix=1.00D-08 within 128 cycles.
 Requested convergence on MAX density matrix=1.00D-06.
 Requested convergence on             energy=1.00D-06.
 No special actions if energy rises.
 FoFCou: FMM=F IPFlag=           0 FMFlag=           0 FMFlg1=           0
         NFxFlg=           0 DoJE=F BraDBF=F KetDBF=F FulRan=T
         wScrn=  0.000000 ICntrl=     600 IOpCl=  0 I1Cent=           0 NGrid=           0
         NMat0=    1 NMatS0=  60031 NMatT0=    0 NMatD0=    1 NMtDS0=    0 NMtDT0=    0
 Symmetry not used in FoFCou.
 Integral accuracy reduced to 1.0D-05 until final iterations.

 Cycle   1  Pass 0  IDiag  1:
 E= -706.576106775946    
 DIIS: error= 3.37D-03 at cycle   1 NSaved=   1.
 NSaved= 1 IEnMin= 1 EnMin= -706.576106775946     IErMin= 1 ErrMin= 3.37D-03
 ErrMax= 3.37D-03  0.00D+00 EMaxC= 1.00D-01 BMatC= 7.92D-03 BMatP= 7.92D-03
 IDIUse=3 WtCom= 9.66D-01 WtEn= 3.37D-02
 Coeff-Com:  0.100D+01
 Coeff-En:   0.100D+01
 Coeff:      0.100D+01
 Gap=     1.011 Goal=   None    Shift=    0.000
 GapD=    1.011 DampG=2.000 DampE=1.000 DampFc=2.0000 IDamp=-1.
 RMSDP=3.48D-04 MaxDP=3.13D-02              OVMax= 2.31D-02

 Cycle   2  Pass 0  IDiag  1:
 E= -706.581688974684     Delta-E=       -0.005582198738 Rises=F Damp=F
 DIIS: error= 1.74D-03 at cycle   2 NSaved=   2.
 NSaved= 2 IEnMin= 2 EnMin= -706.581688974684     IErMin= 2 ErrMin= 1.74D-03
 ErrMax= 1.74D-03  0.00D+00 EMaxC= 1.00D-01 BMatC= 1.32D-03 BMatP= 7.92D-03
 IDIUse=3 WtCom= 9.83D-01 WtEn= 1.74D-02
 Coeff-Com:  0.203D+00 0.797D+00
 Coeff-En:   0.000D+00 0.100D+01
 Coeff:      0.199D+00 0.801D+00
 Gap=     0.173 Goal=   None    Shift=    0.000
 RMSDP=1.75D-04 MaxDP=1.42D-02 DE=-5.58D-03 OVMax= 1.28D-02

 Cycle   3  Pass 0  IDiag  1:
 E= -706.581671948330     Delta-E=        0.000017026353 Rises=F Damp=F
 DIIS: error= 1.41D-03 at cycle   3 NSaved=   3.
 NSaved= 3 IEnMin= 2 EnMin= -706.581688974684     IErMin= 3 ErrMin= 1.41D-03
 ErrMax= 1.41D-03  0.00D+00 EMaxC= 1.00D-01 BMatC= 1.37D-03 BMatP= 1.32D-03
 IDIUse=3 WtCom= 9.86D-01 WtEn= 1.41D-02
 Coeff-Com:  0.200D-01 0.502D+00 0.478D+00
 Coeff-En:   0.000D+00 0.503D+00 0.497D+00
 Coeff:      0.197D-01 0.502D+00 0.478D+00
 Gap=     0.175 Goal=   None    Shift=    0.000
 RMSDP=1.12D-04 MaxDP=7.60D-03 DE= 1.70D-05 OVMax= 1.26D-02

 Cycle   4  Pass 0  IDiag  1:
 E= -706.582554137897     Delta-E=       -0.000882189567 Rises=F Damp=F
 DIIS: error= 7.38D-04 at cycle   4 NSaved=   4.
 NSaved= 4 IEnMin= 4 EnMin= -706.582554137897     IErMin= 4 ErrMin= 7.38D-04
 ErrMax= 7.38D-04  0.00D+00 EMaxC= 1.00D-01 BMatC= 3.21D-04 BMatP= 1.32D-03
 IDIUse=3 WtCom= 9.93D-01 WtEn= 7.38D-03
 Coeff-Com:  0.406D-03 0.317D+00 0.358D+00 0.325D+00
 Coeff-En:   0.000D+00 0.000D+00 0.164D+00 0.836D+00
 Coeff:      0.403D-03 0.315D+00 0.357D+00 0.328D+00
 Gap=     0.175 Goal=   None    Shift=    0.000
 RMSDP=4.75D-05 MaxDP=4.06D-03 DE=-8.82D-04 OVMax= 6.54D-03

 Cycle   5  Pass 0  IDiag  1:
 E= -706.582789559695     Delta-E=       -0.000235421797 Rises=F Damp=F
 DIIS: error= 1.81D-04 at cycle   5 NSaved=   5.
 NSaved= 5 IEnMin= 5 EnMin= -706.582789559695     IErMin= 5 ErrMin= 1.81D-04
 ErrMax= 1.81D-04  0.00D+00 EMaxC= 1.00D-01 BMatC= 2.25D-05 BMatP= 3.21D-04
 IDIUse=3 WtCom= 9.98D-01 WtEn= 1.81D-03
 Coeff-Com: -0.480D-02 0.108D+00 0.142D+00 0.222D+00 0.532D+00
 Coeff-En:   0.000D+00 0.000D+00 0.000D+00 0.758D-01 0.924D+00
 Coeff:     -0.479D-02 0.108D+00 0.142D+00 0.222D+00 0.532D+00
 Gap=     0.174 Goal=   None    Shift=    0.000
 RMSDP=1.37D-05 MaxDP=1.03D-03 DE=-2.35D-04 OVMax= 1.61D-03

 Cycle   6  Pass 0  IDiag  1:
 E= -706.582804553210     Delta-E=       -0.000014993515 Rises=F Damp=F
 DIIS: error= 5.46D-05 at cycle   6 NSaved=   6.
 NSaved= 6 IEnMin= 6 EnMin= -706.582804553210     IErMin= 6 ErrMin= 5.46D-05
 ErrMax= 5.46D-05  0.00D+00 EMaxC= 1.00D-01 BMatC= 3.35D-06 BMatP= 2.25D-05
 IDIUse=1 WtCom= 1.00D+00 WtEn= 0.00D+00
 Coeff-Com: -0.319D-02 0.415D-01 0.604D-01 0.116D+00 0.361D+00 0.424D+00
 Coeff:     -0.319D-02 0.415D-01 0.604D-01 0.116D+00 0.361D+00 0.424D+00
 Gap=     0.175 Goal=   None    Shift=    0.000
 RMSDP=4.57D-06 MaxDP=2.69D-04 DE=-1.50D-05 OVMax= 3.54D-04

 Initial convergence to 1.0D-05 achieved.  Increase integral accuracy.
 Cycle   7  Pass 1  IDiag  1:
 E= -706.582802498947     Delta-E=        0.000002054262 Rises=F Damp=F
 DIIS: error= 2.11D-05 at cycle   1 NSaved=   1.
 NSaved= 1 IEnMin= 1 EnMin= -706.582802498947     IErMin= 1 ErrMin= 2.11D-05
 ErrMax= 2.11D-05  0.00D+00 EMaxC= 1.00D-01 BMatC= 3.31D-07 BMatP= 3.31D-07
 IDIUse=1 WtCom= 1.00D+00 WtEn= 0.00D+00
 Coeff-Com:  0.100D+01
 Coeff:      0.100D+01
 Gap=     0.174 Goal=   None    Shift=    0.000
 RMSDP=4.57D-06 MaxDP=2.69D-04 DE= 2.05D-06 OVMax= 4.00D-04

 Cycle   8  Pass 1  IDiag  1:
 E= -706.582801919063     Delta-E=        0.000000579884 Rises=F Damp=F
 DIIS: error= 6.68D-05 at cycle   2 NSaved=   2.
 NSaved= 2 IEnMin= 1 EnMin= -706.582802498947     IErMin= 1 ErrMin= 2.11D-05
 ErrMax= 6.68D-05  0.00D+00 EMaxC= 1.00D-01 BMatC= 1.07D-06 BMatP= 3.31D-07
 IDIUse=1 WtCom= 1.00D+00 WtEn= 0.00D+00
 Coeff-Com:  0.669D+00 0.331D+00
 Coeff:      0.669D+00 0.331D+00
 Gap=     0.175 Goal=   None    Shift=    0.000
 RMSDP=2.97D-06 MaxDP=2.42D-04 DE= 5.80D-07 OVMax= 3.98D-04

 Cycle   9  Pass 1  IDiag  1:
 E= -706.582802691411     Delta-E=       -0.000000772348 Rises=F Damp=F
 DIIS: error= 2.58D-05 at cycle   3 NSaved=   3.
 NSaved= 3 IEnMin= 3 EnMin= -706.582802691411     IErMin= 1 ErrMin= 2.11D-05
 ErrMax= 2.58D-05  0.00D+00 EMaxC= 1.00D-01 BMatC= 1.11D-07 BMatP= 3.31D-07
 IDIUse=1 WtCom= 1.00D+00 WtEn= 0.00D+00
 Coeff-Com:  0.170D+00 0.233D+00 0.597D+00
 Coeff:      0.170D+00 0.233D+00 0.597D+00
 Gap=     0.175 Goal=   None    Shift=    0.000
 RMSDP=1.13D-06 MaxDP=9.70D-05 DE=-7.72D-07 OVMax= 1.63D-04

 Cycle  10  Pass 1  IDiag  1:
 E= -706.582802739194     Delta-E=       -0.000000047783 Rises=F Damp=F
 DIIS: error= 1.12D-05 at cycle   4 NSaved=   4.
 NSaved= 4 IEnMin= 4 EnMin= -706.582802739194     IErMin= 4 ErrMin= 1.12D-05
 ErrMax= 1.12D-05  0.00D+00 EMaxC= 1.00D-01 BMatC= 4.74D-08 BMatP= 1.11D-07
 IDIUse=1 WtCom= 1.00D+00 WtEn= 0.00D+00
 Coeff-Com:  0.558D-02 0.120D+00 0.466D+00 0.408D+00
 Coeff:      0.558D-02 0.120D+00 0.466D+00 0.408D+00
 Gap=     0.175 Goal=   None    Shift=    0.000
 RMSDP=5.53D-07 MaxDP=3.31D-05 DE=-4.78D-08 OVMax= 5.22D-05

 Cycle  11  Pass 1  IDiag  1:
 E= -706.582802776548     Delta-E=       -0.000000037355 Rises=F Damp=F
 DIIS: error= 1.58D-06 at cycle   5 NSaved=   5.
 NSaved= 5 IEnMin= 5 EnMin= -706.582802776548     IErMin= 5 ErrMin= 1.58D-06
 ErrMax= 1.58D-06  0.00D+00 EMaxC= 1.00D-01 BMatC= 1.73D-09 BMatP= 4.74D-08
 IDIUse=1 WtCom= 1.00D+00 WtEn= 0.00D+00
 Coeff-Com: -0.864D-02 0.549D-01 0.232D+00 0.243D+00 0.479D+00
 Coeff:     -0.864D-02 0.549D-01 0.232D+00 0.243D+00 0.479D+00
 Gap=     0.175 Goal=   None    Shift=    0.000
 RMSDP=1.24D-07 MaxDP=7.15D-06 DE=-3.74D-08 OVMax= 9.52D-06

 Cycle  12  Pass 1  IDiag  1:
 E= -706.582802777888     Delta-E=       -0.000000001339 Rises=F Damp=F
 DIIS: error= 5.39D-07 at cycle   6 NSaved=   6.
 NSaved= 6 IEnMin= 6 EnMin= -706.582802777888     IErMin= 6 ErrMin= 5.39D-07
 ErrMax= 5.39D-07  0.00D+00 EMaxC= 1.00D-01 BMatC= 2.14D-10 BMatP= 1.73D-09
 IDIUse=1 WtCom= 1.00D+00 WtEn= 0.00D+00
 Coeff-Com: -0.594D-02 0.255D-01 0.110D+00 0.123D+00 0.315D+00 0.434D+00
 Coeff:     -0.594D-02 0.255D-01 0.110D+00 0.123D+00 0.315D+00 0.434D+00
 Gap=     0.175 Goal=   None    Shift=    0.000
 RMSDP=4.73D-08 MaxDP=3.82D-06 DE=-1.34D-09 OVMax= 6.72D-06

 Cycle  13  Pass 1  IDiag  1:
 E= -706.582802777998     Delta-E=       -0.000000000110 Rises=F Damp=F
 DIIS: error= 3.28D-07 at cycle   7 NSaved=   7.
 NSaved= 7 IEnMin= 7 EnMin= -706.582802777998     IErMin= 7 ErrMin= 3.28D-07
 ErrMax= 3.28D-07  0.00D+00 EMaxC= 1.00D-01 BMatC= 6.39D-11 BMatP= 2.14D-10
 IDIUse=1 WtCom= 1.00D+00 WtEn= 0.00D+00
 Coeff-Com: -0.349D-02 0.121D-01 0.524D-01 0.609D-01 0.176D+00 0.340D+00
 Coeff-Com:  0.362D+00
 Coeff:     -0.349D-02 0.121D-01 0.524D-01 0.609D-01 0.176D+00 0.340D+00
 Coeff:      0.362D+00
 Gap=     0.175 Goal=   None    Shift=    0.000
 RMSDP=2.16D-08 MaxDP=1.78D-06 DE=-1.10D-10 OVMax= 2.88D-06

 Cycle  14  Pass 1  IDiag  1:
 E= -706.582802778033     Delta-E=       -0.000000000035 Rises=F Damp=F
 DIIS: error= 7.31D-08 at cycle   8 NSaved=   8.
 NSaved= 8 IEnMin= 8 EnMin= -706.582802778033     IErMin= 8 ErrMin= 7.31D-08
 ErrMax= 7.31D-08  0.00D+00 EMaxC= 1.00D-01 BMatC= 3.09D-12 BMatP= 6.39D-11
 IDIUse=1 WtCom= 1.00D+00 WtEn= 0.00D+00
 Coeff-Com: -0.175D-05-0.139D-02-0.591D-02-0.532D-02-0.170D-02 0.513D-01
 Coeff-Com:  0.188D+00 0.775D+00
 Coeff:     -0.175D-05-0.139D-02-0.591D-02-0.532D-02-0.170D-02 0.513D-01
 Coeff:      0.188D+00 0.775D+00
 Gap=     0.175 Goal=   None    Shift=    0.000
 RMSDP=7.48D-09 MaxDP=5.48D-07 DE=-3.46D-11 OVMax= 9.23D-07

 SCF Done:  E(RB3LYP) =  -706.582802778     A.U. after   14 cycles
            NFock= 14  Conv=0.75D-08     -V/T= 2.0057
 KE= 7.025785136187D+02 PE=-3.091974408527D+03 EE= 9.642595567258D+02
 Leave Link  502 at Tue Aug 24 22:10:05 2021, MaxMem= 24159191040 cpu:       276.4
 (Enter /public/home/users/caep010/software/Gaussian09/g09/l701.exe)
 Compute integral first derivatives.
 ... and contract with generalized density number  0.
 Leave Link  701 at Tue Aug 24 22:10:06 2021, MaxMem= 24159191040 cpu:        14.8
 (Enter /public/home/users/caep010/software/Gaussian09/g09/l702.exe)
 L702 exits ... SP integral derivatives will be done elsewhere.
 Leave Link  702 at Tue Aug 24 22:10:06 2021, MaxMem= 24159191040 cpu:         0.6
 (Enter /public/home/users/caep010/software/Gaussian09/g09/l703.exe)
 Compute integral first derivatives, UseDBF=F ICtDFT=           0.
 Integral derivatives from FoFJK, PRISM(SPDF).
 Calling FoFJK, ICntrl=      2127 FMM=F ISym2X=0 I1Cent= 0 IOpClX= 0 NMat=1 NMatS=1 NMatT=0.
 FoFJK:  IHMeth= 1 ICntrl=    2127 DoSepK=F KAlg= 0 I1Cent=   0 FoldK=F
 IRaf=         0 NMat=   1 IRICut=       1 DoRegI=T DoRafI=F ISym2E= 0.
 FoFCou: FMM=F IPFlag=           0 FMFlag=      100000 FMFlg1=         800
         NFxFlg=           0 DoJE=F BraDBF=F KetDBF=F FulRan=T
         wScrn=  0.000000 ICntrl=    2127 IOpCl=  0 I1Cent=           0 NGrid=           0
         NMat0=    1 NMatS0=      1 NMatT0=    0 NMatD0=    1 NMtDS0=    0 NMtDT0=    0
 Symmetry not used in FoFCou.
 Leave Link  703 at Tue Aug 24 22:10:12 2021, MaxMem= 24159191040 cpu:       189.2
 (Enter /public/home/users/caep010/software/Gaussian09/g09/l716.exe)
 Dipole        = 1.51573744D+00 9.61693511D-01 2.81129333D-01
 ***** Axes restored to original set *****
 -------------------------------------------------------------------
 Center     Atomic                   Forces (Hartrees/Bohr)
 Number     Number              X              Y              Z
 -------------------------------------------------------------------
      1        7           0.000501024    0.005170354    0.002758048
      2        7          -0.001253553   -0.001094328   -0.000668068
      3        6           0.001392921   -0.000379388    0.000113104
      4        7          -0.001917872    0.000598691    0.000947000
      5        6           0.001497829   -0.003298185   -0.000643445
      6        7           0.003593005    0.002064799   -0.000043063
      7        7           0.023930461   -0.000398158    0.026181174
      8        1          -0.016809461   -0.032534819    0.007031914
      9        8          -0.001018545    0.000027015    0.000106387
     10        8          -0.001049504   -0.000482396   -0.000018376
     11        7           0.000925325   -0.001413770   -0.002690900
     12        8          -0.001592166    0.000947382    0.000862310
     13        8           0.000141297    0.000239829    0.000346345
     14        1          -0.008340761    0.030552973   -0.034282431
 -------------------------------------------------------------------
 Cartesian Forces:  Max     0.034282431 RMS     0.010822746
[...]
     8  H   -0.019272  -0.001796  -0.000732   0.000168  -0.006975  -0.000039
     9  O    0.000764  -0.012840  -0.070195   0.003734  -0.000032   0.370060
    10  O    0.000843   0.006432  -0.062693  -0.018162  -0.001499   0.387001
    11  N   -0.018709  -0.004949   0.021794  -0.017422   0.322293  -0.002572
    12  O   -0.012099   0.004657  -0.004687   0.001891  -0.040358   0.000779
    13  O    0.005990   0.000221   0.000029  -0.019273  -0.064083   0.000712
    14  H   -0.021150  -0.006570   0.002589   0.000229  -0.001796  -0.000545
               7          8          9         10         11         12
     1  N    0.208038  -0.019272   0.000764   0.000843  -0.018709  -0.012099
     2  N   -0.064751  -0.001796  -0.012840   0.006432  -0.004949   0.004657
     3  C    0.013435  -0.000732  -0.070195  -0.062693   0.021794  -0.004687
     4  N    0.001634   0.000168   0.003734  -0.018162  -0.017422   0.001891
     5  C   -0.059859  -0.006975  -0.000032  -0.001499   0.322293  -0.040358
     6  N   -0.001194  -0.000039   0.370060   0.387001  -0.002572   0.000779
     7  N    6.738716   0.375935   0.000113   0.000252   0.010341  -0.022036
     8  H    0.375935   0.305785  -0.000036  -0.000002   0.002903   0.001692
     9  O    0.000113  -0.000036   8.178518  -0.097185   0.000218  -0.000031
    10  O    0.000252  -0.000002  -0.097185   8.147155   0.001519  -0.000146
    11  N    0.010341   0.002903   0.000218   0.001519   5.432211   0.323111
    12  O   -0.022036   0.001692  -0.000031  -0.000146   0.323111   8.249922
    13  O   -0.001482  -0.000087  -0.000056  -0.000262   0.426111  -0.088721
    14  H    0.376659  -0.021720  -0.000142   0.000012   0.000146   0.000750
              13         14
     1  N    0.005990  -0.021150
     2  N    0.000221  -0.006570
     3  C    0.000029   0.002589
     4  N   -0.019273   0.000229
     5  C   -0.064083  -0.001796
     6  N    0.000712  -0.000545
     7  N   -0.001482   0.376659
     8  H   -0.000087  -0.021720
     9  O   -0.000056  -0.000142
    10  O   -0.000262   0.000012
    11  N    0.426111   0.000146
    12  O   -0.088721   0.000750
    13  O    8.066956   0.000012
    14  H    0.000012   0.325263
 Mulliken charges:
               1
     1  N    0.240151
     2  N   -0.289614
     3  C    0.388563
     4  N   -0.399539
     5  C    0.392863
     6  N    0.506882
     7  N   -0.575801
     8  H    0.364176
     9  O   -0.372889
    10  O   -0.363266
    11  N    0.503004
    12  O   -0.414725
    13  O   -0.326068
    14  H    0.346263
 Sum of Mulliken charges =  -0.00000
 Mulliken charges with hydrogens summed into heavy atoms:
               1
     1  N    0.240151
     2  N   -0.289614
     3  C    0.388563
     4  N   -0.399539
     5  C    0.392863
     6  N    0.506882
     7  N    0.134638
     9  O   -0.372889
    10  O   -0.363266
    11  N    0.503004
    12  O   -0.414725
    13  O   -0.326068
 Electronic spatial extent (au):  <R**2>=           2057.6134
 Charge=             -0.0000 electrons
 Dipole moment (field-independent basis, Debye):
    X=              3.3468    Y=              3.8470    Z=              1.0897  Tot=              5.2142
 Quadrupole moment (field-independent basis, Debye-Ang):
   XX=            -85.0928   YY=            -68.9724   ZZ=            -64.0544
   XY=              5.6510   XZ=              1.8013   YZ=              3.3266
 Traceless Quadrupole moment (field-independent basis, Debye-Ang):
   XX=            -12.3863   YY=              3.7341   ZZ=              8.6522
   XY=              5.6510   XZ=              1.8013   YZ=              3.3266
 Octapole moment (field-independent basis, Debye-Ang**2):
  XXX=             27.2867  YYY=             31.5831  ZZZ=              1.4541  XYY=             17.1499
  XXY=             12.8073  XXZ=              1.3163  XZZ=             -1.1438  YZZ=             -4.1126
  YYZ=             10.7458  XYZ=              5.3120
 Hexadecapole moment (field-independent basis, Debye-Ang**3):
 XXXX=          -2055.6518 YYYY=           -562.8294 ZZZZ=            -58.0038 XXXY=             33.5414
 XXXZ=              5.2513 YYYX=             36.5033 YYYZ=             29.1388 ZZZX=              1.9706
 ZZZY=              3.7409 XXYY=           -425.8758 XXZZ=           -291.9656 YYZZ=           -115.4149
 XXYZ=              8.2828 YYXZ=             15.1430 ZZXY=             -4.8511
 N-N= 7.188277949724D+02 E-N=-3.089340728165D+03  KE= 7.017796175871D+02
 No NMR shielding tensors so no spin-rotation constants.
 Leave Link  601 at Wed Aug 25 02:22:51 2021, MaxMem= 24159191040 cpu:        47.2
 (Enter /public/home/users/caep010/software/Gaussian09/g09/l9999.exe)
 1\1\GINC-B1342\SP\RHF\GFHFB2\C2H2N6O4\ROOT\25-Aug-2021\0\\#P Geom=AllC
 heck Guess=TCheck SCRF=Check HF/GFHFB2 SCF=Tight\\VAZCAC01\\0,1\N,0,-0
 .6351710612,1.6146314135,9.1112412331\N,0,0.2659554314,2.3210280474,9.
 7801881658\C,0,1.4079691055,1.7430312652,9.3925150409\N,0,1.3028818468
 ,0.7245267303,8.5412290803\C,0,-0.0065208108,0.658088619,8.3755145502\
 N,0,2.6930323576,2.2326587704,9.8913745303\N,0,-1.984881733,1.83086327
 09,9.3371123455\H,0,-2.4873393816,1.4969116506,8.5181414045\O,0,2.6514
 383887,3.1985476283,10.636242757\O,0,3.6846317524,1.6328672457,9.51804
 54683\N,0,-0.6950222185,-0.2607757999,7.4991158244\O,0,-1.9113453352,-
 0.0849877498,7.3716766809\O,0,-0.0347079913,-1.117508528,6.9543346659\
 H,0,-2.1055203511,2.8264174364,9.4992682531\\Version=ES64L-G09RevE.01\
 State=1-A\HF=-703.0094859\RMSD=9.661e-09\Dipole=-1.9410665,0.623047,-0
 .228937\Quadrupole=-0.6051627,0.6273609,-0.0221982,-6.4082164,-2.60650
 7,-6.653419\PG=C01 [X(C2H2N6O4)]\\@


 THESE ARE THE TIMES THAT TRY MENS SOULS.
 THE SUMMER SOLDIER AND THE SUNSHINE PATRIOT WILL IN THIS CRISIS,
 SHRINK FROM THE SERVICE OF HIS COUNTRY.  BUT HE THAT STANDS NOW,
 DESERVES THE LOVE AND THANKS OF MAN AND WOMAN.
 TYRANNY, LIKE HELL, IS NOT EASILY CONQUERED,
 YET WE HAVE THIS CONSOLATION WITH US,
 THAT THE HARDER THE CONFLICT, THE MORE GLORIOUS THE TRIUMPH.
 WHAT WE OBTAIN TOO CHEAP, WE ESTEEM TOO LIGHTLY, 
 'TIS DEARNESS ONLY THAT GIVES EVERYTHING ITS VALUE.

                                              -- TOM PAINE
 Diagonal vibrational polarizability:
        0.0000000       0.0000000       0.0000000

 Temperature=              298.150000 Pressure=                      1.000000
 E(ZPE)=                     0.079889 E(Thermal)=                    0.089732
 E(CCSD(T))=              -704.755622 E(Empiric)=                   -0.222304
 DE(Plus)=                  -0.052289 DE(2DF)=                      -0.469625
 E(Delta-G3XP)=             -0.826181 DE(HF)=                       -0.070091
 G4(0 K)=                 -706.316222 G4 Energy=                  -706.306379
 G4 Enthalpy=             -706.305435 G4 Free Energy=             -706.352967
 1\1\GINC-B1342\Mixed\G4\G4\C2H2N6O4\ROOT\25-Aug-2021\0\\#P Geom=AllChe
 ck Guess=TCheck SCRF=Check HF/GFHFB2 SCF=Tight\\VAZCAC01\\0,1\N,0,-0.6
 351710612,1.6146314135,9.1112412331\N,0,0.2659554314,2.3210280474,9.78
 01881658\C,0,1.4079691055,1.7430312652,9.3925150409\N,0,1.3028818468,0
 .7245267303,8.5412290803\C,0,-0.0065208108,0.658088619,8.3755145502\N,
 0,2.6930323576,2.2326587704,9.8913745303\N,0,-1.984881733,1.8308632709
 ,9.3371123455\H,0,-2.4873393816,1.4969116506,8.5181414045\O,0,2.651438
 3887,3.1985476283,10.636242757\O,0,3.6846317524,1.6328672457,9.5180454
 683\N,0,-0.6950222185,-0.2607757999,7.4991158244\O,0,-1.9113453352,-0.
 0849877498,7.3716766809\O,0,-0.0347079913,-1.117508528,6.9543346659\H,
 0,-2.1055203511,2.8264174364,9.4992682531\\Version=ES64L-G09RevE.01\St
 ate=1-A\MP2/GTBas1=-704.6850645\MP4/GTBas1=-704.7859365\CCSD(T)/G3Bas1
 =-704.7556223\MP2/GTBas2=-704.7334672\MP4/GTBas2=-704.8382254\MP2/GTBa
 s3=-705.1275887\MP4/GTBas3=-705.2555613\HF/GTLargeXP=-702.9421008\MP2/
 GTLargeXP=-706.002172\HF/GFHFB1=-702.9983827\HF/GFHFB2=-703.0094859\G4
 =-706.3162221\FreqCoord=-1.2002993531,3.051211177,17.2177506612,0.5025
 82929,4.3861073564,18.4818771615,2.660676013,3.2938517323,17.749281126
 3,2.462089874,1.3691570962,16.1405838,-0.0123225465,1.243607261,15.827
 4287219,5.0890936229,4.2191136243,18.6919889401,-3.7508828815,3.459830
 1687,17.644585205,-4.7003902308,2.8287530648,16.0969544157,5.010492412
 8,6.0443790404,20.0995858936,6.9629449125,3.0856719058,17.9864992554,-
 1.3134016492,-0.4927948439,14.1712751468,-3.6119192288,-0.1606035718,1
 3.930450067,-0.0655885981,-2.111785069,13.141787955,-3.9788568307,5.34
 1154892,17.9510154611\PG=C01 [X(C2H2N6O4)]\NImag=0\\0.84342049,-0.0736
 8091,0.44873200,-0.00381526,0.24896901,0.34283805,-0.19895398,-0.06936
 926,-0.05971312,0.53506717,-0.04368752,-0.14875663,-0.07236764,-0.0400
 7918,0.34699210,-0.04550457,-0.07542609,-0.13845095,-0.00236431,0.2078
 7672,0.26886128,-0.12031492,-0.03335307,-0.04348605,-0.23922477,0.0794
 8602,0.05507048,0.71185342,-0.00288946,0.00337428,0.00158766,0.1054922
 0,-0.13394062,-0.04401564,-0.00512701,0.48093441,-0.01463323,-0.007320
 64,0.00738936,0.07376313,-0.04502848,-0.10409047,0.04079307,0.26414272
 ,0.37697185,-0.06430114,0.05417271,0.03387307,-0.00422001,-0.00176777,
 -0.00413598,-0.08618886,-0.00506020,-0.00394528,0.55324791,0.00927821,
 -0.01048582,-0.02577023,0.06516307,-0.03288780,-0.04573446,0.00099042,
 -0.22528473,-0.12400249,-0.01231525,0.35855825,0.00032024,-0.01666331,
 -0.00318418,0.05187269,-0.05262532,-0.00847472,0.00064161,-0.12466781,
 -0.17659438,0.02734837,0.21393830,0.27946003,-0.15472955,0.06334212,0.
 05189765,-0.02363436,0.01563395,0.00837152,-0.04656394,-0.08515562,-0.
 07596492,-0.35236799,-0.00932380,-0.03081276,0.71359826,0.06036274,-0.
 15997575,-0.07652931,-0.04589407,-0.04870516,-0.05838265,-0.01811069,-
 0.03268044,-0.03309869,0.00725648,-0.07035713,-0.00322350,0.01285650,0
 .44038827,0.04206876,-0.07710107,-0.11879855,-0.04192332,-0.05579057,-
 0.02964024,-0.02010032,-0.03939298,-0.02899070,-0.01743803,-0.00450456
 ,-0.07133808,0.06845053,0.26200432,0.35816475,-0.00289334,0.01173993,0
 .01035004,-0.03639607,-0.00827802,-0.00932265,-0.12562383,-0.01704984,
 -0.01707534,-0.00995956,-0.01282118,-0.01095489,0.01253179,0.00156708,
 0.00182011,0.72842289,0.00704553,0.00235258,-0.00170732,0.00219925,0.0
 0516192,0.01161547,-0.01805953,-0.08360559,-0.00725564,-0.02254996,-0.
 01362914,-0.00452396,0.00164097,-0.00260404,-0.00982025,-0.14119702,0.
 67063256,0.00340710,-0.00186170,0.00563988,0.00044372,0.01125503,0.000
 38221,-0.01781596,-0.00724827,-0.08478804,-0.01934163,-0.00430124,-0.0
 1510380,0.00189767,-0.01005883,0.00130886,-0.06416893,0.32899817,0.481
 24242,-0.25750269,0.00758409,0.02911961,-0.02793547,-0.00332095,-0.000
 97818,-0.01347411,0.01173467,0.00931545,-0.01419355,-0.00935695,-0.011
 38294,0.00272672,0.01278503,0.01524477,0.00431821,0.00391292,0.0038095
 8,0.49794307,0.05637728,-0.10768802,-0.06836865,-0.02756013,0.00957092
 ,0.00898979,-0.00209473,-0.00272460,-0.00396006,0.00327795,-0.00041677
 ,-0.00610821,0.02383011,0.00383517,0.00633448,-0.00015152,0.00137265,-
 0.00043539,-0.03333588,0.60060557,0.00008021,-0.05365148,-0.07254036,-
 0.03585846,0.01516345,0.00649490,0.00392473,-0.01377265,-0.00553642,0.
 00762795,0.00186668,0.00731416,0.00978117,0.00029737,-0.00506434,-0.00
 267241,-0.00193944,0.00039630,0.15817004,0.24169241,0.38359728,-0.0354
 1709,-0.01692720,-0.03736111,-0.00552194,0.00472985,0.00178135,-0.0010
 5103,-0.00178163,-0.00137512,0.00104653,-0.00058013,0.00079253,-0.0005
 8240,0.00068387,-0.00040871,-0.00069853,0.00001682,0.00025850,-0.13150
 437,-0.03938546,-0.13173023,0.17062861,-0.00459040,0.00482448,0.012194
 34,-0.00181473,-0.00102135,-0.00054895,0.00260731,-0.00201576,-0.00325
 081,0.00425081,0.00071318,0.00224365,-0.00236806,-0.00117334,-0.002012
 51,-0.00072252,-0.00025627,-0.00108004,-0.03321142,-0.07684604,-0.0991
 8365,0.05435110,0.08212181,0.00998101,0.01035370,0.00834032,0.00304157
 ,-0.00071263,-0.00167521,0.00105303,-0.00080881,0.00061143,0.00120719,
 0.00031328,-0.00055088,-0.00132641,-0.00146688,0.00100573,0.00001389,-
 0.00048167,0.00017957,-0.17963250,-0.13094694,-0.28942233,0.16153890,0
 .11583385,0.28651364,0.00123496,-0.00224553,-0.00186654,-0.00361464,-0
 .00134184,-0.00126168,0.00377519,-0.02926046,-0.02427152,-0.00453449,-
 0.00063427,-0.00093610,-0.00193800,-0.00249987,-0.00218507,-0.12965103
 ,-0.01055879,-0.01299330,-0.00028671,-0.00003605,0.00022960,0.00017676
 ,0.00008332,0.00001766,0.12274935,-0.00079238,-0.00178850,-0.00213830,
 0.00482066,0.00047018,-0.00011568,-0.01855856,-0.02811550,-0.03857113,
 -0.00493948,0.00179588,-0.00173004,-0.00071552,-0.00013630,0.00083272,
 0.00211235,-0.37710111,-0.23230455,-0.00198561,0.00018308,0.00127037,0
 .00017203,0.00018438,-0.00002486,-0.01875058,0.44501163,-0.00039026,-0
 .00167091,-0.00180224,0.00332693,-0.00074365,0.00082761,-0.01592965,-0
 .03943457,-0.01283712,-0.00425185,-0.00149582,0.00221807,-0.00073838,0
 .00084424,-0.00081201,-0.00306871,-0.23383210,-0.25893305,-0.00159229,
 0.00027380,0.00087235,0.00011642,0.00022776,-0.00007479,-0.00587494,0.
 32149668,0.27718881,-0.00224273,-0.00136335,-0.00127942,-0.00274576,-0
 .00559944,-0.00523007,-0.07211358,0.02364343,0.00991097,0.00318701,0.0
 0221348,0.00192201,-0.00468805,0.00061722,0.00013925,-0.43994013,0.178
 44291,0.10479103,-0.00231159,-0.00094470,-0.00017870,-0.00004870,0.000
 51658,0.00029287,0.01228331,0.03969330,0.02923622,0.50779239,-0.001676
 75,0.00111834,0.00095052,-0.00086526,0.00117971,-0.00159122,0.01228494
 ,0.01349647,-0.00340473,-0.00541633,-0.00070947,-0.00240683,0.00253478
 ,0.00063485,0.00131949,0.16675574,-0.20324803,-0.08250553,-0.00048051,
 -0.00008988,0.00074682,0.00005899,-0.00009301,0.00006094,0.06478905,-0
 .04031865,-0.04617985,-0.23776408,0.22825217,-0.00107358,0.00122540,0.
 00023920,-0.00145461,-0.00223538,0.00113239,0.00099862,-0.00239764,0.0
 1766398,-0.00402735,-0.00144465,-0.00023749,0.00160249,0.00109061,0.00
 051681,0.09590540,-0.08148884,-0.13168117,-0.00064934,0.00032611,-0.00
 020973,-0.00004979,0.00020779,-0.00009588,0.04884885,-0.04856458,-0.00
 586384,-0.13987470,0.13328269,0.11873585,0.02992359,-0.00236113,0.0005
 6552,0.00560724,0.00941601,0.00694285,-0.01347637,0.00743568,0.0041322
 6,-0.02352731,-0.02509772,-0.02360823,-0.09457873,-0.02291364,-0.01876
 251,-0.00135232,-0.00140783,-0.00146388,-0.01125049,-0.00452643,0.0012
 5966,-0.00418453,0.01495883,0.00963198,0.00055342,0.00014095,0.0002822
 5,0.00077128,0.00039045,0.00041047,0.84640910,-0.00434086,-0.03035149,
 -0.01699778,0.01316950,0.00372446,-0.00353673,-0.00059154,0.01445618,0
 .00432504,-0.01809531,-0.01212708,-0.00291666,-0.01960746,-0.09950861,
 -0.02764377,-0.00712647,0.00074665,-0.00216806,-0.00663874,-0.00020042
 ,0.00332504,0.00304721,0.00210920,0.00193910,0.00217698,0.00031728,0.0
 0138801,0.00319369,-0.00055534,0.00007950,-0.18444641,0.58258223,0.002
 30737,-0.01588996,-0.02652638,0.01054010,-0.00317588,0.00763083,-0.002
 42947,0.00523857,0.01275232,-0.01627747,-0.00176680,-0.01464044,-0.017
 10735,-0.03081251,-0.09936063,-0.00627886,-0.00174163,0.00067656,-0.00
 801129,-0.00140902,0.00276774,0.00149308,0.00551851,0.00277899,0.00193
 902,0.00126520,0.00009942,0.00269642,-0.00010962,-0.00013325,-0.017758
 96,0.24438624,0.42165746,-0.01195357,0.00846115,0.00744108,-0.00467542
 ,-0.00209671,-0.00216180,0.00143640,-0.00512848,-0.00363511,0.00575258
 ,-0.00243370,-0.00211471,-0.06050955,-0.01391844,-0.02832324,0.0023334
 0,0.00021519,0.00060532,0.00922962,0.00543145,0.00046828,0.00067931,-0
 .01032440,-0.00625553,-0.00105918,-0.00075186,-0.00076530,-0.00068893,
 -0.00023560,-0.00026583,-0.48847870,0.05218796,-0.04885162,0.61391192,
 0.00441034,-0.00012015,-0.00053283,-0.00089778,0.00000078,0.00037429,-
 0.00177720,-0.00053255,0.00059042,-0.00123591,-0.00002721,-0.00395894,
 -0.01900249,0.01498711,-0.00681572,0.00178164,-0.00031169,0.00081319,0
 .00037703,-0.00689383,-0.00468694,-0.00450061,-0.00313679,-0.00192400,
 -0.00060311,-0.00020810,-0.00049033,-0.00084022,0.00012227,-0.00007228
 ,0.02801410,-0.11233251,-0.02309316,-0.08000886,0.10564196,0.00167438,
 0.00091742,0.00156568,-0.00139140,-0.00028749,-0.00081374,-0.00111892,
 0.00015388,-0.00101760,-0.00055329,-0.00478014,-0.00036709,-0.03245889
 ,-0.00406929,0.00876144,0.00180933,0.00057833,-0.00031159,0.00228815,-
 0.00653432,-0.00167912,-0.00212233,-0.00280159,-0.00584240,-0.00069489
 ,-0.00058974,-0.00024281,-0.00074255,-0.00007339,-0.00002243,-0.068587
 95,-0.01903173,-0.10528134,0.06383582,0.04408144,0.07825377,-0.0038023
 9,-0.00119206,-0.00188250,0.00194753,-0.00314972,-0.00198920,0.0017318
 0,0.00212154,0.00179206,-0.00118365,-0.00473802,-0.00393676,0.01313322
 ,0.01025817,0.00681759,-0.00057129,0.00039615,0.00032072,0.00119153,0.
 00227442,0.00181047,0.00091768,-0.00457912,-0.00315157,0.00008000,-0.0
 0034171,-0.00027774,0.00039444,-0.00030432,-0.00022133,-0.24457648,0.1
 6664705,0.09797948,-0.06746770,0.07535471,0.03921972,0.29746268,-0.006
 91111,0.00321223,-0.00192569,-0.00298904,-0.00261338,-0.00070502,0.002
 15146,-0.00396921,-0.00268305,0.00361445,0.00376322,0.00285644,0.01783
 627,-0.04457828,-0.04808947,0.00313991,0.00012998,0.00050714,0.0007460
 0,-0.00154609,-0.00184778,-0.00057040,0.00195042,0.00062894,-0.0010545
 5,-0.00007634,-0.00025256,-0.00162860,0.00030108,0.00004218,0.18064320
 ,-0.34852164,-0.17771657,0.04824827,0.00260968,-0.00725791,-0.24271667
 ,0.38934282,-0.00726377,-0.00163023,0.00390867,-0.00200164,-0.00046090
 ,-0.00335315,0.00184167,-0.00262591,-0.00248370,0.00253852,0.00112707,
 0.00274317,0.01307512,-0.04916635,-0.01820908,0.00258112,0.00033377,0.
 00029773,0.00153378,-0.00002044,-0.00139981,-0.00079439,-0.00079443,0.
 00038739,-0.00087145,-0.00024577,-0.00013164,-0.00128986,0.00014751,0.
 00006321,0.11022504,-0.18091213,-0.20040828,0.01731436,-0.00200163,0.0
 2872588,-0.13687215,0.23588885,0.18954899,-0.02246766,0.05519252,0.016
 15705,0.00430049,0.00005532,0.00078226,-0.00076540,0.00102520,0.001193
 60,-0.00275745,-0.00034417,0.00084896,-0.00239742,-0.00305039,-0.00539
 982,-0.00052020,-0.00009659,0.00025005,-0.05695015,0.01684370,-0.01291
 231,0.00555969,-0.01915730,0.00358792,0.00023106,-0.00010360,-0.000072
 70,0.00035104,-0.00007110,-0.00014928,-0.00183969,0.00042440,-0.000240
 46,0.00148981,-0.00107165,-0.00115718,0.00074262,-0.00050918,-0.000016
 36,0.07502326,0.00109530,-0.00444755,0.00263621,-0.00137523,0.00082488
 ,0.00120018,0.00015218,0.00060766,-0.00048246,-0.00119218,0.00109464,-
 0.00021380,-0.00150177,-0.00012635,0.00067989,0.00024992,0.00035953,0.
 00039007,0.05119032,-0.41916174,-0.08928019,0.00068557,-0.00736091,0.0
 0723598,-0.00006429,-0.00021794,-0.00013071,-0.00018021,-0.00009051,-0
 .00005090,-0.00024606,-0.00033890,-0.00069337,0.00035402,0.00020104,-0
 .00030547,-0.00003041,-0.00000448,0.00036057,-0.04913715,0.42866063,0.
 01284160,-0.01025013,-0.00861849,0.00171870,-0.00086726,0.00116927,-0.
 00344283,0.00324145,0.00094948,-0.00262422,-0.00344493,-0.00124437,0.0
 0333256,0.00257145,0.00245603,0.00106191,0.00126510,0.00069412,-0.0172
 3484,-0.03983357,-0.02559064,0.00786092,-0.02655391,-0.00215557,-0.000
 07964,-0.00058033,-0.00050875,-0.00039346,-0.00023682,-0.00010766,-0.0
 0326848,-0.00223607,-0.00201301,0.00270829,-0.00228351,-0.00172865,0.0
 0039121,0.00055451,0.00031063,-0.00287172,0.07865400,0.03638761\\0.000
 02850,-0.00001051,-0.00001653,0.00000536,0.00000199,-0.00000965,-0.000
 00241,0.00001107,0.00002590,-0.00002117,-0.00001859,-0.00002681,0.0000
 1075,0.00003258,0.00002405,0.00000011,0.00000240,-0.00000075,-0.000001
 84,0.00001270,0.00003614,-0.00001698,-0.00001206,-0.00005132,0.0000037
 5,-0.00000120,-0.00000087,-0.00000131,-0.00000075,0.00000358,-0.000081
 07,-0.00001706,-0.00000776,0.00004881,0.00002233,0.00003172,0.00001935
 ,-0.00000174,0.00000238,0.00000816,-0.00002115,-0.00001009\\\@
 Job cpu time:       0 days 14 hours 26 minutes 14.3 seconds.
 File lengths (MBytes):  RWF=  80798 Int=      0 D2E=      0 Chk=     89 Scr=      1
 Normal termination of Gaussian 09 at Wed Aug 25 02:22:52 2021.
