 Entering Gaussian System, Link 0=g09
 Input=G4.WOBLUU.gjf
 Output=G4.WOBLUU.log
 Initial command:
 /public/home/users/caep010/software/Gaussian09/g09/l1.exe "/public/home/users/caep010/.cache/gau_scr/Gau-171910.inp" -scrdir="/public/home/users/caep010/.cache/gau_scr/"
 Entering Link 1 = /public/home/users/caep010/software/Gaussian09/g09/l1.exe PID=    171911.
  
 Copyright (c) 1988,1990,1992,1993,1995,1998,2003,2009,2015,
            Gaussian, Inc.  All Rights Reserved.
  
 This is part of the Gaussian(R) 09 program.  It is based on
 the Gaussian(R) 03 system (copyright 2003, Gaussian, Inc.),
 the Gaussian(R) 98 system (copyright 1998, Gaussian, Inc.),
 the Gaussian(R) 94 system (copyright 1995, Gaussian, Inc.),
 the Gaussian 92(TM) system (copyright 1992, Gaussian, Inc.),
 the Gaussian 90(TM) system (copyright 1990, Gaussian, Inc.),
 the Gaussian 88(TM) system (copyright 1988, Gaussian, Inc.),
 the Gaussian 86(TM) system (copyright 1986, Carnegie Mellon
 University), and the Gaussian 82(TM) system (copyright 1983,
 Carnegie Mellon University). Gaussian is a federally registered
 trademark of Gaussian, Inc.
  
 This software contains proprietary and confidential information,
 including trade secrets, belonging to Gaussian, Inc.
  
 This software is provided under written license and may be
 used, copied, transmitted, or stored only in accord with that
 written license.
  
 The following legend is applicable only to US Government
 contracts under FAR:
  
                    RESTRICTED RIGHTS LEGEND
  
 Use, reproduction and disclosure by the US Government is
 subject to restrictions as set forth in subparagraphs (a)
 and (c) of the Commercial Computer Software - Restricted
 Rights clause in FAR 52.227-19.
  
 Gaussian, Inc.
 340 Quinnipiac St., Bldg. 40, Wallingford CT 06492
  
  
 ---------------------------------------------------------------
 Warning -- This program may not be used in any manner that
 competes with the business of Gaussian, Inc. or will provide
 assistance to any competitor of Gaussian, Inc.  The licensee
 of this program is prohibited from giving any competitor of
 Gaussian, Inc. access to this program.  By using this program,
 the user acknowledges that Gaussian, Inc. is engaged in the
 business of creating and licensing software in the field of
 computational chemistry and represents and warrants to the
 licensee that it is not a competitor of Gaussian, Inc. and that
 it will not use this program in any manner prohibited above.
 ---------------------------------------------------------------
  

 Cite this work as:
 Gaussian 09, Revision E.01,
 M. J. Frisch, G. W. Trucks, H. B. Schlegel, G. E. Scuseria, 
 M. A. Robb, J. R. Cheeseman, G. Scalmani, V. Barone, B. Mennucci, 
 G. A. Petersson, H. Nakatsuji, M. Caricato, X. Li, H. P. Hratchian, 
 A. F. Izmaylov, J. Bloino, G. Zheng, J. L. Sonnenberg, M. Hada, 
 M. Ehara, K. Toyota, R. Fukuda, J. Hasegawa, M. Ishida, T. Nakajima, 
 Y. Honda, O. Kitao, H. Nakai, T. Vreven, J. A. Montgomery, Jr., 
 J. E. Peralta, F. Ogliaro, M. Bearpark, J. J. Heyd, E. Brothers, 
 K. N. Kudin, V. N. Staroverov, T. Keith, R. Kobayashi, J. Normand, 
 K. Raghavachari, A. Rendell, J. C. Burant, S. S. Iyengar, J. Tomasi, 
 M. Cossi, N. Rega, J. M. Millam, M. Klene, J. E. Knox, J. B. Cross, 
 V. Bakken, C. Adamo, J. Jaramillo, R. Gomperts, R. E. Stratmann, 
 O. Yazyev, A. J. Austin, R. Cammi, C. Pomelli, J. W. Ochterski, 
 R. L. Martin, K. Morokuma, V. G. Zakrzewski, G. A. Voth, 
 P. Salvador, J. J. Dannenberg, S. Dapprich, A. D. Daniels, 
 O. Farkas, J. B. Foresman, J. V. Ortiz, J. Cioslowski, 
 and D. J. Fox, Gaussian, Inc., Wallingford CT, 2013.
 
 ******************************************
 Gaussian 09:  ES64L-G09RevE.01 30-Nov-2015
                26-Aug-2021 
 ******************************************
 %nproc=32
 Will use up to   32 processors via shared memory.
 %mem=180GB
 ----------------
 #P G4 OPT=calcfc
 ----------------
 1/10=4,14=-1,18=20,19=15,26=3,38=1/1,3;
 2/9=110,12=2,17=6,18=5,40=1/2;
 3/5=35,7=104,11=2,16=1,25=1,30=1,71=2,74=-5,140=1/1,2,3;
 4//1;
 5/5=2,38=5/2;
 8/6=4,10=90,11=11/1;
 11/6=1,8=1,9=11,15=111,16=1/1,2,10;
 10/6=1,13=1/2;
 6/7=2,8=2,9=2,10=2,28=1/1;
 7/10=1,18=20,25=1/1,2,3,16;
 1/10=4,14=-1,18=20,19=15,26=3/3(2);
 2/9=110/2;
 99//99;
 2/9=110/2;
 3/5=35,7=104,11=2,16=1,25=1,30=1,71=1,74=-5/1,2,3;
 4/5=5,16=3,69=1/1;
 5/5=2,38=5/2;
 7//1,2,3,16;
 1/14=-1,18=20,19=15,26=3/3(-5);
 2/9=110/2;
 6/7=2,8=2,9=2,10=2,19=2,28=1/1;
 99/9=1/99;
 Leave Link    1 at Thu Aug 26 23:49:27 2021, MaxMem= 24159191040 cpu:         2.7
 (Enter /public/home/users/caep010/software/Gaussian09/g09/l101.exe)
 ------
 WOBLUU
 ------
 Symbolic Z-matrix:
 Charge =  0 Multiplicity = 1
 N                     0.1212    1.7246    0.5223 
 N                     0.9396    1.4156    1.5568 
 C                    -0.4672    2.7848    1.0025 
 N                    -0.1183    3.2018    2.225 
 C                     1.9171    0.3866    1.4179 
 N                     3.1066    0.9097    0.6514 
 O                     3.9808    0.098     0.4278 
 O                     3.1282    2.0661    0.312 
 N                    -1.4595    3.4872    0.2114 
 O                    -1.7254    4.6258    0.5336 
 O                    -1.9568    2.8926   -0.725 
 C                     0.7813    2.3041    2.5487 
 H                     2.2561    0.1393    2.3051 
 H                     1.5959   -0.3363    0.9182 
 H                     1.2691    2.2191    3.3442 
 
 NAtoms=     15 NQM=       15 NQMF=       0 NMMI=      0 NMMIF=      0
                NMic=       0 NMicF=      0.
                    Isotopes and Nuclear Properties:
 (Nuclear quadrupole moments (NQMom) in fm**2, nuclear magnetic moments (NMagM)
  in nuclear magnetons)

  Atom         1           2           3           4           5           6           7           8           9          10
 IAtWgt=          14          14          12          14          12          14          16          16          14          16
 AtmWgt=  14.0030740  14.0030740  12.0000000  14.0030740  12.0000000  14.0030740  15.9949146  15.9949146  14.0030740  15.9949146
 NucSpn=           2           2           0           2           0           2           0           0           2           0
 AtZEff=   0.0000000   0.0000000   0.0000000   0.0000000   0.0000000   0.0000000   0.0000000   0.0000000   0.0000000   0.0000000
 NQMom=    2.0440000   2.0440000   0.0000000   2.0440000   0.0000000   2.0440000   0.0000000   0.0000000   2.0440000   0.0000000
 NMagM=    0.4037610   0.4037610   0.0000000   0.4037610   0.0000000   0.4037610   0.0000000   0.0000000   0.4037610   0.0000000
 AtZNuc=   7.0000000   7.0000000   6.0000000   7.0000000   6.0000000   7.0000000   8.0000000   8.0000000   7.0000000   8.0000000

  Atom        11          12          13          14          15
 IAtWgt=          16          12           1           1           1
 AtmWgt=  15.9949146  12.0000000   1.0078250   1.0078250   1.0078250
 NucSpn=           0           0           1           1           1
 AtZEff=   0.0000000   0.0000000   0.0000000   0.0000000   0.0000000
 NQMom=    0.0000000   0.0000000   0.0000000   0.0000000   0.0000000
 NMagM=    0.0000000   0.0000000   2.7928460   2.7928460   2.7928460
 AtZNuc=   8.0000000   6.0000000   1.0000000   1.0000000   1.0000000
 Leave Link  101 at Thu Aug 26 23:49:27 2021, MaxMem= 24159191040 cpu:        10.7
 (Enter /public/home/users/caep010/software/Gaussian09/g09/l103.exe)

 GradGradGradGradGradGradGradGradGradGradGradGradGradGradGradGradGradGrad
 Berny optimization.
 Initialization pass.
                           ----------------------------
                           !    Initial Parameters    !
                           ! (Angstroms and Degrees)  !
 --------------------------                            --------------------------
 ! Name  Definition              Value          Derivative Info.                !
 --------------------------------------------------------------------------------
 ! R1    R(1,2)                  1.3548         calculate D2E/DX2 analytically  !
 ! R2    R(1,3)                  1.3042         calculate D2E/DX2 analytically  !
 ! R3    R(2,5)                  1.4261         calculate D2E/DX2 analytically  !
 ! R4    R(2,12)                 1.341          calculate D2E/DX2 analytically  !
 ! R5    R(3,4)                  1.338          calculate D2E/DX2 analytically  !
 ! R6    R(3,9)                  1.4505         calculate D2E/DX2 analytically  !
 ! R7    R(4,12)                 1.3115         calculate D2E/DX2 analytically  !
 ! R8    R(5,6)                  1.5087         calculate D2E/DX2 analytically  !
 ! R9    R(5,13)                 0.9814         calculate D2E/DX2 analytically  !
 ! R10   R(5,14)                 0.9357         calculate D2E/DX2 analytically  !
 ! R11   R(6,7)                  1.2137         calculate D2E/DX2 analytically  !
 ! R12   R(6,8)                  1.2054         calculate D2E/DX2 analytically  !
 ! R13   R(9,10)                 1.2128         calculate D2E/DX2 analytically  !
 ! R14   R(9,11)                 1.2156         calculate D2E/DX2 analytically  !
 ! R15   R(12,15)                0.937          calculate D2E/DX2 analytically  !
 ! A1    A(2,1,3)              100.1835         calculate D2E/DX2 analytically  !
 ! A2    A(1,2,5)              120.283          calculate D2E/DX2 analytically  !
 ! A3    A(1,2,12)             110.0214         calculate D2E/DX2 analytically  !
 ! A4    A(5,2,12)             129.1265         calculate D2E/DX2 analytically  !
 ! A5    A(1,3,4)              118.1738         calculate D2E/DX2 analytically  !
 ! A6    A(1,3,9)              120.0996         calculate D2E/DX2 analytically  !
 ! A7    A(4,3,9)              121.7232         calculate D2E/DX2 analytically  !
 ! A8    A(3,4,12)             101.0148         calculate D2E/DX2 analytically  !
 ! A9    A(2,5,6)              109.8611         calculate D2E/DX2 analytically  !
 ! A10   A(2,5,13)             109.3014         calculate D2E/DX2 analytically  !
 ! A11   A(2,5,14)             111.9751         calculate D2E/DX2 analytically  !
 ! A12   A(6,5,13)             105.9211         calculate D2E/DX2 analytically  !
 ! A13   A(6,5,14)             105.4985         calculate D2E/DX2 analytically  !
 ! A14   A(13,5,14)            113.9965         calculate D2E/DX2 analytically  !
 ! A15   A(5,6,7)              115.4429         calculate D2E/DX2 analytically  !
 ! A16   A(5,6,8)              119.3294         calculate D2E/DX2 analytically  !
 ! A17   A(7,6,8)              125.2277         calculate D2E/DX2 analytically  !
 ! A18   A(3,9,10)             117.3688         calculate D2E/DX2 analytically  !
 ! A19   A(3,9,11)             117.5899         calculate D2E/DX2 analytically  !
 ! A20   A(10,9,11)            125.0407         calculate D2E/DX2 analytically  !
 ! A21   A(2,12,4)             110.6052         calculate D2E/DX2 analytically  !
 ! A22   A(2,12,15)            120.4239         calculate D2E/DX2 analytically  !
 ! A23   A(4,12,15)            128.9573         calculate D2E/DX2 analytically  !
 ! D1    D(3,1,2,5)           -172.4424         calculate D2E/DX2 analytically  !
 ! D2    D(3,1,2,12)            -0.3295         calculate D2E/DX2 analytically  !
 ! D3    D(2,1,3,4)              0.3824         calculate D2E/DX2 analytically  !
 ! D4    D(2,1,3,9)            179.7218         calculate D2E/DX2 analytically  !
 ! D5    D(1,2,5,6)             78.4892         calculate D2E/DX2 analytically  !
 ! D6    D(1,2,5,13)          -165.691          calculate D2E/DX2 analytically  !
 ! D7    D(1,2,5,14)           -38.3915         calculate D2E/DX2 analytically  !
 ! D8    D(12,2,5,6)           -91.944          calculate D2E/DX2 analytically  !
 ! D9    D(12,2,5,13)           23.8758         calculate D2E/DX2 analytically  !
 ! D10   D(12,2,5,14)          151.1754         calculate D2E/DX2 analytically  !
 ! D11   D(1,2,12,4)             0.2            calculate D2E/DX2 analytically  !
 ! D12   D(1,2,12,15)          178.9787         calculate D2E/DX2 analytically  !
 ! D13   D(5,2,12,4)           171.4136         calculate D2E/DX2 analytically  !
 ! D14   D(5,2,12,15)           -9.8076         calculate D2E/DX2 analytically  !
 ! D15   D(1,3,4,12)            -0.274          calculate D2E/DX2 analytically  !
 ! D16   D(9,3,4,12)          -179.6021         calculate D2E/DX2 analytically  !
 ! D17   D(1,3,9,10)          -161.6805         calculate D2E/DX2 analytically  !
 ! D18   D(1,3,9,11)            18.067          calculate D2E/DX2 analytically  !
 ! D19   D(4,3,9,10)            17.6349         calculate D2E/DX2 analytically  !
 ! D20   D(4,3,9,11)          -162.6176         calculate D2E/DX2 analytically  !
 ! D21   D(3,4,12,2)             0.0283         calculate D2E/DX2 analytically  !
 ! D22   D(3,4,12,15)         -178.6174         calculate D2E/DX2 analytically  !
 ! D23   D(2,5,6,7)           -177.1814         calculate D2E/DX2 analytically  !
 ! D24   D(2,5,6,8)              2.8307         calculate D2E/DX2 analytically  !
 ! D25   D(13,5,6,7)            64.8814         calculate D2E/DX2 analytically  !
 ! D26   D(13,5,6,8)          -115.1065         calculate D2E/DX2 analytically  !
 ! D27   D(14,5,6,7)           -56.3143         calculate D2E/DX2 analytically  !
 ! D28   D(14,5,6,8)           123.6978         calculate D2E/DX2 analytically  !
 --------------------------------------------------------------------------------
 Trust Radius=3.00D-01 FncErr=1.00D-07 GrdErr=1.00D-06
 Number of steps in this run=     76 maximum allowed number of steps=    100.
 GradGradGradGradGradGradGradGradGradGradGradGradGradGradGradGradGradGrad

 Leave Link  103 at Thu Aug 26 23:49:27 2021, MaxMem= 24159191040 cpu:         0.4
 (Enter /public/home/users/caep010/software/Gaussian09/g09/l202.exe)
                          Input orientation:                          
 ---------------------------------------------------------------------
 Center     Atomic      Atomic             Coordinates (Angstroms)
 Number     Number       Type             X           Y           Z
 ---------------------------------------------------------------------
      1          7           0        0.121200    1.724600    0.522300
      2          7           0        0.939600    1.415600    1.556800
      3          6           0       -0.467200    2.784800    1.002500
      4          7           0       -0.118300    3.201800    2.225000
      5          6           0        1.917100    0.386600    1.417900
      6          7           0        3.106600    0.909700    0.651400
      7          8           0        3.980800    0.098000    0.427800
      8          8           0        3.128200    2.066100    0.312000
      9          7           0       -1.459500    3.487200    0.211400
     10          8           0       -1.725400    4.625800    0.533600
     11          8           0       -1.956800    2.892600   -0.725000
     12          6           0        0.781300    2.304100    2.548700
     13          1           0        2.256100    0.139300    2.305100
     14          1           0        1.595900   -0.336300    0.918200
     15          1           0        1.269100    2.219100    3.344200
 ---------------------------------------------------------------------
                    Distance matrix (angstroms):
                    1          2          3          4          5
     1  N    0.000000
     2  N    1.354788   0.000000
     3  C    1.304159   2.039864   0.000000
     4  N    2.266863   2.180861   1.337956   0.000000
     5  C    2.411970   1.426058   3.407170   3.566457   0.000000
     6  N    3.097312   2.402410   4.051088   4.257924   1.508664
     7  O    4.189424   3.501372   5.228181   5.446662   2.307043
     8  O    3.033628   2.600509   3.730981   3.935625   2.347445
     9  N    2.387892   3.443444   1.450470   2.436156   4.740337
    10  O    3.439044   4.295876   2.278643   2.733383   5.658676
    11  O    2.690365   3.972062   2.283590   3.489726   5.087156
    12  C    2.208585   1.341028   2.044642   1.311460   2.499111
    13  H    3.201461   1.980421   4.013951   3.875964   0.981429
    14  H    2.564914   1.976789   3.742293   4.142989   0.935657
    15  H    3.086312   1.987204   2.969564   2.035482   2.736529
                    6          7          8          9         10
     6  N    0.000000
     7  O    1.213705   0.000000
     8  O    1.205371   2.147965   0.000000
     9  N    5.261784   6.413296   4.803815   0.000000
    10  O    6.096843   7.285114   5.491685   1.212817   0.000000
    11  O    5.609313   6.662870   5.255064   1.215607   2.154438
    12  C    3.309247   4.427403   3.250755   3.447301   3.966669
    13  H    2.012856   2.549618   2.906125   5.421964   6.254537
    14  H    1.976338   2.473228   2.913237   4.945118   5.983426
    15  H    3.513133   4.511959   3.560042   4.343705   4.760116
                   11         12         13         14         15
    11  O    0.000000
    12  C    4.308206   0.000000
    13  H    5.874580   2.630729   0.000000
    14  H    5.074207   3.208398   1.607965   0.000000
    15  H    5.236260   0.937013   2.525760   3.538692   0.000000
 Stoichiometry    C3H3N5O4
 Framework group  C1[X(C3H3N5O4)]
 Deg. of freedom    39
 Full point group                 C1      NOp   1
 Largest Abelian subgroup         C1      NOp   1
 Largest concise Abelian subgroup C1      NOp   1
                         Standard orientation:                         
 ---------------------------------------------------------------------
 Center     Atomic      Atomic             Coordinates (Angstroms)
 Number     Number       Type             X           Y           Z
 ---------------------------------------------------------------------
      1          7           0        0.324790   -0.404728   -0.622565
      2          7           0       -0.607883    0.576285   -0.566125
      3          6           0        1.346679    0.218593   -0.104836
      4          7           0        1.180598    1.487018    0.287137
      5          6           0       -1.967866    0.295070   -0.890171
      6          7           0       -2.640326   -0.391878    0.272570
      7          8           0       -3.791818   -0.726687    0.085358
      8          8           0       -2.022334   -0.567146    1.292515
      9          7           0        2.616086   -0.466571    0.046888
     10          8           0        3.418430    0.011013    0.820893
     11          8           0        2.792491   -1.476297   -0.606591
     12          6           0       -0.078679    1.682213   -0.022781
     13          1           0       -2.451480    1.139062   -1.020547
     14          1           0       -2.040791   -0.300144   -1.608402
     15          1           0       -0.595554    2.457888    0.072936
 ---------------------------------------------------------------------
 Rotational constants (GHZ):      2.4844185      0.5186818      0.4859264
 Leave Link  202 at Thu Aug 26 23:49:27 2021, MaxMem= 24159191040 cpu:         0.8
 (Enter /public/home/users/caep010/software/Gaussian09/g09/l301.exe)
 Standard basis: GTBas3 (6D, 7F)
 Ernie: Thresh=  0.10000D-02 Tol=  0.10000D-05 Strict=F.
 There are   387 symmetry adapted cartesian basis functions of A   symmetry.
 There are   351 symmetry adapted basis functions of A   symmetry.
   351 basis functions,   549 primitive gaussians,   387 cartesian basis functions
    44 alpha electrons       44 beta electrons
       nuclear repulsion energy       713.3928410074 Hartrees.
 IExCor=  402 DFT=T Ex+Corr=B3LYP ExCW=0 ScaHFX=  0.200000
 ScaDFX=  0.800000  0.720000  1.000000  0.810000 ScalE2=  1.000000  1.000000
 IRadAn=      0 IRanWt=     -1 IRanGd=            0 ICorTp=0 IEmpDi=  4
 NAtoms=   15 NActive=   15 NUniq=   15 SFac= 1.00D+00 NAtFMM=   60 NAOKFM=F Big=F
 Integral buffers will be    131072 words long.
 Raffenetti 2 integral format.
 Two-electron integral symmetry is turned on.
 Leave Link  301 at Thu Aug 26 23:49:27 2021, MaxMem= 24159191040 cpu:         2.1
 (Enter /public/home/users/caep010/software/Gaussian09/g09/l302.exe)
 NPDir=0 NMtPBC=     1 NCelOv=     1 NCel=       1 NClECP=     1 NCelD=      1
         NCelK=      1 NCelE2=     1 NClLst=     1 CellRange=     0.0.
 One-electron integrals computed using PRISM.
 NBasis=   351 RedAO= T EigKep=  1.34D-04  NBF=   351
 NBsUse=   351 1.00D-06 EigRej= -1.00D+00 NBFU=   351
 Precomputing XC quadrature grid using
 IXCGrd= 4 IRadAn=           0 IRanWt=          -1 IRanGd=           0 AccXCQ= 0.00D+00.
 Generated NRdTot=       0 NPtTot=           0 NUsed=           0 NTot=          32
 NSgBfM=   385   385   385   385   385 MxSgAt=    15 MxSgA2=    15.
 Leave Link  302 at Thu Aug 26 23:49:28 2021, MaxMem= 24159191040 cpu:        18.6
 (Enter /public/home/users/caep010/software/Gaussian09/g09/l303.exe)
 DipDrv:  MaxL=1.
 Leave Link  303 at Thu Aug 26 23:49:28 2021, MaxMem= 24159191040 cpu:         1.1
 (Enter /public/home/users/caep010/software/Gaussian09/g09/l401.exe)
 ExpMin= 1.61D-01 ExpMax= 5.48D+03 ExpMxC= 8.25D+02 IAcc=1 IRadAn=         1 AccDes= 0.00D+00
 Harris functional with IExCor=  402 and IRadAn=       1 diagonalized for initial guess.
 HarFok:  IExCor=  402 AccDes= 0.00D+00 IRadAn=         1 IDoV= 1 UseB2=F ITyADJ=14
 ICtDFT=  3500011 ScaDFX=  1.000000  1.000000  1.000000  1.000000
 FoFCou: FMM=F IPFlag=           0 FMFlag=      100000 FMFlg1=           0
         NFxFlg=           0 DoJE=T BraDBF=F KetDBF=T FulRan=T
         wScrn=  0.000000 ICntrl=     500 IOpCl=  0 I1Cent=   200000004 NGrid=           0
         NMat0=    1 NMatS0=      1 NMatT0=    0 NMatD0=    1 NMtDS0=    0 NMtDT0=    0
 Petite list used in FoFCou.
 Harris En= -690.553632929443    
 JPrj=0 DoOrth=F DoCkMO=F.
 Leave Link  401 at Thu Aug 26 23:49:29 2021, MaxMem= 24159191040 cpu:        17.0
 (Enter /public/home/users/caep010/software/Gaussian09/g09/l502.exe)
 Closed shell SCF:
 Using DIIS extrapolation, IDIIS=  1040.
 Integral symmetry usage will be decided dynamically.
 Keep R1 ints in memory in canonical form, NReq=1937856343.
 IVT=      483025 IEndB=      483025 NGot= 24159191040 MDV= 22250540040
 LenX= 22250540040 LenY= 22250389830
 Requested convergence on RMS density matrix=1.00D-08 within 128 cycles.
 Requested convergence on MAX density matrix=1.00D-06.
 Requested convergence on             energy=1.00D-06.
 No special actions if energy rises.
 FoFCou: FMM=F IPFlag=           0 FMFlag=           0 FMFlg1=           0
         NFxFlg=           0 DoJE=F BraDBF=F KetDBF=F FulRan=T
         wScrn=  0.000000 ICntrl=     600 IOpCl=  0 I1Cent=           0 NGrid=           0
         NMat0=    1 NMatS0=  61776 NMatT0=    0 NMatD0=    1 NMtDS0=    0 NMtDT0=    0
 Symmetry not used in FoFCou.
 Integral accuracy reduced to 1.0D-05 until final iterations.

 Cycle   1  Pass 0  IDiag  1:
 E= -690.162508048386    
 DIIS: error= 2.51D-02 at cycle   1 NSaved=   1.
 NSaved= 1 IEnMin= 1 EnMin= -690.162508048386     IErMin= 1 ErrMin= 2.51D-02
 ErrMax= 2.51D-02  0.00D+00 EMaxC= 1.00D-01 BMatC= 5.31D-01 BMatP= 5.31D-01
 IDIUse=3 WtCom= 7.49D-01 WtEn= 2.51D-01
 Coeff-Com:  0.100D+01
 Coeff-En:   0.100D+01
 Coeff:      0.100D+01
 Gap=     0.208 Goal=   None    Shift=    0.000
 GapD=    0.208 DampG=1.000 DampE=0.500 DampFc=0.5000 IDamp=-1.
 Damping current iteration by 5.00D-01
 RMSDP=3.88D-03 MaxDP=2.33D-01              OVMax= 3.04D-01

 Cycle   2  Pass 0  IDiag  1:
 E= -690.209046831794     Delta-E=       -0.046538783408 Rises=F Damp=T
 DIIS: error= 1.15D-02 at cycle   2 NSaved=   2.
 NSaved= 2 IEnMin= 2 EnMin= -690.209046831794     IErMin= 2 ErrMin= 1.15D-02
 ErrMax= 1.15D-02  0.00D+00 EMaxC= 1.00D-01 BMatC= 1.23D-01 BMatP= 5.31D-01
 IDIUse=3 WtCom= 8.85D-01 WtEn= 1.15D-01
 Coeff-Com:  0.296D+00 0.704D+00
 Coeff-En:   0.449D+00 0.551D+00
 Coeff:      0.314D+00 0.686D+00
 Gap=     0.171 Goal=   None    Shift=    0.000
 RMSDP=1.03D-03 MaxDP=5.44D-02 DE=-4.65D-02 OVMax= 1.70D-01

 Cycle   3  Pass 0  IDiag  1:
 E= -690.525475390360     Delta-E=       -0.316428558566 Rises=F Damp=F
 DIIS: error= 4.24D-03 at cycle   3 NSaved=   3.
 NSaved= 3 IEnMin= 3 EnMin= -690.525475390360     IErMin= 3 ErrMin= 4.24D-03
 ErrMax= 4.24D-03  0.00D+00 EMaxC= 1.00D-01 BMatC= 1.37D-02 BMatP= 1.23D-01
 IDIUse=3 WtCom= 9.58D-01 WtEn= 4.24D-02
 Coeff-Com:  0.979D-01 0.246D+00 0.656D+00
 Coeff-En:   0.000D+00 0.000D+00 0.100D+01
 Coeff:      0.938D-01 0.235D+00 0.671D+00
 Gap=     0.205 Goal=   None    Shift=    0.000
 RMSDP=6.42D-04 MaxDP=3.08D-02 DE=-3.16D-01 OVMax= 6.62D-02

 Cycle   4  Pass 0  IDiag  1:
 E= -690.519735918133     Delta-E=        0.005739472227 Rises=F Damp=F
 DIIS: error= 5.02D-03 at cycle   4 NSaved=   4.
 NSaved= 4 IEnMin= 3 EnMin= -690.525475390360     IErMin= 3 ErrMin= 4.24D-03
 ErrMax= 5.02D-03  0.00D+00 EMaxC= 1.00D-01 BMatC= 2.22D-02 BMatP= 1.37D-02
 IDIUse=3 WtCom= 1.24D-01 WtEn= 8.76D-01
 Coeff-Com:  0.380D-01 0.857D-01 0.525D+00 0.351D+00
 Coeff-En:   0.000D+00 0.000D+00 0.577D+00 0.423D+00
 Coeff:      0.470D-02 0.106D-01 0.571D+00 0.414D+00
 Gap=     0.206 Goal=   None    Shift=    0.000
 RMSDP=4.16D-04 MaxDP=2.36D-02 DE= 5.74D-03 OVMax= 5.72D-02

 Cycle   5  Pass 0  IDiag  1:
 E= -690.535179655970     Delta-E=       -0.015443737836 Rises=F Damp=F
 DIIS: error= 1.94D-03 at cycle   5 NSaved=   5.
 NSaved= 5 IEnMin= 5 EnMin= -690.535179655970     IErMin= 5 ErrMin= 1.94D-03
 ErrMax= 1.94D-03  0.00D+00 EMaxC= 1.00D-01 BMatC= 2.75D-03 BMatP= 1.37D-02
 IDIUse=3 WtCom= 9.81D-01 WtEn= 1.94D-02
 Coeff-Com:  0.921D-02 0.576D-02 0.270D+00 0.273D+00 0.443D+00
 Coeff-En:   0.000D+00 0.000D+00 0.000D+00 0.125D+00 0.875D+00
 Coeff:      0.903D-02 0.564D-02 0.264D+00 0.270D+00 0.451D+00
 Gap=     0.202 Goal=   None    Shift=    0.000
 RMSDP=1.52D-04 MaxDP=6.84D-03 DE=-1.54D-02 OVMax= 1.89D-02

 Cycle   6  Pass 0  IDiag  1:
 E= -690.537305461424     Delta-E=       -0.002125805454 Rises=F Damp=F
 DIIS: error= 3.67D-04 at cycle   6 NSaved=   6.
 NSaved= 6 IEnMin= 6 EnMin= -690.537305461424     IErMin= 6 ErrMin= 3.67D-04
 ErrMax= 3.67D-04  0.00D+00 EMaxC= 1.00D-01 BMatC= 1.58D-04 BMatP= 2.75D-03
 IDIUse=3 WtCom= 9.96D-01 WtEn= 3.67D-03
 Coeff-Com:  0.299D-02-0.237D-02 0.130D+00 0.143D+00 0.284D+00 0.442D+00
 Coeff-En:   0.000D+00 0.000D+00 0.000D+00 0.000D+00 0.000D+00 0.100D+01
 Coeff:      0.298D-02-0.236D-02 0.130D+00 0.143D+00 0.283D+00 0.444D+00
 Gap=     0.200 Goal=   None    Shift=    0.000
 RMSDP=3.91D-05 MaxDP=2.48D-03 DE=-2.13D-03 OVMax= 5.51D-03

 Cycle   7  Pass 0  IDiag  1:
 E= -690.537417488703     Delta-E=       -0.000112027279 Rises=F Damp=F
 DIIS: error= 1.54D-04 at cycle   7 NSaved=   7.
 NSaved= 7 IEnMin= 7 EnMin= -690.537417488703     IErMin= 7 ErrMin= 1.54D-04
 ErrMax= 1.54D-04  0.00D+00 EMaxC= 1.00D-01 BMatC= 2.37D-05 BMatP= 1.58D-04
 IDIUse=3 WtCom= 9.98D-01 WtEn= 1.54D-03
 Coeff-Com:  0.782D-03-0.242D-02 0.547D-01 0.628D-01 0.138D+00 0.308D+00
 Coeff-Com:  0.438D+00
 Coeff-En:   0.000D+00 0.000D+00 0.000D+00 0.000D+00 0.000D+00 0.123D+00
 Coeff-En:   0.877D+00
 Coeff:      0.781D-03-0.241D-02 0.546D-01 0.627D-01 0.138D+00 0.307D+00
 Coeff:      0.439D+00
 Gap=     0.200 Goal=   None    Shift=    0.000
 RMSDP=1.40D-05 MaxDP=7.50D-04 DE=-1.12D-04 OVMax= 1.90D-03

 Cycle   8  Pass 0  IDiag  1:
 E= -690.537433910985     Delta-E=       -0.000016422282 Rises=F Damp=F
 DIIS: error= 5.74D-05 at cycle   8 NSaved=   8.
 NSaved= 8 IEnMin= 8 EnMin= -690.537433910985     IErMin= 8 ErrMin= 5.74D-05
 ErrMax= 5.74D-05  0.00D+00 EMaxC= 1.00D-01 BMatC= 3.41D-06 BMatP= 2.37D-05
 IDIUse=1 WtCom= 1.00D+00 WtEn= 0.00D+00
 Coeff-Com:  0.143D-03-0.142D-02 0.218D-01 0.255D-01 0.609D-01 0.158D+00
 Coeff-Com:  0.304D+00 0.431D+00
 Coeff:      0.143D-03-0.142D-02 0.218D-01 0.255D-01 0.609D-01 0.158D+00
 Coeff:      0.304D+00 0.431D+00
 Gap=     0.200 Goal=   None    Shift=    0.000
 RMSDP=5.83D-06 MaxDP=3.55D-04 DE=-1.64D-05 OVMax= 7.81D-04

 Initial convergence to 1.0D-05 achieved.  Increase integral accuracy.
 Cycle   9  Pass 1  IDiag  1:
 E= -690.537439924912     Delta-E=       -0.000006013927 Rises=F Damp=F
 DIIS: error= 3.11D-05 at cycle   1 NSaved=   1.
 NSaved= 1 IEnMin= 1 EnMin= -690.537439924912     IErMin= 1 ErrMin= 3.11D-05
 ErrMax= 3.11D-05  0.00D+00 EMaxC= 1.00D-01 BMatC= 9.23D-07 BMatP= 9.23D-07
 IDIUse=1 WtCom= 1.00D+00 WtEn= 0.00D+00
 Coeff-Com:  0.100D+01
 Coeff:      0.100D+01
 Gap=     0.200 Goal=   None    Shift=    0.000
 RMSDP=5.83D-06 MaxDP=3.55D-04 DE=-6.01D-06 OVMax= 1.06D-03

 Cycle  10  Pass 1  IDiag  1:
 E= -690.537435988833     Delta-E=        0.000003936079 Rises=F Damp=F
 DIIS: error= 9.20D-05 at cycle   2 NSaved=   2.
 NSaved= 2 IEnMin= 1 EnMin= -690.537439924912     IErMin= 1 ErrMin= 3.11D-05
 ErrMax= 9.20D-05  0.00D+00 EMaxC= 1.00D-01 BMatC= 5.86D-06 BMatP= 9.23D-07
 IDIUse=1 WtCom= 1.00D+00 WtEn= 0.00D+00
 Coeff-Com:  0.728D+00 0.272D+00
 Coeff:      0.728D+00 0.272D+00
 Gap=     0.200 Goal=   None    Shift=    0.000
 RMSDP=5.86D-06 MaxDP=3.72D-04 DE= 3.94D-06 OVMax= 8.83D-04

 Cycle  11  Pass 1  IDiag  1:
 E= -690.537440594523     Delta-E=       -0.000004605690 Rises=F Damp=F
 DIIS: error= 1.16D-05 at cycle   3 NSaved=   3.
 NSaved= 3 IEnMin= 3 EnMin= -690.537440594523     IErMin= 3 ErrMin= 1.16D-05
 ErrMax= 1.16D-05  0.00D+00 EMaxC= 1.00D-01 BMatC= 1.04D-07 BMatP= 9.23D-07
 IDIUse=1 WtCom= 1.00D+00 WtEn= 0.00D+00
 Coeff-Com:  0.277D+00 0.145D+00 0.578D+00
 Coeff:      0.277D+00 0.145D+00 0.578D+00
 Gap=     0.200 Goal=   None    Shift=    0.000
 RMSDP=1.26D-06 MaxDP=7.12D-05 DE=-4.61D-06 OVMax= 1.67D-04

 Cycle  12  Pass 1  IDiag  1:
 E= -690.537440630796     Delta-E=       -0.000000036272 Rises=F Damp=F
 DIIS: error= 7.24D-06 at cycle   4 NSaved=   4.
 NSaved= 4 IEnMin= 4 EnMin= -690.537440630796     IErMin= 4 ErrMin= 7.24D-06
 ErrMax= 7.24D-06  0.00D+00 EMaxC= 1.00D-01 BMatC= 5.36D-08 BMatP= 1.04D-07
 IDIUse=1 WtCom= 1.00D+00 WtEn= 0.00D+00
 Coeff-Com:  0.168D-01 0.381D-01 0.447D+00 0.498D+00
 Coeff:      0.168D-01 0.381D-01 0.447D+00 0.498D+00
 Gap=     0.200 Goal=   None    Shift=    0.000
 RMSDP=6.49D-07 MaxDP=4.45D-05 DE=-3.63D-08 OVMax= 9.33D-05

 Cycle  13  Pass 1  IDiag  1:
 E= -690.537440672413     Delta-E=       -0.000000041617 Rises=F Damp=F
 DIIS: error= 1.73D-06 at cycle   5 NSaved=   5.
 NSaved= 5 IEnMin= 5 EnMin= -690.537440672413     IErMin= 5 ErrMin= 1.73D-06
 ErrMax= 1.73D-06  0.00D+00 EMaxC= 1.00D-01 BMatC= 4.16D-09 BMatP= 5.36D-08
 IDIUse=1 WtCom= 1.00D+00 WtEn= 0.00D+00
 Coeff-Com: -0.806D-02 0.146D-01 0.246D+00 0.326D+00 0.421D+00
 Coeff:     -0.806D-02 0.146D-01 0.246D+00 0.326D+00 0.421D+00
 Gap=     0.200 Goal=   None    Shift=    0.000
 RMSDP=1.93D-07 MaxDP=1.04D-05 DE=-4.16D-08 OVMax= 2.57D-05

 Cycle  14  Pass 1  IDiag  1:
 E= -690.537440675430     Delta-E=       -0.000000003017 Rises=F Damp=F
 DIIS: error= 7.92D-07 at cycle   6 NSaved=   6.
 NSaved= 6 IEnMin= 6 EnMin= -690.537440675430     IErMin= 6 ErrMin= 7.92D-07
 ErrMax= 7.92D-07  0.00D+00 EMaxC= 1.00D-01 BMatC= 5.54D-10 BMatP= 4.16D-09
 IDIUse=1 WtCom= 1.00D+00 WtEn= 0.00D+00
 Coeff-Com: -0.696D-02 0.822D-02 0.149D+00 0.206D+00 0.306D+00 0.338D+00
 Coeff:     -0.696D-02 0.822D-02 0.149D+00 0.206D+00 0.306D+00 0.338D+00
 Gap=     0.200 Goal=   None    Shift=    0.000
 RMSDP=6.27D-08 MaxDP=3.33D-06 DE=-3.02D-09 OVMax= 7.94D-06

 Cycle  15  Pass 1  IDiag  1:
 E= -690.537440675874     Delta-E=       -0.000000000444 Rises=F Damp=F
 DIIS: error= 1.49D-07 at cycle   7 NSaved=   7.
 NSaved= 7 IEnMin= 7 EnMin= -690.537440675874     IErMin= 7 ErrMin= 1.49D-07
 ErrMax= 1.49D-07  0.00D+00 EMaxC= 1.00D-01 BMatC= 3.30D-11 BMatP= 5.54D-10
 IDIUse=1 WtCom= 1.00D+00 WtEn= 0.00D+00
 Coeff-Com: -0.279D-02 0.258D-02 0.479D-01 0.707D-01 0.113D+00 0.218D+00
 Coeff-Com:  0.551D+00
 Coeff:     -0.279D-02 0.258D-02 0.479D-01 0.707D-01 0.113D+00 0.218D+00
 Coeff:      0.551D+00
 Gap=     0.200 Goal=   None    Shift=    0.000
 RMSDP=1.78D-08 MaxDP=9.34D-07 DE=-4.44D-10 OVMax= 1.61D-06

 Cycle  16  Pass 1  IDiag  1:
 E= -690.537440675876     Delta-E=       -0.000000000002 Rises=F Damp=F
 DIIS: error= 6.13D-08 at cycle   8 NSaved=   8.
 NSaved= 8 IEnMin= 8 EnMin= -690.537440675876     IErMin= 8 ErrMin= 6.13D-08
 ErrMax= 6.13D-08  0.00D+00 EMaxC= 1.00D-01 BMatC= 5.85D-12 BMatP= 3.30D-11
 IDIUse=1 WtCom= 1.00D+00 WtEn= 0.00D+00
 Coeff-Com: -0.866D-03 0.497D-03 0.969D-02 0.169D-01 0.307D-01 0.995D-01
 Coeff-Com:  0.370D+00 0.474D+00
 Coeff:     -0.866D-03 0.497D-03 0.969D-02 0.169D-01 0.307D-01 0.995D-01
 Coeff:      0.370D+00 0.474D+00
 Gap=     0.200 Goal=   None    Shift=    0.000
 RMSDP=6.37D-09 MaxDP=4.59D-07 DE=-1.59D-12 OVMax= 6.30D-07

 SCF Done:  E(RB3LYP) =  -690.537440676     A.U. after   16 cycles
            NFock= 16  Conv=0.64D-08     -V/T= 2.0046
 KE= 6.873909894671D+02 PE=-3.044314120072D+03 EE= 9.529928489216D+02
 Leave Link  502 at Thu Aug 26 23:50:31 2021, MaxMem= 24159191040 cpu:       346.3
 (Enter /public/home/users/caep010/software/Gaussian09/g09/l801.exe)
 DoSCS=F DFT=T ScalE2(SS,OS)=  1.000000  1.000000
 Range of M.O.s used for correlation:     1   351
 NBasis=   351 NAE=    44 NBE=    44 NFC=     0 NFV=     0
 NROrb=    351 NOA=    44 NOB=    44 NVA=   307 NVB=   307

 **** Warning!!: The largest alpha MO coefficient is  0.49620823D+02

 Leave Link  801 at Thu Aug 26 23:50:31 2021, MaxMem= 24159191040 cpu:         0.8
 (Enter /public/home/users/caep010/software/Gaussian09/g09/l1101.exe)
 Using compressed storage, NAtomX=    15.
 Will process     16 centers per pass.
 Leave Link 1101 at Thu Aug 26 23:50:32 2021, MaxMem= 24159191040 cpu:        19.6
 (Enter /public/home/users/caep010/software/Gaussian09/g09/l1102.exe)
 Symmetrizing basis deriv contribution to polar:
 IMax=3 JMax=2 DiffMx= 0.00D+00
 Leave Link 1102 at Thu Aug 26 23:50:32 2021, MaxMem= 24159191040 cpu:         1.0
 (Enter /public/home/users/caep010/software/Gaussian09/g09/l1110.exe)
 Forming Gx(P) for the SCF density, NAtomX=    15.
 Integral derivatives from FoFJK, PRISM(SPDF).
 Do as many integral derivatives as possible in FoFJK.
 G2DrvN: MDV=   24159190816.
 G2DrvN: will do    16 centers at a time, making    1 passes.
 Calling FoFCou, ICntrl=  3107 FMM=F I1Cent=   0 AccDes= 0.00D+00.
 FoFJK:  IHMeth= 1 ICntrl=    3107 DoSepK=F KAlg= 0 I1Cent=   0 FoldK=F
 IRaf=         0 NMat=   1 IRICut=       1 DoRegI=T DoRafI=F ISym2E= 0.
 FoFCou: FMM=F IPFlag=           0 FMFlag=      100000 FMFlg1=           0
         NFxFlg=           0 DoJE=F BraDBF=F KetDBF=F FulRan=T
         wScrn=  0.000000 ICntrl=    3107 IOpCl=  0 I1Cent=           0 NGrid=           0
         NMat0=    1 NMatS0=      1 NMatT0=    0 NMatD0=    1 NMtDS0=    0 NMtDT0=    0
 Symmetry not used in FoFCou.
 End of G2Drv F.D. properties file   721 does not exist.
 End of G2Drv F.D. properties file   722 does not exist.
 End of G2Drv F.D. properties file   788 does not exist.
 Leave Link 1110 at Thu Aug 26 23:50:50 2021, MaxMem= 24159191040 cpu:       564.0
 (Enter /public/home/users/caep010/software/Gaussian09/g09/l1002.exe)
 Minotr:  Closed shell wavefunction.
          IDoAtm=111111111111111
          Direct CPHF calculation.
          Differentiating once with respect to nuclear coordinates.
          Requested convergence is 1.0D-08 RMS, and 1.0D-07 maximum.
          Secondary convergence is 1.0D-12 RMS, and 1.0D-12 maximum.
          NewPWx=T KeepS1=F KeepF1=F KeepIn=T MapXYZ=F SortEE=F KeepMc=T.
          MDV=   24159190535 using IRadAn=       2.
 Generate precomputed XC quadrature information.
 Keep R1 ints in memory in canonical form, NReq=1937379156.
 FoFCou: FMM=F IPFlag=           0 FMFlag=           0 FMFlg1=           0
         NFxFlg=           0 DoJE=F BraDBF=F KetDBF=F FulRan=T
         wScrn=  0.000000 ICntrl=     600 IOpCl=  0 I1Cent=           0 NGrid=           0
         NMat0=    1 NMatS0=  61776 NMatT0=    0 NMatD0=    1 NMtDS0=    0 NMtDT0=    0
 Symmetry not used in FoFCou.
          Solving linear equations simultaneously, MaxMat=       0.
          There are    48 degrees of freedom in the 1st order CPHF.  IDoFFX=6 NUNeed=     0.
     42 vectors produced by pass  0 Test12= 2.81D-14 2.08D-09 XBig12= 2.44D-01 1.24D-01.
 AX will form    42 AO Fock derivatives at one time.
     42 vectors produced by pass  1 Test12= 2.81D-14 2.08D-09 XBig12= 4.48D-02 5.20D-02.
     42 vectors produced by pass  2 Test12= 2.81D-14 2.08D-09 XBig12= 8.52D-04 5.08D-03.
     42 vectors produced by pass  3 Test12= 2.81D-14 2.08D-09 XBig12= 1.39D-05 6.90D-04.
     42 vectors produced by pass  4 Test12= 2.81D-14 2.08D-09 XBig12= 7.70D-08 3.50D-05.
     42 vectors produced by pass  5 Test12= 2.81D-14 2.08D-09 XBig12= 2.10D-10 2.26D-06.
     27 vectors produced by pass  6 Test12= 2.81D-14 2.08D-09 XBig12= 3.84D-13 1.06D-07.
      3 vectors produced by pass  7 Test12= 2.81D-14 2.08D-09 XBig12= 7.23D-16 2.83D-09.
 InvSVY:  IOpt=1 It=  1 EMax= 2.22D-15
 Solved reduced A of dimension   282 with    42 vectors.
 End of Minotr F.D. properties file   721 does not exist.
 End of Minotr F.D. properties file   722 does not exist.
 End of Minotr F.D. properties file   788 does not exist.
 Leave Link 1002 at Thu Aug 26 23:51:23 2021, MaxMem= 24159191040 cpu:      1045.6
 (Enter /public/home/users/caep010/software/Gaussian09/g09/l601.exe)
 Copying SCF densities to generalized density rwf, IOpCl= 0 IROHF=0.

 **********************************************************************

            Population analysis using the SCF density.

 **********************************************************************

 Orbital symmetries:
       Occupied  (A) (A) (A) (A) (A) (A) (A) (A) (A) (A) (A) (A)
                 (A) (A) (A) (A) (A) (A) (A) (A) (A) (A) (A) (A)
                 (A) (A) (A) (A) (A) (A) (A) (A) (A) (A) (A) (A)
                 (A) (A) (A) (A) (A) (A) (A) (A)
       Virtual   (A) (A) (A) (A) (A) (A) (A) (A) (A) (A) (A) (A)
                 (A) (A) (A) (A) (A) (A) (A) (A) (A) (A) (A) (A)
                 (A) (A) (A) (A) (A) (A) (A) (A) (A) (A) (A) (A)
                 (A) (A) (A) (A) (A) (A) (A) (A) (A) (A) (A) (A)
                 (A) (A) (A) (A) (A) (A) (A) (A) (A) (A) (A) (A)
                 (A) (A) (A) (A) (A) (A) (A) (A) (A) (A) (A) (A)
                 (A) (A) (A) (A) (A) (A) (A) (A) (A) (A) (A) (A)
                 (A) (A) (A) (A) (A) (A) (A) (A) (A) (A) (A) (A)
                 (A) (A) (A) (A) (A) (A) (A) (A) (A) (A) (A) (A)
                 (A) (A) (A) (A) (A) (A) (A) (A) (A) (A) (A) (A)
                 (A) (A) (A) (A) (A) (A) (A) (A) (A) (A) (A) (A)
                 (A) (A) (A) (A) (A) (A) (A) (A) (A) (A) (A) (A)
                 (A) (A) (A) (A) (A) (A) (A) (A) (A) (A) (A) (A)
                 (A) (A) (A) (A) (A) (A) (A) (A) (A) (A) (A) (A)
                 (A) (A) (A) (A) (A) (A) (A) (A) (A) (A) (A) (A)
                 (A) (A) (A) (A) (A) (A) (A) (A) (A) (A) (A) (A)
                 (A) (A) (A) (A) (A) (A) (A) (A) (A) (A) (A) (A)
                 (A) (A) (A) (A) (A) (A) (A) (A) (A) (A) (A) (A)
                 (A) (A) (A) (A) (A) (A) (A) (A) (A) (A) (A) (A)
                 (A) (A) (A) (A) (A) (A) (A) (A) (A) (A) (A) (A)
                 (A) (A) (A) (A) (A) (A) (A) (A) (A) (A) (A) (A)
                 (A) (A) (A) (A) (A) (A) (A) (A) (A) (A) (A) (A)
                 (A) (A) (A) (A) (A) (A) (A) (A) (A) (A) (A) (A)
                 (A) (A) (A) (A) (A) (A) (A) (A) (A) (A) (A) (A)
                 (A) (A) (A) (A) (A) (A) (A) (A) (A) (A) (A) (A)
                 (A) (A) (A) (A) (A) (A) (A)
 The electronic state is 1-A.
 Alpha  occ. eigenvalues --  -19.21436 -19.20943 -19.18002 -19.17856 -14.60061
 Alpha  occ. eigenvalues --  -14.57734 -14.47585 -14.41002 -14.37491 -10.31396
 Alpha  occ. eigenvalues --  -10.31108 -10.29256  -1.27647  -1.24576  -1.14751
 Alpha  occ. eigenvalues --   -1.09957  -1.06697  -0.98099  -0.92109  -0.85711
 Alpha  occ. eigenvalues --   -0.77399  -0.71512  -0.66948  -0.64176  -0.60281
 Alpha  occ. eigenvalues --   -0.59408  -0.58866  -0.56080  -0.55140  -0.53564
 Alpha  occ. eigenvalues --   -0.52983  -0.51028  -0.50284  -0.49900  -0.38793
 Alpha  occ. eigenvalues --   -0.36369  -0.34958  -0.34114  -0.33553  -0.32851
 Alpha  occ. eigenvalues --   -0.32194  -0.31762  -0.31484  -0.29466
 Alpha virt. eigenvalues --   -0.09472  -0.09297  -0.04442   0.03822   0.06163
 Alpha virt. eigenvalues --    0.08617   0.10552   0.12497   0.14438   0.15074
 Alpha virt. eigenvalues --    0.19869   0.21587   0.21795   0.23208   0.27670
 Alpha virt. eigenvalues --    0.28176   0.32423   0.33333   0.34609   0.36532
 Alpha virt. eigenvalues --    0.36902   0.40781   0.41744   0.43114   0.46281
 Alpha virt. eigenvalues --    0.48999   0.49610   0.50721   0.52306   0.53259
 Alpha virt. eigenvalues --    0.54429   0.56758   0.57702   0.57938   0.62483
 Alpha virt. eigenvalues --    0.64436   0.65130   0.65977   0.66560   0.68176
 Alpha virt. eigenvalues --    0.68813   0.69989   0.71183   0.72101   0.74993
 Alpha virt. eigenvalues --    0.75439   0.76658   0.78286   0.79191   0.79596
 Alpha virt. eigenvalues --    0.80931   0.83084   0.83927   0.85810   0.86111
 Alpha virt. eigenvalues --    0.86973   0.87514   0.88798   0.90390   0.91057
 Alpha virt. eigenvalues --    0.92697   0.93455   0.94895   0.95794   0.96430
 Alpha virt. eigenvalues --    0.97917   0.98579   0.99185   1.01583   1.03427
 Alpha virt. eigenvalues --    1.06724   1.09253   1.09984   1.10808   1.12545
 Alpha virt. eigenvalues --    1.13714   1.14453   1.16573   1.17724   1.22295
 Alpha virt. eigenvalues --    1.22889   1.26349   1.26894   1.28287   1.30117
 Alpha virt. eigenvalues --    1.33536   1.34020   1.34386   1.36151   1.40073
 Alpha virt. eigenvalues --    1.40483   1.41514   1.42508   1.43428   1.46051
 Alpha virt. eigenvalues --    1.49228   1.51671   1.54411   1.55266   1.57431
 Alpha virt. eigenvalues --    1.58785   1.60449   1.61617   1.63331   1.64063
 Alpha virt. eigenvalues --    1.66287   1.67226   1.68732   1.70554   1.72358
 Alpha virt. eigenvalues --    1.75576   1.78688   1.80239   1.84593   1.85315
 Alpha virt. eigenvalues --    1.88525   1.89975   1.92558   1.97987   1.99230
 Alpha virt. eigenvalues --    2.04142   2.11060   2.11687   2.13653   2.18688
 Alpha virt. eigenvalues --    2.24237   2.25974   2.30966   2.33446   2.39526
 Alpha virt. eigenvalues --    2.42684   2.47584   2.49617   2.67632   2.68782
 Alpha virt. eigenvalues --    2.79158   2.84976   2.87380   2.88007   2.89703
 Alpha virt. eigenvalues --    2.93689   2.99075   3.02402   3.04221   3.07916
 Alpha virt. eigenvalues --    3.08858   3.10664   3.13569   3.17466   3.19584
 Alpha virt. eigenvalues --    3.22930   3.25286   3.27776   3.35120   3.37412
 Alpha virt. eigenvalues --    3.39897   3.41651   3.43366   3.45673   3.49841
 Alpha virt. eigenvalues --    3.52151   3.52867   3.55188   3.59225   3.61540
 Alpha virt. eigenvalues --    3.64126   3.64999   3.65893   3.68096   3.71240
 Alpha virt. eigenvalues --    3.72562   3.74989   3.77556   3.78577   3.82144
 Alpha virt. eigenvalues --    3.85375   3.87338   3.89537   3.93318   3.94267
 Alpha virt. eigenvalues --    3.97041   3.98638   4.00156   4.03017   4.03630
 Alpha virt. eigenvalues --    4.04282   4.06454   4.07073   4.09347   4.10054
 Alpha virt. eigenvalues --    4.10836   4.12182   4.14154   4.17000   4.17223
 Alpha virt. eigenvalues --    4.20730   4.21364   4.23094   4.24220   4.26060
 Alpha virt. eigenvalues --    4.28427   4.29858   4.31718   4.33459   4.33672
 Alpha virt. eigenvalues --    4.35606   4.36597   4.39042   4.39512   4.42463
 Alpha virt. eigenvalues --    4.44440   4.45966   4.47096   4.49074   4.50810
 Alpha virt. eigenvalues --    4.52994   4.53546   4.56355   4.58699   4.59232
 Alpha virt. eigenvalues --    4.60043   4.63916   4.64221   4.65243   4.68403
 Alpha virt. eigenvalues --    4.69075   4.72322   4.73814   4.74989   4.75707
 Alpha virt. eigenvalues --    4.80245   4.84109   4.87173   4.89033   4.91670
 Alpha virt. eigenvalues --    4.93695   4.94832   4.97088   4.98185   4.99870
 Alpha virt. eigenvalues --    5.00510   5.02471   5.02757   5.04320   5.06255
 Alpha virt. eigenvalues --    5.08675   5.10590   5.11209   5.13335   5.19495
 Alpha virt. eigenvalues --    5.21563   5.23291   5.25639   5.27020   5.29444
 Alpha virt. eigenvalues --    5.33993   5.36442   5.38039   5.44441   5.46083
 Alpha virt. eigenvalues --    5.49195   5.57286   5.58846   5.60462   5.62631
 Alpha virt. eigenvalues --    5.66341   5.71556   5.74600   5.80176   5.80903
 Alpha virt. eigenvalues --    5.86302   5.92245   5.96149   6.01183   6.05912
 Alpha virt. eigenvalues --    6.06914   6.14327   6.17404   6.24111   6.25648
 Alpha virt. eigenvalues --    6.26171   6.27965   6.35865   6.44324   6.73400
 Alpha virt. eigenvalues --    6.75041   6.78771   6.88534   6.95127   7.07424
 Alpha virt. eigenvalues --   10.59221  10.75968  10.78533  11.23026  11.27656
 Alpha virt. eigenvalues --   11.30777  11.39300  11.42230  12.58934  12.92115
 Alpha virt. eigenvalues --   12.97779  13.11471  13.83005  14.39270  16.84842
 Alpha virt. eigenvalues --   18.19093  26.42389
          Condensed to atoms (all electrons):
               1          2          3          4          5          6
     1  N    6.594795   0.367634   0.515621  -0.080048  -0.054706   0.000542
     2  N    0.367634   6.061523  -0.109637  -0.025162   0.327391  -0.053610
     3  C    0.515621  -0.109637   4.573989   0.538797   0.005709   0.000760
     4  N   -0.080048  -0.025162   0.538797   6.348085   0.006613  -0.000076
     5  C   -0.054706   0.327391   0.005709   0.006613   4.937592   0.329317
     6  N    0.000542  -0.053610   0.000760  -0.000076   0.329317   5.192044
     7  O    0.000015   0.004025   0.000006  -0.000001  -0.105681   0.503305
     8  O    0.002411  -0.006025   0.003149  -0.000824  -0.110452   0.573775
     9  N   -0.017259  -0.001476   0.293725  -0.011827   0.000000  -0.000000
    10  O    0.001707  -0.000002  -0.089780   0.000754   0.000001  -0.000000
    11  O    0.004100   0.001124  -0.093425   0.000983   0.000006  -0.000000
    12  C   -0.082282   0.460697  -0.121915   0.538860  -0.047900  -0.000418
    13  H    0.003721  -0.014128  -0.000078   0.000367   0.367233  -0.017683
    14  H    0.002465  -0.003078   0.000364  -0.000283   0.362037  -0.018612
    15  H    0.006038  -0.023050   0.005963  -0.009683  -0.000302   0.000073
               7          8          9         10         11         12
     1  N    0.000015   0.002411  -0.017259   0.001707   0.004100  -0.082282
     2  N    0.004025  -0.006025  -0.001476  -0.000002   0.001124   0.460697
     3  C    0.000006   0.003149   0.293725  -0.089780  -0.093425  -0.121915
     4  N   -0.000001  -0.000824  -0.011827   0.000754   0.000983   0.538860
     5  C   -0.105681  -0.110452   0.000000   0.000001   0.000006  -0.047900
     6  N    0.503305   0.573775  -0.000000  -0.000000  -0.000000  -0.000418
     7  O    8.008635  -0.073365   0.000000   0.000000  -0.000000   0.000123
     8  O   -0.073365   7.923379  -0.000011  -0.000000   0.000000   0.010927
     9  N    0.000000  -0.000011   5.324787   0.530144   0.525981  -0.004960
    10  O    0.000000  -0.000000   0.530144   7.958294  -0.073042   0.000848
    11  O   -0.000000   0.000000   0.525981  -0.073042   7.973358  -0.000201
    12  C    0.000123   0.010927  -0.004960   0.000848  -0.000201   4.785912
    13  H    0.004266   0.001156   0.000002  -0.000000  -0.000000  -0.001510
    14  H    0.006620   0.001286  -0.000016   0.000000   0.000001   0.005637
    15  H    0.000004   0.000412  -0.000085   0.000015   0.000002   0.358557
              13         14         15
     1  N    0.003721   0.002465   0.006038
     2  N   -0.014128  -0.003078  -0.023050
     3  C   -0.000078   0.000364   0.005963
     4  N    0.000367  -0.000283  -0.009683
     5  C    0.367233   0.362037  -0.000302
     6  N   -0.017683  -0.018612   0.000073
     7  O    0.004266   0.006620   0.000004
     8  O    0.001156   0.001286   0.000412
     9  N    0.000002  -0.000016  -0.000085
    10  O   -0.000000   0.000000   0.000015
    11  O   -0.000000   0.000001   0.000002
    12  C   -0.001510   0.005637   0.358557
    13  H    0.521469  -0.035023   0.001603
    14  H   -0.035023   0.511750  -0.000158
    15  H    0.001603  -0.000158   0.506200
 Mulliken charges:
               1
     1  N   -0.264753
     2  N    0.013775
     3  C    0.476752
     4  N   -0.306556
     5  C   -0.016858
     6  N    0.490583
     7  O   -0.347954
     8  O   -0.325817
     9  N    0.360995
    10  O   -0.328939
    11  O   -0.338885
    12  C    0.097626
    13  H    0.168606
    14  H    0.167012
    15  H    0.154413
 Sum of Mulliken charges =  -0.00000
 Mulliken charges with hydrogens summed into heavy atoms:
               1
     1  N   -0.264753
     2  N    0.013775
     3  C    0.476752
     4  N   -0.306556
     5  C    0.318760
     6  N    0.490583
     7  O   -0.347954
     8  O   -0.325817
     9  N    0.360995
    10  O   -0.328939
    11  O   -0.338885
    12  C    0.252039
 APT charges:
               1
     1  N   -0.256024
     2  N   -0.421226
     3  C   -0.115294
     4  N    0.127552
     5  C   -0.394777
     6  N   -0.850153
     7  O    0.925340
     8  O   -0.233856
     9  N   -1.261461
    10  O    0.750010
    11  O    0.481957
    12  C   -0.186288
    13  H    0.516563
    14  H    0.399958
    15  H    0.517699
 Sum of APT charges =  -0.00000
 APT charges with hydrogens summed into heavy atoms:
               1
     1  N   -0.256024
     2  N   -0.421226
     3  C   -0.115294
     4  N    0.127552
     5  C    0.521743
     6  N   -0.850153
     7  O    0.925340
     8  O   -0.233856
     9  N   -1.261461
    10  O    0.750010
    11  O    0.481957
    12  C    0.331411
 Electronic spatial extent (au):  <R**2>=           2175.5475
 Charge=             -0.0000 electrons
 Dipole moment (field-independent basis, Debye):
    X=             -4.4354    Y=              3.6171    Z=             -2.8062  Tot=              6.3742
 Quadrupole moment (field-independent basis, Debye-Ang):
   XX=            -80.9587   YY=            -64.5160   ZZ=            -65.1419
   XY=             -5.1628   XZ=              3.3861   YZ=             -2.7009
 Traceless Quadrupole moment (field-independent basis, Debye-Ang):
   XX=            -10.7531   YY=              5.6895   ZZ=              5.0636
   XY=             -5.1628   XZ=              3.3861   YZ=             -2.7009
 Octapole moment (field-independent basis, Debye-Ang**2):
  XXX=            -12.7934  YYY=              1.3980  ZZZ=             -1.3586  XYY=            -18.0295
  XXY=             18.9046  XXZ=            -17.9227  XZZ=             -5.2128  YZZ=             -1.4435
  YYZ=              1.5410  XYZ=             -7.9380
 Hexadecapole moment (field-independent basis, Debye-Ang**3):
 XXXX=          -2268.1598 YYYY=           -347.4761 ZZZZ=           -199.5155 XXXY=            -35.6798
 XXXZ=            -16.7975 YYYX=            -13.3359 YYYZ=             -6.9420 ZZZX=              6.0748
 ZZZY=             -0.0456 XXYY=           -407.8825 XXZZ=           -363.3457 YYZZ=            -96.3070
 XXYZ=            -11.4957 YYXZ=              4.9120 ZZXY=             -3.9288
 N-N= 7.133928410074D+02 E-N=-3.044314111056D+03  KE= 6.873909894671D+02
  Exact polarizability:   0.000   0.000   0.000   0.000   0.000   0.000
 Approx polarizability: 162.410   5.782 123.347  36.182  25.887 108.788
 No NMR shielding tensors so no spin-rotation constants.
 Leave Link  601 at Thu Aug 26 23:51:24 2021, MaxMem= 24159191040 cpu:        15.8
 (Enter /public/home/users/caep010/software/Gaussian09/g09/l701.exe)
 Compute integral second derivatives.
 ... and contract with generalized density number  0.
 Leave Link  701 at Thu Aug 26 23:51:24 2021, MaxMem= 24159191040 cpu:        19.0
 (Enter /public/home/users/caep010/software/Gaussian09/g09/l702.exe)
 L702 exits ... SP integral derivatives will be done elsewhere.
 Leave Link  702 at Thu Aug 26 23:51:24 2021, MaxMem= 24159191040 cpu:         0.9
 (Enter /public/home/users/caep010/software/Gaussian09/g09/l703.exe)
 Compute integral second derivatives, UseDBF=F ICtDFT=           0.
 Integral derivatives from FoFJK, PRISM(SPDF).
 Calling FoFJK, ICntrl=    100147 FMM=F ISym2X=0 I1Cent= 0 IOpClX= 0 NMat=1 NMatS=1 NMatT=0.
 FoFJK:  IHMeth= 1 ICntrl=  100147 DoSepK=F KAlg= 0 I1Cent=   0 FoldK=F
 IRaf=         0 NMat=   1 IRICut=       1 DoRegI=T DoRafI=F ISym2E= 0.
 FoFCou: FMM=F IPFlag=           0 FMFlag=      100000 FMFlg1=         800
         NFxFlg=           0 DoJE=F BraDBF=F KetDBF=F FulRan=T
         wScrn=  0.000000 ICntrl=  100147 IOpCl=  0 I1Cent=           0 NGrid=           0
         NMat0=    1 NMatS0=      1 NMatT0=    0 NMatD0=    1 NMtDS0=    0 NMtDT0=    0
 Symmetry not used in FoFCou.
 Leave Link  703 at Thu Aug 26 23:52:01 2021, MaxMem= 24159191040 cpu:      1158.8
 (Enter /public/home/users/caep010/software/Gaussian09/g09/l716.exe)
 Dipole        =-1.74500989D+00 1.42306516D+00-1.10406082D+00
 Polarizability= 0.00000000D+00 0.00000000D+00 0.00000000D+00
                 0.00000000D+00 0.00000000D+00 0.00000000D+00
 ***** Axes restored to original set *****
 -------------------------------------------------------------------
 Center     Atomic                   Forces (Hartrees/Bohr)
 Number     Number              X              Y              Z
 -------------------------------------------------------------------
      1        7           0.006748796   -0.010695085    0.000060196
      2        7          -0.003434288   -0.011892721   -0.015219723
      3        6          -0.010496391    0.008363974   -0.008768563
      4        7           0.001452685    0.002583871    0.009422142
      5        6           0.013906479    0.149854933    0.003130950
      6        7           0.019307873    0.003324471   -0.011176902
      7        8           0.000343704   -0.013437452    0.003692689
      8        8          -0.006090991    0.014694257    0.000502795
      9        7          -0.008679690    0.004974195   -0.007358929
     10        8           0.002019248    0.010056694    0.008818601
     11        8           0.000170777   -0.010592806   -0.006339319
     12        6          -0.070945638    0.014398184   -0.114368711
     13        1           0.034702423   -0.028846411    0.087954085
     14        1          -0.057238235   -0.125053016   -0.083967962
     15        1           0.078233250   -0.007733087    0.133618650
 -------------------------------------------------------------------
 Cartesian Forces:  Max     0.149854933 RMS     0.047864960
 FormGI is forming the generalized inverse of G from B-inverse, IUseBI=4.
 Leave Link  716 at Thu Aug 26 23:52:01 2021, MaxMem= 24159191040 cpu:         1.0
 (Enter /public/home/users/caep010/software/Gaussian09/g09/l103.exe)

 GradGradGradGradGradGradGradGradGradGradGradGradGradGradGradGradGradGrad
 Berny optimization.
 Red2BG is reusing G-inverse.
 Internal  Forces:  Max     0.161111792 RMS     0.030700927
 Search for a local minimum.
 Step number   1 out of a maximum of   76
 All quantities printed in internal units (Hartrees-Bohrs-Radians)
 RMS Force = .30701D-01 SwitMx=.10000D-02 MixMth= 1
 Mixed Optimization -- RFO/linear search
 Second derivative matrix not updated -- analytic derivatives used.
 ITU=  0
     Eigenvalues ---    0.00093   0.00155   0.00456   0.00924   0.02557
     Eigenvalues ---    0.02846   0.05206   0.05743   0.06062   0.06295
     Eigenvalues ---    0.07340   0.08593   0.11545   0.12022   0.12251
     Eigenvalues ---    0.16738   0.19877   0.20619   0.22639   0.24225
     Eigenvalues ---    0.24477   0.26567   0.28237   0.29713   0.35937
     Eigenvalues ---    0.38163   0.39889   0.42670   0.45328   0.49752
     Eigenvalues ---    0.54979   0.64354   0.64771   0.65700   0.66839
     Eigenvalues ---    0.82664   0.83011   0.84224   0.86413
 RFO step:  Lambda=-7.39845118D-02 EMin= 9.28994060D-04
 Linear search not attempted -- first point.
 Maximum step size (   0.300) exceeded in Quadratic search.
    -- Step size scaled by   0.990
 Iteration  1 RMS(Cart)=  0.04533879 RMS(Int)=  0.00077809
 Iteration  2 RMS(Cart)=  0.00093937 RMS(Int)=  0.00005260
 Iteration  3 RMS(Cart)=  0.00000117 RMS(Int)=  0.00005259
 Iteration  4 RMS(Cart)=  0.00000000 RMS(Int)=  0.00005259
 ITry= 1 IFail=0 DXMaxC= 1.74D-01 DCOld= 1.00D+10 DXMaxT= 3.00D-01 DXLimC= 3.00D+00 Rises=F
 Variable       Old X    -DE/DX   Delta X   Delta X   Delta X     New X
                                 (Linear)    (Quad)   (Total)
    R1        2.56018   0.00257   0.00000  -0.00225  -0.00227   2.55791
    R2        2.46450   0.01356   0.00000   0.01815   0.01818   2.48268
    R3        2.69486   0.00298   0.00000  -0.00238  -0.00238   2.69248
    R4        2.53418   0.01841   0.00000   0.03207   0.03203   2.56621
    R5        2.52837   0.01328   0.00000   0.02298   0.02301   2.55138
    R6        2.74099   0.00925   0.00000   0.02011   0.02011   2.76110
    R7        2.47830   0.00740   0.00000   0.00352   0.00351   2.48181
    R8        2.85096   0.01584   0.00000   0.04307   0.04307   2.89403
    R9        1.85463   0.09876   0.00000   0.13642   0.13642   1.99105
   R10        1.76814   0.16111   0.00000   0.17667   0.17667   1.94480
   R11        2.29357   0.00855   0.00000   0.00538   0.00538   2.29895
   R12        2.27782   0.01385   0.00000   0.01137   0.01137   2.28919
   R13        2.29189   0.01134   0.00000   0.00985   0.00985   2.30174
   R14        2.29717   0.00999   0.00000   0.00797   0.00797   2.30513
   R15        1.77070   0.15487   0.00000   0.16991   0.16991   1.94061
    A1        1.74853   0.00538   0.00000   0.01363   0.01364   1.76217
    A2        2.09933  -0.00092   0.00000  -0.00324  -0.00322   2.09611
    A3        1.92023   0.00030   0.00000  -0.00183  -0.00187   1.91836
    A4        2.25368   0.00069   0.00000   0.00575   0.00577   2.25945
    A5        2.06252  -0.00745   0.00000  -0.01768  -0.01764   2.04488
    A6        2.09613   0.00402   0.00000   0.00984   0.00982   2.10595
    A7        2.12447   0.00343   0.00000   0.00787   0.00785   2.13232
    A8        1.76304   0.00564   0.00000   0.01249   0.01251   1.77555
    A9        1.91744   0.00844   0.00000   0.02425   0.02416   1.94160
   A10        1.90767   0.00119   0.00000   0.01498   0.01495   1.92262
   A11        1.95433  -0.00454   0.00000  -0.01319  -0.01323   1.94111
   A12        1.84867  -0.00365   0.00000  -0.01134  -0.01158   1.83709
   A13        1.84130  -0.00001   0.00000   0.00325   0.00328   1.84458
   A14        1.98961  -0.00087   0.00000  -0.01655  -0.01656   1.97306
   A15        2.01486  -0.01094   0.00000  -0.02422  -0.02423   1.99063
   A16        2.08269  -0.00334   0.00000  -0.01119  -0.01120   2.07149
   A17        2.18564   0.01429   0.00000   0.03541   0.03541   2.22104
   A18        2.04847  -0.00570   0.00000  -0.01399  -0.01399   2.03449
   A19        2.05233  -0.00546   0.00000  -0.01297  -0.01297   2.03936
   A20        2.18237   0.01117   0.00000   0.02696   0.02696   2.20933
   A21        1.93042  -0.00387   0.00000  -0.00661  -0.00665   1.92377
   A22        2.10179   0.00814   0.00000   0.02990   0.02992   2.13171
   A23        2.25073  -0.00427   0.00000  -0.02332  -0.02330   2.22743
    D1       -3.00969  -0.00083   0.00000  -0.00778  -0.00778  -3.01746
    D2       -0.00575  -0.00027   0.00000  -0.00256  -0.00257  -0.00832
    D3        0.00667  -0.00012   0.00000  -0.00052  -0.00049   0.00618
    D4        3.13674   0.00025   0.00000   0.00243   0.00244   3.13918
    D5        1.36990   0.00156   0.00000   0.01249   0.01234   1.38224
    D6       -2.89185   0.00260   0.00000   0.02107   0.02119  -2.87066
    D7       -0.67006  -0.00102   0.00000   0.00109   0.00112  -0.66894
    D8       -1.60472   0.00095   0.00000   0.00704   0.00689  -1.59784
    D9        0.41671   0.00199   0.00000   0.01562   0.01574   0.43245
   D10        2.63851  -0.00163   0.00000  -0.00436  -0.00434   2.63417
   D11        0.00349   0.00053   0.00000   0.00483   0.00482   0.00831
   D12        3.12377   0.00030   0.00000   0.00323   0.00320   3.12697
   D13        2.99173   0.00100   0.00000   0.00964   0.00964   3.00138
   D14       -0.17118   0.00076   0.00000   0.00803   0.00802  -0.16315
   D15       -0.00478   0.00043   0.00000   0.00330   0.00330  -0.00148
   D16       -3.13465   0.00006   0.00000   0.00029   0.00031  -3.13433
   D17       -2.82186  -0.00060   0.00000  -0.00741  -0.00742  -2.82928
   D18        0.31533  -0.00048   0.00000  -0.00697  -0.00697   0.30835
   D19        0.30779  -0.00029   0.00000  -0.00452  -0.00451   0.30327
   D20       -2.83821  -0.00018   0.00000  -0.00407  -0.00407  -2.84228
   D21        0.00049  -0.00053   0.00000  -0.00461  -0.00461  -0.00412
   D22       -3.11746  -0.00047   0.00000  -0.00369  -0.00373  -3.12119
   D23       -3.09240   0.00149   0.00000   0.00869   0.00861  -3.08378
   D24        0.04940   0.00239   0.00000   0.01553   0.01545   0.06486
   D25        1.13239  -0.00221   0.00000  -0.01513  -0.01508   1.11732
   D26       -2.00899  -0.00131   0.00000  -0.00829  -0.00824  -2.01722
   D27       -0.98287   0.00062   0.00000   0.00795   0.00797  -0.97490
   D28        2.15893   0.00151   0.00000   0.01479   0.01481   2.17375
         Item               Value     Threshold  Converged?
 Maximum Force            0.161112     0.000450     NO 
 RMS     Force            0.030701     0.000300     NO 
 Maximum Displacement     0.174112     0.001800     NO 
 RMS     Displacement     0.045456     0.001200     NO 
 Predicted change in Energy=-4.040083D-02
 Lowest energy point so far.  Saving SCF results.
 GradGradGradGradGradGradGradGradGradGradGradGradGradGradGradGradGradGrad

 Leave Link  103 at Thu Aug 26 23:52:02 2021, MaxMem= 24159191040 cpu:         3.8
 (Enter /public/home/users/caep010/software/Gaussian09/g09/l202.exe)
                          Input orientation:                          
 ---------------------------------------------------------------------
 Center     Atomic      Atomic             Coordinates (Angstroms)
 Number     Number       Type             X           Y           Z
 ---------------------------------------------------------------------
      1          7           0        0.122568    1.735123    0.517004
      2          7           0        0.943370    1.427206    1.548349
      3          6           0       -0.487861    2.797124    0.991921
      4          7           0       -0.135154    3.209496    2.228204
      5          6           0        1.920383    0.400519    1.402026
      6          7           0        3.147355    0.906870    0.638152
      7          8           0        3.988049    0.052939    0.428312
      8          8           0        3.192436    2.074513    0.318721
      9          7           0       -1.495075    3.495610    0.196632
     10          8           0       -1.768437    4.631841    0.539919
     11          8           0       -1.973799    2.885544   -0.744969
     12          6           0        0.777154    2.323167    2.555193
     13          1           0        2.283392    0.107443    2.346719
     14          1           0        1.553784   -0.386455    0.849379
     15          1           0        1.300535    2.258061    3.436336
 ---------------------------------------------------------------------
                    Distance matrix (angstroms):
                    1          2          3          4          5
     1  N    0.000000
     2  N    1.353588   0.000000
     3  C    1.313779   2.057841   0.000000
     4  N    2.273412   2.191341   1.350130   0.000000
     5  C    2.407607   1.424798   3.422212   3.577451   0.000000
     6  N    3.138474   2.440647   4.112543   4.313377   1.531455
     7  O    4.216581   3.523231   5.280338   5.495841   2.311747
     8  O    3.094930   2.643727   3.810505   4.000896   2.365148
     9  N    2.412203   3.471519   1.461112   2.461408   4.764233
    10  O    3.459393   4.317466   2.282623   2.746085   5.679322
    11  O    2.703849   3.986970   2.287491   3.510744   5.094074
    12  C    2.220021   1.357979   2.066088   1.313319   2.516613
    13  H    3.265939   2.043240   4.092640   3.935244   1.053620
    14  H    2.580687   2.037285   3.784680   4.205299   1.029146
    15  H    3.191171   2.093414   3.076380   2.103810   2.823666
                    6          7          8          9         10
     6  N    0.000000
     7  O    1.216551   0.000000
     8  O    1.211388   2.175264   0.000000
     9  N    5.333730   6.478449   4.899712   0.000000
    10  O    6.168474   7.356353   5.585617   1.218029   0.000000
    11  O    5.661660   6.704019   5.336590   1.219824   2.177766
    12  C    3.361368   4.470727   3.301094   3.478571   3.983885
    13  H    2.074781   2.566926   2.967913   5.511748   6.336562
    14  H    2.063195   2.509185   3.003855   4.979161   6.026294
    15  H    3.614733   4.597119   3.651371   4.454508   4.841761
                   11         12         13         14         15
    11  O    0.000000
    12  C    4.333022   0.000000
    13  H    5.949795   2.687312   0.000000
    14  H    5.068705   3.294694   1.737323   0.000000
    15  H    5.347739   1.026927   2.603542   3.708092   0.000000
 Stoichiometry    C3H3N5O4
 Framework group  C1[X(C3H3N5O4)]
 Deg. of freedom    39
 Full point group                 C1      NOp   1
 RotChk:  IX=0 Diff= 3.25D-02
 Largest Abelian subgroup         C1      NOp   1
 Largest concise Abelian subgroup C1      NOp   1
                         Standard orientation:                         
 ---------------------------------------------------------------------
 Center     Atomic      Atomic             Coordinates (Angstroms)
 Number     Number       Type             X           Y           Z
 ---------------------------------------------------------------------
      1          7           0        0.329315   -0.418723   -0.603649
      2          7           0       -0.603683    0.561378   -0.570211
      3          6           0        1.370053    0.209903   -0.105945
      4          7           0        1.197334    1.499993    0.252783
      5          6           0       -1.960642    0.267340   -0.889981
      6          7           0       -2.678792   -0.391936    0.291108
      7          8           0       -3.824777   -0.723181    0.052378
      8          8           0       -2.080111   -0.522894    1.336044
      9          7           0        2.649027   -0.477910    0.055256
     10          8           0        3.452671    0.036621    0.812229
     11          8           0        2.803138   -1.509723   -0.576869
     12          6           0       -0.065642    1.694623   -0.050232
     13          1           0       -2.491443    1.158522   -1.074797
     14          1           0       -2.022978   -0.406872   -1.665026
     15          1           0       -0.607954    2.560953    0.049518
 ---------------------------------------------------------------------
 Rotational constants (GHZ):      2.4457598      0.5083479      0.4762294
 Leave Link  202 at Thu Aug 26 23:52:02 2021, MaxMem= 24159191040 cpu:         0.2
 (Enter /public/home/users/caep010/software/Gaussian09/g09/l301.exe)
 Standard basis: GTBas3 (6D, 7F)
 Ernie: Thresh=  0.10000D-02 Tol=  0.10000D-05 Strict=F.
 There are   387 symmetry adapted cartesian basis functions of A   symmetry.
 There are   351 symmetry adapted basis functions of A   symmetry.
   351 basis functions,   549 primitive gaussians,   387 cartesian basis functions
    44 alpha electrons       44 beta electrons
       nuclear repulsion energy       706.6176902289 Hartrees.
 IExCor=  402 DFT=T Ex+Corr=B3LYP ExCW=0 ScaHFX=  0.200000
 ScaDFX=  0.800000  0.720000  1.000000  0.810000 ScalE2=  1.000000  1.000000
 IRadAn=      0 IRanWt=     -1 IRanGd=            0 ICorTp=0 IEmpDi=  4
 NAtoms=   15 NActive=   15 NUniq=   15 SFac= 1.00D+00 NAtFMM=   60 NAOKFM=F Big=F
 Integral buffers will be    131072 words long.
 Raffenetti 2 integral format.
 Two-electron integral symmetry is turned on.
 Leave Link  301 at Thu Aug 26 23:52:02 2021, MaxMem= 24159191040 cpu:         1.6
 (Enter /public/home/users/caep010/software/Gaussian09/g09/l302.exe)
 NPDir=0 NMtPBC=     1 NCelOv=     1 NCel=       1 NClECP=     1 NCelD=      1
         NCelK=      1 NCelE2=     1 NClLst=     1 CellRange=     0.0.
 One-electron integrals computed using PRISM.
 NBasis=   351 RedAO= T EigKep=  1.39D-04  NBF=   351
 NBsUse=   351 1.00D-06 EigRej= -1.00D+00 NBFU=   351
 Precomputing XC quadrature grid using
 IXCGrd= 4 IRadAn=           0 IRanWt=          -1 IRanGd=           0 AccXCQ= 0.00D+00.
 Generated NRdTot=       0 NPtTot=           0 NUsed=           0 NTot=          32
 NSgBfM=   385   385   385   385   385 MxSgAt=    15 MxSgA2=    15.
 Leave Link  302 at Thu Aug 26 23:52:02 2021, MaxMem= 24159191040 cpu:        18.5
 (Enter /public/home/users/caep010/software/Gaussian09/g09/l303.exe)
 DipDrv:  MaxL=1.
 Leave Link  303 at Thu Aug 26 23:52:02 2021, MaxMem= 24159191040 cpu:         1.0
 (Enter /public/home/users/caep010/software/Gaussian09/g09/l401.exe)
 Initial guess from the checkpoint file:  "/public/home/users/caep010/.cache/gau_scr/Gau-171911.chk"
 B after Tr=    -0.000000   -0.000000   -0.000000
         Rot=    0.999933    0.011488    0.001132    0.001101 Ang=   1.33 deg.
 Guess basis will be translated and rotated to current coordinates.
 JPrj=2 DoOrth=T DoCkMO=T.
 Generating alternative initial guess.
 ExpMin= 1.61D-01 ExpMax= 5.48D+03 ExpMxC= 8.25D+02 IAcc=1 IRadAn=         1 AccDes= 0.00D+00
 Harris functional with IExCor=  402 and IRadAn=       1 diagonalized for initial guess.
 HarFok:  IExCor=  402 AccDes= 0.00D+00 IRadAn=         1 IDoV= 1 UseB2=F ITyADJ=14
 ICtDFT=  3500011 ScaDFX=  1.000000  1.000000  1.000000  1.000000
 FoFCou: FMM=F IPFlag=           0 FMFlag=      100000 FMFlg1=           0
         NFxFlg=           0 DoJE=T BraDBF=F KetDBF=T FulRan=T
         wScrn=  0.000000 ICntrl=     500 IOpCl=  0 I1Cent=   200000004 NGrid=           0
         NMat0=    1 NMatS0=      1 NMatT0=    0 NMatD0=    1 NMtDS0=    0 NMtDT0=    0
 Petite list used in FoFCou.
 Harris En= -690.580863593040    
 Leave Link  401 at Thu Aug 26 23:52:03 2021, MaxMem= 24159191040 cpu:        24.8
 (Enter /public/home/users/caep010/software/Gaussian09/g09/l502.exe)
 Closed shell SCF:
 Using DIIS extrapolation, IDIIS=  1040.
 Integral symmetry usage will be decided dynamically.
 Keep R1 ints in memory in canonical form, NReq=1937856343.
 IVT=      483025 IEndB=      483025 NGot= 24159191040 MDV= 22250540040
 LenX= 22250540040 LenY= 22250389830
 Requested convergence on RMS density matrix=1.00D-08 within 128 cycles.
 Requested convergence on MAX density matrix=1.00D-06.
 Requested convergence on             energy=1.00D-06.
 No special actions if energy rises.
 FoFCou: FMM=F IPFlag=           0 FMFlag=           0 FMFlg1=           0
         NFxFlg=           0 DoJE=F BraDBF=F KetDBF=F FulRan=T
         wScrn=  0.000000 ICntrl=     600 IOpCl=  0 I1Cent=           0 NGrid=           0
         NMat0=    1 NMatS0=  61776 NMatT0=    0 NMatD0=    1 NMtDS0=    0 NMtDT0=    0
 Symmetry not used in FoFCou.
 Integral accuracy reduced to 1.0D-05 until final iterations.

 Cycle   1  Pass 0  IDiag  1:
 E= -690.574724961894    
 DIIS: error= 2.72D-03 at cycle   1 NSaved=   1.
 NSaved= 1 IEnMin= 1 EnMin= -690.574724961894     IErMin= 1 ErrMin= 2.72D-03
 ErrMax= 2.72D-03  0.00D+00 EMaxC= 1.00D-01 BMatC= 7.33D-03 BMatP= 7.33D-03
 IDIUse=3 WtCom= 9.73D-01 WtEn= 2.72D-02
 Coeff-Com:  0.100D+01
 Coeff-En:   0.100D+01
 Coeff:      0.100D+01
 Gap=     1.053 Goal=   None    Shift=    0.000
 GapD=    1.053 DampG=2.000 DampE=1.000 DampFc=2.0000 IDamp=-1.
 RMSDP=4.08D-04 MaxDP=1.94D-02              OVMax= 2.30D-02

 Cycle   2  Pass 0  IDiag  1:
 E= -690.581150927256     Delta-E=       -0.006425965362 Rises=F Damp=F
 DIIS: error= 1.57D-03 at cycle   2 NSaved=   2.
 NSaved= 2 IEnMin= 2 EnMin= -690.581150927256     IErMin= 2 ErrMin= 1.57D-03
 ErrMax= 1.57D-03  0.00D+00 EMaxC= 1.00D-01 BMatC= 1.22D-03 BMatP= 7.33D-03
 IDIUse=3 WtCom= 9.84D-01 WtEn= 1.57D-02
 Coeff-Com:  0.200D+00 0.800D+00
 Coeff-En:   0.000D+00 0.100D+01
 Coeff:      0.197D+00 0.803D+00
 Gap=     0.202 Goal=   None    Shift=    0.000
 RMSDP=1.78D-04 MaxDP=1.37D-02 DE=-6.43D-03 OVMax= 1.25D-02

 Cycle   3  Pass 0  IDiag  1:
 E= -690.581103250768     Delta-E=        0.000047676489 Rises=F Damp=F
 DIIS: error= 1.10D-03 at cycle   3 NSaved=   3.
 NSaved= 3 IEnMin= 2 EnMin= -690.581150927256     IErMin= 3 ErrMin= 1.10D-03
 ErrMax= 1.10D-03  0.00D+00 EMaxC= 1.00D-01 BMatC= 1.42D-03 BMatP= 1.22D-03
 IDIUse=3 WtCom= 2.32D-01 WtEn= 7.68D-01
 Coeff-Com:  0.186D-01 0.517D+00 0.465D+00
 Coeff-En:   0.000D+00 0.509D+00 0.491D+00
 Coeff:      0.431D-02 0.511D+00 0.485D+00
 Gap=     0.203 Goal=   None    Shift=    0.000
 RMSDP=1.05D-04 MaxDP=6.89D-03 DE= 4.77D-05 OVMax= 9.85D-03

 Cycle   4  Pass 0  IDiag  1:
 E= -690.582185007343     Delta-E=       -0.001081756575 Rises=F Damp=F
 DIIS: error= 5.16D-04 at cycle   4 NSaved=   4.
 NSaved= 4 IEnMin= 4 EnMin= -690.582185007343     IErMin= 4 ErrMin= 5.16D-04
 ErrMax= 5.16D-04  0.00D+00 EMaxC= 1.00D-01 BMatC= 1.74D-04 BMatP= 1.22D-03
 IDIUse=3 WtCom= 9.95D-01 WtEn= 5.16D-03
 Coeff-Com: -0.176D-02 0.283D+00 0.314D+00 0.405D+00
 Coeff-En:   0.000D+00 0.000D+00 0.299D-01 0.970D+00
 Coeff:     -0.175D-02 0.282D+00 0.312D+00 0.408D+00
 Gap=     0.203 Goal=   None    Shift=    0.000
 RMSDP=3.89D-05 MaxDP=3.29D-03 DE=-1.08D-03 OVMax= 6.56D-03

 Cycle   5  Pass 0  IDiag  1:
 E= -690.582295567565     Delta-E=       -0.000110560222 Rises=F Damp=F
 DIIS: error= 2.14D-04 at cycle   5 NSaved=   5.
 NSaved= 5 IEnMin= 5 EnMin= -690.582295567565     IErMin= 5 ErrMin= 2.14D-04
 ErrMax= 2.14D-04  0.00D+00 EMaxC= 1.00D-01 BMatC= 3.14D-05 BMatP= 1.74D-04
 IDIUse=3 WtCom= 9.98D-01 WtEn= 2.14D-03
 Coeff-Com: -0.437D-02 0.123D+00 0.151D+00 0.302D+00 0.428D+00
 Coeff-En:   0.000D+00 0.000D+00 0.000D+00 0.175D+00 0.825D+00
 Coeff:     -0.436D-02 0.123D+00 0.151D+00 0.302D+00 0.429D+00
 Gap=     0.203 Goal=   None    Shift=    0.000
 RMSDP=1.61D-05 MaxDP=1.44D-03 DE=-1.11D-04 OVMax= 2.93D-03

 Cycle   6  Pass 0  IDiag  1:
 E= -690.582316197087     Delta-E=       -0.000020629521 Rises=F Damp=F
 DIIS: error= 6.96D-05 at cycle   6 NSaved=   6.
 NSaved= 6 IEnMin= 6 EnMin= -690.582316197087     IErMin= 6 ErrMin= 6.96D-05
 ErrMax= 6.96D-05  0.00D+00 EMaxC= 1.00D-01 BMatC= 4.72D-06 BMatP= 3.14D-05
 IDIUse=1 WtCom= 1.00D+00 WtEn= 0.00D+00
 Coeff-Com: -0.286D-02 0.329D-01 0.467D-01 0.137D+00 0.310D+00 0.476D+00
 Coeff:     -0.286D-02 0.329D-01 0.467D-01 0.137D+00 0.310D+00 0.476D+00
 Gap=     0.203 Goal=   None    Shift=    0.000
 RMSDP=5.19D-06 MaxDP=3.90D-04 DE=-2.06D-05 OVMax= 7.27D-04

 Initial convergence to 1.0D-05 achieved.  Increase integral accuracy.
 Cycle   7  Pass 1  IDiag  1:
 E= -690.582306698190     Delta-E=        0.000009498896 Rises=F Damp=F
 DIIS: error= 1.63D-05 at cycle   1 NSaved=   1.
 NSaved= 1 IEnMin= 1 EnMin= -690.582306698190     IErMin= 1 ErrMin= 1.63D-05
 ErrMax= 1.63D-05  0.00D+00 EMaxC= 1.00D-01 BMatC= 3.44D-07 BMatP= 3.44D-07
 IDIUse=1 WtCom= 1.00D+00 WtEn= 0.00D+00
 Coeff-Com:  0.100D+01
 Coeff:      0.100D+01
 Gap=     0.203 Goal=   None    Shift=    0.000
 RMSDP=5.19D-06 MaxDP=3.90D-04 DE= 9.50D-06 OVMax= 2.34D-04

 Cycle   8  Pass 1  IDiag  1:
 E= -690.582306389699     Delta-E=        0.000000308492 Rises=F Damp=F
 DIIS: error= 3.20D-05 at cycle   2 NSaved=   2.
 NSaved= 2 IEnMin= 1 EnMin= -690.582306698190     IErMin= 1 ErrMin= 1.63D-05
 ErrMax= 3.20D-05  0.00D+00 EMaxC= 1.00D-01 BMatC= 7.57D-07 BMatP= 3.44D-07
 IDIUse=1 WtCom= 1.00D+00 WtEn= 0.00D+00
 Coeff-Com:  0.618D+00 0.382D+00
 Coeff:      0.618D+00 0.382D+00
 Gap=     0.202 Goal=   None    Shift=    0.000
 RMSDP=2.51D-06 MaxDP=1.49D-04 DE= 3.08D-07 OVMax= 2.46D-04

 Cycle   9  Pass 1  IDiag  1:
 E= -690.582306865434     Delta-E=       -0.000000475736 Rises=F Damp=F
 DIIS: error= 1.47D-05 at cycle   3 NSaved=   3.
 NSaved= 3 IEnMin= 3 EnMin= -690.582306865434     IErMin= 3 ErrMin= 1.47D-05
 ErrMax= 1.47D-05  0.00D+00 EMaxC= 1.00D-01 BMatC= 1.38D-07 BMatP= 3.44D-07
 IDIUse=1 WtCom= 1.00D+00 WtEn= 0.00D+00
 Coeff-Com:  0.185D+00 0.283D+00 0.532D+00
 Coeff:      0.185D+00 0.283D+00 0.532D+00
 Gap=     0.203 Goal=   None    Shift=    0.000
 RMSDP=1.23D-06 MaxDP=7.35D-05 DE=-4.76D-07 OVMax= 1.39D-04

 Cycle  10  Pass 1  IDiag  1:
 E= -690.582306933459     Delta-E=       -0.000000068024 Rises=F Damp=F
 DIIS: error= 7.42D-06 at cycle   4 NSaved=   4.
 NSaved= 4 IEnMin= 4 EnMin= -690.582306933459     IErMin= 4 ErrMin= 7.42D-06
 ErrMax= 7.42D-06  0.00D+00 EMaxC= 1.00D-01 BMatC= 5.13D-08 BMatP= 1.38D-07
 IDIUse=1 WtCom= 1.00D+00 WtEn= 0.00D+00
 Coeff-Com:  0.111D-01 0.143D+00 0.428D+00 0.419D+00
 Coeff:      0.111D-01 0.143D+00 0.428D+00 0.419D+00
 Gap=     0.203 Goal=   None    Shift=    0.000
 RMSDP=5.43D-07 MaxDP=3.19D-05 DE=-6.80D-08 OVMax= 5.35D-05

 Cycle  11  Pass 1  IDiag  1:
 E= -690.582306971589     Delta-E=       -0.000000038131 Rises=F Damp=F
 DIIS: error= 1.36D-06 at cycle   5 NSaved=   5.
 NSaved= 5 IEnMin= 5 EnMin= -690.582306971589     IErMin= 5 ErrMin= 1.36D-06
 ErrMax= 1.36D-06  0.00D+00 EMaxC= 1.00D-01 BMatC= 2.03D-09 BMatP= 5.13D-08
 IDIUse=1 WtCom= 1.00D+00 WtEn= 0.00D+00
 Coeff-Com: -0.743D-02 0.650D-01 0.216D+00 0.255D+00 0.472D+00
 Coeff:     -0.743D-02 0.650D-01 0.216D+00 0.255D+00 0.472D+00
 Gap=     0.203 Goal=   None    Shift=    0.000
 RMSDP=1.33D-07 MaxDP=5.84D-06 DE=-3.81D-08 OVMax= 1.11D-05

 Cycle  12  Pass 1  IDiag  1:
 E= -690.582306973047     Delta-E=       -0.000000001457 Rises=F Damp=F
 DIIS: error= 4.35D-07 at cycle   6 NSaved=   6.
 NSaved= 6 IEnMin= 6 EnMin= -690.582306973047     IErMin= 6 ErrMin= 4.35D-07
 ErrMax= 4.35D-07  0.00D+00 EMaxC= 1.00D-01 BMatC= 2.39D-10 BMatP= 2.03D-09
 IDIUse=1 WtCom= 1.00D+00 WtEn= 0.00D+00
 Coeff-Com: -0.587D-02 0.320D-01 0.108D+00 0.137D+00 0.311D+00 0.418D+00
 Coeff:     -0.587D-02 0.320D-01 0.108D+00 0.137D+00 0.311D+00 0.418D+00
 Gap=     0.203 Goal=   None    Shift=    0.000
 RMSDP=4.54D-08 MaxDP=2.49D-06 DE=-1.46D-09 OVMax= 6.15D-06

 Cycle  13  Pass 1  IDiag  1:
 E= -690.582306973242     Delta-E=       -0.000000000196 Rises=F Damp=F
 DIIS: error= 2.31D-07 at cycle   7 NSaved=   7.
 NSaved= 7 IEnMin= 7 EnMin= -690.582306973242     IErMin= 7 ErrMin= 2.31D-07
 ErrMax= 2.31D-07  0.00D+00 EMaxC= 1.00D-01 BMatC= 4.04D-11 BMatP= 2.39D-10
 IDIUse=1 WtCom= 1.00D+00 WtEn= 0.00D+00
 Coeff-Com: -0.281D-02 0.118D-01 0.399D-01 0.547D-01 0.142D+00 0.300D+00
 Coeff-Com:  0.454D+00
 Coeff:     -0.281D-02 0.118D-01 0.399D-01 0.547D-01 0.142D+00 0.300D+00
 Coeff:      0.454D+00
 Gap=     0.203 Goal=   None    Shift=    0.000
 RMSDP=2.04D-08 MaxDP=1.73D-06 DE=-1.96D-10 OVMax= 3.22D-06

 Cycle  14  Pass 1  IDiag  1:
 E= -690.582306973251     Delta-E=       -0.000000000009 Rises=F Damp=F
 DIIS: error= 8.97D-08 at cycle   8 NSaved=   8.
 NSaved= 8 IEnMin= 8 EnMin= -690.582306973251     IErMin= 8 ErrMin= 8.97D-08
 ErrMax= 8.97D-08  0.00D+00 EMaxC= 1.00D-01 BMatC= 9.02D-12 BMatP= 4.04D-11
 IDIUse=1 WtCom= 1.00D+00 WtEn= 0.00D+00
 Coeff-Com:  0.112D-03-0.321D-02-0.110D-01-0.987D-02-0.953D-02 0.723D-01
 Coeff-Com:  0.355D+00 0.606D+00
 Coeff:      0.112D-03-0.321D-02-0.110D-01-0.987D-02-0.953D-02 0.723D-01
 Coeff:      0.355D+00 0.606D+00
 Gap=     0.203 Goal=   None    Shift=    0.000
 RMSDP=1.00D-08 MaxDP=4.64D-07 DE=-9.09D-12 OVMax= 1.03D-06

 Cycle  15  Pass 1  IDiag  1:
 E= -690.582306973272     Delta-E=       -0.000000000021 Rises=F Damp=F
 DIIS: error= 2.97D-08 at cycle   9 NSaved=   9.
 NSaved= 9 IEnMin= 9 EnMin= -690.582306973272     IErMin= 9 ErrMin= 2.97D-08
 ErrMax= 2.97D-08  0.00D+00 EMaxC= 1.00D-01 BMatC= 1.27D-12 BMatP= 9.02D-12
 IDIUse=1 WtCom= 1.00D+00 WtEn= 0.00D+00
 Coeff-Com:  0.362D-03-0.330D-02-0.111D-01-0.122D-01-0.217D-01 0.105D-01
 Coeff-Com:  0.176D+00 0.383D+00 0.479D+00
[...]
    13  H   -0.002448   0.000187  -0.000087   0.000009  -0.000045  -0.008196
    14  H   -0.004857   0.003042   0.000306  -0.000027   0.000039   0.008946
    15  H   -0.000080  -0.001185   0.000181  -0.000052   0.000019   0.410261
              13         14         15
     1  N   -0.000590   0.000292   0.004055
     2  N   -0.030785  -0.021126  -0.041483
     3  C    0.000209   0.000081   0.003999
     4  N    0.001641   0.000014  -0.029429
     5  C    0.409389   0.382569   0.010522
     6  N   -0.030209  -0.019462  -0.001379
     7  O   -0.002448  -0.004857  -0.000080
     8  O    0.000187   0.003042  -0.001185
     9  N   -0.000087   0.000306   0.000181
    10  O    0.000009  -0.000027  -0.000052
    11  O   -0.000045   0.000039   0.000019
    12  C   -0.008196   0.008946   0.410261
    13  H    0.426107  -0.017107   0.000749
    14  H   -0.017107   0.391217  -0.000006
    15  H    0.000749  -0.000006   0.388626
 Mulliken charges:
               1
     1  N   -0.297500
     2  N    0.174674
     3  C    0.374657
     4  N   -0.441688
     5  C   -0.254004
     6  N    0.561940
     7  O   -0.414516
     8  O   -0.374582
     9  N    0.516689
    10  O   -0.364341
    11  O   -0.377038
    12  C    0.113252
    13  H    0.251175
    14  H    0.276078
    15  H    0.255203
 Sum of Mulliken charges =  -0.00000
 Mulliken charges with hydrogens summed into heavy atoms:
               1
     1  N   -0.297500
     2  N    0.174674
     3  C    0.374657
     4  N   -0.441688
     5  C    0.273249
     6  N    0.561940
     7  O   -0.414516
     8  O   -0.374582
     9  N    0.516689
    10  O   -0.364341
    11  O   -0.377038
    12  C    0.368456
 Electronic spatial extent (au):  <R**2>=           2282.8688
 Charge=             -0.0000 electrons
 Dipole moment (field-independent basis, Debye):
    X=             -4.2616    Y=              3.3557    Z=             -3.8116  Tot=              6.6295
 Quadrupole moment (field-independent basis, Debye-Ang):
   XX=            -89.2131   YY=            -67.7108   ZZ=            -65.9786
   XY=             -5.2642   XZ=              5.7526   YZ=             -2.5398
 Traceless Quadrupole moment (field-independent basis, Debye-Ang):
   XX=            -14.9122   YY=              6.5900   ZZ=              8.3222
   XY=             -5.2642   XZ=              5.7526   YZ=             -2.5398
 Octapole moment (field-independent basis, Debye-Ang**2):
  XXX=            -11.5287  YYY=              8.0531  ZZZ=             -3.1432  XYY=            -24.5211
  XXY=             18.3095  XXZ=            -23.4230  XZZ=              0.0313  YZZ=             -3.3507
  YYZ=             -0.4783  XYZ=             -2.8710
 Hexadecapole moment (field-independent basis, Debye-Ang**3):
 XXXX=          -2593.4200 YYYY=           -364.4868 ZZZZ=           -199.3950 XXXY=            -58.9284
 XXXZ=             -1.5650 YYYX=            -12.4939 YYYZ=             -5.3434 ZZZX=             15.9851
 ZZZY=              0.6822 XXYY=           -460.0389 XXZZ=           -391.7254 YYZZ=            -95.7873
 XXYZ=             -9.9339 YYXZ=              3.2095 ZZXY=             -3.7757
 N-N= 7.025542948476D+02 E-N=-3.019274888125D+03  KE= 6.858881338654D+02
 No NMR shielding tensors so no spin-rotation constants.
 Leave Link  601 at Fri Aug 27 04:04:32 2021, MaxMem= 24159191040 cpu:        49.5
 (Enter /public/home/users/caep010/software/Gaussian09/g09/l9999.exe)
 1\1\GINC-B1334\SP\RHF\GFHFB2\C3H3N5O4\ROOT\27-Aug-2021\0\\#P Geom=AllC
 heck Guess=TCheck SCRF=Check HF/GFHFB2 SCF=Tight\\WOBLUU\\0,1\N,0,0.07
 97499857,1.7312157152,0.5150163641\N,0,0.9624674862,1.4698869808,1.507
 0225067\C,0,-0.5077193462,2.8150703587,0.9744929124\N,0,-0.0792005906,
 3.2827747944,2.1699888353\C,0,1.8930644706,0.4052019171,1.3712705145\N
 ,0,3.2070265353,0.8618986368,0.7145621412\O,0,3.9563227726,-0.04842916
 36,0.4189815837\O,0,3.3925402549,2.0525983758,0.5759407069\N,0,-1.5808
 436377,3.4654306433,0.2174821351\O,0,-2.0619227072,4.4689955667,0.7130
 115065\O,0,-1.8966235754,2.9448225472,-0.8395980028\C,0,0.8582304417,2
 .4185067878,2.4785383607\H,0,2.1831011267,0.0007766272,2.3410100115\H,
 0,1.4896383845,-0.3730425993,0.7278256697\H,0,1.4728683989,2.423292811
 8,3.3663547547\\Version=ES64L-G09RevE.01\State=1-A\HF=-687.0607799\RMS
 D=4.596e-09\Dipole=0.8052436,-1.660131,1.8434931\Quadrupole=-9.7011988
 ,2.897108,6.8040907,6.0876272,2.1138727,-3.7216132\PG=C01 [X(C3H3N5O4)
 ]\\@


 HICKORY, DICKORY, DOCK
 TWO MICE RAN UP THE CLOCK
 THE CLOCK STRUCK ONE...
 THE OTHER ESCAPED WITH MINOR INJURIES.
 Diagonal vibrational polarizability:
        0.0000000       0.0000000       0.0000000

 Temperature=              298.150000 Pressure=                      1.000000
 E(ZPE)=                     0.091589 E(Thermal)=                    0.101527
 E(CCSD(T))=              -688.782008 E(Empiric)=                   -0.222304
 DE(Plus)=                  -0.052149 DE(2DF)=                      -0.460333
 E(Delta-G3XP)=             -0.815970 DE(HF)=                       -0.068220
 G4(0 K)=                 -690.309394 G4 Energy=                  -690.299456
 G4 Enthalpy=             -690.298512 G4 Free Energy=             -690.347823
 1\1\GINC-B1334\Mixed\G4\G4\C3H3N5O4\ROOT\27-Aug-2021\0\\#P Geom=AllChe
 ck Guess=TCheck SCRF=Check HF/GFHFB2 SCF=Tight\\WOBLUU\\0,1\N,0,0.0797
 499857,1.7312157152,0.5150163641\N,0,0.9624674862,1.4698869808,1.50702
 25067\C,0,-0.5077193462,2.8150703587,0.9744929124\N,0,-0.0792005906,3.
 2827747944,2.1699888353\C,0,1.8930644706,0.4052019171,1.3712705145\N,0
 ,3.2070265353,0.8618986368,0.7145621412\O,0,3.9563227726,-0.0484291636
 ,0.4189815837\O,0,3.3925402549,2.0525983758,0.5759407069\N,0,-1.580843
 6377,3.4654306433,0.2174821351\O,0,-2.0619227072,4.4689955667,0.713011
 5065\O,0,-1.8966235754,2.9448225472,-0.8395980028\C,0,0.8582304417,2.4
 185067878,2.4785383607\H,0,2.1831011267,0.0007766272,2.3410100115\H,0,
 1.4896383845,-0.3730425993,0.7278256697\H,0,1.4728683989,2.4232928118,
 3.3663547547\\Version=ES64L-G09RevE.01\State=1-A\MP2/GTBas1=-688.70152
 75\MP4/GTBas1=-688.8088436\CCSD(T)/G3Bas1=-688.7820079\MP2/GTBas2=-688
 .7497511\MP4/GTBas2=-688.8609924\MP2/GTBas3=-689.1347712\MP4/GTBas3=-6
 89.2691762\HF/GTLargeXP=-686.9952014\MP2/GTLargeXP=-689.9989645\HF/GFH
 FB1=-687.049938\HF/GFHFB2=-687.0607799\G4=-690.3093941\FreqCoord=0.150
 705632,3.2715235787,0.973239882,1.8187999608,2.77768384,2.8478598137,-
 0.9594505168,5.3197120228,1.8415247229,-0.1496674257,6.2035453173,4.10
 06846101,3.5773734014,0.7657206518,2.5913257265,6.0604018526,1.6287523
 779,1.3503267518,7.4763665335,-0.0915178561,0.7917604479,6.4109719765,
 3.8788487911,1.0883702047,-2.9873615342,6.5487148484,0.4109816741,-3.8
 964692239,8.4451777102,1.347396477,-3.5840991346,5.5649081241,-1.58661
 0287,1.6218204937,4.5703154794,4.6837587115,4.1254632499,0.0014676127,
 4.4238677961,2.8150085838,-0.7049483485,1.3753911882,2.7833179037,4.57
 93597542,6.3614885525\PG=C01 [X(C3H3N5O4)]\NImag=0\\0.31589743,-0.1843
 3374,0.43996085,0.08833568,0.14702142,0.41195446,-0.14734966,0.0425813
 3,-0.06796946,0.49293219,0.00681795,-0.08271989,-0.01522075,-0.2847203
 5,0.58364684,-0.09887529,0.03032312,-0.17925907,0.11045835,0.15867884,
 0.50745231,-0.13115733,0.09379707,0.03412040,-0.06583084,0.05826334,-0
 .04198530,0.47244293,0.11241317,-0.27925715,-0.08621897,0.07686900,-0.
 06927338,0.02792525,-0.23604379,0.55620537,0.05553866,-0.11197619,-0.1
 3202938,-0.01565131,-0.01019574,-0.01792006,0.16342675,0.13183226,0.55
 907463,0.02121171,-0.01363984,-0.02711462,-0.02053745,0.08075554,0.028
 89442,-0.09677822,-0.01575459,-0.04707073,0.37061006,0.02723760,-0.024
 47771,-0.02480286,0.03828029,-0.06357283,-0.04992617,-0.01211668,-0.11
 910719,-0.06908604,-0.20986383,0.42199780,0.02215344,-0.08491833,-0.04
 002294,-0.01770009,0.01258590,0.00334590,-0.04305145,-0.07453897,-0.22
 949372,0.13580875,0.08522047,0.40247673,-0.02709372,0.02282235,-0.0011
 2817,-0.13323110,0.07580545,-0.01308036,0.00008419,-0.00207769,-0.0091
 8389,0.01022760,-0.00305531,0.00100009,0.41150006,0.01186436,-0.014672
 42,0.01210849,0.08637810,-0.18126636,-0.02528401,-0.00129422,0.0075673
 4,0.00285683,-0.00260961,0.00316373,-0.00966140,-0.04203199,0.58553841
 ,-0.01442249,0.02898035,0.00555873,-0.00821142,-0.02918975,-0.10497192
 ,-0.00822867,0.00050954,-0.00594882,0.00042258,-0.00732810,-0.00247468
 ,0.12129212,0.04516291,0.59475595,-0.00036269,-0.00285338,0.00046279,-
 0.03303814,0.01418914,0.01273299,0.00116098,0.00048545,0.00051099,0.00
 083893,-0.00228025,-0.00119369,-0.07498601,-0.01126504,-0.00834336,0.5
 8373271,0.00007193,-0.00051290,-0.00167146,0.02354617,0.00329282,-0.01
 307079,0.00205662,-0.00318549,-0.00264668,0.00259287,-0.00423385,0.002
 92543,-0.01302835,-0.07165701,0.00378925,-0.10811388,1.01137938,-0.001
 18578,0.00091350,0.00138335,0.00785594,-0.00843903,-0.00265768,-0.0001
 6021,0.00072493,0.00017237,-0.00163691,0.00124972,0.00026525,-0.008120
 39,0.00345645,-0.09728680,-0.15501498,0.01166244,0.31225395,0.00196069
 ,-0.00152007,0.00242780,-0.00962770,0.00162383,0.00649208,-0.00076744,
 0.00253700,0.00151453,-0.00207801,0.00231828,-0.00167271,-0.02939282,0
 .03059936,0.02000412,-0.32464904,0.21608379,0.10299463,0.32975213,-0.0
 0054253,0.00110744,-0.00049958,0.00098804,0.00151139,0.00020657,-0.000
 28857,-0.00050751,-0.00001093,0.00001056,0.00055659,0.00022056,0.01298
 186,0.00034972,-0.00516620,0.21232698,-0.35451490,-0.08394238,-0.27770
 315,0.45088741,-0.00029852,0.00042346,-0.00165331,0.00574801,0.0002447
 8,-0.00010694,0.00048303,-0.00124759,-0.00049517,0.00104725,-0.0009114
 4,0.00074811,0.02164617,-0.01387467,0.01015591,0.10286017,-0.08575042,
 -0.11843823,-0.12357479,0.10657387,0.07886564,0.00149816,-0.00007991,0
 .00160313,-0.00215355,-0.00395220,0.00090189,-0.00024279,0.00052677,-0
 .00013564,-0.00063188,0.00092397,0.00016701,-0.00280373,-0.03572542,0.
 01278793,-0.14334770,-0.09245611,0.03713846,0.03505360,0.05239392,-0.0
 0683045,0.12067071,0.00039436,0.00069553,0.00023232,0.00295025,0.00331
 902,-0.00122071,-0.00130219,0.00139723,0.00149794,-0.00165641,0.001840
 13,-0.00127687,-0.01539447,-0.03628676,0.01036796,-0.09259840,-0.56511
 662,0.06483221,0.02661643,-0.10259502,-0.00562675,0.08465148,0.6982490
 9,-0.00013359,-0.00004652,-0.00004041,0.00070883,0.00134273,-0.0011164
 8,0.00012751,-0.00058285,-0.00020306,0.00076498,-0.00030060,-0.0000079
 3,0.01245697,0.02082474,0.01714634,0.03761090,0.06621782,-0.09299174,-
 0.00555294,-0.01809603,0.02893006,-0.04795902,-0.07119822,0.05034259,-
 0.02543768,0.01484111,-0.00508394,0.01115882,0.00108190,0.00653001,-0.
 11175209,0.01603202,-0.02629228,-0.01453992,0.00005101,-0.00981887,-0.
 00134614,0.00473231,0.00000126,-0.00198297,0.00013039,0.00127894,0.002
 16902,-0.00096335,-0.00111328,0.00113263,-0.00034082,-0.00052237,0.461
 64234,0.02088735,-0.01887647,0.01921160,0.00283258,-0.00347641,-0.0116
 6885,0.01829082,-0.08851281,0.01607403,-0.00640708,0.00354723,0.004388
 91,0.00218504,-0.00047296,-0.00049599,0.00159157,-0.00058046,-0.000236
 66,-0.00086802,0.00030279,0.00024922,-0.00080340,0.00014576,0.00022483
 ,-0.17927215,0.69183046,0.00259018,0.01076135,0.00688863,0.00631652,-0
 .01235043,0.00469042,-0.02305208,0.01238088,-0.09895747,-0.01847529,0.
 01371465,-0.01748183,-0.00239137,0.00222357,0.00248758,-0.00177118,0.0
 0001079,0.00083552,0.00162999,-0.00061314,-0.00079904,0.00093448,0.000
 02559,-0.00057076,0.11568096,0.28621478,0.73199878,-0.00082412,-0.0000
 3277,-0.00579487,-0.00395106,0.00259937,-0.00082980,-0.01542640,0.0497
 5780,0.00782804,-0.00004614,0.00144448,-0.00041630,0.00027653,-0.00159
 915,-0.00062054,0.00093913,0.00015016,-0.00057241,-0.00088888,0.000289
 48,0.00044708,-0.00048779,0.00001425,0.00021604,-0.18562040,0.17767839
 ,0.05424302,0.16949321,0.00282930,0.00305015,0.00407716,0.00187799,-0.
 00099847,0.00285527,0.04087559,-0.04000122,-0.01278400,-0.00239973,0.0
 0215157,-0.00243584,-0.00050761,0.00057042,0.00122551,-0.00105932,-0.0
 0008152,0.00040176,0.00059771,-0.00010132,-0.00024912,0.00049956,0.000
 09415,-0.00016200,0.17181372,-0.41258867,-0.15051856,-0.22481127,0.486
 88563,-0.00238881,-0.00022440,-0.00050246,-0.00148710,0.00400583,0.000
 91506,-0.00266172,-0.00013931,0.01632409,-0.00477252,0.00302829,-0.002
 04867,0.00088664,-0.00042696,-0.00044031,0.00033805,-0.00002134,-0.000
 18023,-0.00040841,0.00014576,0.00020472,-0.00020515,0.00000104,0.00015
 230,0.04734563,-0.14197310,-0.17666611,-0.06234865,0.22010074,0.197626
 37,0.00030381,0.00002826,-0.00132808,-0.00153935,0.00001651,-0.0024085
 5,-0.00569524,-0.00617765,-0.04297985,-0.00267303,0.00504636,-0.002202
 49,0.00098178,-0.00140282,-0.00015329,0.00077815,-0.00023225,-0.000395
 45,-0.00077632,0.00035952,0.00036972,-0.00041314,0.00018948,0.00020374
 ,-0.14356423,-0.03282843,-0.13222301,0.03759600,0.00789144,0.02397327,
 0.11773731,0.00422220,-0.00250881,0.00147224,-0.00077913,0.00195130,0.
 00124297,0.00024306,0.01621045,-0.00339981,0.00191658,0.00078166,-0.00
 017707,-0.00046482,0.00017470,0.00014694,-0.00035207,0.00002629,0.0000
 8894,0.00016102,0.00001511,-0.00004527,0.00019313,0.00002319,-0.000050
 59,-0.02629154,-0.17811969,-0.15529555,-0.00674382,-0.03589832,-0.0835
 6607,0.02740170,0.19783585,0.00354519,-0.00454687,0.00097650,-0.002916
 11,0.00244039,-0.00220272,-0.03542853,-0.01242489,-0.04536214,-0.00587
 486,0.00420816,-0.00002106,0.00124979,-0.00135652,-0.00041594,0.000880
 66,-0.00002215,-0.00053524,-0.00088679,0.00035896,0.00045529,-0.000465
 68,0.00003363,0.00037999,-0.12460051,-0.16498585,-0.44710146,0.0067380
 3,-0.06249433,-0.03663227,0.15879389,0.23747688,0.53186398,-0.01421780
 ,0.02240705,-0.02129814,-0.08623962,0.01312353,-0.01219257,-0.04562588
 ,-0.00580633,-0.08494784,-0.25186752,0.15306876,-0.06836559,-0.0035501
 9,0.01332704,0.01894368,0.00007078,0.00244150,0.00118634,-0.00022946,-
 0.00067595,-0.00012491,-0.00102491,-0.00009569,0.00012729,0.00673860,-
 0.00270509,-0.00413453,-0.00062784,0.00202786,0.00206927,-0.00175986,0
 .00065760,-0.00022291,0.53932441,-0.00141762,-0.02121781,-0.04879311,0
 .01697091,-0.16157915,-0.10637456,0.02974294,0.02052258,0.05887445,0.1
 5506748,-0.22377951,0.04686838,0.00780653,-0.02465554,-0.01079941,-0.0
 0131967,0.00244182,-0.00034368,-0.00375909,0.00069818,0.00175182,-0.00
 227437,-0.00069245,0.00115317,-0.00187405,0.00558168,-0.00606468,0.001
 19152,-0.00293406,-0.00114768,-0.00053585,-0.00040775,0.00029760,-0.20
 599493,0.45395458,-0.05452788,-0.01363001,-0.07487322,-0.00885957,-0.1
 0160846,-0.20225778,-0.04179266,0.00421576,-0.04727574,-0.06231966,0.0
 4201290,-0.11575820,0.01210202,0.00105823,0.00783595,0.00068471,0.0009
 8741,-0.00090577,-0.00281003,0.00040641,0.00124417,-0.00158516,-0.0006
 0762,0.00036846,-0.00307546,-0.00692186,-0.00568590,0.00103917,0.00008
 013,0.00126137,-0.00181911,0.00191652,-0.00133678,0.31510306,0.0763533
 8,0.69046938,0.00076600,0.00480113,0.00089982,-0.01094716,0.01024995,-
 0.02226631,-0.00135848,0.00055789,-0.00048867,-0.00052421,0.00030279,-
 0.00034320,-0.06381675,0.02774642,-0.06481114,0.00424320,-0.01157744,0
 .03245083,-0.00147783,-0.00041069,-0.00281511,-0.00405482,-0.00194249,
 -0.00168184,0.00017637,-0.00034271,0.00087824,-0.00026316,0.00037631,-
 0.00017726,-0.00014823,0.00007750,-0.00021272,0.00043455,-0.00183945,-
 0.00028926,0.07798245,-0.00081190,-0.00275742,-0.00201993,0.01227094,-
 0.00977109,0.02430567,0.00114789,-0.00040340,0.00078113,0.00018314,0.0
 0011995,0.00014548,0.02801389,-0.08240963,0.08137655,-0.00064409,-0.00
 642727,0.01571754,0.00049557,0.00073041,-0.00195210,-0.00233012,-0.000
 66475,-0.00121162,0.00004745,0.00008477,-0.00057436,0.00012681,-0.0002
 4179,0.00008726,-0.00000064,-0.00000431,0.00008164,-0.00034522,0.00106
 648,0.00079222,-0.03339355,0.08968820,0.00022462,-0.00067959,0.0002431
 5,0.00214208,-0.00377094,0.00766636,0.00049400,-0.00063305,0.00040661,
 -0.00010379,0.00034567,0.00021976,-0.06930395,0.08946680,-0.27400754,-
 0.00090482,0.00653542,-0.01296679,0.00094573,-0.00062221,0.00188313,0.
 00131977,-0.00052950,0.00039392,0.00011804,0.00015160,-0.00022451,0.00
 003370,-0.00011483,0.00003418,0.00000918,-0.00001827,0.00007529,0.0001
 4981,-0.00030940,0.00049912,0.06807197,-0.09767219,0.28800552,0.001264
 73,-0.00213889,0.00163126,0.00662952,0.02528298,0.01863556,0.00027393,
 0.00108498,0.00109767,-0.00224305,0.00152297,0.00040297,-0.08675547,-0
 .07801513,-0.06869348,-0.01369239,-0.02213965,-0.01592861,0.00105550,0
 .00135632,0.00215091,-0.00304976,-0.00115688,0.00368701,0.00026662,0.0
 0000462,0.00047381,-0.00007325,-0.00002678,-0.00016974,-0.00013476,-0.
 00009612,-0.00027836,-0.00089240,0.00082815,-0.00426176,-0.00122059,-0
 .00475930,-0.00330510,0.09857949,-0.00215013,0.00275498,-0.00065475,-0
 .00453170,-0.02309342,-0.01969807,0.00012591,-0.00061180,-0.00071126,0
 .00145142,-0.00079843,-0.00000159,-0.07176517,-0.18690444,-0.11857972,
 -0.00847503,-0.01131525,-0.00598364,0.00284564,0.00174095,0.00042427,-
 0.00150155,-0.00009051,0.00189869,-0.00000934,-0.00012805,-0.00014631,
 -0.00005617,0.00011193,0.00008173,-0.00001657,0.00009311,0.00011834,0.
 00069973,0.00031616,0.00374406,0.00510692,0.01132185,0.00758507,0.0782
 4956,0.20669663,0.00008642,0.00119366,0.00036690,0.00023632,-0.0029279
 1,-0.00139247,0.00004307,0.00036322,-0.00007883,-0.00003115,0.00034721
 ,0.00003071,-0.06713347,-0.12702971,-0.15197095,0.01079424,0.01210517,
 0.01132065,-0.00093998,0.00066322,-0.00099330,0.00231938,0.00286185,-0
 .00314905,-0.00014361,0.00006653,0.00016521,0.00006805,-0.00007420,-0.
 00002838,0.00006914,-0.00007500,-0.00003769,-0.00037276,-0.00039953,0.
 00080277,-0.00938270,-0.01941884,-0.01231462,0.06447252,0.13213054,0.1
 5718096,0.00354046,0.00332030,0.00023641,0.00372509,-0.00113694,0.0069
 9287,0.00067267,0.00559596,-0.00316643,-0.01096888,-0.00288042,-0.0147
 6787,-0.00009423,-0.00070420,0.00003270,0.00029507,0.00047426,0.000109
 61,-0.00010344,-0.00012244,0.00000471,-0.00014506,-0.00032889,-0.00005
 349,0.00095902,-0.00024350,-0.00069973,-0.00009584,0.00001522,0.000006
 50,-0.00069292,-0.00014528,-0.00032108,-0.14053287,0.00740751,-0.14758
 840,0.00020864,-0.00000086,0.00010876,-0.00000812,0.00002650,-0.000085
 48,0.14324040,0.00251771,-0.00056836,-0.00424181,-0.01551441,0.0020296
 3,-0.01829453,0.00650224,-0.00104302,-0.00110598,0.01035350,0.00181088
 ,0.02065493,-0.00128973,0.00096081,0.00000016,0.00036799,0.00048496,-0
 .00010209,-0.00002830,-0.00018125,-0.00001006,-0.00006574,-0.00031800,
 -0.00001357,0.00002134,0.00126285,0.00023143,-0.00000908,-0.00001848,0
 .00004822,0.00026093,-0.00017277,0.00081500,0.00787016,-0.04931522,-0.
 00879905,0.00028742,-0.00033201,0.00026543,0.00000318,-0.00009369,0.00
 019378,-0.01127720,0.04549366,-0.00064182,-0.00359496,0.00100907,-0.01
 067098,0.00440455,-0.01218491,-0.00233414,-0.00216622,0.00178668,0.000
 46156,0.00222813,0.00022256,-0.00029218,0.00047523,-0.00042350,0.00035
 253,-0.00105089,-0.00026859,-0.00016322,0.00037512,-0.00000104,0.00000
 904,0.00060714,0.00036577,-0.00030454,-0.00029919,0.00042094,-0.000030
 55,0.00009230,-0.00001966,0.00009091,0.00028315,-0.00010574,-0.1459202
 2,-0.01106675,-0.25438784,0.00016734,-0.00043843,0.00008644,0.00008535
 ,-0.00020733,0.00009810,0.15919092,0.01035814,0.26340173\\0.00000158,0
 .00000443,-0.00000225,0.00000394,-0.00000288,0.00000639,-0.00000043,0.
 00000355,-0.00000089,-0.00000177,-0.00000051,0.00000331,0.00000779,0.0
 0001269,0.00002774,0.00000174,-0.00000307,-0.00000620,-0.00000179,-0.0
 0000319,-0.00000297,-0.00000695,0.00000258,0.00000007,-0.00000029,0.00
 000192,0.00000052,0.00000243,0.00000339,0.00001047,0.00000194,-0.00000
 013,0.00000152,-0.00001337,-0.00000777,-0.00003046,-0.00000641,0.00000
 264,-0.00002209,-0.00000693,-0.00001304,-0.00001240,0.00001854,-0.0000
 0058,0.00002725\\\@
 Job cpu time:       0 days 15 hours 59 minutes 51.9 seconds.
 File lengths (MBytes):  RWF=  83162 Int=      0 D2E=      0 Chk=     92 Scr=      1
 Normal termination of Gaussian 09 at Fri Aug 27 04:04:32 2021.
