 Entering Gaussian System, Link 0=g09
 Input=G4.YALQEK.gjf
 Output=G4.YALQEK.log
 Initial command:
 /public/home/users/caep010/software/Gaussian09/g09/l1.exe "/public/home/users/caep010/.cache/gau_scr/Gau-24378.inp" -scrdir="/public/home/users/caep010/.cache/gau_scr/"
 Entering Link 1 = /public/home/users/caep010/software/Gaussian09/g09/l1.exe PID=     24379.
  
 Copyright (c) 1988,1990,1992,1993,1995,1998,2003,2009,2015,
            Gaussian, Inc.  All Rights Reserved.
  
 This is part of the Gaussian(R) 09 program.  It is based on
 the Gaussian(R) 03 system (copyright 2003, Gaussian, Inc.),
 the Gaussian(R) 98 system (copyright 1998, Gaussian, Inc.),
 the Gaussian(R) 94 system (copyright 1995, Gaussian, Inc.),
 the Gaussian 92(TM) system (copyright 1992, Gaussian, Inc.),
 the Gaussian 90(TM) system (copyright 1990, Gaussian, Inc.),
 the Gaussian 88(TM) system (copyright 1988, Gaussian, Inc.),
 the Gaussian 86(TM) system (copyright 1986, Carnegie Mellon
 University), and the Gaussian 82(TM) system (copyright 1983,
 Carnegie Mellon University). Gaussian is a federally registered
 trademark of Gaussian, Inc.
  
 This software contains proprietary and confidential information,
 including trade secrets, belonging to Gaussian, Inc.
  
 This software is provided under written license and may be
 used, copied, transmitted, or stored only in accord with that
 written license.
  
 The following legend is applicable only to US Government
 contracts under FAR:
  
                    RESTRICTED RIGHTS LEGEND
  
 Use, reproduction and disclosure by the US Government is
 subject to restrictions as set forth in subparagraphs (a)
 and (c) of the Commercial Computer Software - Restricted
 Rights clause in FAR 52.227-19.
  
 Gaussian, Inc.
 340 Quinnipiac St., Bldg. 40, Wallingford CT 06492
  
  
 ---------------------------------------------------------------
 Warning -- This program may not be used in any manner that
 competes with the business of Gaussian, Inc. or will provide
 assistance to any competitor of Gaussian, Inc.  The licensee
 of this program is prohibited from giving any competitor of
 Gaussian, Inc. access to this program.  By using this program,
 the user acknowledges that Gaussian, Inc. is engaged in the
 business of creating and licensing software in the field of
 computational chemistry and represents and warrants to the
 licensee that it is not a competitor of Gaussian, Inc. and that
 it will not use this program in any manner prohibited above.
 ---------------------------------------------------------------
  

 Cite this work as:
 Gaussian 09, Revision E.01,
 M. J. Frisch, G. W. Trucks, H. B. Schlegel, G. E. Scuseria, 
 M. A. Robb, J. R. Cheeseman, G. Scalmani, V. Barone, B. Mennucci, 
 G. A. Petersson, H. Nakatsuji, M. Caricato, X. Li, H. P. Hratchian, 
 A. F. Izmaylov, J. Bloino, G. Zheng, J. L. Sonnenberg, M. Hada, 
 M. Ehara, K. Toyota, R. Fukuda, J. Hasegawa, M. Ishida, T. Nakajima, 
 Y. Honda, O. Kitao, H. Nakai, T. Vreven, J. A. Montgomery, Jr., 
 J. E. Peralta, F. Ogliaro, M. Bearpark, J. J. Heyd, E. Brothers, 
 K. N. Kudin, V. N. Staroverov, T. Keith, R. Kobayashi, J. Normand, 
 K. Raghavachari, A. Rendell, J. C. Burant, S. S. Iyengar, J. Tomasi, 
 M. Cossi, N. Rega, J. M. Millam, M. Klene, J. E. Knox, J. B. Cross, 
 V. Bakken, C. Adamo, J. Jaramillo, R. Gomperts, R. E. Stratmann, 
 O. Yazyev, A. J. Austin, R. Cammi, C. Pomelli, J. W. Ochterski, 
 R. L. Martin, K. Morokuma, V. G. Zakrzewski, G. A. Voth, 
 P. Salvador, J. J. Dannenberg, S. Dapprich, A. D. Daniels, 
 O. Farkas, J. B. Foresman, J. V. Ortiz, J. Cioslowski, 
 and D. J. Fox, Gaussian, Inc., Wallingford CT, 2013.
 
 ******************************************
 Gaussian 09:  ES64L-G09RevE.01 30-Nov-2015
                25-Aug-2021 
 ******************************************
 %nproc=32
 Will use up to   32 processors via shared memory.
 %mem=180GB
 ----------------
 #P G4 OPT=calcfc
 ----------------
 1/10=4,14=-1,18=20,19=15,26=3,38=1/1,3;
 2/9=110,12=2,17=6,18=5,40=1/2;
 3/5=35,7=104,11=2,16=1,25=1,30=1,71=2,74=-5,140=1/1,2,3;
 4//1;
 5/5=2,38=5/2;
 8/6=4,10=90,11=11/1;
 11/6=1,8=1,9=11,15=111,16=1/1,2,10;
 10/6=1,13=1/2;
 6/7=2,8=2,9=2,10=2,28=1/1;
 7/10=1,18=20,25=1/1,2,3,16;
 1/10=4,14=-1,18=20,19=15,26=3/3(2);
 2/9=110/2;
 99//99;
 2/9=110/2;
 3/5=35,7=104,11=2,16=1,25=1,30=1,71=1,74=-5/1,2,3;
 4/5=5,16=3,69=1/1;
 5/5=2,38=5/2;
 7//1,2,3,16;
 1/14=-1,18=20,19=15,26=3/3(-5);
 2/9=110/2;
 6/7=2,8=2,9=2,10=2,19=2,28=1/1;
 99/9=1/99;
 Leave Link    1 at Wed Aug 25 06:38:07 2021, MaxMem= 24159191040 cpu:         6.8
 (Enter /public/home/users/caep010/software/Gaussian09/g09/l101.exe)
 ------
 YALQEK
 ------
 Symbolic Z-matrix:
 Charge =  0 Multiplicity = 1
 N                    -0.2386    3.1821    6.5917 
 O                     0.3584    4.0377    7.2408 
 O                    -0.9981    3.4451    5.6608 
 C                    -0.0237    1.8376    6.9523 
 N                    -0.6102    0.8296    6.2898 
 N                    -0.1481   -0.2194    6.9006 
 N                     0.6954    0.0041    7.9282 
 C                     0.7908    1.3384    7.979 
 N                     1.5589    1.9848    8.8754 
 H                     2.0172    1.5384    9.4504 
 H                     1.5917    2.8444    8.8731 
 C                    -0.5529   -1.573     6.547 
 H                     0.2043   -2.0561    6.2077 
 H                    -1.237    -1.5367    5.874 
 H                    -0.8937   -2.0196    7.3262 
 
 NAtoms=     15 NQM=       15 NQMF=       0 NMMI=      0 NMMIF=      0
                NMic=       0 NMicF=      0.
                    Isotopes and Nuclear Properties:
 (Nuclear quadrupole moments (NQMom) in fm**2, nuclear magnetic moments (NMagM)
  in nuclear magnetons)

  Atom         1           2           3           4           5           6           7           8           9          10
 IAtWgt=          14          16          16          12          14          14          14          12          14           1
 AtmWgt=  14.0030740  15.9949146  15.9949146  12.0000000  14.0030740  14.0030740  14.0030740  12.0000000  14.0030740   1.0078250
 NucSpn=           2           0           0           0           2           2           2           0           2           1
 AtZEff=   0.0000000   0.0000000   0.0000000   0.0000000   0.0000000   0.0000000   0.0000000   0.0000000   0.0000000   0.0000000
 NQMom=    2.0440000   0.0000000   0.0000000   0.0000000   2.0440000   2.0440000   2.0440000   0.0000000   2.0440000   0.0000000
 NMagM=    0.4037610   0.0000000   0.0000000   0.0000000   0.4037610   0.4037610   0.4037610   0.0000000   0.4037610   2.7928460
 AtZNuc=   7.0000000   8.0000000   8.0000000   6.0000000   7.0000000   7.0000000   7.0000000   6.0000000   7.0000000   1.0000000

  Atom        11          12          13          14          15
 IAtWgt=           1          12           1           1           1
 AtmWgt=   1.0078250  12.0000000   1.0078250   1.0078250   1.0078250
 NucSpn=           1           0           1           1           1
 AtZEff=   0.0000000   0.0000000   0.0000000   0.0000000   0.0000000
 NQMom=    0.0000000   0.0000000   0.0000000   0.0000000   0.0000000
 NMagM=    2.7928460   0.0000000   2.7928460   2.7928460   2.7928460
 AtZNuc=   1.0000000   6.0000000   1.0000000   1.0000000   1.0000000
 Leave Link  101 at Wed Aug 25 06:38:07 2021, MaxMem= 24159191040 cpu:        10.1
 (Enter /public/home/users/caep010/software/Gaussian09/g09/l103.exe)

 GradGradGradGradGradGradGradGradGradGradGradGradGradGradGradGradGradGrad
 Berny optimization.
 Initialization pass.
                           ----------------------------
                           !    Initial Parameters    !
                           ! (Angstroms and Degrees)  !
 --------------------------                            --------------------------
 ! Name  Definition              Value          Derivative Info.                !
 --------------------------------------------------------------------------------
 ! R1    R(1,2)                  1.2287         calculate D2E/DX2 analytically  !
 ! R2    R(1,3)                  1.2299         calculate D2E/DX2 analytically  !
 ! R3    R(1,4)                  1.4085         calculate D2E/DX2 analytically  !
 ! R4    R(4,5)                  1.3413         calculate D2E/DX2 analytically  !
 ! R5    R(4,8)                  1.4024         calculate D2E/DX2 analytically  !
 ! R6    R(5,6)                  1.2989         calculate D2E/DX2 analytically  !
 ! R7    R(6,7)                  1.3481         calculate D2E/DX2 analytically  !
 ! R8    R(6,12)                 1.4564         calculate D2E/DX2 analytically  !
 ! R9    R(7,8)                  1.3387         calculate D2E/DX2 analytically  !
 ! R10   R(8,9)                  1.3459         calculate D2E/DX2 analytically  !
 ! R11   R(9,10)                 0.8602         calculate D2E/DX2 analytically  !
 ! R12   R(9,11)                 0.8602         calculate D2E/DX2 analytically  !
 ! R13   R(12,13)                0.9601         calculate D2E/DX2 analytically  !
 ! R14   R(12,14)                0.9603         calculate D2E/DX2 analytically  !
 ! R15   R(12,15)                0.9606         calculate D2E/DX2 analytically  !
 ! A1    A(2,1,3)              123.4348         calculate D2E/DX2 analytically  !
 ! A2    A(2,1,4)              117.0847         calculate D2E/DX2 analytically  !
 ! A3    A(3,1,4)              119.4804         calculate D2E/DX2 analytically  !
 ! A4    A(1,4,5)              121.6152         calculate D2E/DX2 analytically  !
 ! A5    A(1,4,8)              128.0121         calculate D2E/DX2 analytically  !
 ! A6    A(5,4,8)              110.369          calculate D2E/DX2 analytically  !
 ! A7    A(4,5,6)              102.657          calculate D2E/DX2 analytically  !
 ! A8    A(5,6,7)              116.5621         calculate D2E/DX2 analytically  !
 ! A9    A(5,6,12)             122.518          calculate D2E/DX2 analytically  !
 ! A10   A(7,6,12)             120.8677         calculate D2E/DX2 analytically  !
 ! A11   A(6,7,8)              103.8135         calculate D2E/DX2 analytically  !
 ! A12   A(4,8,7)              106.5964         calculate D2E/DX2 analytically  !
 ! A13   A(4,8,9)              130.3994         calculate D2E/DX2 analytically  !
 ! A14   A(7,8,9)              123.0018         calculate D2E/DX2 analytically  !
 ! A15   A(8,9,10)             120.0026         calculate D2E/DX2 analytically  !
 ! A16   A(8,9,11)             119.9945         calculate D2E/DX2 analytically  !
 ! A17   A(10,9,11)            120.003          calculate D2E/DX2 analytically  !
 ! A18   A(6,12,13)            109.5264         calculate D2E/DX2 analytically  !
 ! A19   A(6,12,14)            109.4516         calculate D2E/DX2 analytically  !
 ! A20   A(6,12,15)            109.4976         calculate D2E/DX2 analytically  !
 ! A21   A(13,12,14)           109.4605         calculate D2E/DX2 analytically  !
 ! A22   A(13,12,15)           109.4217         calculate D2E/DX2 analytically  !
 ! A23   A(14,12,15)           109.4695         calculate D2E/DX2 analytically  !
 ! D1    D(2,1,4,5)           -178.7898         calculate D2E/DX2 analytically  !
 ! D2    D(2,1,4,8)              0.4348         calculate D2E/DX2 analytically  !
 ! D3    D(3,1,4,5)              1.1658         calculate D2E/DX2 analytically  !
 ! D4    D(3,1,4,8)           -179.6096         calculate D2E/DX2 analytically  !
 ! D5    D(1,4,5,6)            178.9286         calculate D2E/DX2 analytically  !
 ! D6    D(8,4,5,6)             -0.4197         calculate D2E/DX2 analytically  !
 ! D7    D(1,4,8,7)           -179.0483         calculate D2E/DX2 analytically  !
 ! D8    D(1,4,8,9)              0.3842         calculate D2E/DX2 analytically  !
 ! D9    D(5,4,8,7)              0.2473         calculate D2E/DX2 analytically  !
 ! D10   D(5,4,8,9)            179.6798         calculate D2E/DX2 analytically  !
 ! D11   D(4,5,6,7)              0.4747         calculate D2E/DX2 analytically  !
 ! D12   D(4,5,6,12)           177.8645         calculate D2E/DX2 analytically  !
 ! D13   D(5,6,7,8)             -0.3326         calculate D2E/DX2 analytically  !
 ! D14   D(12,6,7,8)          -177.7684         calculate D2E/DX2 analytically  !
 ! D15   D(5,6,12,13)          115.416          calculate D2E/DX2 analytically  !
 ! D16   D(5,6,12,14)           -4.5927         calculate D2E/DX2 analytically  !
 ! D17   D(5,6,12,15)         -124.5947         calculate D2E/DX2 analytically  !
 ! D18   D(7,6,12,13)          -67.3041         calculate D2E/DX2 analytically  !
 ! D19   D(7,6,12,14)          172.6872         calculate D2E/DX2 analytically  !
 ! D20   D(7,6,12,15)           52.6852         calculate D2E/DX2 analytically  !
 ! D21   D(6,7,8,4)              0.0351         calculate D2E/DX2 analytically  !
 ! D22   D(6,7,8,9)           -179.4496         calculate D2E/DX2 analytically  !
 ! D23   D(4,8,9,10)          -179.3505         calculate D2E/DX2 analytically  !
 ! D24   D(4,8,9,11)             0.6282         calculate D2E/DX2 analytically  !
 ! D25   D(7,8,9,10)             0.001          calculate D2E/DX2 analytically  !
 ! D26   D(7,8,9,11)           179.9796         calculate D2E/DX2 analytically  !
 --------------------------------------------------------------------------------
 Trust Radius=3.00D-01 FncErr=1.00D-07 GrdErr=1.00D-06
 Number of steps in this run=     74 maximum allowed number of steps=    100.
 GradGradGradGradGradGradGradGradGradGradGradGradGradGradGradGradGradGrad

 Leave Link  103 at Wed Aug 25 06:38:07 2021, MaxMem= 24159191040 cpu:         0.4
 (Enter /public/home/users/caep010/software/Gaussian09/g09/l202.exe)
                          Input orientation:                          
 ---------------------------------------------------------------------
 Center     Atomic      Atomic             Coordinates (Angstroms)
 Number     Number       Type             X           Y           Z
 ---------------------------------------------------------------------
      1          7           0       -0.238600    3.182100    6.591700
      2          8           0        0.358400    4.037700    7.240800
      3          8           0       -0.998100    3.445100    5.660800
      4          6           0       -0.023700    1.837600    6.952300
      5          7           0       -0.610200    0.829600    6.289800
      6          7           0       -0.148100   -0.219400    6.900600
      7          7           0        0.695400    0.004100    7.928200
      8          6           0        0.790800    1.338400    7.979000
      9          7           0        1.558900    1.984800    8.875400
     10          1           0        2.017200    1.538400    9.450400
     11          1           0        1.591700    2.844400    8.873100
     12          6           0       -0.552900   -1.573000    6.547000
     13          1           0        0.204300   -2.056100    6.207700
     14          1           0       -1.237000   -1.536700    5.874000
     15          1           0       -0.893700   -2.019600    7.326200
 ---------------------------------------------------------------------
                    Distance matrix (angstroms):
                    1          2          3          4          5
     1  N    0.000000
     2  O    1.228736   0.000000
     3  O    1.229872   2.165102   0.000000
     4  C    1.408508   2.251593   2.280676   0.000000
     5  N    2.400726   3.483460   2.717894   1.341250   0.000000
     6  N    3.416696   4.300602   3.960829   2.061407   1.298851
     7  N    3.571872   4.105608   4.455281   2.198001   2.251754
     8  C    2.526558   2.831630   3.607270   1.402399   2.252793
     9  N    3.143218   2.885744   4.359401   2.494916   3.567185
    10  H    3.995316   3.725648   5.204672   3.239645   4.170734
    11  H    2.944287   2.368417   4.169745   2.704189   3.947306
    12  C    4.765686   5.726411   5.115162   3.475128   2.417007
    13  H    5.270897   6.182673   5.657567   3.970808   2.999569
    14  H    4.876368   5.957128   4.992080   3.744426   2.482971
    15  H    5.293990   6.185946   5.713791   3.971737   3.045068
                    6          7          8          9         10
     6  N    0.000000
     7  N    1.348112   0.000000
     8  C    2.114526   1.338670   0.000000
     9  N    3.416457   2.359236   1.345862   0.000000
    10  H    3.778871   2.533441   1.925896   0.860196   0.000000
    11  H    4.037887   3.124659   1.925848   0.860229   1.489954
    12  C    1.456410   2.439920   3.511752   4.747535   4.971514
    13  H    1.994433   2.728685   3.873515   5.027966   5.169346
    14  H    1.993713   3.213716   4.099902   5.406147   5.730331
    15  H    1.994436   2.642538   3.813116   4.944743   5.064082
                   11         12         13         14         15
    11  H    0.000000
    12  C    5.433551   0.000000
    13  H    5.748403   0.960136   0.000000
    14  H    6.015828   0.960333   1.567953   0.000000
    15  H    5.677025   0.960598   1.567794   1.568417   0.000000
 Stoichiometry    C3H5N5O2
 Framework group  C1[X(C3H5N5O2)]
 Deg. of freedom    39
 Full point group                 C1      NOp   1
 Largest Abelian subgroup         C1      NOp   1
 Largest concise Abelian subgroup C1      NOp   1
                         Standard orientation:                         
 ---------------------------------------------------------------------
 Center     Atomic      Atomic             Coordinates (Angstroms)
 Number     Number       Type             X           Y           Z
 ---------------------------------------------------------------------
      1          7           0        1.700734   -0.644194   -0.000826
      2          8           0        2.576815    0.217268    0.011692
      3          8           0        1.937186   -1.851098   -0.008384
      4          6           0        0.364226   -0.199653   -0.005545
      5          7           0       -0.663441   -1.061476    0.005112
      6          7           0       -1.695708   -0.273300    0.019886
      7          7           0       -1.443263    1.050928    0.010013
      8          6           0       -0.106544    1.121369   -0.006074
      9          7           0        0.566104    2.287079   -0.009218
     10          1           0        0.135923    3.031934   -0.000666
     11          1           0        1.426271    2.287213   -0.019503
     12          6           0       -3.063187   -0.773531   -0.010107
     13          1           0       -3.506411   -0.545435    0.810494
     14          1           0       -3.052281   -1.728254   -0.113185
     15          1           0       -3.533456   -0.377181   -0.748011
 ---------------------------------------------------------------------
 Rotational constants (GHZ):      2.4269780      1.1513365      0.7839251
 Leave Link  202 at Wed Aug 25 06:38:07 2021, MaxMem= 24159191040 cpu:         0.3
 (Enter /public/home/users/caep010/software/Gaussian09/g09/l301.exe)
 Standard basis: GTBas3 (6D, 7F)
 Ernie: Thresh=  0.10000D-02 Tol=  0.10000D-05 Strict=F.
 There are   335 symmetry adapted cartesian basis functions of A   symmetry.
 There are   305 symmetry adapted basis functions of A   symmetry.
   305 basis functions,   475 primitive gaussians,   335 cartesian basis functions
    37 alpha electrons       37 beta electrons
       nuclear repulsion energy       546.2150080169 Hartrees.
 IExCor=  402 DFT=T Ex+Corr=B3LYP ExCW=0 ScaHFX=  0.200000
 ScaDFX=  0.800000  0.720000  1.000000  0.810000 ScalE2=  1.000000  1.000000
 IRadAn=      0 IRanWt=     -1 IRanGd=            0 ICorTp=0 IEmpDi=  4
 NAtoms=   15 NActive=   15 NUniq=   15 SFac= 1.00D+00 NAtFMM=   60 NAOKFM=F Big=F
 Integral buffers will be    131072 words long.
 Raffenetti 2 integral format.
 Two-electron integral symmetry is turned on.
 Leave Link  301 at Wed Aug 25 06:38:07 2021, MaxMem= 24159191040 cpu:         2.2
 (Enter /public/home/users/caep010/software/Gaussian09/g09/l302.exe)
 NPDir=0 NMtPBC=     1 NCelOv=     1 NCel=       1 NClECP=     1 NCelD=      1
         NCelK=      1 NCelE2=     1 NClLst=     1 CellRange=     0.0.
 One-electron integrals computed using PRISM.
 NBasis=   305 RedAO= T EigKep=  1.07D-04  NBF=   305
 NBsUse=   305 1.00D-06 EigRej= -1.00D+00 NBFU=   305
 Precomputing XC quadrature grid using
 IXCGrd= 4 IRadAn=           0 IRanWt=          -1 IRanGd=           0 AccXCQ= 0.00D+00.
 Generated NRdTot=       0 NPtTot=           0 NUsed=           0 NTot=          32
 NSgBfM=   335   335   335   335   335 MxSgAt=    15 MxSgA2=    15.
 Leave Link  302 at Wed Aug 25 06:38:08 2021, MaxMem= 24159191040 cpu:        16.0
 (Enter /public/home/users/caep010/software/Gaussian09/g09/l303.exe)
 DipDrv:  MaxL=1.
 Leave Link  303 at Wed Aug 25 06:38:08 2021, MaxMem= 24159191040 cpu:         0.9
 (Enter /public/home/users/caep010/software/Gaussian09/g09/l401.exe)
 ExpMin= 1.61D-01 ExpMax= 5.48D+03 ExpMxC= 8.25D+02 IAcc=1 IRadAn=         1 AccDes= 0.00D+00
 Harris functional with IExCor=  402 and IRadAn=       1 diagonalized for initial guess.
 HarFok:  IExCor=  402 AccDes= 0.00D+00 IRadAn=         1 IDoV= 1 UseB2=F ITyADJ=14
 ICtDFT=  3500011 ScaDFX=  1.000000  1.000000  1.000000  1.000000
 FoFCou: FMM=F IPFlag=           0 FMFlag=      100000 FMFlg1=           0
         NFxFlg=           0 DoJE=T BraDBF=F KetDBF=T FulRan=T
         wScrn=  0.000000 ICntrl=     500 IOpCl=  0 I1Cent=   200000004 NGrid=           0
         NMat0=    1 NMatS0=      1 NMatT0=    0 NMatD0=    1 NMtDS0=    0 NMtDT0=    0
 Petite list used in FoFCou.
 Harris En= -541.382769347652    
 JPrj=0 DoOrth=F DoCkMO=F.
 Leave Link  401 at Wed Aug 25 06:38:09 2021, MaxMem= 24159191040 cpu:        14.9
 (Enter /public/home/users/caep010/software/Gaussian09/g09/l502.exe)
 Closed shell SCF:
 Using DIIS extrapolation, IDIIS=  1040.
 Integral symmetry usage will be decided dynamically.
 Keep R1 ints in memory in canonical form, NReq=1108169170.
 IVT=      368365 IEndB=      368365 NGot= 24159191040 MDV= 23069988231
 LenX= 23069988231 LenY= 23069875565
 Requested convergence on RMS density matrix=1.00D-08 within 128 cycles.
 Requested convergence on MAX density matrix=1.00D-06.
 Requested convergence on             energy=1.00D-06.
 No special actions if energy rises.
 FoFCou: FMM=F IPFlag=           0 FMFlag=           0 FMFlg1=           0
         NFxFlg=           0 DoJE=F BraDBF=F KetDBF=F FulRan=T
         wScrn=  0.000000 ICntrl=     600 IOpCl=  0 I1Cent=           0 NGrid=           0
         NMat0=    1 NMatS0=  46665 NMatT0=    0 NMatD0=    1 NMtDS0=    0 NMtDT0=    0
 Symmetry not used in FoFCou.
 Integral accuracy reduced to 1.0D-05 until final iterations.

 Cycle   1  Pass 0  IDiag  1:
 E= -541.015760213581    
 DIIS: error= 3.35D-02 at cycle   1 NSaved=   1.
 NSaved= 1 IEnMin= 1 EnMin= -541.015760213581     IErMin= 1 ErrMin= 3.35D-02
 ErrMax= 3.35D-02  0.00D+00 EMaxC= 1.00D-01 BMatC= 4.46D-01 BMatP= 4.46D-01
 IDIUse=3 WtCom= 6.65D-01 WtEn= 3.35D-01
 Coeff-Com:  0.100D+01
 Coeff-En:   0.100D+01
 Coeff:      0.100D+01
 Gap=     0.139 Goal=   None    Shift=    0.000
 GapD=    0.139 DampG=1.000 DampE=0.500 DampFc=0.5000 IDamp=-1.
 Damping current iteration by 5.00D-01
 RMSDP=4.12D-03 MaxDP=2.31D-01              OVMax= 3.02D-01

 Cycle   2  Pass 0  IDiag  1:
 E= -541.096542349256     Delta-E=       -0.080782135675 Rises=F Damp=T
 DIIS: error= 1.03D-02 at cycle   2 NSaved=   2.
 NSaved= 2 IEnMin= 2 EnMin= -541.096542349256     IErMin= 2 ErrMin= 1.03D-02
 ErrMax= 1.03D-02  0.00D+00 EMaxC= 1.00D-01 BMatC= 7.31D-02 BMatP= 4.46D-01
 IDIUse=3 WtCom= 8.97D-01 WtEn= 1.03D-01
 Coeff-Com:  0.238D+00 0.762D+00
 Coeff-En:   0.377D+00 0.623D+00
 Coeff:      0.252D+00 0.748D+00
 Gap=     0.185 Goal=   None    Shift=    0.000
 RMSDP=1.20D-03 MaxDP=6.75D-02 DE=-8.08D-02 OVMax= 2.03D-01

 Cycle   3  Pass 0  IDiag  1:
 E= -541.332155225881     Delta-E=       -0.235612876624 Rises=F Damp=F
 DIIS: error= 6.30D-03 at cycle   3 NSaved=   3.
 NSaved= 3 IEnMin= 3 EnMin= -541.332155225881     IErMin= 3 ErrMin= 6.30D-03
 ErrMax= 6.30D-03  0.00D+00 EMaxC= 1.00D-01 BMatC= 1.91D-02 BMatP= 7.31D-02
 IDIUse=3 WtCom= 9.37D-01 WtEn= 6.30D-02
 Coeff-Com:  0.621D-01 0.339D+00 0.599D+00
 Coeff-En:   0.000D+00 0.000D+00 0.100D+01
 Coeff:      0.582D-01 0.318D+00 0.624D+00
 Gap=     0.173 Goal=   None    Shift=    0.000
 RMSDP=6.58D-04 MaxDP=3.34D-02 DE=-2.36D-01 OVMax= 4.66D-02

 Cycle   4  Pass 0  IDiag  1:
 E= -541.345033010015     Delta-E=       -0.012877784134 Rises=F Damp=F
 DIIS: error= 3.85D-03 at cycle   4 NSaved=   4.
 NSaved= 4 IEnMin= 4 EnMin= -541.345033010015     IErMin= 4 ErrMin= 3.85D-03
 ErrMax= 3.85D-03  0.00D+00 EMaxC= 1.00D-01 BMatC= 4.95D-03 BMatP= 1.91D-02
 IDIUse=3 WtCom= 9.61D-01 WtEn= 3.85D-02
 Coeff-Com:  0.160D-01 0.882D-01 0.353D+00 0.542D+00
 Coeff-En:   0.000D+00 0.000D+00 0.183D+00 0.817D+00
 Coeff:      0.154D-01 0.848D-01 0.347D+00 0.553D+00
 Gap=     0.164 Goal=   None    Shift=    0.000
 RMSDP=3.15D-04 MaxDP=2.72D-02 DE=-1.29D-02 OVMax= 4.62D-02

 Cycle   5  Pass 0  IDiag  1:
 E= -541.346643917185     Delta-E=       -0.001610907171 Rises=F Damp=F
 DIIS: error= 4.03D-03 at cycle   5 NSaved=   5.
 NSaved= 5 IEnMin= 5 EnMin= -541.346643917185     IErMin= 4 ErrMin= 3.85D-03
 ErrMax= 4.03D-03  0.00D+00 EMaxC= 1.00D-01 BMatC= 3.01D-03 BMatP= 4.95D-03
 IDIUse=3 WtCom= 9.60D-01 WtEn= 4.03D-02
 Coeff-Com:  0.402D-02 0.144D-01 0.186D+00 0.452D+00 0.344D+00
 Coeff-En:   0.000D+00 0.000D+00 0.000D+00 0.392D+00 0.608D+00
 Coeff:      0.386D-02 0.139D-01 0.178D+00 0.450D+00 0.355D+00
 Gap=     0.165 Goal=   None    Shift=    0.000
 RMSDP=1.68D-04 MaxDP=1.33D-02 DE=-1.61D-03 OVMax= 2.49D-02

 Cycle   6  Pass 0  IDiag  1:
 E= -541.348962660395     Delta-E=       -0.002318743210 Rises=F Damp=F
 DIIS: error= 5.36D-04 at cycle   6 NSaved=   6.
 NSaved= 6 IEnMin= 6 EnMin= -541.348962660395     IErMin= 6 ErrMin= 5.36D-04
 ErrMax= 5.36D-04  0.00D+00 EMaxC= 1.00D-01 BMatC= 1.16D-04 BMatP= 3.01D-03
 IDIUse=3 WtCom= 9.95D-01 WtEn= 5.36D-03
 Coeff-Com:  0.708D-03 0.128D-02 0.714D-01 0.209D+00 0.216D+00 0.501D+00
 Coeff-En:   0.000D+00 0.000D+00 0.000D+00 0.000D+00 0.000D+00 0.100D+01
 Coeff:      0.705D-03 0.127D-02 0.711D-01 0.208D+00 0.215D+00 0.503D+00
 Gap=     0.166 Goal=   None    Shift=    0.000
 RMSDP=3.71D-05 MaxDP=2.85D-03 DE=-2.32D-03 OVMax= 3.47D-03

 Cycle   7  Pass 0  IDiag  1:
 E= -541.349051993746     Delta-E=       -0.000089333351 Rises=F Damp=F
 DIIS: error= 7.01D-05 at cycle   7 NSaved=   7.
 NSaved= 7 IEnMin= 7 EnMin= -541.349051993746     IErMin= 7 ErrMin= 7.01D-05
 ErrMax= 7.01D-05  0.00D+00 EMaxC= 1.00D-01 BMatC= 4.17D-06 BMatP= 1.16D-04
 IDIUse=1 WtCom= 1.00D+00 WtEn= 0.00D+00
 Coeff-Com: -0.121D-03-0.109D-02 0.183D-01 0.622D-01 0.736D-01 0.239D+00
 Coeff-Com:  0.608D+00
 Coeff:     -0.121D-03-0.109D-02 0.183D-01 0.622D-01 0.736D-01 0.239D+00
 Coeff:      0.608D+00
 Gap=     0.166 Goal=   None    Shift=    0.000
 RMSDP=8.28D-06 MaxDP=4.48D-04 DE=-8.93D-05 OVMax= 9.19D-04

 Initial convergence to 1.0D-05 achieved.  Increase integral accuracy.
 Cycle   8  Pass 1  IDiag  1:
 E= -541.349017766916     Delta-E=        0.000034226830 Rises=F Damp=F
 DIIS: error= 4.06D-05 at cycle   1 NSaved=   1.
 NSaved= 1 IEnMin= 1 EnMin= -541.349017766916     IErMin= 1 ErrMin= 4.06D-05
 ErrMax= 4.06D-05  0.00D+00 EMaxC= 1.00D-01 BMatC= 1.07D-06 BMatP= 1.07D-06
 IDIUse=1 WtCom= 1.00D+00 WtEn= 0.00D+00
 Coeff-Com:  0.100D+01
 Coeff:      0.100D+01
 Gap=     0.166 Goal=   None    Shift=    0.000
 RMSDP=8.28D-06 MaxDP=4.48D-04 DE= 3.42D-05 OVMax= 1.31D-03

 Cycle   9  Pass 1  IDiag  1:
 E= -541.349014008332     Delta-E=        0.000003758583 Rises=F Damp=F
 DIIS: error= 9.97D-05 at cycle   2 NSaved=   2.
 NSaved= 2 IEnMin= 1 EnMin= -541.349017766916     IErMin= 1 ErrMin= 4.06D-05
 ErrMax= 9.97D-05  0.00D+00 EMaxC= 1.00D-01 BMatC= 5.33D-06 BMatP= 1.07D-06
 IDIUse=1 WtCom= 1.00D+00 WtEn= 0.00D+00
 Coeff-Com:  0.696D+00 0.304D+00
 Coeff:      0.696D+00 0.304D+00
 Gap=     0.166 Goal=   None    Shift=    0.000
 RMSDP=7.00D-06 MaxDP=4.12D-04 DE= 3.76D-06 OVMax= 9.25D-04

 Cycle  10  Pass 1  IDiag  1:
 E= -541.349018680765     Delta-E=       -0.000004672432 Rises=F Damp=F
 DIIS: error= 7.58D-06 at cycle   3 NSaved=   3.
 NSaved= 3 IEnMin= 3 EnMin= -541.349018680765     IErMin= 3 ErrMin= 7.58D-06
 ErrMax= 7.58D-06  0.00D+00 EMaxC= 1.00D-01 BMatC= 4.10D-08 BMatP= 1.07D-06
 IDIUse=1 WtCom= 1.00D+00 WtEn= 0.00D+00
 Coeff-Com:  0.266D+00 0.136D+00 0.598D+00
 Coeff:      0.266D+00 0.136D+00 0.598D+00
 Gap=     0.166 Goal=   None    Shift=    0.000
 RMSDP=8.60D-07 MaxDP=4.49D-05 DE=-4.67D-06 OVMax= 7.11D-05

 Cycle  11  Pass 1  IDiag  1:
 E= -541.349018703244     Delta-E=       -0.000000022480 Rises=F Damp=F
 DIIS: error= 7.51D-06 at cycle   4 NSaved=   4.
 NSaved= 4 IEnMin= 4 EnMin= -541.349018703244     IErMin= 4 ErrMin= 7.51D-06
 ErrMax= 7.51D-06  0.00D+00 EMaxC= 1.00D-01 BMatC= 1.51D-08 BMatP= 4.10D-08
 IDIUse=1 WtCom= 1.00D+00 WtEn= 0.00D+00
 Coeff-Com:  0.453D-01 0.311D-01 0.386D+00 0.537D+00
 Coeff:      0.453D-01 0.311D-01 0.386D+00 0.537D+00
 Gap=     0.166 Goal=   None    Shift=    0.000
 RMSDP=5.10D-07 MaxDP=4.04D-05 DE=-2.25D-08 OVMax= 6.83D-05

 Cycle  12  Pass 1  IDiag  1:
 E= -541.349018708970     Delta-E=       -0.000000005726 Rises=F Damp=F
 DIIS: error= 6.20D-06 at cycle   5 NSaved=   5.
 NSaved= 5 IEnMin= 5 EnMin= -541.349018708970     IErMin= 5 ErrMin= 6.20D-06
 ErrMax= 6.20D-06  0.00D+00 EMaxC= 1.00D-01 BMatC= 8.19D-09 BMatP= 1.51D-08
 IDIUse=1 WtCom= 1.00D+00 WtEn= 0.00D+00
 Coeff-Com: -0.781D-02 0.190D-02 0.219D+00 0.441D+00 0.346D+00
 Coeff:     -0.781D-02 0.190D-02 0.219D+00 0.441D+00 0.346D+00
 Gap=     0.166 Goal=   None    Shift=    0.000
 RMSDP=2.62D-07 MaxDP=1.91D-05 DE=-5.73D-09 OVMax= 3.42D-05

 Cycle  13  Pass 1  IDiag  1:
 E= -541.349018715344     Delta-E=       -0.000000006373 Rises=F Damp=F
 DIIS: error= 4.29D-07 at cycle   6 NSaved=   6.
 NSaved= 6 IEnMin= 6 EnMin= -541.349018715344     IErMin= 6 ErrMin= 4.29D-07
 ErrMax= 4.29D-07  0.00D+00 EMaxC= 1.00D-01 BMatC= 1.16D-10 BMatP= 8.19D-09
 IDIUse=1 WtCom= 1.00D+00 WtEn= 0.00D+00
 Coeff-Com: -0.681D-02-0.115D-02 0.103D+00 0.216D+00 0.190D+00 0.500D+00
 Coeff:     -0.681D-02-0.115D-02 0.103D+00 0.216D+00 0.190D+00 0.500D+00
 Gap=     0.166 Goal=   None    Shift=    0.000
 RMSDP=3.99D-08 MaxDP=2.54D-06 DE=-6.37D-09 OVMax= 2.75D-06

 Cycle  14  Pass 1  IDiag  1:
 E= -541.349018715470     Delta-E=       -0.000000000126 Rises=F Damp=F
 DIIS: error= 7.32D-08 at cycle   7 NSaved=   7.
 NSaved= 7 IEnMin= 7 EnMin= -541.349018715470     IErMin= 7 ErrMin= 7.32D-08
 ErrMax= 7.32D-08  0.00D+00 EMaxC= 1.00D-01 BMatC= 4.48D-12 BMatP= 1.16D-10
 IDIUse=1 WtCom= 1.00D+00 WtEn= 0.00D+00
 Coeff-Com: -0.163D-02-0.740D-03 0.194D-01 0.387D-01 0.373D-01 0.182D+00
 Coeff-Com:  0.725D+00
 Coeff:     -0.163D-02-0.740D-03 0.194D-01 0.387D-01 0.373D-01 0.182D+00
 Coeff:      0.725D+00
 Gap=     0.166 Goal=   None    Shift=    0.000
 RMSDP=8.82D-09 MaxDP=4.70D-07 DE=-1.26D-10 OVMax= 7.83D-07

 SCF Done:  E(RB3LYP) =  -541.349018715     A.U. after   14 cycles
            NFock= 14  Conv=0.88D-08     -V/T= 2.0038
 KE= 5.392833834698D+02 PE=-2.359033438874D+03 EE= 7.321860286720D+02
 Leave Link  502 at Wed Aug 25 06:38:40 2021, MaxMem= 24159191040 cpu:       213.2
 (Enter /public/home/users/caep010/software/Gaussian09/g09/l801.exe)
 DoSCS=F DFT=T ScalE2(SS,OS)=  1.000000  1.000000
 Range of M.O.s used for correlation:     1   305
 NBasis=   305 NAE=    37 NBE=    37 NFC=     0 NFV=     0
 NROrb=    305 NOA=    37 NOB=    37 NVA=   268 NVB=   268

 **** Warning!!: The largest alpha MO coefficient is  0.50850358D+02

 Leave Link  801 at Wed Aug 25 06:38:40 2021, MaxMem= 24159191040 cpu:         0.6
 (Enter /public/home/users/caep010/software/Gaussian09/g09/l1101.exe)
 Using compressed storage, NAtomX=    15.
 Will process     16 centers per pass.
 Leave Link 1101 at Wed Aug 25 06:38:41 2021, MaxMem= 24159191040 cpu:        17.9
 (Enter /public/home/users/caep010/software/Gaussian09/g09/l1102.exe)
 Symmetrizing basis deriv contribution to polar:
 IMax=3 JMax=2 DiffMx= 0.00D+00
 Leave Link 1102 at Wed Aug 25 06:38:41 2021, MaxMem= 24159191040 cpu:         0.9
 (Enter /public/home/users/caep010/software/Gaussian09/g09/l1110.exe)
 Forming Gx(P) for the SCF density, NAtomX=    15.
 Integral derivatives from FoFJK, PRISM(SPDF).
 Do as many integral derivatives as possible in FoFJK.
 G2DrvN: MDV=   24159190816.
 G2DrvN: will do    16 centers at a time, making    1 passes.
 Calling FoFCou, ICntrl=  3107 FMM=F I1Cent=   0 AccDes= 0.00D+00.
 FoFJK:  IHMeth= 1 ICntrl=    3107 DoSepK=F KAlg= 0 I1Cent=   0 FoldK=F
 IRaf=         0 NMat=   1 IRICut=       1 DoRegI=T DoRafI=F ISym2E= 0.
 FoFCou: FMM=F IPFlag=           0 FMFlag=      100000 FMFlg1=           0
         NFxFlg=           0 DoJE=F BraDBF=F KetDBF=F FulRan=T
         wScrn=  0.000000 ICntrl=    3107 IOpCl=  0 I1Cent=           0 NGrid=           0
         NMat0=    1 NMatS0=      1 NMatT0=    0 NMatD0=    1 NMtDS0=    0 NMtDT0=    0
 Symmetry not used in FoFCou.
 End of G2Drv F.D. properties file   721 does not exist.
 End of G2Drv F.D. properties file   722 does not exist.
 End of G2Drv F.D. properties file   788 does not exist.
 Leave Link 1110 at Wed Aug 25 06:38:56 2021, MaxMem= 24159191040 cpu:       447.5
 (Enter /public/home/users/caep010/software/Gaussian09/g09/l1002.exe)
 Minotr:  Closed shell wavefunction.
          IDoAtm=111111111111111
          Direct CPHF calculation.
          Differentiating once with respect to nuclear coordinates.
          Requested convergence is 1.0D-08 RMS, and 1.0D-07 maximum.
          Secondary convergence is 1.0D-12 RMS, and 1.0D-12 maximum.
          NewPWx=T KeepS1=F KeepF1=F KeepIn=T MapXYZ=F SortEE=F KeepMc=T.
          MDV=   24159190581 using IRadAn=       2.
 Generate precomputed XC quadrature information.
 Keep R1 ints in memory in canonical form, NReq=1107806407.
 FoFCou: FMM=F IPFlag=           0 FMFlag=           0 FMFlg1=           0
         NFxFlg=           0 DoJE=F BraDBF=F KetDBF=F FulRan=T
         wScrn=  0.000000 ICntrl=     600 IOpCl=  0 I1Cent=           0 NGrid=           0
         NMat0=    1 NMatS0=  46665 NMatT0=    0 NMatD0=    1 NMtDS0=    0 NMtDT0=    0
 Symmetry not used in FoFCou.
          Solving linear equations simultaneously, MaxMat=       0.
          There are    48 degrees of freedom in the 1st order CPHF.  IDoFFX=6 NUNeed=     0.
     42 vectors produced by pass  0 Test12= 2.07D-14 2.08D-09 XBig12= 3.01D-01 1.97D-01.
 AX will form    42 AO Fock derivatives at one time.
     42 vectors produced by pass  1 Test12= 2.07D-14 2.08D-09 XBig12= 4.80D-01 3.22D-01.
     42 vectors produced by pass  2 Test12= 2.07D-14 2.08D-09 XBig12= 8.29D-03 1.67D-02.
     42 vectors produced by pass  3 Test12= 2.07D-14 2.08D-09 XBig12= 1.41D-04 1.79D-03.
     42 vectors produced by pass  4 Test12= 2.07D-14 2.08D-09 XBig12= 5.11D-07 1.15D-04.
     40 vectors produced by pass  5 Test12= 2.07D-14 2.08D-09 XBig12= 8.73D-10 3.14D-06.
     21 vectors produced by pass  6 Test12= 2.07D-14 2.08D-09 XBig12= 1.09D-12 1.40D-07.
      2 vectors produced by pass  7 Test12= 2.07D-14 2.08D-09 XBig12= 1.66D-15 6.32D-09.
 InvSVY:  IOpt=1 It=  1 EMax= 1.89D-15
 Solved reduced A of dimension   273 with    42 vectors.
 End of Minotr F.D. properties file   721 does not exist.
 End of Minotr F.D. properties file   722 does not exist.
 End of Minotr F.D. properties file   788 does not exist.
 Leave Link 1002 at Wed Aug 25 06:39:17 2021, MaxMem= 24159191040 cpu:       681.6
 (Enter /public/home/users/caep010/software/Gaussian09/g09/l601.exe)
 Copying SCF densities to generalized density rwf, IOpCl= 0 IROHF=0.

 **********************************************************************

            Population analysis using the SCF density.

 **********************************************************************

 Orbital symmetries:
       Occupied  (A) (A) (A) (A) (A) (A) (A) (A) (A) (A) (A) (A)
                 (A) (A) (A) (A) (A) (A) (A) (A) (A) (A) (A) (A)
                 (A) (A) (A) (A) (A) (A) (A) (A) (A) (A) (A) (A)
                 (A)
       Virtual   (A) (A) (A) (A) (A) (A) (A) (A) (A) (A) (A) (A)
                 (A) (A) (A) (A) (A) (A) (A) (A) (A) (A) (A) (A)
                 (A) (A) (A) (A) (A) (A) (A) (A) (A) (A) (A) (A)
                 (A) (A) (A) (A) (A) (A) (A) (A) (A) (A) (A) (A)
                 (A) (A) (A) (A) (A) (A) (A) (A) (A) (A) (A) (A)
                 (A) (A) (A) (A) (A) (A) (A) (A) (A) (A) (A) (A)
                 (A) (A) (A) (A) (A) (A) (A) (A) (A) (A) (A) (A)
                 (A) (A) (A) (A) (A) (A) (A) (A) (A) (A) (A) (A)
                 (A) (A) (A) (A) (A) (A) (A) (A) (A) (A) (A) (A)
                 (A) (A) (A) (A) (A) (A) (A) (A) (A) (A) (A) (A)
                 (A) (A) (A) (A) (A) (A) (A) (A) (A) (A) (A) (A)
                 (A) (A) (A) (A) (A) (A) (A) (A) (A) (A) (A) (A)
                 (A) (A) (A) (A) (A) (A) (A) (A) (A) (A) (A) (A)
                 (A) (A) (A) (A) (A) (A) (A) (A) (A) (A) (A) (A)
                 (A) (A) (A) (A) (A) (A) (A) (A) (A) (A) (A) (A)
                 (A) (A) (A) (A) (A) (A) (A) (A) (A) (A) (A) (A)
                 (A) (A) (A) (A) (A) (A) (A) (A) (A) (A) (A) (A)
                 (A) (A) (A) (A) (A) (A) (A) (A) (A) (A) (A) (A)
                 (A) (A) (A) (A) (A) (A) (A) (A) (A) (A) (A) (A)
                 (A) (A) (A) (A) (A) (A) (A) (A) (A) (A) (A) (A)
                 (A) (A) (A) (A) (A) (A) (A) (A) (A) (A) (A) (A)
                 (A) (A) (A) (A) (A) (A) (A) (A) (A) (A) (A) (A)
                 (A) (A) (A) (A)
 The electronic state is 1-A.
 Alpha  occ. eigenvalues --  -19.16242 -19.15754 -14.55978 -14.46908 -14.39158
 Alpha  occ. eigenvalues --  -14.36942 -14.34072 -10.28037 -10.25980 -10.21705
 Alpha  occ. eigenvalues --   -1.21909  -1.13485  -1.03988  -0.98416  -0.91273
 Alpha  occ. eigenvalues --   -0.88129  -0.79983  -0.71676  -0.65131  -0.63497
 Alpha  occ. eigenvalues --   -0.56797  -0.55606  -0.54298  -0.54152  -0.52069
 Alpha  occ. eigenvalues --   -0.50036  -0.49138  -0.46441  -0.45446  -0.37461
 Alpha  occ. eigenvalues --   -0.36114  -0.31933  -0.30197  -0.30120  -0.29748
 Alpha  occ. eigenvalues --   -0.27847  -0.24194
 Alpha virt. eigenvalues --   -0.07574  -0.00793   0.08758   0.09903   0.11853
 Alpha virt. eigenvalues --    0.12858   0.15101   0.17712   0.18197   0.19450
 Alpha virt. eigenvalues --    0.21921   0.23792   0.25666   0.26323   0.28929
 Alpha virt. eigenvalues --    0.35628   0.36922   0.38251   0.40843   0.42009
 Alpha virt. eigenvalues --    0.44732   0.45691   0.48800   0.49028   0.50933
 Alpha virt. eigenvalues --    0.52055   0.53119   0.53669   0.56780   0.58949
 Alpha virt. eigenvalues --    0.59988   0.61019   0.64148   0.64517   0.66082
 Alpha virt. eigenvalues --    0.68880   0.69105   0.70776   0.72117   0.74869
 Alpha virt. eigenvalues --    0.76245   0.78283   0.78865   0.79611   0.80390
 Alpha virt. eigenvalues --    0.82757   0.82868   0.83373   0.85019   0.86830
 Alpha virt. eigenvalues --    0.87078   0.90092   0.92145   0.92737   0.93823
 Alpha virt. eigenvalues --    0.95715   0.96465   0.98054   0.99518   1.00478
 Alpha virt. eigenvalues --    1.02960   1.05979   1.07036   1.09306   1.13091
 Alpha virt. eigenvalues --    1.14129   1.14499   1.18475   1.19265   1.24514
 Alpha virt. eigenvalues --    1.25048   1.27649   1.31320   1.32860   1.33903
 Alpha virt. eigenvalues --    1.34280   1.35152   1.38370   1.39464   1.40949
 Alpha virt. eigenvalues --    1.47532   1.47842   1.51634   1.54567   1.57086
 Alpha virt. eigenvalues --    1.58175   1.59199   1.60689   1.61260   1.65456
 Alpha virt. eigenvalues --    1.66584   1.66939   1.69723   1.71665   1.77130
 Alpha virt. eigenvalues --    1.81094   1.82538   1.85890   1.87708   1.90591
 Alpha virt. eigenvalues --    1.96025   1.97376   2.01189   2.01777   2.02709
 Alpha virt. eigenvalues --    2.04079   2.06885   2.16169   2.18441   2.22255
 Alpha virt. eigenvalues --    2.27362   2.33686   2.37485   2.41627   2.46298
 Alpha virt. eigenvalues --    2.49497   2.50926   2.53873   2.54710   2.58349
 Alpha virt. eigenvalues --    2.70257   2.80702   2.87177   2.90734   2.93983
 Alpha virt. eigenvalues --    2.97157   2.99490   3.02839   3.06021   3.09609
 Alpha virt. eigenvalues --    3.10776   3.11742   3.15964   3.18042   3.21071
 Alpha virt. eigenvalues --    3.24337   3.25071   3.28784   3.33298   3.37369
 Alpha virt. eigenvalues --    3.40330   3.43017   3.46804   3.48200   3.52808
 Alpha virt. eigenvalues --    3.54262   3.56027   3.59125   3.60521   3.60719
 Alpha virt. eigenvalues --    3.63700   3.65373   3.67553   3.72330   3.73911
 Alpha virt. eigenvalues --    3.77184   3.77344   3.81477   3.83195   3.85358
 Alpha virt. eigenvalues --    3.87823   3.90678   3.93070   3.94552   3.95977
 Alpha virt. eigenvalues --    4.01302   4.02328   4.04969   4.06199   4.08551
 Alpha virt. eigenvalues --    4.09609   4.11715   4.12609   4.13089   4.14842
 Alpha virt. eigenvalues --    4.17714   4.18317   4.18898   4.23705   4.24982
 Alpha virt. eigenvalues --    4.27474   4.30581   4.31655   4.33193   4.36945
 Alpha virt. eigenvalues --    4.38776   4.40424   4.41497   4.42697   4.44425
 Alpha virt. eigenvalues --    4.45162   4.46150   4.49297   4.50616   4.53387
 Alpha virt. eigenvalues --    4.53967   4.55861   4.59363   4.59582   4.62197
 Alpha virt. eigenvalues --    4.63419   4.63490   4.66003   4.66882   4.69200
 Alpha virt. eigenvalues --    4.73671   4.75323   4.77484   4.79440   4.80350
 Alpha virt. eigenvalues --    4.86162   4.89377   4.93369   4.94408   4.96749
 Alpha virt. eigenvalues --    5.00535   5.02830   5.03606   5.04266   5.05675
 Alpha virt. eigenvalues --    5.09535   5.10256   5.14626   5.17392   5.22958
 Alpha virt. eigenvalues --    5.25755   5.28866   5.33655   5.35704   5.39171
 Alpha virt. eigenvalues --    5.41958   5.45238   5.48388   5.53188   5.59874
 Alpha virt. eigenvalues --    5.61976   5.67364   5.74042   5.85525   5.89880
 Alpha virt. eigenvalues --    5.91204   5.94352   6.01589   6.06816   6.16586
 Alpha virt. eigenvalues --    6.23059   6.25763   6.34414   6.42001   6.70554
 Alpha virt. eigenvalues --    6.86509   7.04364   7.10540   8.74269  10.53630
 Alpha virt. eigenvalues --   11.25653  11.28258  11.29411  11.35636  11.38712
 Alpha virt. eigenvalues --   11.56824  11.83186  12.95805  13.20656  15.30768
 Alpha virt. eigenvalues --   16.65475  23.07047  23.83977
          Condensed to atoms (all electrons):
               1          2          3          4          5          6
     1  N    5.298540   0.523351   0.515840   0.363924  -0.013083  -0.002534
     2  O    0.523351   8.046218  -0.083236  -0.099905   0.002610   0.000090
     3  O    0.515840  -0.083236   8.021088  -0.097720   0.001030   0.001293
     4  C    0.363924  -0.099905  -0.097720   4.737728   0.442023  -0.112505
     5  N   -0.013083   0.002610   0.001030   0.442023   6.623706   0.441080
     6  N   -0.002534   0.000090   0.001293  -0.112505   0.441080   5.899966
     7  N    0.002792   0.000175  -0.000101   0.004420  -0.157026   0.409276
     8  C   -0.037038  -0.009999   0.003724   0.458645  -0.029478  -0.090931
     9  N   -0.005227  -0.003816   0.000026  -0.043018   0.004712   0.000581
    10  H   -0.000035   0.000448   0.000003   0.005314   0.000012   0.000051
    11  H    0.001250   0.027676   0.000203  -0.011727   0.000369  -0.000267
    12  C   -0.000044   0.000001   0.000006   0.005784  -0.052493   0.386917
    13  H    0.000001  -0.000000  -0.000000  -0.000147   0.001083  -0.024963
    14  H   -0.000017  -0.000000   0.000003   0.000867   0.005692  -0.018059
    15  H    0.000001  -0.000000  -0.000000  -0.000264   0.001391  -0.022830
               7          8          9         10         11         12
     1  N    0.002792  -0.037038  -0.005227  -0.000035   0.001250  -0.000044
     2  O    0.000175  -0.009999  -0.003816   0.000448   0.027676   0.000001
     3  O   -0.000101   0.003724   0.000026   0.000003   0.000203   0.000006
     4  C    0.004420   0.458645  -0.043018   0.005314  -0.011727   0.005784
     5  N   -0.157026  -0.029478   0.004712   0.000012   0.000369  -0.052493
     6  N    0.409276  -0.090931   0.000581   0.000051  -0.000267   0.386917
     7  N    6.675919   0.469556  -0.031596  -0.003129   0.004983  -0.052660
     8  C    0.469556   4.493476   0.476389  -0.020458  -0.017552   0.006210
     9  N   -0.031596   0.476389   6.317698   0.374754   0.367768  -0.000073
    10  H   -0.003129  -0.020458   0.374754   0.440801  -0.030403   0.000012
    11  H    0.004983  -0.017552   0.367768  -0.030403   0.422981   0.000006
    12  C   -0.052660   0.006210  -0.000073   0.000012   0.000006   4.749970
    13  H    0.002710   0.000376  -0.000005   0.000001  -0.000000   0.395011
    14  H    0.003006  -0.000380   0.000000   0.000000  -0.000000   0.396174
    15  H    0.003229   0.000699  -0.000009   0.000002  -0.000000   0.393636
              13         14         15
     1  N    0.000001  -0.000017   0.000001
     2  O   -0.000000  -0.000000  -0.000000
     3  O   -0.000000   0.000003  -0.000000
     4  C   -0.000147   0.000867  -0.000264
     5  N    0.001083   0.005692   0.001391
     6  N   -0.024963  -0.018059  -0.022830
     7  N    0.002710   0.003006   0.003229
     8  C    0.000376  -0.000380   0.000699
     9  N   -0.000005   0.000000  -0.000009
    10  H    0.000001   0.000000   0.000002
    11  H   -0.000000  -0.000000  -0.000000
    12  C    0.395011   0.396174   0.393636
    13  H    0.551450  -0.033063  -0.042927
    14  H   -0.033063   0.519362  -0.031481
    15  H   -0.042927  -0.031481   0.547119
 Mulliken charges:
               1
     1  N    0.352278
     2  O   -0.403613
     3  O   -0.362159
     4  C    0.346580
     5  N   -0.271627
     6  N    0.132833
     7  N   -0.331554
     8  C    0.296760
     9  N   -0.458185
    10  H    0.232625
    11  H    0.234713
    12  C   -0.228457
    13  H    0.150475
    14  H    0.157896
    15  H    0.151435
 Sum of Mulliken charges =  -0.00000
 Mulliken charges with hydrogens summed into heavy atoms:
               1
     1  N    0.352278
     2  O   -0.403613
     3  O   -0.362159
     4  C    0.346580
     5  N   -0.271627
     6  N    0.132833
     7  N   -0.331554
     8  C    0.296760
     9  N    0.009153
    12  C    0.231348
 APT charges:
               1
     1  N   -1.090917
     2  O    0.353006
     3  O    0.474629
     4  C   -0.193713
     5  N    0.025615
     6  N   -0.348950
     7  N    0.224868
     8  C   -0.498327
     9  N   -0.727660
    10  H    0.712706
    11  H    0.497317
    12  C   -0.790062
    13  H    0.458835
    14  H    0.438681
    15  H    0.463972
 Sum of APT charges =  -0.00000
 APT charges with hydrogens summed into heavy atoms:
               1
     1  N   -1.090917
     2  O    0.353006
     3  O    0.474629
     4  C   -0.193713
     5  N    0.025615
     6  N   -0.348950
     7  N    0.224868
     8  C   -0.498327
     9  N    0.482364
    12  C    0.571426
 Electronic spatial extent (au):  <R**2>=           1372.9343
 Charge=             -0.0000 electrons
 Dipole moment (field-independent basis, Debye):
    X=             -4.4009    Y=              2.6168    Z=             -0.0522  Tot=              5.1204
 Quadrupole moment (field-independent basis, Debye-Ang):
   XX=            -53.9876   YY=            -53.9590   ZZ=            -54.4684
   XY=              9.2949   XZ=              0.0354   YZ=             -0.0426
 Traceless Quadrupole moment (field-independent basis, Debye-Ang):
   XX=              0.1508   YY=              0.1793   ZZ=             -0.3301
   XY=              9.2949   XZ=              0.0354   YZ=             -0.0426
 Octapole moment (field-independent basis, Debye-Ang**2):
  XXX=            -47.7411  YYY=             34.5459  ZZZ=              0.1312  XYY=              2.6472
  XXY=             -7.8717  XXZ=             -0.4590  XZZ=              3.5465  YZZ=             -3.1902
  YYZ=             -0.1539  XYZ=             -0.1346
 Hexadecapole moment (field-independent basis, Debye-Ang**3):
 XXXX=          -1013.0446 YYYY=           -453.1778 ZZZZ=            -50.2931 XXXY=             57.6630
 XXXZ=              0.6374 YYYX=             35.4870 YYYZ=              0.3171 ZZZX=             -0.2876
 ZZZY=             -0.0567 XXYY=           -268.4737 XXZZ=           -177.0897 YYZZ=           -100.0900
 XXYZ=             -0.3549 YYXZ=              0.4291 ZZXY=             -2.4758
 N-N= 5.462150080169D+02 E-N=-2.359033440141D+03  KE= 5.392833834698D+02
  Exact polarizability:   0.000   0.000   0.000   0.000   0.000   0.000
 Approx polarizability: 157.729   1.204 157.135  -0.619   0.231  57.328
 No NMR shielding tensors so no spin-rotation constants.
 Leave Link  601 at Wed Aug 25 06:39:18 2021, MaxMem= 24159191040 cpu:        16.1
 (Enter /public/home/users/caep010/software/Gaussian09/g09/l701.exe)
 Compute integral second derivatives.
 ... and contract with generalized density number  0.
 Leave Link  701 at Wed Aug 25 06:39:19 2021, MaxMem= 24159191040 cpu:        17.9
 (Enter /public/home/users/caep010/software/Gaussian09/g09/l702.exe)
 L702 exits ... SP integral derivatives will be done elsewhere.
 Leave Link  702 at Wed Aug 25 06:39:20 2021, MaxMem= 24159191040 cpu:         0.9
 (Enter /public/home/users/caep010/software/Gaussian09/g09/l703.exe)
 Compute integral second derivatives, UseDBF=F ICtDFT=           0.
 Integral derivatives from FoFJK, PRISM(SPDF).
 Calling FoFJK, ICntrl=    100147 FMM=F ISym2X=0 I1Cent= 0 IOpClX= 0 NMat=1 NMatS=1 NMatT=0.
 FoFJK:  IHMeth= 1 ICntrl=  100147 DoSepK=F KAlg= 0 I1Cent=   0 FoldK=F
 IRaf=         0 NMat=   1 IRICut=       1 DoRegI=T DoRafI=F ISym2E= 0.
 FoFCou: FMM=F IPFlag=           0 FMFlag=      100000 FMFlg1=         800
         NFxFlg=           0 DoJE=F BraDBF=F KetDBF=F FulRan=T
         wScrn=  0.000000 ICntrl=  100147 IOpCl=  0 I1Cent=           0 NGrid=           0
         NMat0=    1 NMatS0=      1 NMatT0=    0 NMatD0=    1 NMtDS0=    0 NMtDT0=    0
 Symmetry not used in FoFCou.
 Leave Link  703 at Wed Aug 25 06:39:47 2021, MaxMem= 24159191040 cpu:       873.2
 (Enter /public/home/users/caep010/software/Gaussian09/g09/l716.exe)
 Dipole        =-1.73144694D+00 1.02951584D+00-2.05225369D-02
 Polarizability= 0.00000000D+00 0.00000000D+00 0.00000000D+00
                 0.00000000D+00 0.00000000D+00 0.00000000D+00
 ***** Axes restored to original set *****
 -------------------------------------------------------------------
 Center     Atomic                   Forces (Hartrees/Bohr)
 Number     Number              X              Y              Z
 -------------------------------------------------------------------
      1        7          -0.013589622    0.011855125   -0.016661121
      2        8           0.009429930    0.002975666    0.011543374
      3        8           0.003161068   -0.006322803    0.004094535
      4        6          -0.005301964    0.001453163   -0.007050742
      5        7           0.000440497    0.001304521    0.000095544
      6        7           0.000103775   -0.000942174    0.005269432
      7        7          -0.000660741   -0.005992786   -0.000174083
      8        6           0.001434276   -0.008233000   -0.000469398
      9        7          -0.115509165   -0.096151784   -0.134140918
     10        1           0.112230684   -0.113851151    0.141209636
     11        1           0.005157509    0.213830273   -0.004542592
     12        6           0.033402286    0.108328439    0.028337610
     13        1           0.102800195   -0.062871640   -0.044334640
     14        1          -0.089231568    0.011092795   -0.088379102
     15        1          -0.043867158   -0.056474643    0.105202466
 -------------------------------------------------------------------
 Cartesian Forces:  Max     0.213830273 RMS     0.065859271
 FormGI is forming the generalized inverse of G from B-inverse, IUseBI=4.
 Leave Link  716 at Wed Aug 25 06:39:48 2021, MaxMem= 24159191040 cpu:         1.0
 (Enter /public/home/users/caep010/software/Gaussian09/g09/l103.exe)

 GradGradGradGradGradGradGradGradGradGradGradGradGradGradGradGradGradGrad
 Berny optimization.
 Red2BG is reusing G-inverse.
 Internal  Forces:  Max     0.213887549 RMS     0.046876586
 Search for a local minimum.
 Step number   1 out of a maximum of   74
 All quantities printed in internal units (Hartrees-Bohrs-Radians)
 RMS Force = .46877D-01 SwitMx=.10000D-02 MixMth= 1
 Mixed Optimization -- RFO/linear search
 Second derivative matrix not updated -- analytic derivatives used.
 ITU=  0
     Eigenvalues ---    0.00015   0.00455   0.00726   0.01096   0.01221
     Eigenvalues ---    0.01660   0.02831   0.04773   0.05725   0.06529
     Eigenvalues ---    0.06616   0.11518   0.11943   0.12038   0.13530
     Eigenvalues ---    0.14395   0.17787   0.18234   0.20649   0.20978
     Eigenvalues ---    0.24549   0.25706   0.26921   0.31832   0.34103
     Eigenvalues ---    0.36010   0.40513   0.43718   0.46499   0.50061
     Eigenvalues ---    0.54971   0.60006   0.61673   0.71916   0.72057
     Eigenvalues ---    0.72357   0.77053   1.18440   1.19231
 RFO step:  Lambda=-1.28413684D-01 EMin= 1.46617716D-04
 Linear search not attempted -- first point.
 Maximum step size (   0.300) exceeded in Quadratic search.
    -- Step size scaled by   0.851
 Iteration  1 RMS(Cart)=  0.03896031 RMS(Int)=  0.00034575
 Iteration  2 RMS(Cart)=  0.00053100 RMS(Int)=  0.00001072
 Iteration  3 RMS(Cart)=  0.00000037 RMS(Int)=  0.00001072
 ITry= 1 IFail=0 DXMaxC= 1.50D-01 DCOld= 1.00D+10 DXMaxT= 3.00D-01 DXLimC= 3.00D+00 Rises=F
 Variable       Old X    -DE/DX   Delta X   Delta X   Delta X     New X
                                 (Linear)    (Quad)   (Total)
    R1        2.32197   0.01275   0.00000   0.01467   0.01467   2.33664
    R2        2.32412  -0.00640   0.00000  -0.01131  -0.01131   2.31281
    R3        2.66169   0.00854   0.00000   0.01430   0.01430   2.67600
    R4        2.53460  -0.00064   0.00000  -0.00185  -0.00185   2.53275
    R5        2.65015   0.00774   0.00000   0.01531   0.01532   2.66547
    R6        2.45447   0.00608   0.00000   0.00743   0.00743   2.46190
    R7        2.54756  -0.00312   0.00000  -0.00315  -0.00315   2.54441
    R8        2.75222  -0.00113   0.00000  -0.00345  -0.00345   2.74877
    R9        2.52972   0.00231   0.00000   0.00168   0.00167   2.53139
   R10        2.54331   0.00459   0.00000   0.00372   0.00372   2.54703
   R11        1.62553   0.21327   0.00000   0.13819   0.13819   1.76373
   R12        1.62560   0.21389   0.00000   0.13881   0.13881   1.76440
   R13        1.81439   0.12838   0.00000   0.12872   0.12872   1.94311
   R14        1.81477   0.12591   0.00000   0.12595   0.12595   1.94072
   R15        1.81527   0.12716   0.00000   0.12769   0.12769   1.94296
    A1        2.15434   0.01033   0.00000   0.01761   0.01761   2.17195
    A2        2.04351  -0.00885   0.00000  -0.01727  -0.01727   2.02624
    A3        2.08533  -0.00147   0.00000  -0.00033  -0.00033   2.08499
    A4        2.12258   0.00766   0.00000   0.01474   0.01474   2.13732
    A5        2.23423  -0.00273   0.00000  -0.00644  -0.00644   2.22779
    A6        1.92630  -0.00493   0.00000  -0.00829  -0.00829   1.91802
    A7        1.79170   0.00138   0.00000   0.00297   0.00299   1.79469
    A8        2.03439   0.00265   0.00000   0.00409   0.00409   2.03848
    A9        2.13834  -0.00059   0.00000  -0.00206  -0.00207   2.13628
   A10        2.10954  -0.00203   0.00000  -0.00185  -0.00185   2.10769
   A11        1.81189  -0.00303   0.00000  -0.00438  -0.00439   1.80750
   A12        1.86046   0.00393   0.00000   0.00561   0.00561   1.86606
   A13        2.27590  -0.00535   0.00000  -0.01334  -0.01334   2.26256
   A14        2.14679   0.00142   0.00000   0.00775   0.00775   2.15454
   A15        2.09444  -0.00133   0.00000   0.00024   0.00024   2.09468
   A16        2.09430  -0.00338   0.00000  -0.01137  -0.01137   2.08292
   A17        2.09445   0.00471   0.00000   0.01114   0.01114   2.10558
   A18        1.91160  -0.00117   0.00000   0.00061   0.00060   1.91220
   A19        1.91029  -0.00711   0.00000  -0.01743  -0.01747   1.89282
   A20        1.91109  -0.00285   0.00000  -0.00422  -0.00424   1.90685
   A21        1.91045   0.00410   0.00000   0.00845   0.00843   1.91888
   A22        1.90977   0.00234   0.00000   0.00222   0.00221   1.91198
   A23        1.91060   0.00469   0.00000   0.01039   0.01034   1.92095
    D1       -3.12047  -0.00039   0.00000  -0.00229  -0.00229  -3.12276
    D2        0.00759  -0.00024   0.00000  -0.00107  -0.00107   0.00652
    D3        0.02035  -0.00020   0.00000  -0.00163  -0.00163   0.01872
    D4       -3.13478  -0.00004   0.00000  -0.00041  -0.00041  -3.13519
    D5        3.12289   0.00036   0.00000   0.00221   0.00221   3.12510
    D6       -0.00733   0.00023   0.00000   0.00121   0.00120  -0.00612
    D7       -3.12498  -0.00052   0.00000  -0.00273  -0.00273  -3.12771
    D8        0.00671  -0.00014   0.00000  -0.00076  -0.00076   0.00595
    D9        0.00432  -0.00030   0.00000  -0.00148  -0.00148   0.00284
   D10        3.13600   0.00008   0.00000   0.00050   0.00049   3.13649
   D11        0.00829  -0.00003   0.00000  -0.00046  -0.00047   0.00782
   D12        3.10432   0.00059   0.00000   0.00381   0.00381   3.10814
   D13       -0.00580  -0.00012   0.00000  -0.00038  -0.00038  -0.00619
   D14       -3.10264  -0.00077   0.00000  -0.00457  -0.00458  -3.10723
   D15        2.01439  -0.00044   0.00000  -0.00176  -0.00175   2.01264
   D16       -0.08016  -0.00039   0.00000  -0.00179  -0.00177  -0.08193
   D17       -2.17459  -0.00004   0.00000  -0.00125  -0.00127  -2.17586
   D18       -1.17468   0.00033   0.00000   0.00285   0.00285  -1.17183
   D19        3.01396   0.00038   0.00000   0.00281   0.00283   3.01679
   D20        0.91953   0.00073   0.00000   0.00335   0.00333   0.92286
   D21        0.00061   0.00024   0.00000   0.00107   0.00107   0.00168
   D22       -3.13199  -0.00006   0.00000  -0.00058  -0.00060  -3.13259
   D23       -3.13026  -0.00030   0.00000  -0.00165  -0.00165  -3.13191
   D24        0.01096  -0.00037   0.00000  -0.00209  -0.00208   0.00888
   D25        0.00002   0.00014   0.00000   0.00057   0.00057   0.00058
   D26        3.14124   0.00006   0.00000   0.00014   0.00013   3.14137
         Item               Value     Threshold  Converged?
 Maximum Force            0.213888     0.000450     NO 
 RMS     Force            0.046877     0.000300     NO 
 Maximum Displacement     0.150341     0.001800     NO 
 RMS     Displacement     0.039030     0.001200     NO 
 Predicted change in Energy=-6.857551D-02
 Lowest energy point so far.  Saving SCF results.
 GradGradGradGradGradGradGradGradGradGradGradGradGradGradGradGradGradGrad

 Leave Link  103 at Wed Aug 25 06:39:48 2021, MaxMem= 24159191040 cpu:         3.9
 (Enter /public/home/users/caep010/software/Gaussian09/g09/l202.exe)
                          Input orientation:                          
 ---------------------------------------------------------------------
 Center     Atomic      Atomic             Coordinates (Angstroms)
 Number     Number       Type             X           Y           Z
 ---------------------------------------------------------------------
      1          7           0       -0.239417    3.192779    6.590552
      2          8           0        0.373594    4.029973    7.263047
      3          8           0       -0.993049    3.465275    5.665520
      4          6           0       -0.030932    1.837165    6.942856
      5          7           0       -0.614396    0.825226    6.285679
      6          7           0       -0.150692   -0.225085    6.901364
      7          7           0        0.692105   -0.004154    7.927911
      8          6           0        0.787390    1.331202    7.974297
      9          7           0        1.552916    1.990784    8.866245
     10          1           0        2.052749    1.514978    9.494631
     11          1           0        1.576964    2.923957    8.846923
     12          6           0       -0.552490   -1.577272    6.546445
     13          1           0        0.259484   -2.093816    6.184255
     14          1           0       -1.281831   -1.520995    5.825617
     15          1           0       -0.917996   -2.052617    7.381659
 ---------------------------------------------------------------------
                    Distance matrix (angstroms):
                    1          2          3          4          5
     1  N    0.000000
     2  O    1.236497   0.000000
     3  O    1.223888   2.176853   0.000000
     4  C    1.416076   2.252680   2.282103   0.000000
     5  N    2.416374   3.493103   2.738217   1.340273   0.000000
     6  N    3.433113   4.302465   3.981913   2.066141   1.302783
     7  N    3.588403   4.100935   4.471587   2.209881   2.256489
     8  C    2.536641   2.821430   3.613126   1.410504   2.252209
     9  N    3.136243   2.849444   4.347493   2.496317   3.565822
    10  H    4.062352   3.758287   5.267127   3.310149   4.229278
    11  H    2.909074   2.275969   4.125448   2.718809   3.970731
    12  C    4.780517   5.728206   5.137840   3.476715   2.417402
    13  H    5.325604   6.219132   5.722011   4.014029   3.048731
    14  H    4.887885   5.968239   4.997191   3.753693   2.482314
    15  H    5.347943   6.219338   5.779091   4.013706   3.094403
                    6          7          8          9         10
     6  N    0.000000
     7  N    1.346446   0.000000
     8  C    2.110263   1.339554   0.000000
     9  N    3.416594   2.366695   1.347832   0.000000
    10  H    3.822042   2.571716   1.986535   0.933324   0.000000
    11  H    4.084907   3.193962   1.980347   0.933683   1.622072
    12  C    1.454585   2.435604   3.506174   4.748182   5.004106
    13  H    2.043195   2.755755   3.900472   5.054700   5.215149
    14  H    2.028815   3.258354   4.127169   5.441856   5.813623
    15  H    2.039439   2.662145   3.835334   4.965732   5.100755
                   11         12         13         14         15
    11  H    0.000000
    12  C    5.485238   0.000000
    13  H    5.831261   1.028252   0.000000
    14  H    6.087578   1.026985   1.682973   0.000000
    15  H    5.756571   1.028168   1.679861   1.684121   0.000000
 Stoichiometry    C3H5N5O2
 Framework group  C1[X(C3H5N5O2)]
 Deg. of freedom    39
 Full point group                 C1      NOp   1
 RotChk:  IX=0 Diff= 4.88D-03
 Largest Abelian subgroup         C1      NOp   1
 Largest concise Abelian subgroup C1      NOp   1
                         Standard orientation:                         
 ---------------------------------------------------------------------
 Center     Atomic      Atomic             Coordinates (Angstroms)
 Number     Number       Type             X           Y           Z
 ---------------------------------------------------------------------
      1          7           0        1.708906   -0.651967   -0.000580
      2          8           0        2.570182    0.235169    0.010264
      3          8           0        1.950921   -1.851667   -0.007611
      4          6           0        0.362587   -0.213015   -0.004677
      5          7           0       -0.671873   -1.065146    0.005097
      6          7           0       -1.702683   -0.268584    0.017903
      7          7           0       -1.448261    1.053570    0.008174
      8          6           0       -0.110223    1.115884   -0.005129
      9          7           0        0.579516    2.273857   -0.008042
     10          1           0        0.124181    3.088534   -0.000115
     11          1           0        1.512859    2.250445   -0.017376
     12          6           0       -3.070308   -0.763249   -0.009083
     13          1           0       -3.543341   -0.515697    0.869700
     14          1           0       -3.044604   -1.784168   -0.117538
     15          1           0       -3.569495   -0.336955   -0.800420
 ---------------------------------------------------------------------
 Rotational constants (GHZ):      2.4288399      1.1434444      0.7808848
 Leave Link  202 at Wed Aug 25 06:39:48 2021, MaxMem= 24159191040 cpu:         0.3
 (Enter /public/home/users/caep010/software/Gaussian09/g09/l301.exe)
 Standard basis: GTBas3 (6D, 7F)
 Ernie: Thresh=  0.10000D-02 Tol=  0.10000D-05 Strict=F.
 There are   335 symmetry adapted cartesian basis functions of A   symmetry.
 There are   305 symmetry adapted basis functions of A   symmetry.
   305 basis functions,   475 primitive gaussians,   335 cartesian basis functions
    37 alpha electrons       37 beta electrons
       nuclear repulsion energy       543.7270678847 Hartrees.
 IExCor=  402 DFT=T Ex+Corr=B3LYP ExCW=0 ScaHFX=  0.200000
 ScaDFX=  0.800000  0.720000  1.000000  0.810000 ScalE2=  1.000000  1.000000
 IRadAn=      0 IRanWt=     -1 IRanGd=            0 ICorTp=0 IEmpDi=  4
 NAtoms=   15 NActive=   15 NUniq=   15 SFac= 1.00D+00 NAtFMM=   60 NAOKFM=F Big=F
 Integral buffers will be    131072 words long.
 Raffenetti 2 integral format.
 Two-electron integral symmetry is turned on.
 Leave Link  301 at Wed Aug 25 06:39:48 2021, MaxMem= 24159191040 cpu:         1.8
 (Enter /public/home/users/caep010/software/Gaussian09/g09/l302.exe)
 NPDir=0 NMtPBC=     1 NCelOv=     1 NCel=       1 NClECP=     1 NCelD=      1
         NCelK=      1 NCelE2=     1 NClLst=     1 CellRange=     0.0.
 One-electron integrals computed using PRISM.
 NBasis=   305 RedAO= T EigKep=  1.08D-04  NBF=   305
 NBsUse=   305 1.00D-06 EigRej= -1.00D+00 NBFU=   305
 Precomputing XC quadrature grid using
 IXCGrd= 4 IRadAn=           0 IRanWt=          -1 IRanGd=           0 AccXCQ= 0.00D+00.
 Generated NRdTot=       0 NPtTot=           0 NUsed=           0 NTot=          32
 NSgBfM=   335   335   335   335   335 MxSgAt=    15 MxSgA2=    15.
 Leave Link  302 at Wed Aug 25 06:39:49 2021, MaxMem= 24159191040 cpu:        15.3
 (Enter /public/home/users/caep010/software/Gaussian09/g09/l303.exe)
 DipDrv:  MaxL=1.
 Leave Link  303 at Wed Aug 25 06:39:49 2021, MaxMem= 24159191040 cpu:         0.9
 (Enter /public/home/users/caep010/software/Gaussian09/g09/l401.exe)
 Initial guess from the checkpoint file:  "/public/home/users/caep010/.cache/gau_scr/Gau-24379.chk"
 B after Tr=    -0.000000   -0.000000    0.000000
         Rot=    1.000000    0.000036    0.000037    0.000544 Ang=   0.06 deg.
 Guess basis will be translated and rotated to current coordinates.
 JPrj=2 DoOrth=T DoCkMO=T.
 Generating alternative initial guess.
 ExpMin= 1.61D-01 ExpMax= 5.48D+03 ExpMxC= 8.25D+02 IAcc=1 IRadAn=         1 AccDes= 0.00D+00
 Harris functional with IExCor=  402 and IRadAn=       1 diagonalized for initial guess.
 HarFok:  IExCor=  402 AccDes= 0.00D+00 IRadAn=         1 IDoV= 1 UseB2=F ITyADJ=14
 ICtDFT=  3500011 ScaDFX=  1.000000  1.000000  1.000000  1.000000
 FoFCou: FMM=F IPFlag=           0 FMFlag=      100000 FMFlg1=           0
         NFxFlg=           0 DoJE=T BraDBF=F KetDBF=T FulRan=T
         wScrn=  0.000000 ICntrl=     500 IOpCl=  0 I1Cent=   200000004 NGrid=           0
         NMat0=    1 NMatS0=      1 NMatT0=    0 NMatD0=    1 NMtDS0=    0 NMtDT0=    0
 Petite list used in FoFCou.
 Harris En= -541.417137729238    
 Leave Link  401 at Wed Aug 25 06:39:49 2021, MaxMem= 24159191040 cpu:        20.6
 (Enter /public/home/users/caep010/software/Gaussian09/g09/l502.exe)
 Closed shell SCF:
 Using DIIS extrapolation, IDIIS=  1040.
 Integral symmetry usage will be decided dynamically.
 Keep R1 ints in memory in canonical form, NReq=1108169170.
 IVT=      368365 IEndB=      368365 NGot= 24159191040 MDV= 23069988231
 LenX= 23069988231 LenY= 23069875565
 Requested convergence on RMS density matrix=1.00D-08 within 128 cycles.
 Requested convergence on MAX density matrix=1.00D-06.
 Requested convergence on             energy=1.00D-06.
 No special actions if energy rises.
 FoFCou: FMM=F IPFlag=           0 FMFlag=           0 FMFlg1=           0
         NFxFlg=           0 DoJE=F BraDBF=F KetDBF=F FulRan=T
         wScrn=  0.000000 ICntrl=     600 IOpCl=  0 I1Cent=           0 NGrid=           0
         NMat0=    1 NMatS0=  46665 NMatT0=    0 NMatD0=    1 NMtDS0=    0 NMtDT0=    0
 Symmetry not used in FoFCou.
 Integral accuracy reduced to 1.0D-05 until final iterations.

 Cycle   1  Pass 0  IDiag  1:
 E= -541.416362761048    
 DIIS: error= 5.98D-03 at cycle   1 NSaved=   1.
 NSaved= 1 IEnMin= 1 EnMin= -541.416362761048     IErMin= 1 ErrMin= 5.98D-03
 ErrMax= 5.98D-03  0.00D+00 EMaxC= 1.00D-01 BMatC= 7.49D-03 BMatP= 7.49D-03
 IDIUse=3 WtCom= 9.40D-01 WtEn= 5.98D-02
 Coeff-Com:  0.100D+01
 Coeff-En:   0.100D+01
 Coeff:      0.100D+01
 Gap=     1.101 Goal=   None    Shift=    0.000
 GapD=    1.101 DampG=2.000 DampE=1.000 DampFc=2.0000 IDamp=-1.
 RMSDP=4.11D-04 MaxDP=3.17D-02              OVMax= 2.71D-02

 Cycle   2  Pass 0  IDiag  1:
 E= -541.420341160865     Delta-E=       -0.003978399818 Rises=F Damp=F
 DIIS: error= 2.48D-03 at cycle   2 NSaved=   2.
 NSaved= 2 IEnMin= 2 EnMin= -541.420341160865     IErMin= 2 ErrMin= 2.48D-03
 ErrMax= 2.48D-03  0.00D+00 EMaxC= 1.00D-01 BMatC= 2.54D-03 BMatP= 7.49D-03
 IDIUse=3 WtCom= 9.75D-01 WtEn= 2.48D-02
 Coeff-Com:  0.318D+00 0.682D+00
 Coeff-En:   0.210D-02 0.998D+00
 Coeff:      0.310D+00 0.690D+00
 Gap=     0.168 Goal=   None    Shift=    0.000
 RMSDP=2.33D-04 MaxDP=2.21D-02 DE=-3.98D-03 OVMax= 3.00D-02

 Cycle   3  Pass 0  IDiag  1:
 E= -541.421549898241     Delta-E=       -0.001208737375 Rises=F Damp=F
 DIIS: error= 1.61D-03 at cycle   3 NSaved=   3.
 NSaved= 3 IEnMin= 3 EnMin= -541.421549898241     IErMin= 3 ErrMin= 1.61D-03
 ErrMax= 1.61D-03  0.00D+00 EMaxC= 1.00D-01 BMatC= 1.25D-03 BMatP= 2.54D-03
 IDIUse=3 WtCom= 9.84D-01 WtEn= 1.61D-02
 Coeff-Com:  0.268D-01 0.409D+00 0.564D+00
 Coeff-En:   0.000D+00 0.336D+00 0.664D+00
 Coeff:      0.264D-01 0.408D+00 0.565D+00
 Gap=     0.161 Goal=   None    Shift=    0.000
 RMSDP=1.13D-04 MaxDP=9.64D-03 DE=-1.21D-03 OVMax= 1.53D-02

 Cycle   4  Pass 0  IDiag  1:
 E= -541.422560794765     Delta-E=       -0.001010896525 Rises=F Damp=F
 DIIS: error= 3.56D-04 at cycle   4 NSaved=   4.
 NSaved= 4 IEnMin= 4 EnMin= -541.422560794765     IErMin= 4 ErrMin= 3.56D-04
 ErrMax= 3.56D-04  0.00D+00 EMaxC= 1.00D-01 BMatC= 6.08D-05 BMatP= 1.25D-03
 IDIUse=3 WtCom= 9.96D-01 WtEn= 3.56D-03
 Coeff-Com:  0.332D-02 0.198D+00 0.306D+00 0.493D+00
 Coeff-En:   0.000D+00 0.000D+00 0.000D+00 0.100D+01
 Coeff:      0.331D-02 0.197D+00 0.305D+00 0.495D+00
 Gap=     0.161 Goal=   None    Shift=    0.000
 RMSDP=2.99D-05 MaxDP=1.34D-03 DE=-1.01D-03 OVMax= 3.11D-03

 Cycle   5  Pass 0  IDiag  1:
 E= -541.422605723714     Delta-E=       -0.000044928949 Rises=F Damp=F
 DIIS: error= 2.31D-04 at cycle   5 NSaved=   5.
 NSaved= 5 IEnMin= 5 EnMin= -541.422605723714     IErMin= 5 ErrMin= 2.31D-04
 ErrMax= 2.31D-04  0.00D+00 EMaxC= 1.00D-01 BMatC= 1.26D-05 BMatP= 6.08D-05
 IDIUse=3 WtCom= 9.98D-01 WtEn= 2.31D-03
 Coeff-Com: -0.735D-03 0.912D-01 0.145D+00 0.332D+00 0.433D+00
 Coeff-En:   0.000D+00 0.000D+00 0.000D+00 0.150D+00 0.850D+00
 Coeff:     -0.733D-03 0.910D-01 0.144D+00 0.331D+00 0.434D+00
 Gap=     0.161 Goal=   None    Shift=    0.000
 RMSDP=1.31D-05 MaxDP=8.81D-04 DE=-4.49D-05 OVMax= 1.90D-03

 Cycle   6  Pass 0  IDiag  1:
 E= -541.422614002465     Delta-E=       -0.000008278751 Rises=F Damp=F
 DIIS: error= 1.34D-04 at cycle   6 NSaved=   6.
 NSaved= 6 IEnMin= 6 EnMin= -541.422614002465     IErMin= 6 ErrMin= 1.34D-04
 ErrMax= 1.34D-04  0.00D+00 EMaxC= 1.00D-01 BMatC= 3.06D-06 BMatP= 1.26D-05
 IDIUse=3 WtCom= 9.99D-01 WtEn= 1.34D-03
 Coeff-Com: -0.122D-02 0.254D-01 0.410D-01 0.145D+00 0.338D+00 0.452D+00
 Coeff-En:   0.000D+00 0.000D+00 0.000D+00 0.000D+00 0.220D+00 0.780D+00
 Coeff:     -0.122D-02 0.253D-01 0.410D-01 0.145D+00 0.338D+00 0.452D+00
 Gap=     0.161 Goal=   None    Shift=    0.000
 RMSDP=5.58D-06 MaxDP=4.24D-04 DE=-8.28D-06 OVMax= 8.34D-04

 Initial convergence to 1.0D-05 achieved.  Increase integral accuracy.
 Cycle   7  Pass 1  IDiag  1:
 E= -541.422605946588     Delta-E=        0.000008055877 Rises=F Damp=F
 DIIS: error= 2.94D-05 at cycle   1 NSaved=   1.
 NSaved= 1 IEnMin= 1 EnMin= -541.422605946588     IErMin= 1 ErrMin= 2.94D-05
 ErrMax= 2.94D-05  0.00D+00 EMaxC= 1.00D-01 BMatC= 4.03D-07 BMatP= 4.03D-07
 IDIUse=1 WtCom= 1.00D+00 WtEn= 0.00D+00
 Coeff-Com:  0.100D+01
 Coeff:      0.100D+01
 Gap=     0.161 Goal=   None    Shift=    0.000
 RMSDP=5.58D-06 MaxDP=4.24D-04 DE= 8.06D-06 OVMax= 6.12D-04

 Cycle   8  Pass 1  IDiag  1:
 E= -541.422604696749     Delta-E=        0.000001249839 Rises=F Damp=F
 DIIS: error= 9.29D-05 at cycle   2 NSaved=   2.
 NSaved= 2 IEnMin= 1 EnMin= -541.422605946588     IErMin= 1 ErrMin= 2.94D-05
 ErrMax= 9.29D-05  0.00D+00 EMaxC= 1.00D-01 BMatC= 1.91D-06 BMatP= 4.03D-07
 IDIUse=1 WtCom= 1.00D+00 WtEn= 0.00D+00
 Coeff-Com:  0.698D+00 0.302D+00
 Coeff:      0.698D+00 0.302D+00
 Gap=     0.161 Goal=   None    Shift=    0.000
 RMSDP=4.23D-06 MaxDP=2.87D-04 DE= 1.25D-06 OVMax= 5.67D-04

 Cycle   9  Pass 1  IDiag  1:
 E= -541.422606212967     Delta-E=       -0.000001516218 Rises=F Damp=F
 DIIS: error= 2.08D-05 at cycle   3 NSaved=   3.
 NSaved= 3 IEnMin= 3 EnMin= -541.422606212967     IErMin= 3 ErrMin= 2.08D-05
 ErrMax= 2.08D-05  0.00D+00 EMaxC= 1.00D-01 BMatC= 6.95D-08 BMatP= 4.03D-07
 IDIUse=1 WtCom= 1.00D+00 WtEn= 0.00D+00
 Coeff-Com:  0.277D+00 0.182D+00 0.541D+00
 Coeff:      0.277D+00 0.182D+00 0.541D+00
 Gap=     0.161 Goal=   None    Shift=    0.000
 RMSDP=1.10D-06 MaxDP=7.19D-05 DE=-1.52D-06 OVMax= 1.53D-04

 Cycle  10  Pass 1  IDiag  1:
 E= -541.422606243789     Delta-E=       -0.000000030822 Rises=F Damp=F
 DIIS: error= 9.00D-06 at cycle   4 NSaved=   4.
 NSaved= 4 IEnMin= 4 EnMin= -541.422606243789     IErMin= 4 ErrMin= 9.00D-06
 ErrMax= 9.00D-06  0.00D+00 EMaxC= 1.00D-01 BMatC= 2.88D-08 BMatP= 6.95D-08
 IDIUse=1 WtCom= 1.00D+00 WtEn= 0.00D+00
 Coeff-Com:  0.286D-01 0.628D-01 0.425D+00 0.483D+00
 Coeff:      0.286D-01 0.628D-01 0.425D+00 0.483D+00
 Gap=     0.161 Goal=   None    Shift=    0.000
 RMSDP=5.19D-07 MaxDP=3.13D-05 DE=-3.08D-08 OVMax= 5.81D-05

 Cycle  11  Pass 1  IDiag  1:
 E= -541.422606266773     Delta-E=       -0.000000022984 Rises=F Damp=F
 DIIS: error= 1.62D-06 at cycle   5 NSaved=   5.
 NSaved= 5 IEnMin= 5 EnMin= -541.422606266773     IErMin= 5 ErrMin= 1.62D-06
 ErrMax= 1.62D-06  0.00D+00 EMaxC= 1.00D-01 BMatC= 2.52D-09 BMatP= 2.88D-08
 IDIUse=1 WtCom= 1.00D+00 WtEn= 0.00D+00
 Coeff-Com: -0.708D-02 0.252D-01 0.232D+00 0.315D+00 0.434D+00
 Coeff:     -0.708D-02 0.252D-01 0.232D+00 0.315D+00 0.434D+00
 Gap=     0.161 Goal=   None    Shift=    0.000
 RMSDP=1.50D-07 MaxDP=1.11D-05 DE=-2.30D-08 OVMax= 1.61D-05

 Cycle  12  Pass 1  IDiag  1:
 E= -541.422606268693     Delta-E=       -0.000000001921 Rises=F Damp=F
 DIIS: error= 4.22D-07 at cycle   6 NSaved=   6.
 NSaved= 6 IEnMin= 6 EnMin= -541.422606268693     IErMin= 6 ErrMin= 4.22D-07
 ErrMax= 4.22D-07  0.00D+00 EMaxC= 1.00D-01 BMatC= 1.37D-10 BMatP= 2.52D-09
 IDIUse=1 WtCom= 1.00D+00 WtEn= 0.00D+00
 Coeff-Com: -0.578D-02 0.115D-01 0.114D+00 0.159D+00 0.268D+00 0.453D+00
 Coeff:     -0.578D-02 0.115D-01 0.114D+00 0.159D+00 0.268D+00 0.453D+00
 Gap=     0.161 Goal=   None    Shift=    0.000
 RMSDP=4.16D-08 MaxDP=3.14D-06 DE=-1.92D-09 OVMax= 3.69D-06

 Cycle  13  Pass 1  IDiag  1:
 E= -541.422606268797     Delta-E=       -0.000000000103 Rises=F Damp=F
 DIIS: error= 1.33D-07 at cycle   7 NSaved=   7.
 NSaved= 7 IEnMin= 7 EnMin= -541.422606268797     IErMin= 7 ErrMin= 1.33D-07
 ErrMax= 1.33D-07  0.00D+00 EMaxC= 1.00D-01 BMatC= 1.08D-11 BMatP= 1.37D-10
 IDIUse=1 WtCom= 1.00D+00 WtEn= 0.00D+00
 Coeff-Com: -0.304D-02 0.499D-02 0.514D-01 0.719D-01 0.132D+00 0.274D+00
 Coeff-Com:  0.468D+00
 Coeff:     -0.304D-02 0.499D-02 0.514D-01 0.719D-01 0.132D+00 0.274D+00
 Coeff:      0.468D+00
 Gap=     0.161 Goal=   None    Shift=    0.000
 RMSDP=1.26D-08 MaxDP=7.97D-07 DE=-1.03D-10 OVMax= 1.42D-06

 Cycle  14  Pass 1  IDiag  1:
 E= -541.422606268808     Delta-E=       -0.000000000012 Rises=F Damp=F
 DIIS: error= 4.34D-08 at cycle   8 NSaved=   8.
 NSaved= 8 IEnMin= 8 EnMin= -541.422606268808     IErMin= 8 ErrMin= 4.34D-08
 ErrMax= 4.34D-08  0.00D+00 EMaxC= 1.00D-01 BMatC= 1.03D-12 BMatP= 1.08D-11
 IDIUse=1 WtCom= 1.00D+00 WtEn= 0.00D+00
 Coeff-Com: -0.475D-03 0.495D-03 0.516D-02 0.732D-02 0.203D-01 0.550D-01
 Coeff-Com:  0.257D+00 0.655D+00
 Coeff:     -0.475D-03 0.495D-03 0.516D-02 0.732D-02 0.203D-01 0.550D-01
 Coeff:      0.257D+00 0.655D+00
 Gap=     0.161 Goal=   None    Shift=    0.000
 RMSDP=3.80D-09 MaxDP=3.16D-07 DE=-1.18D-11 OVMax= 4.15D-07

 SCF Done:  E(RB3LYP) =  -541.422606269     A.U. after   14 cycles
            NFock= 14  Conv=0.38D-08     -V/T= 2.0053
 KE= 5.385418774217D+02 PE=-2.353784363092D+03 EE= 7.300928115171D+02
 Leave Link  502 at Wed Aug 25 06:40:19 2021, MaxMem= 24159191040 cpu:       199.6
 (Enter /public/home/users/caep010/software/Gaussian09/g09/l701.exe)
 Compute integral first derivatives.
 ... and contract with generalized density number  0.
 Leave Link  701 at Wed Aug 25 06:40:20 2021, MaxMem= 24159191040 cpu:        14.6
 (Enter /public/home/users/caep010/software/Gaussian09/g09/l702.exe)
 L702 exits ... SP integral derivatives will be done elsewhere.
 Leave Link  702 at Wed Aug 25 06:40:20 2021, MaxMem= 24159191040 cpu:         0.5
 (Enter /public/home/users/caep010/software/Gaussian09/g09/l703.exe)
 Compute integral first derivatives, UseDBF=F ICtDFT=           0.
 Integral derivatives from FoFJK, PRISM(SPDF).
 Calling FoFJK, ICntrl=      2127 FMM=F ISym2X=0 I1Cent= 0 IOpClX= 0 NMat=1 NMatS=1 NMatT=0.
 FoFJK:  IHMeth= 1 ICntrl=    2127 DoSepK=F KAlg= 0 I1Cent=   0 FoldK=F
 IRaf=         0 NMat=   1 IRICut=       1 DoRegI=T DoRafI=F ISym2E= 0.
 FoFCou: FMM=F IPFlag=           0 FMFlag=      100000 FMFlg1=         800
         NFxFlg=           0 DoJE=F BraDBF=F KetDBF=F FulRan=T
         wScrn=  0.000000 ICntrl=    2127 IOpCl=  0 I1Cent=           0 NGrid=           0
         NMat0=    1 NMatS0=      1 NMatT0=    0 NMatD0=    1 NMtDS0=    0 NMtDT0=    0
 Symmetry not used in FoFCou.
 Leave Link  703 at Wed Aug 25 06:40:24 2021, MaxMem= 24159191040 cpu:       133.1
 (Enter /public/home/users/caep010/software/Gaussian09/g09/l716.exe)
 Dipole        =-1.65910616D+00 1.03413006D+00-1.86982120D-02
 ***** Axes restored to original set *****
 -------------------------------------------------------------------
 Center     Atomic                   Forces (Hartrees/Bohr)
 Number     Number              X              Y              Z
 -------------------------------------------------------------------
      1        7          -0.004912762    0.004929031   -0.005683909
      2        8           0.003116283    0.000622610    0.004081063
      3        8           0.001169862   -0.002203853    0.001340277
      4        6          -0.002040481    0.000661600   -0.003195684
      5        7           0.000441275    0.000195960    0.000197663
      6        7          -0.001719484   -0.000603529    0.002331572
      7        7          -0.000210420   -0.001794858   -0.000151771
      8        6           0.002111763   -0.003241931    0.000523104
      9        7          -0.043289816   -0.037823062   -0.049782033
     10        1           0.042835484   -0.042783491    0.054123140
     11        1           0.000518215    0.081563755   -0.003904122
     12        6           0.013390477    0.042614924    0.010676595
     13        1           0.040677795   -0.025178376   -0.017297096
     14        1          -0.034849237    0.005435374   -0.034857159
     15        1          -0.017238955   -0.022394155    0.041598360
 -------------------------------------------------------------------
 Cartesian Forces:  Max     0.081563755 RMS     0.025337190
[...]
    12  C   -0.067851   0.002272  -0.000405  -0.000245   0.000057   5.076350
    13  H   -0.001725   0.000401  -0.000300  -0.000009  -0.000013   0.407850
    14  H    0.004042  -0.002263   0.000140   0.000000  -0.000002   0.409491
    15  H    0.006240   0.004254  -0.000277   0.000016   0.000012   0.406263
              13         14         15
     1  N   -0.000201  -0.000419   0.000183
     2  O   -0.000013  -0.000013  -0.000023
     3  O    0.000012  -0.000018  -0.000011
     4  C    0.002164   0.003440  -0.002190
     5  N    0.004535  -0.002063  -0.001101
     6  N   -0.039345  -0.027021  -0.040681
     7  N   -0.001725   0.004042   0.006240
     8  C    0.000401  -0.002263   0.004254
     9  N   -0.000300   0.000140  -0.000277
    10  H   -0.000009   0.000000   0.000016
    11  H   -0.000013  -0.000002   0.000012
    12  C    0.407850   0.409491   0.406263
    13  H    0.460573  -0.017303  -0.025957
    14  H   -0.017303   0.414478  -0.017283
    15  H   -0.025957  -0.017283   0.460739
 Mulliken charges:
               1
     1  N    0.473428
     2  O   -0.451708
     3  O   -0.397267
     4  C    0.259224
     5  N   -0.319473
     6  N    0.403649
     7  N   -0.452994
     8  C    0.390648
     9  N   -0.715979
    10  H    0.337969
    11  H    0.358672
    12  C   -0.540107
    13  H    0.209331
    14  H    0.234792
    15  H    0.209816
 Sum of Mulliken charges =  -0.00000
 Mulliken charges with hydrogens summed into heavy atoms:
               1
     1  N    0.473428
     2  O   -0.451708
     3  O   -0.397267
     4  C    0.259224
     5  N   -0.319473
     6  N    0.403649
     7  N   -0.452994
     8  C    0.390648
     9  N   -0.019339
    12  C    0.113831
 Electronic spatial extent (au):  <R**2>=           1391.1720
 Charge=              0.0000 electrons
 Dipole moment (field-independent basis, Debye):
    X=             -4.6334    Y=              2.1206    Z=              0.6973  Tot=              5.1431
 Quadrupole moment (field-independent basis, Debye-Ang):
   XX=            -56.9050   YY=            -56.7082   ZZ=            -56.9401
   XY=              9.1976   XZ=              0.4325   YZ=              2.1476
 Traceless Quadrupole moment (field-independent basis, Debye-Ang):
   XX=             -0.0539   YY=              0.1429   ZZ=             -0.0890
   XY=              9.1976   XZ=              0.4325   YZ=              2.1476
 Octapole moment (field-independent basis, Debye-Ang**2):
  XXX=            -49.7489  YYY=             31.5472  ZZZ=              0.6580  XYY=              1.2166
  XXY=             -6.9544  XXZ=              0.4834  XZZ=              2.9107  YZZ=             -4.1442
  YYZ=              6.8854  XYZ=              1.4731
 Hexadecapole moment (field-independent basis, Debye-Ang**3):
 XXXX=          -1087.8747 YYYY=           -480.0330 ZZZZ=            -60.2646 XXXY=             58.2195
 XXXZ=             -0.0028 YYYX=             32.0353 YYYZ=             20.1917 ZZZX=              0.6458
 ZZZY=              2.0036 XXYY=           -285.8107 XXZZ=           -188.3492 YYZZ=           -109.7585
 XXYZ=              1.9500 YYXZ=              4.0770 ZZXY=             -4.1528
 N-N= 5.417374783511D+02 E-N=-2.347197473288D+03  KE= 5.376551025829D+02
 No NMR shielding tensors so no spin-rotation constants.
 Leave Link  601 at Wed Aug 25 08:39:37 2021, MaxMem= 24159191040 cpu:        38.3
 (Enter /public/home/users/caep010/software/Gaussian09/g09/l9999.exe)
 1\1\GINC-B1035\SP\RHF\GFHFB2\C3H5N5O2\ROOT\25-Aug-2021\0\\#P Geom=AllC
 heck Guess=TCheck SCRF=Check HF/GFHFB2 SCF=Tight\\YALQEK\\0,1\N,0,-0.2
 512073522,3.200358485,6.6048673035\O,0,0.3839725965,4.0266895874,7.277
 3524943\O,0,-1.0030848995,3.476858996,5.6844504089\C,0,-0.0564243228,1
 .837446308,6.9631280804\N,0,-0.6310714704,0.8251388432,6.3022006012\N,
 0,-0.1754072824,-0.2275357,6.9255243325\N,0,0.6611546073,-0.0086547314
 ,7.956450195\C,0,0.7541115991,1.3253061275,8.0064727568\N,0,1.46765743
 1,2.0008219538,8.9407954769\H,0,2.1850778394,1.4909877943,9.429283915\
 H,0,1.6287838479,2.9749141651,8.7355429775\C,0,-0.5440926764,-1.575186
 9795,6.5394304775\H,0,0.3533458548,-2.1380647674,6.2727063997\H,0,-1.2
 139647747,-1.4995793951,5.6850101045\H,0,-1.0444509976,-2.0721006869,7
 .3737844762\\Version=ES64L-G09RevE.01\State=1-A\HF=-538.5499541\RMSD=4
 .333e-09\Dipole=0.6447061,-1.8548408,0.4881525\Quadrupole=2.0071486,-0
 .4345274,-1.5726212,4.4342864,0.6606656,5.0968531\PG=C01 [X(C3H5N5O2)]
 \\@


 SACRED COWS MAKE GREAT HAMBURGERS -- ROBERT REISNER
 Diagonal vibrational polarizability:
        0.0000000       0.0000000       0.0000000

 Temperature=              298.150000 Pressure=                      1.000000
 E(ZPE)=                     0.105336 E(Thermal)=                    0.114324
 E(CCSD(T))=              -539.968472 E(Empiric)=                   -0.187569
 DE(Plus)=                  -0.040980 DE(2DF)=                      -0.380185
 E(Delta-G3XP)=             -0.661314 DE(HF)=                       -0.052904
 G4(0 K)=                 -541.186088 G4 Energy=                  -541.177101
 G4 Enthalpy=             -541.176156 G4 Free Energy=             -541.220551
 1\1\GINC-B1035\Mixed\G4\G4\C3H5N5O2\ROOT\25-Aug-2021\0\\#P Geom=AllChe
 ck Guess=TCheck SCRF=Check HF/GFHFB2 SCF=Tight\\YALQEK\\0,1\N,0,-0.251
 2073522,3.200358485,6.6048673035\O,0,0.3839725965,4.0266895874,7.27735
 24943\O,0,-1.0030848995,3.476858996,5.6844504089\C,0,-0.0564243228,1.8
 37446308,6.9631280804\N,0,-0.6310714704,0.8251388432,6.3022006012\N,0,
 -0.1754072824,-0.2275357,6.9255243325\N,0,0.6611546073,-0.0086547314,7
 .956450195\C,0,0.7541115991,1.3253061275,8.0064727568\N,0,1.467657431,
 2.0008219538,8.9407954769\H,0,2.1850778394,1.4909877943,9.429283915\H,
 0,1.6287838479,2.9749141651,8.7355429775\C,0,-0.5440926764,-1.57518697
 95,6.5394304775\H,0,0.3533458548,-2.1380647674,6.2727063997\H,0,-1.213
 9647747,-1.4995793951,5.6850101045\H,0,-1.0444509976,-2.0721006869,7.3
 737844762\\Version=ES64L-G09RevE.01\State=1-A\MP2/GTBas1=-539.8908045\
 MP4/GTBas1=-539.9859763\CCSD(T)/G3Bas1=-539.968472\MP2/GTBas2=-539.929
 1063\MP4/GTBas2=-540.0269563\MP2/GTBas3=-540.2494161\MP4/GTBas3=-540.3
 661609\HF/GTLargeXP=-538.4990981\MP2/GTLargeXP=-540.949032\HF/GFHFB1=-
 538.5415485\HF/GFHFB2=-538.5499541\G4=-541.1860882\FreqCoord=-0.474713
 0983,6.0478010636,12.4813903476,0.7256030499,7.6093405422,13.752203186
 8,-1.8955557481,6.5703113052,10.7420544887,-0.1066265173,3.4722703061,
 13.1584051003,-1.1925522494,1.5592864353,11.9094331707,-0.3314717255,-
 0.4299801585,13.0873443151,1.2494011393,-0.0163550721,15.0355118584,1.
 425064396,2.5044656233,15.1300408008,2.7734706015,3.7810055333,16.8956
 548616,4.1291986954,2.8175585987,17.8187642285,3.0779554022,5.62177304
 1,16.5077838495,-1.0281861494,-2.9766719993,12.3577326676,0.6677268957
 ,-4.0403568647,11.8536972074,-2.2940609591,-2.8337943713,10.7431121602
 ,-1.9737263446,-3.9157028181,13.934433223\PG=C01 [X(C3H5N5O2)]\NImag=0
 \\0.53043540,0.03931972,0.68707744,0.34314766,0.00404874,0.64620678,-0
 .18423852,-0.11561720,-0.11351151,0.19838726,-0.13299734,-0.31066128,-
 0.13527316,0.16937789,0.35120803,-0.11239976,-0.11431926,-0.20034184,0
 .18192104,0.17068676,0.22965898,-0.25781739,0.06436213,-0.21639991,-0.
 02766781,-0.01248189,-0.06192572,0.28495436,0.07457037,-0.16272895,0.0
 9680393,-0.03384873,0.03759190,-0.04136863,-0.07556180,0.15011434,-0.2
 1736232,0.08405252,-0.34757083,-0.06025597,-0.01571587,-0.04318578,0.3
 0907996,-0.10129761,0.40771359,-0.08494968,0.01582730,-0.01637945,0.01
 205274,-0.02971960,-0.00563238,-0.00410899,0.03281538,-0.03251716,0.33
 129376,0.01436431,-0.16350317,0.02648470,-0.02611495,-0.06661294,-0.02
 371347,0.02725727,-0.01901850,0.03641572,0.01968351,0.73842444,-0.0162
 5199,0.02701317,-0.09672546,-0.00644168,-0.02756021,0.01488529,-0.0318
 0390,0.04291997,-0.02174755,0.25627617,-0.01707052,0.44824605,-0.00224
 048,-0.00516246,0.01549603,0.00564324,0.00531557,-0.00046783,0.0000988
 4,0.00139593,-0.00117874,-0.13061169,-0.06539170,-0.08074237,0.2754452
 7,-0.00681407,-0.05588191,-0.00621259,0.00198508,0.00039882,0.00312030
 ,-0.00662649,0.00326842,-0.00828766,-0.09079765,-0.19222239,-0.1063877
 5,0.01361947,0.55790996,0.01560367,-0.00311242,0.00559217,0.00013925,0
 .00730794,0.00460361,-0.00052205,0.00144629,0.00017281,-0.07993692,-0.
 07531518,-0.15910141,0.21524245,-0.00753382,0.37185690,-0.00039680,-0.
 00436060,-0.00726429,-0.00038764,-0.00163688,0.00032231,-0.00000722,0.
 00215607,-0.00004207,0.00094435,-0.00072909,-0.01682605,-0.11184790,0.
 09278598,-0.05946498,0.34139893,-0.00879018,0.01652428,-0.01191010,-0.
 00155234,-0.00686138,-0.00143344,0.00341435,-0.00182875,0.00448239,-0.
 01772928,-0.15211731,-0.01246739,0.04554671,-0.25759874,0.06624991,0.0
 4475259,0.85943487,-0.00718430,-0.00560180,-0.00285711,0.00030217,-0.0
 0185497,-0.00014178,-0.00004381,0.00276475,-0.00022545,-0.01614901,0.0
 0806760,-0.00550309,-0.05685936,0.12577756,-0.14638462,0.23901580,0.01
 780954,0.44453215,0.00131017,0.00081342,-0.00674254,0.00040428,0.00036
 645,0.00017632,-0.00047564,0.00148094,0.00176395,0.01799400,-0.0001849
 7,0.00246220,-0.01824211,0.01926175,-0.06252644,-0.13895231,0.00952397
 ,-0.09139777,0.23617166,0.00448888,-0.00257891,0.00585046,0.00172170,0
 .00244015,0.00215201,0.00049288,-0.00333879,0.00062777,0.04757083,-0.0
 3756194,0.06224223,0.00189938,-0.04494390,0.00698777,-0.03434597,-0.10
 766491,-0.04092636,0.01227129,0.56350164,-0.00708417,0.00171101,-0.001
 69329,0.00016498,0.00040369,0.00033346,0.00182718,0.00192514,-0.000059
 64,0.00045560,0.00235056,0.01530921,-0.06145697,0.02808463,-0.04674623
 ,-0.09049013,0.01323987,-0.17883267,0.18594517,-0.00630530,0.32210780,
 -0.00078247,0.02229036,0.00620232,-0.00670635,-0.00723894,-0.00658252,
 0.00466861,-0.00631505,0.00011833,-0.13771800,0.03251268,-0.08349012,-
 0.01652716,-0.02983258,-0.03610163,-0.00909475,-0.03248333,-0.01731399
 ,-0.09625129,0.00178335,-0.02855296,0.43728507,0.01876806,-0.00098300,
 0.02267862,-0.00321197,-0.00308958,-0.00363712,-0.00110168,-0.00557869
 ,-0.00043552,0.01458123,-0.12384632,0.02242964,0.01201435,0.03531178,0
 .01313502,-0.05059020,-0.07610970,-0.05783413,-0.01150225,-0.33953638,
 -0.00120864,0.10268819,0.70163320,0.00725350,0.02998401,-0.00174464,-0
 .00838471,-0.00978748,-0.00907386,-0.00006218,-0.00762319,0.00588314,-
 0.08238124,0.03999994,-0.17757880,-0.03891498,-0.03611208,-0.03210648,
 -0.01470977,-0.03702396,-0.00929058,-0.03066902,0.01633570,-0.11133867
 ,0.32091406,0.09912472,0.56338181,0.00005929,-0.00712994,0.00077142,0.
 00012676,0.00461562,-0.00144259,-0.00126468,0.00130537,-0.00119651,-0.
 00859431,-0.00618964,-0.01881741,0.00006911,-0.00382588,-0.00416164,-0
 .00129627,0.00215189,-0.00741775,0.00557993,-0.00948336,0.00168305,-0.
 15844760,-0.07802458,-0.15683819,0.45952100,-0.00301453,-0.01433723,-0
 .00231468,0.00688953,0.00434248,0.00761051,0.00128347,0.00240096,0.000
 77188,0.00506099,0.02634643,0.00610671,-0.00058350,-0.01260135,0.00156
 646,-0.00229091,-0.00251141,-0.00406236,-0.02958239,-0.03288279,-0.037
 56801,-0.05776017,-0.18321193,-0.07909974,0.01955526,0.80562610,0.0001
 1590,-0.01817361,0.00147795,0.00186119,0.00807643,0.00255471,-0.002225
 21,0.00328318,-0.00326546,-0.02048979,0.00224902,-0.02229695,-0.003817
 42,-0.00940962,-0.00075402,-0.01145553,0.00545515,-0.00895017,0.007369
 33,-0.01673326,0.01166604,-0.12406988,-0.07449307,-0.20541975,0.352150
 88,-0.08518316,0.37991394,-0.00033450,-0.00145189,-0.00087211,0.001196
 92,0.00005920,0.00089536,-0.00019808,0.00033072,0.00050841,0.00071361,
 -0.00060245,-0.00057800,0.00167568,-0.00047302,-0.00099525,-0.00128211
 ,-0.00011886,-0.00068685,0.00114945,0.00095698,0.00241254,-0.01344347,
 0.01122838,-0.00321147,-0.24518131,0.14405514,-0.17884618,0.25000307,-
 0.00071312,-0.00341634,-0.00046472,0.00183771,0.00034596,0.00246778,0.
 00022048,0.00063405,0.00007110,-0.00168135,-0.00131912,-0.00197180,-0.
 00052700,-0.00112764,-0.00102262,-0.00117999,-0.00026875,-0.00108376,0
 .00161167,0.00112822,0.00095593,-0.01519402,0.01634601,-0.01039215,0.1
 3867855,-0.17437025,0.10303323,-0.14913403,0.16681834,-0.00068363,0.00
 242026,-0.00034115,-0.00092213,-0.00039219,-0.00060983,0.00091240,-0.0
 0041056,0.00031960,-0.00083435,-0.00532390,0.00219102,-0.00153291,0.00
 121952,0.00018430,0.00196839,-0.00000878,-0.00015632,0.00170825,0.0030
 5458,0.00092012,-0.02343885,0.01066929,-0.02249122,-0.14881893,0.09262
 149,-0.10770577,0.17245241,-0.10322298,0.13171894,-0.00426860,-0.00822
 683,-0.00315280,0.00195723,0.00354428,0.00443679,0.00206554,0.00141280
 ,0.00100374,-0.00051056,0.00330383,-0.00068906,-0.00156277,-0.00226202
 ,0.00015374,0.00128786,0.00035217,-0.00231986,-0.00154709,-0.00187307,
 -0.00213057,-0.00046228,-0.01558846,0.01354495,-0.05185673,-0.08252385
 ,-0.02137378,0.00566388,0.02600077,-0.00093737,0.04909649,0.00177184,0
 .01031690,0.00129665,-0.00120751,-0.00856304,-0.00127534,-0.00138758,-
 0.00193990,-0.00077944,0.00195742,-0.00320502,0.00117075,0.00140684,0.
 00166050,0.00093913,0.00049007,-0.00170680,0.00104982,-0.00170141,0.00
 398518,-0.00070636,-0.00930082,-0.02021299,-0.00382784,-0.06263518,-0.
 42060834,0.07967704,-0.00484006,-0.00489752,-0.00027141,0.07554325,0.4
 4552020,-0.00382784,-0.00733241,-0.00476915,0.00433835,0.00327468,0.00
 183334,0.00111789,0.00125482,0.00228133,0.00044821,0.00225053,0.000273
 45,0.00050091,-0.00115510,-0.00109996,-0.00128402,-0.00076277,0.000963
 43,-0.00379650,-0.00117570,-0.00418638,-0.00157005,-0.03201291,0.00524
 067,-0.01604722,0.10112176,-0.04916583,0.00874307,0.01156469,-0.003960
 71,0.01192411,-0.07711477,0.05295911,0.00388816,-0.00187892,-0.0010908
 0,-0.00067158,0.00124331,0.00096874,-0.00053860,0.00044135,-0.00022152
 ,0.00443252,0.00481228,-0.00331317,-0.00195666,0.00881870,0.01269776,-
 0.08235268,-0.02942126,-0.03089318,-0.00936586,-0.02507714,-0.00364645
 ,-0.00339511,0.00151971,-0.00627422,0.00116140,-0.00123165,0.00049752,
 0.00002864,0.00007195,0.00013862,0.00010284,-0.00003086,-0.00059821,0.
 58638774,0.00028688,-0.00277581,0.00078890,-0.00002524,0.00075084,-0.0
 0010913,-0.00056295,0.00106922,-0.00082549,0.00454188,0.00077808,0.005
 89553,-0.00587373,-0.03829837,-0.00579543,-0.02991432,-0.20939401,-0.0
 2913536,-0.00543664,-0.00203034,-0.00679064,-0.00155577,0.00296390,-0.
 00249881,0.00145330,0.00245380,0.00314767,0.00002771,0.00024575,-0.000
 50095,0.00031960,-0.00032003,0.00005183,-0.03444759,0.50124903,-0.0012
 4957,-0.00207746,0.00350883,0.00109409,0.00132141,-0.00032724,-0.00022
 547,0.00049571,-0.00072492,-0.00299271,0.00680890,0.00261811,0.0134067
 5,0.01178231,0.00369188,-0.03069971,-0.02794678,-0.09268109,-0.0050206
 7,-0.03181292,-0.00991322,-0.00584075,0.00230631,-0.00613168,-0.000050
 11,-0.00183134,0.00154790,0.00015761,0.00005781,-0.00005983,-0.0005818
 2,-0.00004838,-0.00039063,0.01801617,-0.03908150,0.59802775,-0.0005787
 4,0.00035949,0.00021673,0.00001019,-0.00018697,-0.00017344,0.00016207,
 -0.00005150,0.00004171,0.00015806,-0.00117793,0.00041981,0.00026734,-0
 .00061362,-0.00056919,0.01229721,-0.00719676,-0.00405229,0.00037061,0.
 00011527,0.00013718,0.00031470,0.00003256,-0.00019306,0.00004176,0.000
 22230,0.00038252,-0.00001574,0.00003613,-0.00003648,0.00003428,-0.0000
 6142,0.00002902,-0.23893537,0.11375760,0.05451166,0.25064698,-0.001274
 66,0.00129346,-0.00013497,0.00007981,-0.00066392,-0.00028247,0.0002864
 8,-0.00030077,0.00027310,-0.00169154,-0.00265690,-0.00029574,0.0011282
 3,0.00044392,-0.00486772,0.02500693,-0.03030294,-0.00672439,0.00136898
 ,0.00279029,0.00170527,0.00075449,-0.00161681,0.00135876,-0.00040811,0
 .00004681,-0.00043801,-0.00002560,-0.00007233,0.00001536,0.00002116,-0
 .00001038,0.00010229,0.10527075,-0.10972531,-0.03158336,-0.11984628,0.
 13194375,-0.00048372,0.00081393,-0.00006957,-0.00007523,-0.00027668,-0
 .00016188,0.00017510,-0.00009891,0.00012970,-0.00006192,-0.00150920,-0
 .00077822,0.00016079,0.00270900,-0.00094788,0.00448698,-0.00904621,-0.
 00113195,0.00037642,0.00104933,0.00094695,0.00038772,-0.00080807,0.000
 27139,-0.00009378,0.00021053,0.00012056,-0.00003432,-0.00003508,-0.000
 00255,0.00004946,-0.00006243,0.00005459,0.05273209,-0.03131560,-0.0642
 8254,-0.05929801,0.03735391,0.06238479,-0.00009688,0.00010088,0.000037
 16,0.00002267,-0.00000998,-0.00001683,0.00003719,-0.00002870,0.0000741
 3,-0.00018139,-0.00020509,0.00011433,0.00069263,0.00191201,0.00064505,
 -0.00852902,0.00027450,-0.00804021,0.00088216,-0.00161781,0.00018615,0
 .00032220,0.00008397,-0.00053024,0.00001932,-0.00021992,0.00005792,0.0
 0002857,0.00001736,0.00000989,-0.00004901,0.00002031,-0.00003203,-0.15
 426081,0.01025998,-0.13491629,-0.01330491,0.00073220,-0.02018489,0.163
 13338,-0.00022697,0.00041985,-0.00028418,0.00003692,-0.00001978,0.0000
 3047,0.00021195,-0.00004172,0.00026092,-0.00030264,-0.00064820,-0.0003
 6117,0.00009761,0.00288143,-0.00002524,-0.02566472,-0.00105600,-0.0324
 4031,0.00019532,-0.00604353,0.00054256,-0.00132152,-0.00038687,-0.0016
 2464,0.00007151,-0.00073963,0.00017748,0.00003179,0.00001896,0.0000623
 0,-0.00009058,-0.00003453,-0.00015443,0.02094919,-0.05235407,0.0267738
 0,0.00758803,0.00010034,0.01331690,-0.01141790,0.05792390,0.00004732,0
 .00011035,-0.00007972,-0.00001418,-0.00000749,0.00001041,0.00006556,-0
 .00003575,0.00006439,0.00010349,-0.00027500,-0.00008334,0.00075311,0.0
 0228603,0.00090496,-0.00651370,0.00025251,-0.01033161,0.00015892,-0.00
 159496,0.00099593,-0.00045575,0.00016872,0.00015684,0.00003459,-0.0002
 0890,0.00006635,0.00001192,0.00002174,0.00003468,-0.00000926,0.0000071
 8,-0.00005698,-0.13556253,0.01325443,-0.22125596,0.00664829,0.00035881
 ,0.00881289,0.14962347,-0.01532102,0.23649571,0.00001103,0.00075453,-0
 .00045790,-0.00012939,-0.00025071,-0.00007949,0.00009181,-0.00010316,0
 .00018408,-0.00091442,-0.00133805,-0.00031875,-0.00090332,0.00286234,-
 0.00020382,-0.00178165,-0.00872417,0.00304041,0.00097205,0.00109678,0.
 00054938,0.00023791,-0.00089731,0.00045656,0.00006232,0.00014021,-0.00
 015747,-0.00000462,-0.00004512,0.00001469,0.00004892,-0.00002487,0.000
 05428,-0.10452464,-0.05283071,0.09439082,-0.01146843,-0.01140283,0.021
 86333,0.01128390,0.00984200,-0.01489125,0.10701853,0.00026081,0.001234
 67,-0.00135761,-0.00035070,-0.00060628,0.00007102,0.00019338,-0.000302
 83,0.00038618,-0.00011649,-0.00283714,-0.00166342,-0.00488570,0.000799
 46,0.00003992,-0.01447896,-0.02853847,0.02419418,0.00151386,0.00273601
 ,0.00166029,0.00097313,-0.00168262,0.00118674,-0.00013482,0.00004634,-
 0.00066847,-0.00004400,-0.00006535,0.00006798,0.00006697,0.00001578,0.
 00008749,-0.05103984,-0.09461268,0.08483548,0.00702311,0.00873079,-0.0
 1230142,0.00009818,-0.00002015,0.00098335,0.06092106,0.11510247,0.0003
 5923,0.00046298,-0.00059296,-0.00021565,-0.00020288,-0.00003758,0.0000
 3014,-0.00005914,0.00021507,0.00009146,-0.00141971,0.00029169,-0.00058
 945,0.00011928,0.00013397,-0.00704320,-0.00688995,0.01099088,0.0001923
 7,0.00024864,0.00049061,-0.00020594,-0.00008286,0.00024185,0.00024419,
 0.00025885,0.00021051,0.00004286,0.00002084,-0.00004129,0.00008171,-0.
 00005457,0.00002374,0.09654920,0.09291455,-0.21362733,0.00193555,0.003
 15914,-0.00534625,0.01297239,0.00904655,-0.01573455,-0.10444486,-0.097
 52172,0.22278164\\-0.00000425,-0.00000200,-0.00000125,0.00000182,-0.00
 000158,0.00000047,-0.00000889,-0.00000241,-0.00000230,-0.00000155,-0.0
 0000218,-0.00000075,-0.00000153,0.00000056,0.00000220,0.00000155,-0.00
 000242,0.00000038,0.00000304,0.00000148,0.00000217,-0.00000091,-0.0000
 0510,-0.00000200,0.00003363,-0.00006254,0.00003161,-0.00003655,0.00002
 964,-0.00003653,0.00000994,0.00005383,-0.00001032,-0.00002466,0.000007
 64,-0.00000635,0.00001389,-0.00000923,-0.00000210,0.00001029,-0.000005
 09,0.00001870,0.00000418,-0.00000059,0.00000607\\\@
 Job cpu time:       0 days 12 hours  7 minutes 17.5 seconds.
 File lengths (MBytes):  RWF=  37731 Int=      0 D2E=      0 Chk=     75 Scr=      1
 Normal termination of Gaussian 09 at Wed Aug 25 08:39:37 2021.
