 Entering Gaussian System, Link 0=g09
 Input=G4.ZZZTLC01.gjf
 Output=G4.ZZZTLC01.log
 Initial command:
 /public/home/users/caep010/software/Gaussian09/g09/l1.exe "/public/home/users/caep010/.cache/gau_scr/Gau-110458.inp" -scrdir="/public/home/users/caep010/.cache/gau_scr/"
 Entering Link 1 = /public/home/users/caep010/software/Gaussian09/g09/l1.exe PID=    110459.
  
 Copyright (c) 1988,1990,1992,1993,1995,1998,2003,2009,2015,
            Gaussian, Inc.  All Rights Reserved.
  
 This is part of the Gaussian(R) 09 program.  It is based on
 the Gaussian(R) 03 system (copyright 2003, Gaussian, Inc.),
 the Gaussian(R) 98 system (copyright 1998, Gaussian, Inc.),
 the Gaussian(R) 94 system (copyright 1995, Gaussian, Inc.),
 the Gaussian 92(TM) system (copyright 1992, Gaussian, Inc.),
 the Gaussian 90(TM) system (copyright 1990, Gaussian, Inc.),
 the Gaussian 88(TM) system (copyright 1988, Gaussian, Inc.),
 the Gaussian 86(TM) system (copyright 1986, Carnegie Mellon
 University), and the Gaussian 82(TM) system (copyright 1983,
 Carnegie Mellon University). Gaussian is a federally registered
 trademark of Gaussian, Inc.
  
 This software contains proprietary and confidential information,
 including trade secrets, belonging to Gaussian, Inc.
  
 This software is provided under written license and may be
 used, copied, transmitted, or stored only in accord with that
 written license.
  
 The following legend is applicable only to US Government
 contracts under FAR:
  
                    RESTRICTED RIGHTS LEGEND
  
 Use, reproduction and disclosure by the US Government is
 subject to restrictions as set forth in subparagraphs (a)
 and (c) of the Commercial Computer Software - Restricted
 Rights clause in FAR 52.227-19.
  
 Gaussian, Inc.
 340 Quinnipiac St., Bldg. 40, Wallingford CT 06492
  
  
 ---------------------------------------------------------------
 Warning -- This program may not be used in any manner that
 competes with the business of Gaussian, Inc. or will provide
 assistance to any competitor of Gaussian, Inc.  The licensee
 of this program is prohibited from giving any competitor of
 Gaussian, Inc. access to this program.  By using this program,
 the user acknowledges that Gaussian, Inc. is engaged in the
 business of creating and licensing software in the field of
 computational chemistry and represents and warrants to the
 licensee that it is not a competitor of Gaussian, Inc. and that
 it will not use this program in any manner prohibited above.
 ---------------------------------------------------------------
  

 Cite this work as:
 Gaussian 09, Revision E.01,
 M. J. Frisch, G. W. Trucks, H. B. Schlegel, G. E. Scuseria, 
 M. A. Robb, J. R. Cheeseman, G. Scalmani, V. Barone, B. Mennucci, 
 G. A. Petersson, H. Nakatsuji, M. Caricato, X. Li, H. P. Hratchian, 
 A. F. Izmaylov, J. Bloino, G. Zheng, J. L. Sonnenberg, M. Hada, 
 M. Ehara, K. Toyota, R. Fukuda, J. Hasegawa, M. Ishida, T. Nakajima, 
 Y. Honda, O. Kitao, H. Nakai, T. Vreven, J. A. Montgomery, Jr., 
 J. E. Peralta, F. Ogliaro, M. Bearpark, J. J. Heyd, E. Brothers, 
 K. N. Kudin, V. N. Staroverov, T. Keith, R. Kobayashi, J. Normand, 
 K. Raghavachari, A. Rendell, J. C. Burant, S. S. Iyengar, J. Tomasi, 
 M. Cossi, N. Rega, J. M. Millam, M. Klene, J. E. Knox, J. B. Cross, 
 V. Bakken, C. Adamo, J. Jaramillo, R. Gomperts, R. E. Stratmann, 
 O. Yazyev, A. J. Austin, R. Cammi, C. Pomelli, J. W. Ochterski, 
 R. L. Martin, K. Morokuma, V. G. Zakrzewski, G. A. Voth, 
 P. Salvador, J. J. Dannenberg, S. Dapprich, A. D. Daniels, 
 O. Farkas, J. B. Foresman, J. V. Ortiz, J. Cioslowski, 
 and D. J. Fox, Gaussian, Inc., Wallingford CT, 2013.
 
 ******************************************
 Gaussian 09:  ES64L-G09RevE.01 30-Nov-2015
                27-Aug-2021 
 ******************************************
 %nproc=32
 Will use up to   32 processors via shared memory.
 %mem=180GB
 ----------------
 #P G4 OPT=calcfc
 ----------------
 1/10=4,14=-1,18=20,19=15,26=3,38=1/1,3;
 2/9=110,12=2,17=6,18=5,40=1/2;
 3/5=35,7=104,11=2,16=1,25=1,30=1,71=2,74=-5,140=1/1,2,3;
 4//1;
 5/5=2,38=5/2;
 8/6=4,10=90,11=11/1;
 11/6=1,8=1,9=11,15=111,16=1/1,2,10;
 10/6=1,13=1/2;
 6/7=2,8=2,9=2,10=2,28=1/1;
 7/10=1,18=20,25=1/1,2,3,16;
 1/10=4,14=-1,18=20,19=15,26=3/3(2);
 2/9=110/2;
 99//99;
 2/9=110/2;
 3/5=35,7=104,11=2,16=1,25=1,30=1,71=1,74=-5/1,2,3;
 4/5=5,16=3,69=1/1;
 5/5=2,38=5/2;
 7//1,2,3,16;
 1/14=-1,18=20,19=15,26=3/3(-5);
 2/9=110/2;
 6/7=2,8=2,9=2,10=2,19=2,28=1/1;
 99/9=1/99;
 Leave Link    1 at Fri Aug 27 10:23:43 2021, MaxMem= 24159191040 cpu:        16.1
 (Enter /public/home/users/caep010/software/Gaussian09/g09/l101.exe)
 --------
 ZZZTLC01
 --------
 Symbolic Z-matrix:
 Charge =  0 Multiplicity = 1
 N                     5.9178    2.7327    0.4865 
 O                     5.5565    1.656     0.0562 
 O                     5.5565    3.8095    0.0562 
 N                     6.878     2.7327    1.4676 
 C                     6.9556    1.5107    2.2468 
 C                     6.9556    3.9548    2.2468 
 C                     8.2383    1.4965    3.0524 
 C                     8.2383    3.969     3.0524 
 N                     8.3305    2.7327    3.817 
 N                     9.2555    2.7327    4.8241 
 H                     6.9338    0.7433    1.6539 
 H                     6.9338    4.7222    1.6539 
 H                     6.1942    1.4538    2.8435 
 H                     6.1942    4.0117    2.8435 
 H                     8.2408    0.7357    3.6534 
 H                     8.2408    4.7298    3.6534 
 H                     8.9997    1.4188    2.4579 
 H                     8.9997    4.0467    2.4579 
 O                     9.6205    1.6506    5.2712 
 O                     9.6205    3.8149    5.2712 
 
 NAtoms=     20 NQM=       20 NQMF=       0 NMMI=      0 NMMIF=      0
                NMic=       0 NMicF=      0.
                    Isotopes and Nuclear Properties:
 (Nuclear quadrupole moments (NQMom) in fm**2, nuclear magnetic moments (NMagM)
  in nuclear magnetons)

  Atom         1           2           3           4           5           6           7           8           9          10
 IAtWgt=          14          16          16          14          12          12          12          12          14          14
 AtmWgt=  14.0030740  15.9949146  15.9949146  14.0030740  12.0000000  12.0000000  12.0000000  12.0000000  14.0030740  14.0030740
 NucSpn=           2           0           0           2           0           0           0           0           2           2
 AtZEff=   0.0000000   0.0000000   0.0000000   0.0000000   0.0000000   0.0000000   0.0000000   0.0000000   0.0000000   0.0000000
 NQMom=    2.0440000   0.0000000   0.0000000   2.0440000   0.0000000   0.0000000   0.0000000   0.0000000   2.0440000   2.0440000
 NMagM=    0.4037610   0.0000000   0.0000000   0.4037610   0.0000000   0.0000000   0.0000000   0.0000000   0.4037610   0.4037610
 AtZNuc=   7.0000000   8.0000000   8.0000000   7.0000000   6.0000000   6.0000000   6.0000000   6.0000000   7.0000000   7.0000000

  Atom        11          12          13          14          15          16          17          18          19          20
 IAtWgt=           1           1           1           1           1           1           1           1          16          16
 AtmWgt=   1.0078250   1.0078250   1.0078250   1.0078250   1.0078250   1.0078250   1.0078250   1.0078250  15.9949146  15.9949146
 NucSpn=           1           1           1           1           1           1           1           1           0           0
 AtZEff=   0.0000000   0.0000000   0.0000000   0.0000000   0.0000000   0.0000000   0.0000000   0.0000000   0.0000000   0.0000000
 NQMom=    0.0000000   0.0000000   0.0000000   0.0000000   0.0000000   0.0000000   0.0000000   0.0000000   0.0000000   0.0000000
 NMagM=    2.7928460   2.7928460   2.7928460   2.7928460   2.7928460   2.7928460   2.7928460   2.7928460   0.0000000   0.0000000
 AtZNuc=   1.0000000   1.0000000   1.0000000   1.0000000   1.0000000   1.0000000   1.0000000   1.0000000   8.0000000   8.0000000
 Leave Link  101 at Fri Aug 27 10:23:44 2021, MaxMem= 24159191040 cpu:        22.1
 (Enter /public/home/users/caep010/software/Gaussian09/g09/l103.exe)

 GradGradGradGradGradGradGradGradGradGradGradGradGradGradGradGradGradGrad
 Berny optimization.
 Initialization pass.
                           ----------------------------
                           !    Initial Parameters    !
                           ! (Angstroms and Degrees)  !
 --------------------------                            --------------------------
 ! Name  Definition              Value          Derivative Info.                !
 --------------------------------------------------------------------------------
 ! R1    R(1,2)                  1.2145         calculate D2E/DX2 analytically  !
 ! R2    R(1,3)                  1.2146         calculate D2E/DX2 analytically  !
 ! R3    R(1,4)                  1.3728         calculate D2E/DX2 analytically  !
 ! R4    R(4,5)                  1.4514         calculate D2E/DX2 analytically  !
 ! R5    R(4,6)                  1.4514         calculate D2E/DX2 analytically  !
 ! R6    R(5,7)                  1.5148         calculate D2E/DX2 analytically  !
 ! R7    R(5,11)                 0.97           calculate D2E/DX2 analytically  !
 ! R8    R(5,13)                 0.969          calculate D2E/DX2 analytically  !
 ! R9    R(6,8)                  1.5148         calculate D2E/DX2 analytically  !
 ! R10   R(6,12)                 0.97           calculate D2E/DX2 analytically  !
 ! R11   R(6,14)                 0.969          calculate D2E/DX2 analytically  !
 ! R12   R(7,9)                  1.4565         calculate D2E/DX2 analytically  !
 ! R13   R(7,15)                 0.9695         calculate D2E/DX2 analytically  !
 ! R14   R(7,17)                 0.9691         calculate D2E/DX2 analytically  !
 ! R15   R(8,9)                  1.4566         calculate D2E/DX2 analytically  !
 ! R16   R(8,16)                 0.9695         calculate D2E/DX2 analytically  !
 ! R17   R(8,18)                 0.9691         calculate D2E/DX2 analytically  !
 ! R18   R(9,10)                 1.3674         calculate D2E/DX2 analytically  !
 ! R19   R(10,19)                1.2264         calculate D2E/DX2 analytically  !
 ! R20   R(10,20)                1.2265         calculate D2E/DX2 analytically  !
 ! A1    A(2,1,3)              124.8872         calculate D2E/DX2 analytically  !
 ! A2    A(2,1,4)              117.4708         calculate D2E/DX2 analytically  !
 ! A3    A(3,1,4)              117.4686         calculate D2E/DX2 analytically  !
 ! A4    A(1,4,5)              114.9034         calculate D2E/DX2 analytically  !
 ! A5    A(1,4,6)              114.9019         calculate D2E/DX2 analytically  !
 ! A6    A(5,4,6)              114.6988         calculate D2E/DX2 analytically  !
 ! A7    A(4,5,7)              109.7974         calculate D2E/DX2 analytically  !
 ! A8    A(4,5,11)             109.6789         calculate D2E/DX2 analytically  !
 ! A9    A(4,5,13)             109.7563         calculate D2E/DX2 analytically  !
 ! A10   A(7,5,11)             109.6752         calculate D2E/DX2 analytically  !
 ! A11   A(7,5,13)             109.7138         calculate D2E/DX2 analytically  !
 ! A12   A(11,5,13)            108.1959         calculate D2E/DX2 analytically  !
 ! A13   A(4,6,8)              109.7963         calculate D2E/DX2 analytically  !
 ! A14   A(4,6,12)             109.681          calculate D2E/DX2 analytically  !
 ! A15   A(4,6,14)             109.7553         calculate D2E/DX2 analytically  !
 ! A16   A(8,6,12)             109.6752         calculate D2E/DX2 analytically  !
 ! A17   A(8,6,14)             109.7138         calculate D2E/DX2 analytically  !
 ! A18   A(12,6,14)            108.1959         calculate D2E/DX2 analytically  !
 ! A19   A(5,7,9)              108.9561         calculate D2E/DX2 analytically  !
 ! A20   A(5,7,15)             109.8287         calculate D2E/DX2 analytically  !
 ! A21   A(5,7,17)             109.8646         calculate D2E/DX2 analytically  !
 ! A22   A(9,7,15)             109.9039         calculate D2E/DX2 analytically  !
 ! A23   A(9,7,17)             109.8983         calculate D2E/DX2 analytically  !
 ! A24   A(15,7,17)            108.3801         calculate D2E/DX2 analytically  !
 ! A25   A(6,8,9)              108.9549         calculate D2E/DX2 analytically  !
 ! A26   A(6,8,16)             109.8287         calculate D2E/DX2 analytically  !
 ! A27   A(6,8,18)             109.8646         calculate D2E/DX2 analytically  !
 ! A28   A(9,8,16)             109.9059         calculate D2E/DX2 analytically  !
 ! A29   A(9,8,18)             109.8975         calculate D2E/DX2 analytically  !
 ! A30   A(16,8,18)            108.3801         calculate D2E/DX2 analytically  !
 ! A31   A(7,9,8)              116.1572         calculate D2E/DX2 analytically  !
 ! A32   A(7,9,10)             115.433          calculate D2E/DX2 analytically  !
 ! A33   A(8,9,10)             115.4314         calculate D2E/DX2 analytically  !
 ! A34   A(9,10,19)            118.0226         calculate D2E/DX2 analytically  !
 ! A35   A(9,10,20)            118.0204         calculate D2E/DX2 analytically  !
 ! A36   A(19,10,20)           123.8532         calculate D2E/DX2 analytically  !
 ! D1    D(2,1,4,5)            -24.1063         calculate D2E/DX2 analytically  !
 ! D2    D(2,1,4,6)           -160.444          calculate D2E/DX2 analytically  !
 ! D3    D(3,1,4,5)            160.4422         calculate D2E/DX2 analytically  !
 ! D4    D(3,1,4,6)             24.1044         calculate D2E/DX2 analytically  !
 ! D5    D(1,4,5,7)            166.4806         calculate D2E/DX2 analytically  !
 ! D6    D(1,4,5,11)            45.8985         calculate D2E/DX2 analytically  !
 ! D7    D(1,4,5,13)           -72.8409         calculate D2E/DX2 analytically  !
 ! D8    D(6,4,5,7)            -57.0922         calculate D2E/DX2 analytically  !
 ! D9    D(6,4,5,11)          -177.6743         calculate D2E/DX2 analytically  !
 ! D10   D(6,4,5,13)            63.5863         calculate D2E/DX2 analytically  !
 ! D11   D(1,4,6,8)           -166.4806         calculate D2E/DX2 analytically  !
 ! D12   D(1,4,6,12)           -45.8979         calculate D2E/DX2 analytically  !
 ! D13   D(1,4,6,14)            72.8423         calculate D2E/DX2 analytically  !
 ! D14   D(5,4,6,8)             57.0916         calculate D2E/DX2 analytically  !
 ! D15   D(5,4,6,12)           177.6743         calculate D2E/DX2 analytically  !
 ! D16   D(5,4,6,14)           -63.5856         calculate D2E/DX2 analytically  !
 ! D17   D(4,5,7,9)             52.6856         calculate D2E/DX2 analytically  !
 ! D18   D(4,5,7,15)           173.1168         calculate D2E/DX2 analytically  !
 ! D19   D(4,5,7,17)           -67.7607         calculate D2E/DX2 analytically  !
 ! D20   D(11,5,7,9)           173.2699         calculate D2E/DX2 analytically  !
 ! D21   D(11,5,7,15)          -66.2989         calculate D2E/DX2 analytically  !
 ! D22   D(11,5,7,17)           52.8236         calculate D2E/DX2 analytically  !
 ! D23   D(13,5,7,9)           -68.0185         calculate D2E/DX2 analytically  !
 ! D24   D(13,5,7,15)           52.4127         calculate D2E/DX2 analytically  !
 ! D25   D(13,5,7,17)          171.5351         calculate D2E/DX2 analytically  !
 ! D26   D(4,6,8,9)            -52.6819         calculate D2E/DX2 analytically  !
 ! D27   D(4,6,8,16)          -173.1149         calculate D2E/DX2 analytically  !
 ! D28   D(4,6,8,18)            67.7626         calculate D2E/DX2 analytically  !
 ! D29   D(12,6,8,9)          -173.2681         calculate D2E/DX2 analytically  !
 ! D30   D(12,6,8,16)           66.2989         calculate D2E/DX2 analytically  !
 ! D31   D(12,6,8,18)          -52.8236         calculate D2E/DX2 analytically  !
 ! D32   D(14,6,8,9)            68.0204         calculate D2E/DX2 analytically  !
 ! D33   D(14,6,8,16)          -52.4127         calculate D2E/DX2 analytically  !
 ! D34   D(14,6,8,18)         -171.5351         calculate D2E/DX2 analytically  !
 ! D35   D(5,7,9,8)            -55.2447         calculate D2E/DX2 analytically  !
 ! D36   D(5,7,9,10)           164.9974         calculate D2E/DX2 analytically  !
 ! D37   D(15,7,9,8)          -175.6297         calculate D2E/DX2 analytically  !
 ! D38   D(15,7,9,10)           44.6125         calculate D2E/DX2 analytically  !
 ! D39   D(17,7,9,8)            65.1808         calculate D2E/DX2 analytically  !
 ! D40   D(17,7,9,10)          -74.577          calculate D2E/DX2 analytically  !
 ! D41   D(6,8,9,7)             55.2441         calculate D2E/DX2 analytically  !
 ! D42   D(6,8,9,10)          -164.9974         calculate D2E/DX2 analytically  !
 ! D43   D(16,8,9,7)           175.6296         calculate D2E/DX2 analytically  !
 ! D44   D(16,8,9,10)          -44.6119         calculate D2E/DX2 analytically  !
 ! D45   D(18,8,9,7)           -65.1802         calculate D2E/DX2 analytically  !
 ! D46   D(18,8,9,10)           74.5783         calculate D2E/DX2 analytically  !
 ! D47   D(7,9,10,19)          -21.7538         calculate D2E/DX2 analytically  !
 ! D48   D(7,9,10,20)          161.8053         calculate D2E/DX2 analytically  !
 ! D49   D(8,9,10,19)         -161.807          calculate D2E/DX2 analytically  !
 ! D50   D(8,9,10,20)           21.7522         calculate D2E/DX2 analytically  !
 --------------------------------------------------------------------------------
 Trust Radius=3.00D-01 FncErr=1.00D-07 GrdErr=1.00D-06
 Number of steps in this run=    116 maximum allowed number of steps=    120.
 GradGradGradGradGradGradGradGradGradGradGradGradGradGradGradGradGradGrad

 Leave Link  103 at Fri Aug 27 10:23:45 2021, MaxMem= 24159191040 cpu:         0.6
 (Enter /public/home/users/caep010/software/Gaussian09/g09/l202.exe)
                          Input orientation:                          
 ---------------------------------------------------------------------
 Center     Atomic      Atomic             Coordinates (Angstroms)
 Number     Number       Type             X           Y           Z
 ---------------------------------------------------------------------
      1          7           0        5.917800    2.732700    0.486500
      2          8           0        5.556500    1.656000    0.056200
      3          8           0        5.556500    3.809500    0.056200
      4          7           0        6.878000    2.732700    1.467600
      5          6           0        6.955600    1.510700    2.246800
      6          6           0        6.955600    3.954800    2.246800
      7          6           0        8.238300    1.496500    3.052400
      8          6           0        8.238300    3.969000    3.052400
      9          7           0        8.330500    2.732700    3.817000
     10          7           0        9.255500    2.732700    4.824100
     11          1           0        6.933800    0.743300    1.653900
     12          1           0        6.933800    4.722200    1.653900
     13          1           0        6.194200    1.453800    2.843500
     14          1           0        6.194200    4.011700    2.843500
     15          1           0        8.240800    0.735700    3.653400
     16          1           0        8.240800    4.729800    3.653400
     17          1           0        8.999700    1.418800    2.457900
     18          1           0        8.999700    4.046700    2.457900
     19          8           0        9.620500    1.650600    5.271200
     20          8           0        9.620500    3.814900    5.271200
 ---------------------------------------------------------------------
                    Distance matrix (angstroms):
                    1          2          3          4          5
     1  N    0.000000
     2  O    1.214487   0.000000
     3  O    1.214576   2.153500   0.000000
     4  N    1.372786   2.213074   2.213122   0.000000
     5  C    2.380960   2.603329   3.469970   1.451364   0.000000
     6  C    2.381011   3.469970   2.603329   1.451449   2.444100
     7  C    3.673793   4.024265   4.638883   2.426973   1.514765
     8  C    3.673826   4.638883   4.024265   2.427024   2.887482
     9  N    4.112585   4.795620   4.795643   2.762143   2.418504
    10  N    5.473117   6.129825   6.129843   4.113222   3.664055
    11  H    2.520474   2.298395   3.721718   1.998883   0.970004
    12  H    2.520553   3.721718   2.298395   1.998983   3.265844
    13  H    2.695817   2.866459   3.704730   1.999067   0.969030
    14  H    2.695865   3.704730   2.866459   1.999131   2.681563
    15  H    4.406086   4.581732   5.439996   3.259287   2.056912
    16  H    4.406131   5.439996   4.581732   3.259349   3.740704
    17  H    3.887269   4.204766   4.831070   2.684891   2.057025
    18  H    3.887303   4.831070   4.204766   2.684940   3.264078
    19  O    6.146079   6.611532   6.955082   4.812444   4.033393
    20  O    6.146096   6.955082   6.611532   4.812467   4.643062
                    6          7          8          9         10
     6  C    0.000000
     7  C    2.887482   0.000000
     8  C    1.514765   2.472500   0.000000
     9  N    2.418555   1.456470   1.456555   0.000000
    10  N    3.664088   2.387846   2.387897   1.367434   0.000000
    11  H    3.265844   2.055440   3.750022   3.253842   4.404336
    12  H    0.970004   3.750022   2.055440   3.253903   4.404381
    13  H    2.681563   2.055190   3.247802   2.673400   3.863925
    14  H    0.969030   3.247802   2.055190   2.673447   3.863958
    15  H    3.740704   0.969548   3.288683   2.005697   2.527482
    16  H    2.056912   3.288683   0.969548   2.005796   2.527561
    17  H    3.264078   0.969122   2.727028   2.005322   2.718579
    18  H    2.057025   2.727028   0.969122   2.005387   2.718627
    19  O    4.643062   2.618644   3.494071   2.224801   1.226403
    20  O    4.033393   3.494071   2.618644   2.224849   1.226491
                   11         12         13         14         15
    11  H    0.000000
    12  H    3.978900   0.000000
    13  H    1.570658   3.555924   0.000000
    14  H    3.555924   1.570658   2.557900   0.000000
    15  H    2.388788   4.647411   2.315206   3.946731   0.000000
    16  H    4.647411   2.388788   3.946731   2.315206   3.994100
    17  H    2.317468   3.978292   2.832092   3.839616   1.572188
    18  H    3.978292   2.317468   3.839616   2.832092   3.601093
    19  O    4.596347   5.453251   4.203807   4.817474   2.314712
    20  O    5.453251   4.596347   4.817474   4.203807   3.741968
                   16         17         18         19         20
    16  H    0.000000
    17  H    3.601093   0.000000
    18  H    1.572188   2.627900   0.000000
    19  O    3.741968   2.890291   3.747178   0.000000
    20  O    2.314712   3.747178   2.890291   2.164300   0.000000
 Stoichiometry    C4H8N4O4
 Framework group  C1[X(C4H8N4O4)]
 Deg. of freedom    54
 Full point group                 C1      NOp   1
 Largest Abelian subgroup         C1      NOp   1
 Largest concise Abelian subgroup C1      NOp   1
                         Standard orientation:                         
 ---------------------------------------------------------------------
 Center     Atomic      Atomic             Coordinates (Angstroms)
 Number     Number       Type             X           Y           Z
 ---------------------------------------------------------------------
      1          7           0        2.739676   -0.000035    0.032891
      2          8           0        3.301315   -1.076735    0.016859
      3          8           0        3.301315    1.076765    0.016859
      4          7           0        1.374410   -0.000035    0.176384
      5          6           0        0.715431   -1.222035   -0.246608
      6          6           0        0.715431    1.222065   -0.246608
      7          6           0       -0.712511   -1.236235    0.258655
      8          6           0       -0.712511    1.236265    0.258655
      9          7           0       -1.369110   -0.000035   -0.143826
     10          7           0       -2.732901   -0.000035   -0.044070
     11          1           0        1.193727   -1.989435    0.104446
     12          1           0        1.193727    1.989465    0.104447
     13          1           0        0.720461   -1.278935   -1.213953
     14          1           0        0.720461    1.278965   -1.213952
     15          1           0       -1.185172   -1.997035   -0.112558
     16          1           0       -1.185172    1.997065   -0.112557
     17          1           0       -0.719266   -1.313935    1.224634
     18          1           0       -0.719266    1.313965    1.224634
     19          8           0       -3.310007   -1.082135   -0.035569
     20          8           0       -3.310007    1.082165   -0.035569
 ---------------------------------------------------------------------
 Rotational constants (GHZ):      2.8111036      0.5035128      0.4343023
 Leave Link  202 at Fri Aug 27 10:23:46 2021, MaxMem= 24159191040 cpu:        14.9
 (Enter /public/home/users/caep010/software/Gaussian09/g09/l301.exe)
 Standard basis: GTBas3 (6D, 7F)
 Ernie: Thresh=  0.10000D-02 Tol=  0.10000D-05 Strict=F.
 There are   412 symmetry adapted cartesian basis functions of A   symmetry.
 There are   376 symmetry adapted basis functions of A   symmetry.
   376 basis functions,   584 primitive gaussians,   412 cartesian basis functions
    46 alpha electrons       46 beta electrons
       nuclear repulsion energy       778.7333520988 Hartrees.
 IExCor=  402 DFT=T Ex+Corr=B3LYP ExCW=0 ScaHFX=  0.200000
 ScaDFX=  0.800000  0.720000  1.000000  0.810000 ScalE2=  1.000000  1.000000
 IRadAn=      0 IRanWt=     -1 IRanGd=            0 ICorTp=0 IEmpDi=  4
 NAtoms=   20 NActive=   20 NUniq=   20 SFac= 1.00D+00 NAtFMM=   60 NAOKFM=F Big=F
 Integral buffers will be    131072 words long.
 Raffenetti 2 integral format.
 Two-electron integral symmetry is turned on.
 Leave Link  301 at Fri Aug 27 10:23:47 2021, MaxMem= 24159191040 cpu:         6.3
 (Enter /public/home/users/caep010/software/Gaussian09/g09/l302.exe)
 NPDir=0 NMtPBC=     1 NCelOv=     1 NCel=       1 NClECP=     1 NCelD=      1
         NCelK=      1 NCelE2=     1 NClLst=     1 CellRange=     0.0.
 One-electron integrals computed using PRISM.
 NBasis=   376 RedAO= T EigKep=  2.07D-04  NBF=   376
 NBsUse=   376 1.00D-06 EigRej= -1.00D+00 NBFU=   376
 Precomputing XC quadrature grid using
 IXCGrd= 4 IRadAn=           0 IRanWt=          -1 IRanGd=           0 AccXCQ= 0.00D+00.
 Generated NRdTot=       0 NPtTot=           0 NUsed=           0 NTot=          32
 NSgBfM=   410   410   410   410   410 MxSgAt=    20 MxSgA2=    20.
 Leave Link  302 at Fri Aug 27 10:23:47 2021, MaxMem= 24159191040 cpu:        20.4
 (Enter /public/home/users/caep010/software/Gaussian09/g09/l303.exe)
 DipDrv:  MaxL=1.
 Leave Link  303 at Fri Aug 27 10:23:47 2021, MaxMem= 24159191040 cpu:         1.4
 (Enter /public/home/users/caep010/software/Gaussian09/g09/l401.exe)
 ExpMin= 1.61D-01 ExpMax= 5.48D+03 ExpMxC= 8.25D+02 IAcc=1 IRadAn=         1 AccDes= 0.00D+00
 Harris functional with IExCor=  402 and IRadAn=       1 diagonalized for initial guess.
 HarFok:  IExCor=  402 AccDes= 0.00D+00 IRadAn=         1 IDoV= 1 UseB2=F ITyADJ=14
 ICtDFT=  3500011 ScaDFX=  1.000000  1.000000  1.000000  1.000000
 FoFCou: FMM=F IPFlag=           0 FMFlag=      100000 FMFlg1=           0
         NFxFlg=           0 DoJE=T BraDBF=F KetDBF=T FulRan=T
         wScrn=  0.000000 ICntrl=     500 IOpCl=  0 I1Cent=   200000004 NGrid=           0
         NMat0=    1 NMatS0=      1 NMatT0=    0 NMatD0=    1 NMtDS0=    0 NMtDT0=    0
 Petite list used in FoFCou.
 Harris En= -676.972759658342    
 JPrj=0 DoOrth=F DoCkMO=F.
 Leave Link  401 at Fri Aug 27 10:23:48 2021, MaxMem= 24159191040 cpu:        17.5
 (Enter /public/home/users/caep010/software/Gaussian09/g09/l502.exe)
 Closed shell SCF:
 Using DIIS extrapolation, IDIIS=  1040.
 Integral symmetry usage will be decided dynamically.
 Keep R1 ints in memory in canonical form, NReq=2547505368.
 IVT=      543950 IEndB=      543950 NGot= 24159191040 MDV= 21646907965
 LenX= 21646907965 LenY= 21646737780
 Requested convergence on RMS density matrix=1.00D-08 within 128 cycles.
 Requested convergence on MAX density matrix=1.00D-06.
 Requested convergence on             energy=1.00D-06.
 No special actions if energy rises.
 FoFCou: FMM=F IPFlag=           0 FMFlag=           0 FMFlg1=           0
         NFxFlg=           0 DoJE=F BraDBF=F KetDBF=F FulRan=T
         wScrn=  0.000000 ICntrl=     600 IOpCl=  0 I1Cent=           0 NGrid=           0
         NMat0=    1 NMatS0=  70876 NMatT0=    0 NMatD0=    1 NMtDS0=    0 NMtDT0=    0
 Symmetry not used in FoFCou.
 Integral accuracy reduced to 1.0D-05 until final iterations.

 Cycle   1  Pass 0  IDiag  1:
 E= -676.358946749984    
 DIIS: error= 4.32D-02 at cycle   1 NSaved=   1.
 NSaved= 1 IEnMin= 1 EnMin= -676.358946749984     IErMin= 1 ErrMin= 4.32D-02
 ErrMax= 4.32D-02  0.00D+00 EMaxC= 1.00D-01 BMatC= 6.86D-01 BMatP= 6.86D-01
 IDIUse=3 WtCom= 5.68D-01 WtEn= 4.32D-01
 Coeff-Com:  0.100D+01
 Coeff-En:   0.100D+01
 Coeff:      0.100D+01
 Gap=     0.184 Goal=   None    Shift=    0.000
 GapD=    0.184 DampG=1.000 DampE=0.500 DampFc=0.5000 IDamp=-1.
 Damping current iteration by 5.00D-01
 RMSDP=3.88D-03 MaxDP=2.76D-01              OVMax= 3.19D-01

 Cycle   2  Pass 0  IDiag  1:
 E= -676.425042358187     Delta-E=       -0.066095608203 Rises=F Damp=T
 DIIS: error= 1.90D-02 at cycle   2 NSaved=   2.
 NSaved= 2 IEnMin= 2 EnMin= -676.425042358187     IErMin= 2 ErrMin= 1.90D-02
 ErrMax= 1.90D-02  0.00D+00 EMaxC= 1.00D-01 BMatC= 1.61D-01 BMatP= 6.86D-01
 IDIUse=3 WtCom= 8.10D-01 WtEn= 1.90D-01
 Coeff-Com:  0.295D+00 0.705D+00
 Coeff-En:   0.444D+00 0.556D+00
 Coeff:      0.323D+00 0.677D+00
 Gap=     0.214 Goal=   None    Shift=    0.000
 RMSDP=1.17D-03 MaxDP=6.65D-02 DE=-6.61D-02 OVMax= 2.05D-01

 Cycle   3  Pass 0  IDiag  1:
 E= -676.833340586357     Delta-E=       -0.408298228170 Rises=F Damp=F
 DIIS: error= 6.75D-03 at cycle   3 NSaved=   3.
 NSaved= 3 IEnMin= 3 EnMin= -676.833340586357     IErMin= 3 ErrMin= 6.75D-03
 ErrMax= 6.75D-03  0.00D+00 EMaxC= 1.00D-01 BMatC= 3.04D-02 BMatP= 1.61D-01
 IDIUse=3 WtCom= 9.33D-01 WtEn= 6.75D-02
 Coeff-Com:  0.114D+00 0.307D+00 0.579D+00
 Coeff-En:   0.000D+00 0.000D+00 0.100D+01
 Coeff:      0.106D+00 0.286D+00 0.608D+00
 Gap=     0.255 Goal=   None    Shift=    0.000
 RMSDP=7.65D-04 MaxDP=4.55D-02 DE=-4.08D-01 OVMax= 8.09D-02

 Cycle   4  Pass 0  IDiag  1:
 E= -676.849397881875     Delta-E=       -0.016057295518 Rises=F Damp=F
 DIIS: error= 5.46D-03 at cycle   4 NSaved=   4.
 NSaved= 4 IEnMin= 4 EnMin= -676.849397881875     IErMin= 4 ErrMin= 5.46D-03
 ErrMax= 5.46D-03  0.00D+00 EMaxC= 1.00D-01 BMatC= 1.49D-02 BMatP= 3.04D-02
 IDIUse=3 WtCom= 9.45D-01 WtEn= 5.46D-02
 Coeff-Com:  0.364D-01 0.892D-01 0.401D+00 0.474D+00
 Coeff-En:   0.000D+00 0.000D+00 0.332D+00 0.668D+00
 Coeff:      0.344D-01 0.843D-01 0.397D+00 0.484D+00
 Gap=     0.236 Goal=   None    Shift=    0.000
 RMSDP=3.44D-04 MaxDP=2.21D-02 DE=-1.61D-02 OVMax= 3.86D-02

 Cycle   5  Pass 0  IDiag  1:
 E= -676.861922071851     Delta-E=       -0.012524189976 Rises=F Damp=F
 DIIS: error= 9.41D-04 at cycle   5 NSaved=   5.
 NSaved= 5 IEnMin= 5 EnMin= -676.861922071851     IErMin= 5 ErrMin= 9.41D-04
 ErrMax= 9.41D-04  0.00D+00 EMaxC= 1.00D-01 BMatC= 6.23D-04 BMatP= 1.49D-02
 IDIUse=3 WtCom= 9.91D-01 WtEn= 9.41D-03
 Coeff-Com:  0.476D-02 0.418D-02 0.122D+00 0.230D+00 0.640D+00
 Coeff-En:   0.000D+00 0.000D+00 0.000D+00 0.000D+00 0.100D+01
 Coeff:      0.472D-02 0.414D-02 0.121D+00 0.227D+00 0.643D+00
 Gap=     0.238 Goal=   None    Shift=    0.000
 RMSDP=6.44D-05 MaxDP=3.99D-03 DE=-1.25D-02 OVMax= 6.05D-03

 Cycle   6  Pass 0  IDiag  1:
 E= -676.862385001412     Delta-E=       -0.000462929560 Rises=F Damp=F
 DIIS: error= 2.86D-04 at cycle   6 NSaved=   6.
 NSaved= 6 IEnMin= 6 EnMin= -676.862385001412     IErMin= 6 ErrMin= 2.86D-04
 ErrMax= 2.86D-04  0.00D+00 EMaxC= 1.00D-01 BMatC= 4.69D-05 BMatP= 6.23D-04
 IDIUse=3 WtCom= 9.97D-01 WtEn= 2.86D-03
 Coeff-Com:  0.539D-03-0.209D-02 0.414D-01 0.875D-01 0.326D+00 0.547D+00
 Coeff-En:   0.000D+00 0.000D+00 0.000D+00 0.000D+00 0.000D+00 0.100D+01
 Coeff:      0.538D-03-0.208D-02 0.413D-01 0.873D-01 0.325D+00 0.548D+00
 Gap=     0.237 Goal=   None    Shift=    0.000
 RMSDP=1.51D-05 MaxDP=1.20D-03 DE=-4.63D-04 OVMax= 1.01D-03

 Cycle   7  Pass 0  IDiag  1:
 E= -676.862419150387     Delta-E=       -0.000034148976 Rises=F Damp=F
 DIIS: error= 6.88D-05 at cycle   7 NSaved=   7.
 NSaved= 7 IEnMin= 7 EnMin= -676.862419150387     IErMin= 7 ErrMin= 6.88D-05
 ErrMax= 6.88D-05  0.00D+00 EMaxC= 1.00D-01 BMatC= 2.42D-06 BMatP= 4.69D-05
 IDIUse=1 WtCom= 1.00D+00 WtEn= 0.00D+00
 Coeff-Com: -0.102D-03-0.137D-02 0.108D-01 0.235D-01 0.112D+00 0.249D+00
 Coeff-Com:  0.607D+00
 Coeff:     -0.102D-03-0.137D-02 0.108D-01 0.235D-01 0.112D+00 0.249D+00
 Coeff:      0.607D+00
 Gap=     0.236 Goal=   None    Shift=    0.000
 RMSDP=5.48D-06 MaxDP=3.48D-04 DE=-3.41D-05 OVMax= 4.67D-04

 Initial convergence to 1.0D-05 achieved.  Increase integral accuracy.
 Cycle   8  Pass 1  IDiag  1:
 E= -676.862208037426     Delta-E=        0.000211112962 Rises=F Damp=F
 DIIS: error= 8.28D-05 at cycle   1 NSaved=   1.
 NSaved= 1 IEnMin= 1 EnMin= -676.862208037426     IErMin= 1 ErrMin= 8.28D-05
 ErrMax= 8.28D-05  0.00D+00 EMaxC= 1.00D-01 BMatC= 1.33D-06 BMatP= 1.33D-06
 IDIUse=1 WtCom= 1.00D+00 WtEn= 0.00D+00
 Coeff-Com:  0.100D+01
 Coeff:      0.100D+01
 Gap=     0.237 Goal=   None    Shift=    0.000
 RMSDP=5.48D-06 MaxDP=3.48D-04 DE= 2.11D-04 OVMax= 5.78D-04

 Cycle   9  Pass 1  IDiag  1:
 E= -676.862206549926     Delta-E=        0.000001487500 Rises=F Damp=F
 DIIS: error= 6.65D-05 at cycle   2 NSaved=   2.
 NSaved= 2 IEnMin= 1 EnMin= -676.862208037426     IErMin= 2 ErrMin= 6.65D-05
 ErrMax= 6.65D-05  0.00D+00 EMaxC= 1.00D-01 BMatC= 3.49D-06 BMatP= 1.33D-06
 IDIUse=1 WtCom= 1.00D+00 WtEn= 0.00D+00
 Coeff-Com:  0.635D+00 0.365D+00
 Coeff:      0.635D+00 0.365D+00
 Gap=     0.237 Goal=   None    Shift=    0.000
 RMSDP=4.54D-06 MaxDP=3.20D-04 DE= 1.49D-06 OVMax= 4.43D-04

 Cycle  10  Pass 1  IDiag  1:
 E= -676.862209090497     Delta-E=       -0.000002540571 Rises=F Damp=F
 DIIS: error= 1.47D-05 at cycle   3 NSaved=   3.
 NSaved= 3 IEnMin= 3 EnMin= -676.862209090497     IErMin= 3 ErrMin= 1.47D-05
 ErrMax= 1.47D-05  0.00D+00 EMaxC= 1.00D-01 BMatC= 1.29D-07 BMatP= 1.33D-06
 IDIUse=1 WtCom= 1.00D+00 WtEn= 0.00D+00
 Coeff-Com:  0.619D-01 0.163D+00 0.775D+00
 Coeff:      0.619D-01 0.163D+00 0.775D+00
 Gap=     0.237 Goal=   None    Shift=    0.000
 RMSDP=1.20D-06 MaxDP=1.00D-04 DE=-2.54D-06 OVMax= 1.69D-04

 Cycle  11  Pass 1  IDiag  1:
 E= -676.862209130186     Delta-E=       -0.000000039689 Rises=F Damp=F
 DIIS: error= 1.65D-05 at cycle   4 NSaved=   4.
 NSaved= 4 IEnMin= 4 EnMin= -676.862209130186     IErMin= 3 ErrMin= 1.47D-05
 ErrMax= 1.65D-05  0.00D+00 EMaxC= 1.00D-01 BMatC= 7.44D-08 BMatP= 1.29D-07
 IDIUse=1 WtCom= 1.00D+00 WtEn= 0.00D+00
 Coeff-Com: -0.197D-02 0.918D-01 0.559D+00 0.351D+00
 Coeff:     -0.197D-02 0.918D-01 0.559D+00 0.351D+00
 Gap=     0.237 Goal=   None    Shift=    0.000
 RMSDP=6.92D-07 MaxDP=5.29D-05 DE=-3.97D-08 OVMax= 1.07D-04

 Cycle  12  Pass 1  IDiag  1:
 E= -676.862209184823     Delta-E=       -0.000000054637 Rises=F Damp=F
 DIIS: error= 3.19D-06 at cycle   5 NSaved=   5.
 NSaved= 5 IEnMin= 5 EnMin= -676.862209184823     IErMin= 5 ErrMin= 3.19D-06
 ErrMax= 3.19D-06  0.00D+00 EMaxC= 1.00D-01 BMatC= 3.66D-09 BMatP= 7.44D-08
 IDIUse=1 WtCom= 1.00D+00 WtEn= 0.00D+00
 Coeff-Com: -0.896D-02 0.363D-01 0.245D+00 0.220D+00 0.508D+00
 Coeff:     -0.896D-02 0.363D-01 0.245D+00 0.220D+00 0.508D+00
 Gap=     0.237 Goal=   None    Shift=    0.000
 RMSDP=1.37D-07 MaxDP=1.18D-05 DE=-5.46D-08 OVMax= 1.87D-05

 Cycle  13  Pass 1  IDiag  1:
 E= -676.862209187592     Delta-E=       -0.000000002769 Rises=F Damp=F
 DIIS: error= 4.00D-07 at cycle   6 NSaved=   6.
 NSaved= 6 IEnMin= 6 EnMin= -676.862209187592     IErMin= 6 ErrMin= 4.00D-07
 ErrMax= 4.00D-07  0.00D+00 EMaxC= 1.00D-01 BMatC= 1.17D-10 BMatP= 3.66D-09
 IDIUse=1 WtCom= 1.00D+00 WtEn= 0.00D+00
 Coeff-Com: -0.425D-02 0.143D-01 0.976D-01 0.943D-01 0.253D+00 0.545D+00
 Coeff:     -0.425D-02 0.143D-01 0.976D-01 0.943D-01 0.253D+00 0.545D+00
 Gap=     0.237 Goal=   None    Shift=    0.000
 RMSDP=2.97D-08 MaxDP=2.18D-06 DE=-2.77D-09 OVMax= 2.22D-06

 Cycle  14  Pass 1  IDiag  1:
 E= -676.862209187678     Delta-E=       -0.000000000087 Rises=F Damp=F
 DIIS: error= 1.98D-07 at cycle   7 NSaved=   7.
 NSaved= 7 IEnMin= 7 EnMin= -676.862209187678     IErMin= 7 ErrMin= 1.98D-07
 ErrMax= 1.98D-07  0.00D+00 EMaxC= 1.00D-01 BMatC= 2.44D-11 BMatP= 1.17D-10
 IDIUse=1 WtCom= 1.00D+00 WtEn= 0.00D+00
 Coeff-Com: -0.125D-02 0.356D-02 0.237D-01 0.240D-01 0.719D-01 0.321D+00
 Coeff-Com:  0.558D+00
 Coeff:     -0.125D-02 0.356D-02 0.237D-01 0.240D-01 0.719D-01 0.321D+00
 Coeff:      0.558D+00
 Gap=     0.237 Goal=   None    Shift=    0.000
 RMSDP=1.38D-08 MaxDP=1.09D-06 DE=-8.69D-11 OVMax= 1.54D-06

 Cycle  15  Pass 1  IDiag  1:
 E= -676.862209187703     Delta-E=       -0.000000000025 Rises=F Damp=F
 DIIS: error= 7.74D-08 at cycle   8 NSaved=   8.
 NSaved= 8 IEnMin= 8 EnMin= -676.862209187703     IErMin= 8 ErrMin= 7.74D-08
 ErrMax= 7.74D-08  0.00D+00 EMaxC= 1.00D-01 BMatC= 4.91D-12 BMatP= 2.44D-11
 IDIUse=1 WtCom= 1.00D+00 WtEn= 0.00D+00
 Coeff-Com: -0.141D-03 0.223D-04-0.390D-03 0.438D-03 0.622D-02 0.119D+00
 Coeff-Com:  0.366D+00 0.508D+00
 Coeff:     -0.141D-03 0.223D-04-0.390D-03 0.438D-03 0.622D-02 0.119D+00
 Coeff:      0.366D+00 0.508D+00
 Gap=     0.237 Goal=   None    Shift=    0.000
 RMSDP=6.56D-09 MaxDP=4.00D-07 DE=-2.50D-11 OVMax= 4.99D-07

 SCF Done:  E(RB3LYP) =  -676.862209188     A.U. after   15 cycles
            NFock= 15  Conv=0.66D-08     -V/T= 2.0036
 KE= 6.744130502281D+02 PE=-3.142317249760D+03 EE= 1.012308638246D+03
 Leave Link  502 at Fri Aug 27 10:25:03 2021, MaxMem= 24159191040 cpu:       411.3
 (Enter /public/home/users/caep010/software/Gaussian09/g09/l801.exe)
 DoSCS=F DFT=T ScalE2(SS,OS)=  1.000000  1.000000
 Range of M.O.s used for correlation:     1   376
 NBasis=   376 NAE=    46 NBE=    46 NFC=     0 NFV=     0
 NROrb=    376 NOA=    46 NOB=    46 NVA=   330 NVB=   330

 **** Warning!!: The largest alpha MO coefficient is  0.34238089D+02

 Leave Link  801 at Fri Aug 27 10:25:03 2021, MaxMem= 24159191040 cpu:         0.6
 (Enter /public/home/users/caep010/software/Gaussian09/g09/l1101.exe)
 Using compressed storage, NAtomX=    20.
 Will process     21 centers per pass.
 Leave Link 1101 at Fri Aug 27 10:25:04 2021, MaxMem= 24159191040 cpu:        22.8
 (Enter /public/home/users/caep010/software/Gaussian09/g09/l1102.exe)
 Symmetrizing basis deriv contribution to polar:
 IMax=3 JMax=2 DiffMx= 0.00D+00
 Leave Link 1102 at Fri Aug 27 10:25:04 2021, MaxMem= 24159191040 cpu:         1.0
 (Enter /public/home/users/caep010/software/Gaussian09/g09/l1110.exe)
 Forming Gx(P) for the SCF density, NAtomX=    20.
 Integral derivatives from FoFJK, PRISM(SPDF).
 Do as many integral derivatives as possible in FoFJK.
 G2DrvN: MDV=   24159190776.
 G2DrvN: will do    21 centers at a time, making    1 passes.
 Calling FoFCou, ICntrl=  3107 FMM=F I1Cent=   0 AccDes= 0.00D+00.
 FoFJK:  IHMeth= 1 ICntrl=    3107 DoSepK=F KAlg= 0 I1Cent=   0 FoldK=F
 IRaf=         0 NMat=   1 IRICut=       1 DoRegI=T DoRafI=F ISym2E= 0.
 FoFCou: FMM=F IPFlag=           0 FMFlag=      100000 FMFlg1=           0
         NFxFlg=           0 DoJE=F BraDBF=F KetDBF=F FulRan=T
         wScrn=  0.000000 ICntrl=    3107 IOpCl=  0 I1Cent=           0 NGrid=           0
         NMat0=    1 NMatS0=      1 NMatT0=    0 NMatD0=    1 NMtDS0=    0 NMtDT0=    0
 Symmetry not used in FoFCou.
 End of G2Drv F.D. properties file   721 does not exist.
 End of G2Drv F.D. properties file   722 does not exist.
 End of G2Drv F.D. properties file   788 does not exist.
 Leave Link 1110 at Fri Aug 27 10:25:30 2021, MaxMem= 24159191040 cpu:       819.4
 (Enter /public/home/users/caep010/software/Gaussian09/g09/l1002.exe)
 Minotr:  Closed shell wavefunction.
          IDoAtm=11111111111111111111
          Direct CPHF calculation.
          Differentiating once with respect to nuclear coordinates.
          Requested convergence is 1.0D-08 RMS, and 1.0D-07 maximum.
          Secondary convergence is 1.0D-12 RMS, and 1.0D-12 maximum.
          NewPWx=T KeepS1=F KeepF1=F KeepIn=T MapXYZ=F SortEE=F KeepMc=T.
          MDV=   24159190460 using IRadAn=       2.
 Generate precomputed XC quadrature information.
 Keep R1 ints in memory in canonical form, NReq=2546968622.
 FoFCou: FMM=F IPFlag=           0 FMFlag=           0 FMFlg1=           0
         NFxFlg=           0 DoJE=F BraDBF=F KetDBF=F FulRan=T
         wScrn=  0.000000 ICntrl=     600 IOpCl=  0 I1Cent=           0 NGrid=           0
         NMat0=    1 NMatS0=  70876 NMatT0=    0 NMatD0=    1 NMtDS0=    0 NMtDT0=    0
 Symmetry not used in FoFCou.
          Solving linear equations simultaneously, MaxMat=       0.
          There are    63 degrees of freedom in the 1st order CPHF.  IDoFFX=6 NUNeed=     0.
     57 vectors produced by pass  0 Test12= 2.41D-14 1.59D-09 XBig12= 2.99D-01 1.28D-01.
 AX will form    57 AO Fock derivatives at one time.
     57 vectors produced by pass  1 Test12= 2.41D-14 1.59D-09 XBig12= 3.95D-01 4.33D-01.
     57 vectors produced by pass  2 Test12= 2.41D-14 1.59D-09 XBig12= 2.36D-03 8.19D-03.
     57 vectors produced by pass  3 Test12= 2.41D-14 1.59D-09 XBig12= 1.68D-05 7.31D-04.
     57 vectors produced by pass  4 Test12= 2.41D-14 1.59D-09 XBig12= 6.78D-08 3.13D-05.
     55 vectors produced by pass  5 Test12= 2.41D-14 1.59D-09 XBig12= 1.10D-10 1.25D-06.
     25 vectors produced by pass  6 Test12= 2.41D-14 1.59D-09 XBig12= 1.29D-13 4.50D-08.
      1 vectors produced by pass  7 Test12= 2.41D-14 1.59D-09 XBig12= 2.92D-16 1.88D-09.
 InvSVY:  IOpt=1 It=  1 EMax= 1.49D-15
 Solved reduced A of dimension   366 with    63 vectors.
 End of Minotr F.D. properties file   721 does not exist.
 End of Minotr F.D. properties file   722 does not exist.
 End of Minotr F.D. properties file   788 does not exist.
 Leave Link 1002 at Fri Aug 27 10:26:21 2021, MaxMem= 24159191040 cpu:      1455.8
 (Enter /public/home/users/caep010/software/Gaussian09/g09/l601.exe)
 Copying SCF densities to generalized density rwf, IOpCl= 0 IROHF=0.

 **********************************************************************

            Population analysis using the SCF density.

 **********************************************************************

 Orbital symmetries:
       Occupied  (A) (A) (A) (A) (A) (A) (A) (A) (A) (A) (A) (A)
                 (A) (A) (A) (A) (A) (A) (A) (A) (A) (A) (A) (A)
                 (A) (A) (A) (A) (A) (A) (A) (A) (A) (A) (A) (A)
                 (A) (A) (A) (A) (A) (A) (A) (A) (A) (A)
       Virtual   (A) (A) (A) (A) (A) (A) (A) (A) (A) (A) (A) (A)
                 (A) (A) (A) (A) (A) (A) (A) (A) (A) (A) (A) (A)
                 (A) (A) (A) (A) (A) (A) (A) (A) (A) (A) (A) (A)
                 (A) (A) (A) (A) (A) (A) (A) (A) (A) (A) (A) (A)
                 (A) (A) (A) (A) (A) (A) (A) (A) (A) (A) (A) (A)
                 (A) (A) (A) (A) (A) (A) (A) (A) (A) (A) (A) (A)
                 (A) (A) (A) (A) (A) (A) (A) (A) (A) (A) (A) (A)
                 (A) (A) (A) (A) (A) (A) (A) (A) (A) (A) (A) (A)
                 (A) (A) (A) (A) (A) (A) (A) (A) (A) (A) (A) (A)
                 (A) (A) (A) (A) (A) (A) (A) (A) (A) (A) (A) (A)
                 (A) (A) (A) (A) (A) (A) (A) (A) (A) (A) (A) (A)
                 (A) (A) (A) (A) (A) (A) (A) (A) (A) (A) (A) (A)
                 (A) (A) (A) (A) (A) (A) (A) (A) (A) (A) (A) (A)
                 (A) (A) (A) (A) (A) (A) (A) (A) (A) (A) (A) (A)
                 (A) (A) (A) (A) (A) (A) (A) (A) (A) (A) (A) (A)
                 (A) (A) (A) (A) (A) (A) (A) (A) (A) (A) (A) (A)
                 (A) (A) (A) (A) (A) (A) (A) (A) (A) (A) (A) (A)
                 (A) (A) (A) (A) (A) (A) (A) (A) (A) (A) (A) (A)
                 (A) (A) (A) (A) (A) (A) (A) (A) (A) (A) (A) (A)
                 (A) (A) (A) (A) (A) (A) (A) (A) (A) (A) (A) (A)
                 (A) (A) (A) (A) (A) (A) (A) (A) (A) (A) (A) (A)
                 (A) (A) (A) (A) (A) (A) (A) (A) (A) (A) (A) (A)
                 (A) (A) (A) (A) (A) (A) (A) (A) (A) (A) (A) (A)
                 (A) (A) (A) (A) (A) (A) (A) (A) (A) (A) (A) (A)
                 (A) (A) (A) (A) (A) (A) (A) (A) (A) (A) (A) (A)
                 (A) (A) (A) (A) (A) (A) (A) (A) (A) (A) (A) (A)
                 (A) (A) (A) (A) (A) (A) (A) (A) (A) (A) (A) (A)
                 (A) (A) (A) (A) (A) (A)
 The electronic state is 1-A.
 Alpha  occ. eigenvalues --  -19.17612 -19.17610 -19.17330 -19.17327 -14.59931
 Alpha  occ. eigenvalues --  -14.59660 -14.42194 -14.41968 -10.23590 -10.23589
 Alpha  occ. eigenvalues --  -10.23431 -10.23429  -1.26148  -1.25031  -1.07286
 Alpha  occ. eigenvalues --   -1.06095  -1.02473  -0.98864  -0.84604  -0.82743
 Alpha  occ. eigenvalues --   -0.72984  -0.72789  -0.65687  -0.61683  -0.58150
 Alpha  occ. eigenvalues --   -0.57067  -0.56727  -0.55819  -0.54812  -0.54518
 Alpha  occ. eigenvalues --   -0.52159  -0.51362  -0.48511  -0.47188  -0.45851
 Alpha  occ. eigenvalues --   -0.43524  -0.43232  -0.41830  -0.33814  -0.33305
 Alpha  occ. eigenvalues --   -0.31940  -0.31438  -0.30265  -0.29973  -0.29161
 Alpha  occ. eigenvalues --   -0.29058
 Alpha virt. eigenvalues --   -0.05403  -0.05317   0.08591   0.10013   0.10575
 Alpha virt. eigenvalues --    0.11674   0.12914   0.14258   0.15400   0.15943
 Alpha virt. eigenvalues --    0.16804   0.18001   0.18918   0.20162   0.20328
 Alpha virt. eigenvalues --    0.20901   0.21766   0.22120   0.26943   0.31974
 Alpha virt. eigenvalues --    0.33836   0.35416   0.38010   0.38572   0.39740
 Alpha virt. eigenvalues --    0.42284   0.43656   0.46082   0.46816   0.47305
 Alpha virt. eigenvalues --    0.47636   0.53812   0.54731   0.56338   0.57080
 Alpha virt. eigenvalues --    0.60978   0.61550   0.62521   0.62795   0.63842
 Alpha virt. eigenvalues --    0.67774   0.68046   0.70141   0.70516   0.71617
 Alpha virt. eigenvalues --    0.71779   0.72151   0.72962   0.73460   0.75233
 Alpha virt. eigenvalues --    0.75860   0.77531   0.77979   0.79465   0.79626
 Alpha virt. eigenvalues --    0.83959   0.84044   0.85636   0.85774   0.87422
 Alpha virt. eigenvalues --    0.87813   0.90270   0.90978   0.91493   0.92534
 Alpha virt. eigenvalues --    0.95383   0.96072   0.96597   0.97192   0.98014
 Alpha virt. eigenvalues --    0.99562   1.00987   1.01256   1.06210   1.06689
 Alpha virt. eigenvalues --    1.06899   1.07238   1.12261   1.12521   1.13054
 Alpha virt. eigenvalues --    1.15110   1.16453   1.17294   1.21393   1.22217
 Alpha virt. eigenvalues --    1.23790   1.23896   1.28937   1.29702   1.30439
 Alpha virt. eigenvalues --    1.34252   1.34909   1.35862   1.36090   1.38290
 Alpha virt. eigenvalues --    1.40427   1.40927   1.44263   1.45252   1.45368
 Alpha virt. eigenvalues --    1.47811   1.49400   1.49561   1.57291   1.57495
 Alpha virt. eigenvalues --    1.58604   1.59455   1.60058   1.63038   1.63251
 Alpha virt. eigenvalues --    1.64480   1.65335   1.65815   1.70286   1.70802
 Alpha virt. eigenvalues --    1.72580   1.74809   1.75101   1.77055   1.79254
 Alpha virt. eigenvalues --    1.80574   1.81537   1.86965   1.87908   1.95350
 Alpha virt. eigenvalues --    1.99902   2.02987   2.04107   2.04594   2.08458
 Alpha virt. eigenvalues --    2.09583   2.12330   2.13527   2.15793   2.23462
 Alpha virt. eigenvalues --    2.28387   2.29897   2.32376   2.33495   2.37956
 Alpha virt. eigenvalues --    2.42654   2.45308   2.45460   2.50859   2.53611
 Alpha virt. eigenvalues --    2.54353   2.65941   2.66300   2.70508   2.79207
 Alpha virt. eigenvalues --    2.82901   2.89503   2.92285   2.92517   2.94239
 Alpha virt. eigenvalues --    2.95839   2.98689   2.99889   3.07882   3.13683
 Alpha virt. eigenvalues --    3.15535   3.15569   3.16946   3.21711   3.21817
 Alpha virt. eigenvalues --    3.24422   3.27538   3.29641   3.33619   3.36000
 Alpha virt. eigenvalues --    3.37706   3.38693   3.41491   3.42358   3.44794
 Alpha virt. eigenvalues --    3.48994   3.50212   3.50265   3.51253   3.54020
 Alpha virt. eigenvalues --    3.54642   3.58620   3.59459   3.62027   3.63708
 Alpha virt. eigenvalues --    3.63743   3.64232   3.64821   3.66941   3.67873
 Alpha virt. eigenvalues --    3.70373   3.75576   3.76354   3.79111   3.83364
 Alpha virt. eigenvalues --    3.86007   3.91284   3.91301   3.93964   3.95523
 Alpha virt. eigenvalues --    3.97012   3.97754   4.03017   4.03965   4.04020
 Alpha virt. eigenvalues --    4.05360   4.06362   4.07982   4.09798   4.09998
 Alpha virt. eigenvalues --    4.12434   4.13887   4.17659   4.23355   4.24795
 Alpha virt. eigenvalues --    4.25316   4.28325   4.28479   4.28828   4.28883
 Alpha virt. eigenvalues --    4.31148   4.31563   4.34427   4.38446   4.38860
 Alpha virt. eigenvalues --    4.39127   4.44264   4.45890   4.45970   4.46854
 Alpha virt. eigenvalues --    4.49684   4.50234   4.50463   4.54997   4.55719
 Alpha virt. eigenvalues --    4.55872   4.56889   4.57424   4.58660   4.60884
 Alpha virt. eigenvalues --    4.62165   4.62356   4.63192   4.65486   4.69870
 Alpha virt. eigenvalues --    4.71169   4.74395   4.78761   4.80602   4.81692
 Alpha virt. eigenvalues --    4.83184   4.86104   4.87902   4.88705   4.96296
 Alpha virt. eigenvalues --    4.96785   4.97121   4.97365   4.99722   5.00321
 Alpha virt. eigenvalues --    5.01909   5.02644   5.03514   5.04058   5.04254
 Alpha virt. eigenvalues --    5.05523   5.07808   5.09689   5.11025   5.12804
 Alpha virt. eigenvalues --    5.15697   5.16075   5.16415   5.19237   5.19952
 Alpha virt. eigenvalues --    5.23082   5.27003   5.36010   5.36466   5.38432
 Alpha virt. eigenvalues --    5.40194   5.40453   5.44493   5.46823   5.48688
 Alpha virt. eigenvalues --    5.48802   5.54963   5.55765   5.57723   5.62610
 Alpha virt. eigenvalues --    5.64929   5.73084   5.76901   5.86484   5.87274
 Alpha virt. eigenvalues --    5.89369   5.92872   5.97645   6.07338   6.10851
 Alpha virt. eigenvalues --    6.22928   6.25024   6.25551   6.26467   6.28189
 Alpha virt. eigenvalues --    6.28651   6.49768   6.70197   6.73094   6.80991
 Alpha virt. eigenvalues --    6.88150   6.91502   7.03969   7.11661   8.76589
 Alpha virt. eigenvalues --    9.08804  11.21344  11.26731  11.38949  11.40336
 Alpha virt. eigenvalues --   11.62851  11.81378  12.09368  12.45124  13.10245
 Alpha virt. eigenvalues --   13.13699  13.14413  13.17485  19.42145  21.30317
          Condensed to atoms (all electrons):
               1          2          3          4          5          6
     1  N    4.948173   0.593221   0.593174   0.344095  -0.041179  -0.041176
     2  O    0.593221   7.978245  -0.075944  -0.135479   0.000876   0.004340
     3  O    0.593174  -0.075944   7.978384  -0.135487   0.004341   0.000877
     4  N    0.344095  -0.135479  -0.135487   6.543664   0.351426   0.351410
     5  C   -0.041179   0.000876   0.004341   0.351426   4.830004  -0.072360
     6  C   -0.041176   0.004340   0.000877   0.351410  -0.072360   4.830032
     7  C    0.001084   0.001084  -0.000095  -0.020334   0.353939   0.001510
     8  C    0.001084  -0.000095   0.001084  -0.020332   0.001510   0.353917
     9  N   -0.000081  -0.000020  -0.000020  -0.011752  -0.021906  -0.021903
    10  N    0.000000   0.000000   0.000000  -0.000089   0.001102   0.001103
    11  H   -0.006016   0.020911   0.000425  -0.016179   0.370963   0.005487
    12  H   -0.006015   0.000425   0.020912  -0.016173   0.005485   0.370971
    13  H    0.003393   0.001595   0.000119  -0.044098   0.367876  -0.001897
    14  H    0.003392   0.000118   0.001596  -0.044092  -0.001895   0.367882
    15  H   -0.000037   0.000003   0.000001   0.002493  -0.016003  -0.000413
    16  H   -0.000037   0.000001   0.000003   0.002492  -0.000413  -0.016007
    17  H    0.000316  -0.000011  -0.000006  -0.001582  -0.031075  -0.000519
    18  H    0.000316  -0.000006  -0.000011  -0.001582  -0.000519  -0.031075
    19  O    0.000000  -0.000000  -0.000000  -0.000018   0.001095  -0.000086
    20  O    0.000000  -0.000000  -0.000000  -0.000018  -0.000086   0.001095
               7          8          9         10         11         12
     1  N    0.001084   0.001084  -0.000081   0.000000  -0.006016  -0.006015
     2  O    0.001084  -0.000095  -0.000020   0.000000   0.020911   0.000425
     3  O   -0.000095   0.001084  -0.000020   0.000000   0.000425   0.020912
     4  N   -0.020334  -0.020332  -0.011752  -0.000089  -0.016179  -0.016173
     5  C    0.353939   0.001510  -0.021906   0.001102   0.370963   0.005485
     6  C    0.001510   0.353917  -0.021903   0.001103   0.005487   0.370971
     7  C    4.829238  -0.071163   0.350564  -0.040516  -0.017079  -0.000409
     8  C   -0.071163   4.829266   0.350548  -0.040514  -0.000409  -0.017083
     9  N    0.350564   0.350548   6.542185   0.333059   0.002573   0.002573
    10  N   -0.040516  -0.040514   0.333059   4.970747  -0.000033  -0.000033
    11  H   -0.017079  -0.000409   0.002573  -0.000033   0.548436  -0.000295
    12  H   -0.000409  -0.017083   0.002573  -0.000033  -0.000295   0.548414
    13  H   -0.031374  -0.000541  -0.001622   0.000333  -0.047835  -0.000204
    14  H   -0.000541  -0.031374  -0.001622   0.000333  -0.000204  -0.047834
    15  H    0.371321   0.005195  -0.015966  -0.005776  -0.001155   0.000011
    16  H    0.005194   0.371329  -0.015960  -0.005774   0.000011  -0.001154
    17  H    0.367858  -0.001623  -0.041808   0.003221  -0.003359   0.000022
    18  H   -0.001621   0.367864  -0.041802   0.003220   0.000022  -0.003360
    19  O    0.001756   0.004253  -0.132652   0.590434   0.000002   0.000001
    20  O    0.004254   0.001758  -0.132660   0.590388   0.000001   0.000002
              13         14         15         16         17         18
     1  N    0.003393   0.003392  -0.000037  -0.000037   0.000316   0.000316
     2  O    0.001595   0.000118   0.000003   0.000001  -0.000011  -0.000006
     3  O    0.000119   0.001596   0.000001   0.000003  -0.000006  -0.000011
     4  N   -0.044098  -0.044092   0.002493   0.002492  -0.001582  -0.001582
     5  C    0.367876  -0.001895  -0.016003  -0.000413  -0.031075  -0.000519
     6  C   -0.001897   0.367882  -0.000413  -0.016007  -0.000519  -0.031075
     7  C   -0.031374  -0.000541   0.371321   0.005194   0.367858  -0.001621
     8  C   -0.000541  -0.031374   0.005195   0.371329  -0.001623   0.367864
     9  N   -0.001622  -0.001622  -0.015966  -0.015960  -0.041808  -0.041802
    10  N    0.000333   0.000333  -0.005776  -0.005774   0.003221   0.003220
    11  H   -0.047835  -0.000204  -0.001155   0.000011  -0.003359   0.000022
    12  H   -0.000204  -0.047834   0.000011  -0.001154   0.000022  -0.003360
    13  H    0.617793   0.008382  -0.003439   0.000014   0.009386   0.000447
    14  H    0.008382   0.617769   0.000014  -0.003439   0.000447   0.009385
    15  H   -0.003439   0.000014   0.545461  -0.000260  -0.048059  -0.000234
    16  H    0.000014  -0.003439  -0.000260   0.545438  -0.000234  -0.048057
    17  H    0.009386   0.000447  -0.048059  -0.000234   0.614393   0.007282
    18  H    0.000447   0.009385  -0.000234  -0.048057   0.007282   0.614369
    19  O   -0.000012  -0.000007   0.020563   0.000420   0.001570   0.000092
    20  O   -0.000007  -0.000012   0.000420   0.020563   0.000092   0.001570
              19         20
     1  N    0.000000   0.000000
     2  O   -0.000000  -0.000000
     3  O   -0.000000  -0.000000
     4  N   -0.000018  -0.000018
     5  C    0.001095  -0.000086
     6  C   -0.000086   0.001095
     7  C    0.001756   0.004254
     8  C    0.004253   0.001758
     9  N   -0.132652  -0.132660
    10  N    0.590434   0.590388
    11  H    0.000002   0.000001
    12  H    0.000001   0.000002
    13  H   -0.000012  -0.000007
    14  H   -0.000007  -0.000012
    15  H    0.020563   0.000420
    16  H    0.000420   0.020563
    17  H    0.001570   0.000092
    18  H    0.000092   0.001570
    19  O    7.987940  -0.080056
    20  O   -0.080056   7.988072
 Mulliken charges:
               1
     1  N    0.606296
     2  O   -0.389265
     3  O   -0.389352
     4  N   -0.148365
     5  C   -0.103179
     6  C   -0.103186
     7  C   -0.104669
     8  C   -0.104676
     9  N   -0.141730
    10  N    0.598797
    11  H    0.143734
    12  H    0.143745
    13  H    0.121693
    14  H    0.121703
    15  H    0.145860
    16  H    0.145871
    17  H    0.123691
    18  H    0.123701
    19  O   -0.395294
    20  O   -0.395376
 Sum of Mulliken charges =  -0.00000
 Mulliken charges with hydrogens summed into heavy atoms:
               1
     1  N    0.606296
     2  O   -0.389265
     3  O   -0.389352
     4  N   -0.148365
     5  C    0.162248
     6  C    0.162262
     7  C    0.164882
     8  C    0.164897
     9  N   -0.141730
    10  N    0.598797
    19  O   -0.395294
    20  O   -0.395376
 APT charges:
               1
     1  N   -1.283645
     2  O    0.565483
     3  O    0.565221
     4  N   -0.244588
     5  C   -0.567799
     6  C   -0.567828
     7  C   -0.562658
     8  C   -0.562691
     9  N   -0.247910
    10  N   -1.275652
    11  H    0.448091
    12  H    0.448115
    13  H    0.315620
    14  H    0.315638
    15  H    0.449822
    16  H    0.449846
    17  H    0.323383
    18  H    0.323402
    19  O    0.554204
    20  O    0.553944
 Sum of APT charges =  -0.00000
 APT charges with hydrogens summed into heavy atoms:
               1
     1  N   -1.283645
     2  O    0.565483
     3  O    0.565221
     4  N   -0.244588
     5  C    0.195913
     6  C    0.195925
     7  C    0.210547
     8  C    0.210557
     9  N   -0.247910
    10  N   -1.275652
    19  O    0.554204
    20  O    0.553944
 Electronic spatial extent (au):  <R**2>=           2332.0677
 Charge=             -0.0000 electrons
 Dipole moment (field-independent basis, Debye):
    X=              0.1989    Y=             -0.0006    Z=              0.0270  Tot=              0.2007
 Quadrupole moment (field-independent basis, Debye-Ang):
   XX=           -101.2201   YY=            -65.7161   ZZ=            -64.2728
   XY=             -0.0000   XZ=             -1.4598   YZ=              0.0000
 Traceless Quadrupole moment (field-independent basis, Debye-Ang):
   XX=            -24.1504   YY=             11.3536   ZZ=             12.7969
   XY=             -0.0000   XZ=             -1.4598   YZ=              0.0000
 Octapole moment (field-independent basis, Debye-Ang**2):
  XXX=              3.4525  YYY=              0.0003  ZZZ=             -0.0992  XYY=              0.2140
  XXY=             -0.0083  XXZ=              0.5587  XZZ=              0.0827  YZZ=             -0.0003
  YYZ=              0.1327  XYZ=             -0.0002
 Hexadecapole moment (field-independent basis, Debye-Ang**3):
 XXXX=          -2604.5067 YYYY=           -446.4055 ZZZZ=            -84.6065 XXXY=             -0.0006
 XXXZ=              2.6866 YYYX=             -0.0001 YYYZ=              0.0000 ZZZX=             -0.9842
 ZZZY=              0.0000 XXYY=           -496.1647 XXZZ=           -352.9094 YYZZ=            -90.1249
 XXYZ=              0.0001 YYXZ=              1.1674 ZZXY=             -0.0000
 N-N= 7.787333520988D+02 E-N=-3.142317230661D+03  KE= 6.744130502281D+02
  Exact polarizability:   0.000   0.000   0.000   0.000   0.000   0.000
 Approx polarizability: 149.988  -0.000 161.438  -2.283  -0.000  79.579
 No NMR shielding tensors so no spin-rotation constants.
 Leave Link  601 at Fri Aug 27 10:26:21 2021, MaxMem= 24159191040 cpu:        23.3
 (Enter /public/home/users/caep010/software/Gaussian09/g09/l701.exe)
 Compute integral second derivatives.
 ... and contract with generalized density number  0.
 Leave Link  701 at Fri Aug 27 10:26:22 2021, MaxMem= 24159191040 cpu:        19.3
 (Enter /public/home/users/caep010/software/Gaussian09/g09/l702.exe)
 L702 exits ... SP integral derivatives will be done elsewhere.
 Leave Link  702 at Fri Aug 27 10:26:22 2021, MaxMem= 24159191040 cpu:         0.7
 (Enter /public/home/users/caep010/software/Gaussian09/g09/l703.exe)
 Compute integral second derivatives, UseDBF=F ICtDFT=           0.
 Integral derivatives from FoFJK, PRISM(SPDF).
 Calling FoFJK, ICntrl=    100147 FMM=F ISym2X=0 I1Cent= 0 IOpClX= 0 NMat=1 NMatS=1 NMatT=0.
 FoFJK:  IHMeth= 1 ICntrl=  100147 DoSepK=F KAlg= 0 I1Cent=   0 FoldK=F
 IRaf=         0 NMat=   1 IRICut=       1 DoRegI=T DoRafI=F ISym2E= 0.
 FoFCou: FMM=F IPFlag=           0 FMFlag=      100000 FMFlg1=         800
         NFxFlg=           0 DoJE=F BraDBF=F KetDBF=F FulRan=T
         wScrn=  0.000000 ICntrl=  100147 IOpCl=  0 I1Cent=           0 NGrid=           0
         NMat0=    1 NMatS0=      1 NMatT0=    0 NMatD0=    1 NMtDS0=    0 NMtDT0=    0
 Symmetry not used in FoFCou.
 Leave Link  703 at Fri Aug 27 10:27:10 2021, MaxMem= 24159191040 cpu:      1502.3
 (Enter /public/home/users/caep010/software/Gaussian09/g09/l716.exe)
 Dipole        = 7.82464668D-02-2.27078337D-04 1.06115761D-02
 Polarizability= 0.00000000D+00 0.00000000D+00 0.00000000D+00
                 0.00000000D+00 0.00000000D+00 0.00000000D+00
 ***** Axes restored to original set *****
 -------------------------------------------------------------------
 Center     Atomic                   Forces (Hartrees/Bohr)
 Number     Number              X              Y              Z
 -------------------------------------------------------------------
      1        7          -0.000618464    0.000088586   -0.013603262
      2        8          -0.003894356   -0.015765211   -0.000477613
      3        8          -0.003863693    0.015674896   -0.000441999
      4        7           0.008368347    0.000048402    0.000503824
      5        6           0.082863657    0.081223149   -0.000245392
      6        6           0.082866384   -0.081259961   -0.000259290
      7        6          -0.081490988    0.089491147   -0.001903686
      8        6          -0.081493260   -0.089527170   -0.001890753
      9        7          -0.004900838    0.000047333    0.002488261
     10        7           0.012993622    0.000080606    0.023580415
     11        1           0.000085891   -0.086804166   -0.070749236
     12        1           0.000085280    0.086797739   -0.070754161
     13        1          -0.093492376   -0.006154724    0.074618813
     14        1          -0.093492790    0.006151316    0.074615487
     15        1          -0.002167836   -0.085920417    0.072569232
     16        1          -0.002167123    0.085914055    0.072574071
     17        1           0.093480272   -0.008420461   -0.073786984
     18        1           0.093480759    0.008416898   -0.073783719
     19        8          -0.003307641   -0.003699491   -0.006510661
     20        8          -0.003334848    0.003617474   -0.006543350
 -------------------------------------------------------------------
 Cartesian Forces:  Max     0.093492790 RMS     0.052520364
 FormGI is forming the generalized inverse of G from B-inverse, IUseBI=4.
 Leave Link  716 at Fri Aug 27 10:27:10 2021, MaxMem= 24159191040 cpu:         1.1
 (Enter /public/home/users/caep010/software/Gaussian09/g09/l103.exe)

 GradGradGradGradGradGradGradGradGradGradGradGradGradGradGradGradGradGrad
 Berny optimization.
 Red2BG is reusing G-inverse.
 Internal  Forces:  Max     0.119770104 RMS     0.032140250
 Search for a local minimum.
 Step number   1 out of a maximum of  116
 All quantities printed in internal units (Hartrees-Bohrs-Radians)
 RMS Force = .32140D-01 SwitMx=.10000D-02 MixMth= 1
 Mixed Optimization -- RFO/linear search
 Second derivative matrix not updated -- analytic derivatives used.
 ITU=  0
     Eigenvalues ---    0.00390   0.00457   0.00482   0.00627   0.00980
     Eigenvalues ---    0.00984   0.01056   0.02230   0.04020   0.04468
     Eigenvalues ---    0.04722   0.04814   0.04966   0.05926   0.06374
     Eigenvalues ---    0.06935   0.07469   0.08303   0.08532   0.08951
     Eigenvalues ---    0.09245   0.09689   0.11827   0.13529   0.14184
     Eigenvalues ---    0.17148   0.18987   0.21779   0.22026   0.24657
     Eigenvalues ---    0.27196   0.27623   0.28126   0.30869   0.31308
     Eigenvalues ---    0.33284   0.35712   0.36403   0.38865   0.41042
     Eigenvalues ---    0.48278   0.49090   0.60912   0.66316   0.67895
     Eigenvalues ---    0.67918   0.68039   0.68049   0.68438   0.68552
     Eigenvalues ---    0.68654   0.68723   0.77250   0.83366
 RFO step:  Lambda=-1.34866290D-01 EMin= 3.89669488D-03
 Linear search not attempted -- first point.
 Maximum step size (   0.300) exceeded in Quadratic search.
    -- Step size scaled by   0.735
 Iteration  1 RMS(Cart)=  0.03144597 RMS(Int)=  0.00010202
 Iteration  2 RMS(Cart)=  0.00008483 RMS(Int)=  0.00000562
 Iteration  3 RMS(Cart)=  0.00000001 RMS(Int)=  0.00000562
 ITry= 1 IFail=0 DXMaxC= 9.30D-02 DCOld= 1.00D+10 DXMaxT= 3.00D-01 DXLimC= 3.00D+00 Rises=F
 Variable       Old X    -DE/DX   Delta X   Delta X   Delta X     New X
                                 (Linear)    (Quad)   (Total)
    R1        2.29505   0.01530   0.00000   0.00925   0.00925   2.30430
    R2        2.29522   0.01520   0.00000   0.00915   0.00915   2.30437
    R3        2.59419   0.01624   0.00000   0.02453   0.02453   2.61872
    R4        2.74268   0.01259   0.00000   0.01509   0.01509   2.75777
    R5        2.74284   0.01254   0.00000   0.01501   0.01502   2.75786
    R6        2.86249   0.01073   0.00000   0.01393   0.01393   2.87642
    R7        1.83304   0.11192   0.00000   0.10039   0.10039   1.93343
    R8        1.83120   0.11977   0.00000   0.10763   0.10763   1.93883
    R9        2.86249   0.01073   0.00000   0.01393   0.01393   2.87642
   R10        1.83304   0.11191   0.00000   0.10039   0.10039   1.93343
   R11        1.83120   0.11977   0.00000   0.10763   0.10763   1.93883
   R12        2.75233   0.00865   0.00000   0.00934   0.00934   2.76167
   R13        1.83218   0.11240   0.00000   0.10060   0.10060   1.93278
   R14        1.83138   0.11938   0.00000   0.10739   0.10739   1.93877
   R15        2.75249   0.00860   0.00000   0.00927   0.00927   2.76176
   R16        1.83218   0.11240   0.00000   0.10060   0.10060   1.93278
   R17        1.83138   0.11938   0.00000   0.10739   0.10739   1.93877
   R18        2.58408   0.01205   0.00000   0.02356   0.02356   2.60763
   R19        2.31757  -0.00009   0.00000  -0.00334  -0.00334   2.31422
   R20        2.31773  -0.00019   0.00000  -0.00344  -0.00344   2.31429
    A1        2.17969   0.00704   0.00000   0.01122   0.01119   2.19089
    A2        2.05025  -0.00332   0.00000  -0.00512  -0.00515   2.04511
    A3        2.05021  -0.00332   0.00000  -0.00510  -0.00513   2.04509
    A4        2.00544   0.00048   0.00000   0.00137   0.00137   2.00681
    A5        2.00542   0.00048   0.00000   0.00138   0.00138   2.00680
    A6        2.00187  -0.00042   0.00000  -0.00122  -0.00121   2.00066
    A7        1.91633  -0.00168   0.00000  -0.00356  -0.00357   1.91276
    A8        1.91426  -0.00053   0.00000  -0.00320  -0.00321   1.91105
    A9        1.91561   0.00076   0.00000   0.00234   0.00235   1.91796
   A10        1.91419  -0.00017   0.00000   0.00021   0.00020   1.91439
   A11        1.91487   0.00051   0.00000   0.00203   0.00203   1.91690
   A12        1.88838   0.00115   0.00000   0.00227   0.00227   1.89065
   A13        1.91631  -0.00167   0.00000  -0.00355  -0.00355   1.91275
   A14        1.91429  -0.00054   0.00000  -0.00322  -0.00323   1.91107
   A15        1.91559   0.00076   0.00000   0.00235   0.00235   1.91794
   A16        1.91419  -0.00017   0.00000   0.00021   0.00020   1.91440
   A17        1.91487   0.00051   0.00000   0.00203   0.00203   1.91689
   A18        1.88838   0.00115   0.00000   0.00227   0.00227   1.89065
   A19        1.90164   0.00174   0.00000   0.00324   0.00323   1.90488
   A20        1.91687  -0.00085   0.00000  -0.00100  -0.00099   1.91588
   A21        1.91750  -0.00006   0.00000   0.00068   0.00068   1.91818
   A22        1.91818  -0.00202   0.00000  -0.00600  -0.00599   1.91219
   A23        1.91809  -0.00048   0.00000   0.00055   0.00055   1.91864
   A24        1.89159   0.00164   0.00000   0.00247   0.00247   1.89406
   A25        1.90162   0.00175   0.00000   0.00325   0.00325   1.90487
   A26        1.91687  -0.00085   0.00000  -0.00099  -0.00099   1.91589
   A27        1.91750  -0.00007   0.00000   0.00068   0.00068   1.91818
   A28        1.91822  -0.00203   0.00000  -0.00601  -0.00601   1.91221
   A29        1.91807  -0.00048   0.00000   0.00055   0.00055   1.91862
   A30        1.89159   0.00165   0.00000   0.00247   0.00247   1.89406
   A31        2.02733  -0.00148   0.00000  -0.00515  -0.00516   2.02217
   A32        2.01469   0.00073   0.00000   0.00224   0.00224   2.01693
   A33        2.01466   0.00073   0.00000   0.00225   0.00225   2.01691
   A34        2.05988  -0.00606   0.00000  -0.00980  -0.00981   2.05007
   A35        2.05984  -0.00606   0.00000  -0.00979  -0.00979   2.05005
   A36        2.16165   0.01231   0.00000   0.02005   0.02004   2.18169
    D1       -0.42073   0.00308   0.00000   0.00741   0.00742  -0.41331
    D2       -2.80028   0.00265   0.00000   0.00617   0.00617  -2.79411
    D3        2.80024  -0.00264   0.00000  -0.00617  -0.00616   2.79408
    D4        0.42070  -0.00308   0.00000  -0.00741  -0.00742   0.41329
    D5        2.90563  -0.00127   0.00000  -0.00436  -0.00435   2.90128
    D6        0.80108   0.00033   0.00000  -0.00036  -0.00037   0.80071
    D7       -1.27131  -0.00121   0.00000  -0.00262  -0.00261  -1.27393
    D8       -0.99645  -0.00043   0.00000  -0.00197  -0.00197  -0.99841
    D9       -3.10100   0.00116   0.00000   0.00202   0.00202  -3.09898
   D10        1.10979  -0.00038   0.00000  -0.00023  -0.00023   1.10956
   D11       -2.90563   0.00126   0.00000   0.00435   0.00434  -2.90129
   D12       -0.80107  -0.00033   0.00000   0.00036   0.00036  -0.80071
   D13        1.27134   0.00121   0.00000   0.00261   0.00260   1.27394
   D14        0.99644   0.00043   0.00000   0.00197   0.00196   0.99840
   D15        3.10100  -0.00116   0.00000  -0.00202  -0.00202   3.09898
   D16       -1.10978   0.00038   0.00000   0.00022   0.00022  -1.10955
   D17        0.91954   0.00114   0.00000   0.00424   0.00424   0.92378
   D18        3.02146  -0.00078   0.00000  -0.00171  -0.00171   3.01975
   D19       -1.18265   0.00068   0.00000   0.00113   0.00113  -1.18152
   D20        3.02413  -0.00067   0.00000  -0.00182  -0.00182   3.02231
   D21       -1.15713  -0.00259   0.00000  -0.00777  -0.00777  -1.16490
   D22        0.92195  -0.00113   0.00000  -0.00493  -0.00493   0.91702
   D23       -1.18715   0.00094   0.00000   0.00231   0.00231  -1.18484
   D24        0.91477  -0.00098   0.00000  -0.00364  -0.00364   0.91113
   D25        2.99385   0.00048   0.00000  -0.00080  -0.00080   2.99305
   D26       -0.91947  -0.00115   0.00000  -0.00426  -0.00426  -0.92373
   D27       -3.02143   0.00077   0.00000   0.00170   0.00170  -3.01972
   D28        1.18268  -0.00069   0.00000  -0.00114  -0.00114   1.18154
   D29       -3.02410   0.00067   0.00000   0.00181   0.00181  -3.02229
   D30        1.15713   0.00259   0.00000   0.00777   0.00777   1.16491
   D31       -0.92195   0.00113   0.00000   0.00493   0.00493  -0.91702
   D32        1.18718  -0.00094   0.00000  -0.00232  -0.00232   1.18486
   D33       -0.91477   0.00098   0.00000   0.00364   0.00364  -0.91113
   D34       -2.99385  -0.00048   0.00000   0.00080   0.00080  -2.99306
   D35       -0.96420  -0.00082   0.00000  -0.00342  -0.00342  -0.96763
   D36        2.87975  -0.00111   0.00000  -0.00348  -0.00348   2.87627
   D37       -3.06532   0.00038   0.00000  -0.00055  -0.00055  -3.06587
   D38        0.77864   0.00009   0.00000  -0.00061  -0.00061   0.77802
   D39        1.13762  -0.00011   0.00000  -0.00023  -0.00023   1.13739
   D40       -1.30161  -0.00040   0.00000  -0.00029  -0.00029  -1.30191
   D41        0.96419   0.00081   0.00000   0.00342   0.00342   0.96761
   D42       -2.87975   0.00110   0.00000   0.00348   0.00348  -2.87627
   D43        3.06531  -0.00038   0.00000   0.00055   0.00055   3.06587
   D44       -0.77863  -0.00009   0.00000   0.00061   0.00061  -0.77802
   D45       -1.13761   0.00010   0.00000   0.00023   0.00023  -1.13738
   D46        1.30164   0.00039   0.00000   0.00028   0.00028   1.30192
   D47       -0.37968   0.00147   0.00000   0.00284   0.00284  -0.37684
   D48        2.82404  -0.00208   0.00000  -0.00579  -0.00579   2.81824
   D49       -2.82406   0.00208   0.00000   0.00579   0.00579  -2.81827
   D50        0.37965  -0.00147   0.00000  -0.00284  -0.00284   0.37681
         Item               Value     Threshold  Converged?
 Maximum Force            0.119770     0.000450     NO 
 RMS     Force            0.032140     0.000300     NO 
 Maximum Displacement     0.092958     0.001800     NO 
 RMS     Displacement     0.031443     0.001200     NO 
 Predicted change in Energy=-6.880191D-02
 Lowest energy point so far.  Saving SCF results.
 GradGradGradGradGradGradGradGradGradGradGradGradGradGradGradGradGradGrad

 Leave Link  103 at Fri Aug 27 10:27:10 2021, MaxMem= 24159191040 cpu:         3.7
 (Enter /public/home/users/caep010/software/Gaussian09/g09/l202.exe)
                          Input orientation:                          
 ---------------------------------------------------------------------
 Center     Atomic      Atomic             Coordinates (Angstroms)
 Number     Number       Type             X           Y           Z
 ---------------------------------------------------------------------
      1          7           0        5.911447    2.732719    0.466548
      2          8           0        5.549552    1.648536    0.041732
      3          8           0        5.549550    3.816950    0.041743
      4          7           0        6.875712    2.732718    1.461806
      5          6           0        6.951824    1.504467    2.246222
      6          6           0        6.951827    3.961026    2.246217
      7          6           0        8.241385    1.494314    3.054819
      8          6           0        8.241382    3.971179    3.054823
      9          7           0        8.333670    2.732719    3.825251
     10          7           0        9.265468    2.732720    4.843032
     11          1           0        6.932197    0.696718    1.618570
     12          1           0        6.932202    4.768772    1.618563
     13          1           0        6.145009    1.442557    2.876986
     14          1           0        6.145009    4.022936    2.876978
     15          1           0        8.244224    0.693897    3.691537
     16          1           0        8.244219    4.771594    3.691543
     17          1           0        9.047592    1.413033    2.425533
     18          1           0        9.047592    4.052459    2.425541
     19          8           0        9.625369    1.646456    5.279184
     20          8           0        9.625370    3.819029    5.279173
 ---------------------------------------------------------------------
                    Distance matrix (angstroms):
                    1          2          3          4          5
     1  N    0.000000
     2  O    1.219381   0.000000
     3  O    1.219420   2.168414   0.000000
     4  N    1.385766   2.225031   2.225049   0.000000
     5  C    2.399631   2.616658   3.489080   1.459350   0.000000
     6  C    2.399657   3.489089   2.616647   1.459396   2.456559
     7  C    3.696134   4.043321   4.660390   2.436472   1.522136
     8  C    3.696153   4.660401   4.043315   2.436502   2.898528
     9  N    4.141021   4.820973   4.820976   2.776961   2.431344
    10  N    5.513898   6.167331   6.167331   4.140486   3.688492
    11  H    2.552330   2.303059   3.759514   2.042807   1.023128
    12  H    2.552370   3.759520   2.303052   2.042861   3.324159
    13  H    2.743954   2.904421   3.745787   2.049678   1.025987
    14  H    2.743972   3.745793   2.904403   2.049708   2.718730
    15  H    4.472046   4.636126   5.507787   3.316823   2.101489
    16  H    4.472072   5.507798   4.636122   3.316859   3.799125
    17  H    3.926144   4.239605   4.868015   2.717977   2.105411
    18  H    3.926165   4.868026   4.239605   2.718007   3.304037
    19  O    6.175327   6.636505   6.982416   4.828349   4.045598
    20  O    6.175326   6.982415   6.636489   4.828352   4.658738
                    6          7          8          9         10
     6  C    0.000000
     7  C    2.898528   0.000000
     8  C    1.522136   2.476864   0.000000
     9  N    2.431374   1.461413   1.461458   0.000000
    10  N    3.688512   2.404184   2.404210   1.379901   0.000000
    11  H    3.324159   2.100701   3.807740   3.313437   4.470639
    12  H    1.023127   3.807738   2.100703   3.313473   4.470665
    13  H    2.718734   2.104542   3.289428   2.711819   3.907317
    14  H    1.025986   3.289429   2.104540   2.711848   3.907337
    15  H    3.799128   1.022783   3.338561   2.045159   2.554541
    16  H    2.101491   3.338560   1.022783   2.045212   2.554581
    17  H    3.304036   1.025952   2.755012   2.051942   2.762851
    18  H    2.105409   2.755007   1.025951   2.051972   2.762869
    19  O    4.658750   2.624188   3.502505   2.227639   1.224634
    20  O    4.045592   3.502494   2.624177   2.227655   1.224669
                   11         12         13         14         15
    11  H    0.000000
    12  H    4.072055   0.000000
    13  H    1.661190   3.642391   0.000000
    14  H    3.642387   1.661190   2.580380   0.000000
    15  H    2.453286   4.756389   2.372907   4.019043   0.000000
    16  H    4.756388   2.453293   4.019039   2.372906   4.077697
    17  H    2.374699   4.048094   2.937631   3.929425   1.662926
    18  H    4.048098   2.374699   3.929425   2.937627   3.678055
    19  O    4.642766   5.513816   4.233797   4.850892   2.309882
    20  O    5.513803   4.642762   4.850880   4.233796   3.767573
                   16         17         18         19         20
    16  H    0.000000
    17  H    3.678059   0.000000
    18  H    1.662927   2.639426   0.000000
    19  O    3.767581   2.920897   3.777031   0.000000
    20  O    2.309876   3.777023   2.920879   2.172573   0.000000
 Stoichiometry    C4H8N4O4
 Framework group  C1[X(C4H8N4O4)]
 Deg. of freedom    54
 Full point group                 C1      NOp   1
 RotChk:  IX=0 Diff= 1.20D-03
 Largest Abelian subgroup         C1      NOp   1
 Largest concise Abelian subgroup C1      NOp   1
                         Standard orientation:                         
 ---------------------------------------------------------------------
 Center     Atomic      Atomic             Coordinates (Angstroms)
 Number     Number       Type             X           Y           Z
 ---------------------------------------------------------------------
      1          7           0        2.758689   -0.000018    0.037615
      2          8           0        3.316382   -1.084201    0.017240
      3          8           0        3.316374    1.084213    0.017232
      4          7           0        1.379918   -0.000019    0.176669
      5          6           0        0.717414   -1.228270   -0.250168
      6          6           0        0.717416    1.228289   -0.250163
      7          6           0       -0.716708   -1.238422    0.259824
      8          6           0       -0.716709    1.238442    0.259820
      9          7           0       -1.378274   -0.000018   -0.145653
     10          7           0       -2.754574   -0.000016   -0.046037
[...]
 02,0.54259557,-0.00123866,0.00387823,0.00047008,-0.00046292,-0.0005171
 1,-0.00063151,-0.00086714,-0.00032866,-0.00128542,-0.01938387,0.005475
 69,-0.01916631,-0.04244674,0.00553214,-0.09779900,0.00063058,0.0005800
 6,0.00207232,-0.03694405,-0.08765369,0.55220760,0.00044300,0.00078822,
 0.00101599,0.00081297,0.00147992,0.00132949,0.00094944,0.00084588,0.00
 090515,-0.00255127,-0.00772346,-0.00786557,0.00063872,-0.00156311,0.00
 062968,-0.16980909,-0.00519392,-0.04244524,-0.00028303,0.00152477,0.00
 633647,0.52057624,0.00127835,-0.00916363,0.00375523,-0.00195300,-0.001
 66871,-0.00386182,0.00031589,0.00237286,0.00085289,-0.02973882,-0.0023
 3754,-0.02509950,-0.00156299,0.00234873,-0.00057908,0.00518956,-0.0758
 7984,0.00551769,-0.00152478,-0.02987075,0.01399761,0.01269410,0.542595
 28,-0.00123867,-0.00387824,0.00047007,-0.00086714,0.00032867,-0.001285
 42,-0.00046293,0.00051711,-0.00063151,-0.01938390,-0.00547570,-0.01916
 631,0.00063058,-0.00058006,0.00207232,-0.04244679,-0.00553213,-0.09779
 901,0.00633647,-0.01399759,0.01445140,-0.03694393,0.08765394,0.5522076
 2,0.00134448,0.,0.00109496,-0.00084846,0.00023270,-0.00103261,-0.00084
 846,-0.00023270,-0.00103260,0.00274520,0.,0.00292669,-0.00254543,-0.02
 973594,-0.01938181,-0.00254544,0.02973596,-0.01938184,-0.05687014,0.00
 441199,-0.02078866,-0.05687018,-0.00441206,-0.02078862,0.20495455,0.,-
 0.00036031,0.,-0.00024215,0.00011945,-0.00014537,0.00024216,0.00011945
 ,0.00014537,0.,-0.00063214,0.,-0.00772602,-0.00234664,-0.00548449,0.00
 772602,-0.00234666,0.00548451,0.02725476,-0.17702071,-0.04804655,-0.02
 725480,-0.17702038,0.04804639,0.00000012,0.61639380,0.00023737,0.,-0.0
 0049592,-0.00044560,0.00063714,-0.00039114,-0.00044560,-0.00063714,-0.
 00039114,0.00292825,0.,0.00392117,-0.00786698,-0.02511162,-0.01917211,
 -0.00786699,0.02511162,-0.01917211,0.00262639,-0.03065235,-0.11763519,
 0.00262641,0.03065219,-0.11763514,0.14641587,0.00000014,0.44382251,-0.
 00311821,0.,-0.00373058,0.00094435,0.00079666,0.00126745,0.00094435,-0
 .00079666,0.00126745,0.00134496,0.,0.00023755,0.00044302,0.00126901,-0
 .00124577,0.00044302,-0.00126902,-0.00124578,-0.02037910,-0.01846618,0
 .00017626,-0.02037908,0.01846620,0.00017625,-0.06919581,-0.00000002,-0
 .05204565,0.38000095,0.,-0.00114743,0.,-0.00037206,-0.00011958,-0.0005
 2259,0.00037207,-0.00011958,0.00052259,0.,-0.00036010,0.,0.00078536,-0
 .00916180,-0.00387728,-0.00078535,-0.00916181,0.00387729,-0.02476547,0
 .01206764,-0.02315715,0.02476547,0.01206766,0.02315714,-0.00000005,-0.
 14408343,0.,0.00000070,1.03102083,-0.00373655,0.,-0.00437625,0.0013137
 4,0.00089414,0.00166424,0.00131374,-0.00089413,0.00166424,0.00109583,0
 .,-0.00049975,0.00101585,0.00376443,0.00047237,0.00101585,-0.00376442,
 0.00047236,-0.02167256,-0.02486839,-0.02531322,-0.02167258,0.02486838,
 -0.02531324,-0.01187220,0.00000002,-0.11724842,0.17192922,0.00000016,0
 .49542980,0.00247572,0.00231071,0.00219412,-0.00283971,-0.00069058,-0.
 00301734,-0.00002098,-0.00093690,-0.00043280,-0.00201940,0.00161608,0.
 00016856,-0.04615420,-0.00254642,0.00315896,-0.00024758,0.00068193,-0.
 00086321,-0.00019277,-0.02285563,-0.01688683,0.00003347,0.00031567,-0.
 00008740,-0.00437023,0.00151897,-0.00388049,0.00021145,-0.00224610,0.0
 0037093,0.05086956,-0.00232372,-0.00413278,-0.00439030,-0.00072970,0.0
 0411009,0.00007822,0.00004954,0.00143345,0.00032799,-0.00079051,-0.030
 64892,-0.01510322,-0.00063482,-0.21030930,-0.13203313,0.00149574,-0.00
 223721,0.00463550,-0.00154897,0.00160794,0.00002778,0.00055884,0.00006
 112,0.00053729,0.00126627,0.00134681,0.00126940,-0.00010167,0.00045296
 ,-0.00016305,0.00332767,0.23531858,0.00057304,0.00029358,0.00217088,-0
 .00328649,0.00105744,-0.00549838,0.00024131,-0.00060541,-0.00028366,0.
 00064647,0.01807671,0.01447867,0.00256195,-0.14329554,-0.16358482,-0.0
 0105230,0.00286217,-0.00283047,0.00169016,-0.01085287,-0.00942670,-0.0
 0011437,0.00016765,-0.00035035,-0.00312641,0.00078505,-0.00129414,-0.0
 0002063,-0.00108479,0.00107502,0.00241195,0.14463923,0.17545149,0.0024
 7573,-0.00231072,0.00219412,-0.00002098,0.00093690,-0.00043280,-0.0028
 3973,0.00069058,-0.00301735,-0.00201941,-0.00161606,0.00016857,-0.0002
 4758,-0.00068193,-0.00086321,-0.04615420,0.00254655,0.00315886,0.00003
 347,-0.00031567,-0.00008740,-0.00019278,0.02285564,-0.01688684,-0.0043
 7024,-0.00151897,-0.00388049,0.00021145,0.00224610,0.00037092,0.000405
 71,-0.00015392,0.00009092,0.05086956,0.00232373,-0.00413280,0.00439030
 ,-0.00004954,0.00143345,-0.00032798,0.00072969,0.00411010,-0.00007823,
 0.00079052,-0.03064893,0.01510321,-0.00149573,-0.00223721,-0.00463550,
 0.00063494,-0.21030934,0.13203317,-0.00055884,0.00006112,-0.00053729,0
 .00154896,0.00160795,-0.00002779,-0.00126627,0.00134681,-0.00126940,0.
 00010167,0.00045296,0.00016305,0.00015392,-0.00115783,0.00098505,-0.00
 332781,0.23531862,0.00057304,-0.00029359,0.00217087,0.00024131,0.00060
 541,-0.00028366,-0.00328651,-0.00105743,-0.00549838,0.00064648,-0.0180
 7671,0.01447867,-0.00105230,-0.00286217,-0.00283047,0.00256185,0.14329
 557,-0.16358486,-0.00011437,-0.00016765,-0.00035035,0.00169015,0.01085
 286,-0.00942669,-0.00312642,-0.00078505,-0.00129414,-0.00002063,0.0010
 8479,0.00107502,0.00009092,-0.00098504,0.00070374,0.00241207,-0.144639
 25,0.17545154,0.00211714,-0.00016733,-0.00095878,0.00000206,-0.0001525
 1,0.00116690,-0.00078289,0.00059117,0.00045514,0.00682534,-0.00215899,
 -0.00204308,-0.20014082,-0.00987657,0.11832080,0.00023780,-0.00028745,
 -0.00037518,-0.02561568,0.00084487,0.01749481,-0.00033672,-0.00010914,
 0.00004611,0.00288267,0.00038617,0.00083860,-0.00007914,0.00033388,-0.
 00046087,0.00058550,0.00004612,-0.00091093,0.00008829,-0.00007976,-0.0
 0007860,0.21735458,-0.00648721,-0.00134876,-0.00447487,0.00034857,0.00
 209432,0.00100049,0.00195128,-0.00133421,0.00023271,-0.01881886,-0.015
 03690,0.03066717,-0.00903280,-0.05003377,0.00309897,-0.00155035,0.0035
 2267,0.00291176,-0.00009354,-0.00024334,-0.00153049,0.00006077,-0.0006
 1320,-0.00000991,0.00011881,0.00038731,0.00113924,-0.00060420,0.000047
 74,-0.00074208,0.01965516,0.00316469,-0.01363476,0.00050459,0.00000075
 ,-0.00015990,0.01196436,0.05759929,0.00710759,0.00265707,0.00455816,-0
 .00155662,-0.00266165,0.00017260,-0.00148876,0.00121407,-0.00088396,0.
 00817659,0.01335837,-0.01945186,0.12017410,0.00384153,-0.14259736,-0.0
 0057447,-0.00166665,-0.00028722,-0.01604656,-0.00136916,0.01036853,-0.
 00027796,0.00035672,-0.00007197,0.00082814,0.00088886,0.00142840,-0.00
 003188,0.00050262,-0.00025899,0.01660883,0.00104397,-0.01092072,-0.000
 19210,0.00006836,0.00006506,-0.13006632,-0.01803774,0.15739122,0.00211
 713,0.00016733,-0.00095878,-0.00078289,-0.00059117,0.00045514,0.000002
 07,0.00015251,0.00116690,0.00682534,0.00215899,-0.00204308,0.00023780,
 0.00028746,-0.00037518,-0.20014072,0.00987651,0.11832085,-0.00033673,0
 .00010914,0.00004611,-0.02561569,-0.00084487,0.01749484,0.00288268,-0.
 00038617,0.00083860,-0.00007914,-0.00033388,-0.00046087,0.00008829,0.0
 0007976,-0.00007860,0.00058551,-0.00004612,-0.00091094,-0.00025900,0.0
 0074679,-0.00009249,0.21735448,0.00648720,-0.00134877,0.00447486,-0.00
 195128,-0.00133421,-0.00023271,-0.00034858,0.00209432,-0.00100049,0.01
 881887,-0.01503687,-0.03066717,0.00155035,0.00352268,-0.00291176,0.009
 03274,-0.05003377,-0.00309894,-0.00006077,-0.00061320,0.00000991,0.000
 09354,-0.00024334,0.00153050,-0.00011881,0.00038731,-0.00113924,0.0006
 0420,0.00004774,0.00074208,-0.00050459,0.00000075,0.00015990,-0.019655
 16,0.00316468,0.01363477,-0.00074679,0.00015204,0.00096930,-0.01196430
 ,0.05759927,0.00710759,-0.00265708,0.00455816,-0.00148876,-0.00121407,
 -0.00088396,-0.00155662,0.00266165,0.00017260,0.00817659,-0.01335834,-
 0.01945187,-0.00057447,0.00166665,-0.00028722,0.12017415,-0.00384151,-
 0.14259751,-0.00027796,-0.00035672,-0.00007197,-0.01604655,0.00136916,
 0.01036853,0.00082814,-0.00088886,0.00142840,-0.00003188,-0.00050263,-
 0.00025899,-0.00019210,-0.00006836,0.00006506,0.01660882,-0.00104396,-
 0.01092073,-0.00009249,-0.00096930,0.00062380,-0.13006638,0.01803770,0
 .15739139,0.00021406,0.00224620,0.00036886,-0.00008433,-0.00041825,-0.
 00004646,-0.00058517,0.00023023,-0.00083389,-0.00437135,-0.00152050,-0
 .00387788,-0.00019153,0.02285694,-0.01688699,0.00003342,-0.00031572,-0
 .00008725,-0.04615708,0.00255628,0.00314592,-0.00024801,-0.00068254,-0
 .00086314,-0.00202047,-0.00161646,0.00017072,0.00247493,-0.00230913,0.
 00219503,0.00089911,-0.00045417,0.00036384,-0.00005119,0.00002183,-0.0
 0003285,0.00097694,0.00033955,0.00084222,0.00001801,0.00008058,0.00006
 475,0.05086769,0.00010196,0.00045314,0.00016300,-0.00001441,-0.0000155
 5,-0.00002458,-0.00022292,0.00026626,-0.00030920,-0.00126672,0.0013463
 2,-0.00126940,0.00154955,0.00160977,-0.00003004,-0.00055875,0.00006116
 ,-0.00053723,0.00064590,-0.21030653,0.13203240,-0.00149467,-0.00223796
 ,-0.00463615,0.00078945,-0.03064940,0.01510662,0.00232220,-0.00413383,
 0.00439389,0.00045416,0.00033861,0.00013093,0.00002181,0.00006283,0.00
 001858,0.00023552,0.00027854,-0.00007679,0.00006566,0.00005903,0.00007
 745,-0.00333706,0.23531433,-0.00001969,0.00108495,0.00107330,-0.000030
 98,-0.00033988,-0.00013284,-0.00016135,0.00019633,-0.00053698,-0.00312
 454,-0.00078693,-0.00129163,0.00169007,0.01084932,-0.00942458,-0.00011
 418,-0.00016699,-0.00034977,0.00254939,0.14329919,-0.16359082,-0.00105
 092,-0.00286199,-0.00283153,0.00064443,-0.01807175,0.01447817,0.000574
 43,-0.00029632,0.00217421,0.00036362,-0.00013097,-0.00012105,-0.000032
 87,0.00001856,-0.00002631,0.00019465,-0.00028390,0.00101245,0.00004003
 ,0.00009291,0.00004982,0.00241920,-0.14464425,0.17545702,0.00021406,-0
 .00224621,0.00036886,-0.00058516,-0.00023023,-0.00083389,-0.00008433,0
 .00041826,-0.00004646,-0.00437135,0.00152050,-0.00387788,0.00003342,0.
 00031572,-0.00008726,-0.00019154,-0.02285696,-0.01688700,-0.00024801,0
 .00068254,-0.00086314,-0.04615710,-0.00255643,0.00314579,-0.00202047,0
 .00161645,0.00017073,0.00247493,0.00230914,0.00219503,-0.00005119,-0.0
 0002183,-0.00003285,0.00089911,0.00045417,0.00036384,0.00001801,-0.000
 08058,0.00006475,0.00097694,-0.00033955,0.00084222,0.00040577,0.000154
 02,0.00009110,0.05086771,-0.00010196,0.00045314,-0.00016300,0.00022292
 ,0.00026626,0.00030920,0.00001441,-0.00001555,0.00002458,0.00126672,0.
 00134632,0.00126939,0.00055875,0.00006116,0.00053723,-0.00154955,0.001
 60978,0.00003004,0.00149467,-0.00223797,0.00463615,-0.00064606,-0.2103
 0661,-0.13203238,-0.00078946,-0.03064939,-0.01510660,-0.00232221,-0.00
 413384,-0.00439389,-0.00002181,0.00006283,-0.00001858,-0.00045416,0.00
 033861,-0.00013093,-0.00006566,0.00005903,-0.00007745,-0.00023552,0.00
 027854,0.00007679,-0.00015402,-0.00115799,-0.00098522,0.00333723,0.235
 31440,-0.00001969,-0.00108495,0.00107330,-0.00016135,-0.00019633,-0.00
 053698,-0.00003098,0.00033988,-0.00013284,-0.00312455,0.00078692,-0.00
 129163,-0.00011418,0.00016699,-0.00034977,0.00169006,-0.01084931,-0.00
 942457,-0.00105091,0.00286199,-0.00283153,0.00254926,-0.14329916,-0.16
 359073,0.00064444,0.01807177,0.01447816,0.00057443,0.00029633,0.002174
 21,-0.00003287,-0.00001856,-0.00002631,0.00036361,0.00013097,-0.000121
 05,0.00004003,-0.00009291,0.00004983,0.00019465,0.00028391,0.00101245,
 0.00009110,0.00098522,0.00070406,0.00241935,0.14464421,0.17545694,-0.0
 0007943,-0.00033518,-0.00046197,0.00012615,0.00028189,-0.00000999,-0.0
 0007472,0.00010843,0.00004604,0.00288135,-0.00038567,0.00083921,-0.025
 61915,-0.00084473,0.01749657,-0.00033698,0.00010873,0.00004622,-0.2001
 3358,0.00987141,0.11831759,0.00023764,0.00028746,-0.00037512,0.0068331
 0,0.00216101,-0.00204377,0.00211434,0.00016555,-0.00095576,0.00097694,
 -0.00023568,0.00019451,0.00001804,0.00006567,0.00004004,-0.00396619,0.
 00053268,-0.00362305,0.00004114,-0.00016413,0.00001616,0.00058752,-0.0
 0004698,-0.00091173,0.00008847,0.00007979,-0.00007859,0.21734726,0.000
 60435,0.00004759,0.00074172,-0.00008186,-0.00011974,-0.00012437,-0.000
 19916,0.00034895,-0.00021517,-0.00011891,0.00038698,-0.00113899,0.0000
 9484,-0.00024200,0.00152918,-0.00006068,-0.00061306,0.00001027,0.00903
 012,-0.05002965,-0.00309264,0.00155010,0.00352240,-0.00291144,0.018817
 67,-0.01503774,-0.03067183,0.00648687,-0.00135354,0.00447831,-0.000339
 64,0.00027841,0.00028393,0.00008056,0.00005904,0.00009303,-0.00053257,
 0.00110325,-0.00058290,-0.00016418,-0.00002866,0.00003753,-0.01965613,
 0.00316510,0.01363414,-0.00050439,0.00000120,0.00015926,-0.01196010,0.
 05759766,-0.00003233,-0.00050321,-0.00025917,0.00009308,0.00031395,0.0
 0003035,0.00003916,0.00007748,0.00009975,0.00082781,-0.00088834,0.0014
 2781,-0.01604527,0.00136875,0.01036814,-0.00027799,-0.00035688,-0.0000
 7188,0.12017316,-0.00383761,-0.14259948,-0.00057451,0.00166698,-0.0002
 8717,0.00817810,-0.01335891,-0.01945339,0.00710383,-0.00265485,0.00455
 934,0.00084208,0.00007685,0.00101238,0.00006475,0.00007746,0.00004988,
 -0.00362253,0.00058322,-0.00123442,0.00001620,0.00003756,-0.00009373,0
 .01660835,-0.00104460,-0.01092106,-0.00019225,-0.00006820,0.00006471,-
 0.13006393,0.01803579,0.15739836,-0.00007943,0.00033518,-0.00046198,-0
 .00007472,-0.00010843,0.00004604,0.00012615,-0.00028189,-0.00000999,0.
 00288135,0.00038567,0.00083922,-0.00033698,-0.00010873,0.00004622,-0.0
 2561916,0.00084474,0.01749660,0.00023764,-0.00028746,-0.00037512,-0.20
 013349,-0.00987126,0.11831763,0.00683309,-0.00216101,-0.00204377,0.002
 11434,-0.00016555,-0.00095576,0.00001804,-0.00006567,0.00004004,0.0009
 7694,0.00023568,0.00019450,0.00004114,0.00016413,0.00001616,-0.0039662
 0,-0.00053268,-0.00362305,0.00008847,-0.00007979,-0.00007859,0.0005875
 4,0.00004699,-0.00091175,-0.00025903,-0.00074682,-0.00009223,0.2173471
 6,-0.00060435,0.00004759,-0.00074172,0.00019916,0.00034895,0.00021517,
 0.00008186,-0.00011974,0.00012437,0.00011891,0.00038698,0.00113899,0.0
 0006068,-0.00061306,-0.00001027,-0.00009484,-0.00024200,-0.00152918,-0
 .00155010,0.00352240,0.00291143,-0.00902997,-0.05002964,0.00309254,-0.
 01881766,-0.01503770,0.03067183,-0.00648687,-0.00135355,-0.00447830,-0
 .00008056,0.00005904,-0.00009303,0.00033964,0.00027841,-0.00028393,0.0
 0016418,-0.00002866,-0.00003753,0.00053257,0.00110325,0.00058290,0.000
 50439,0.00000120,-0.00015926,0.01965614,0.00316509,-0.01363416,0.00074
 682,0.00015209,-0.00096958,0.01195993,0.05759762,-0.00003233,0.0005032
 1,-0.00025917,0.00003916,-0.00007748,0.00009975,0.00009309,-0.00031395
 ,0.00003035,0.00082781,0.00088834,0.00142781,-0.00027799,0.00035688,-0
 .00007188,-0.01604525,-0.00136874,0.01036814,-0.00057451,-0.00166698,-
 0.00028717,0.12017321,0.00383751,-0.14259962,0.00817810,0.01335889,-0.
 01945340,0.00710383,0.00265485,0.00455933,0.00006475,-0.00007746,0.000
 04988,0.00084208,-0.00007685,0.00101238,0.00001620,-0.00003756,-0.0000
 9373,-0.00362253,-0.00058322,-0.00123442,-0.00019225,0.00006821,0.0000
 6471,0.01660833,0.00104459,-0.01092106,-0.00009223,0.00096958,0.000623
 86,-0.13006399,-0.01803566,0.15739852,0.00094433,0.00037139,0.00131102
 ,-0.00037949,-0.00051496,-0.00052842,-0.00038264,0.00003711,-0.0005638
 7,-0.00084790,0.00024209,-0.00044451,0.00094786,0.00031522,-0.00046093
 ,0.00081130,0.00194628,-0.00086455,-0.00182735,0.00166025,-0.00169945,
 0.00071229,-0.00648672,-0.00410375,-0.01298519,0.04269119,-0.03816679,
 -0.14024574,0.10206068,-0.06051440,-0.00008399,0.00001435,-0.00003087,
 -0.00058373,-0.00022237,-0.00016074,0.00012589,0.00008182,0.00009286,-
 0.00007493,-0.00019902,0.00003899,-0.00283620,0.00073008,-0.00328322,-
 0.00002060,0.00004902,0.00024117,0.00000048,-0.00034710,-0.00155671,-0
 .00078337,0.00195298,-0.00148876,0.12337983,-0.00079745,-0.00011991,-0
 .00089380,0.00051577,0.00088632,0.00061922,0.00003709,0.00062128,0.000
 06264,-0.00023248,0.00011876,-0.00063758,0.00084757,0.00237343,0.00051
 595,-0.00148116,-0.00166865,-0.00032888,-0.00790119,-0.00884534,-0.003
 25074,-0.00090578,0.00364094,0.00096707,0.03776013,-0.01245820,0.03007
 279,0.09664712,-0.44051400,0.12381307,0.00041825,-0.00001546,0.0003400
 6,0.00023028,0.00026623,0.00019671,-0.00028107,-0.00011977,-0.00031359
 ,0.00010841,0.00034898,0.00007740,0.00069181,0.00411143,-0.00105489,-0
 .00093619,0.00143357,-0.00060694,0.00015366,0.00209598,0.00265867,0.00
 059064,-0.00133427,0.00121452,-0.13492380,0.56010350,0.00126959,0.0005
 2318,0.00166357,-0.00052945,-0.00061961,-0.00067518,-0.00056498,0.0000
 6228,-0.00078515,-0.00103383,0.00014549,-0.00039004,0.00090745,0.00085
 271,-0.00063298,0.00133080,0.00386445,-0.00128677,-0.00290457,0.004233
 56,0.00076204,-0.00735962,-0.00561370,0.00065671,-0.03460384,0.0455946
 3,-0.02296032,-0.06601885,0.12927294,-0.17102573,-0.00004684,0.0000245
 0,-0.00013303,-0.00083483,-0.00030937,-0.00053750,-0.00001011,0.000124
 53,0.00003050,0.00004564,-0.00021533,0.00009969,-0.00301640,-0.0000764
 4,-0.00550374,-0.00043287,0.00032762,-0.00028343,0.00116603,-0.0010005
 2,0.00017076,0.00045377,0.00023486,-0.00088504,0.10711974,-0.16543881,
 0.16432487,0.00094433,-0.00037139,0.00131102,-0.00038264,-0.00003711,-
 0.00056387,-0.00037949,0.00051496,-0.00052842,-0.00084790,-0.00024209,
 -0.00044451,0.00081130,-0.00194629,-0.00086455,0.00094786,-0.00031522,
 -0.00046093,0.00071229,0.00648672,-0.00410375,-0.00182735,-0.00166025,
 -0.00169945,-0.01298526,-0.04269125,-0.03816680,-0.14024588,-0.1020613
 4,-0.06051458,-0.00058373,0.00022237,-0.00016074,-0.00008399,-0.000014
 35,-0.00003087,-0.00007493,0.00019902,0.00003899,0.00012589,-0.0000818
 2,0.00009286,-0.00002060,-0.00004901,0.00024117,-0.00283620,-0.0007300
 8,-0.00328322,-0.00078337,-0.00195298,-0.00148876,0.00000048,0.0003471
 0,-0.00155671,0.03412914,0.00945838,0.00506317,0.12338005,0.00079745,-
 0.00011991,0.00089380,-0.00003710,0.00062128,-0.00006264,-0.00051577,0
 .00088632,-0.00061922,0.00023248,0.00011877,0.00063758,0.00148116,-0.0
 0166865,0.00032888,-0.00084758,0.00237343,-0.00051595,0.00090578,0.003
 64094,-0.00096707,0.00790119,-0.00884536,0.00325075,-0.03776015,-0.012
 45822,-0.03007277,-0.09664781,-0.44051506,-0.12381325,-0.00023029,0.00
 026623,-0.00019671,-0.00041825,-0.00001546,-0.00034006,-0.00010841,0.0
 0034898,-0.00007740,0.00028107,-0.00011977,0.00031359,0.00093619,0.001
 43357,0.00060694,-0.00069181,0.00411144,0.00105488,-0.00059064,-0.0013
 3427,-0.00121453,-0.00015367,0.00209598,-0.00265867,-0.00945849,-0.110
 92480,-0.01198699,0.13492463,0.56010457,0.00126960,-0.00052319,0.00166
 356,-0.00056498,-0.00006228,-0.00078515,-0.00052946,0.00061961,-0.0006
 7517,-0.00103383,-0.00014549,-0.00039004,0.00133080,-0.00386445,-0.001
 28676,0.00090746,-0.00085271,-0.00063298,-0.00735963,0.00561370,0.0006
 5671,-0.00290458,-0.00423356,0.00076205,-0.03460386,-0.04559464,-0.022
 96027,-0.06601904,-0.12927310,-0.17102555,-0.00083483,0.00030937,-0.00
 053750,-0.00004683,-0.00002450,-0.00013303,0.00004564,0.00021533,0.000
 09969,-0.00001011,-0.00012453,0.00003050,-0.00043287,-0.00032763,-0.00
 028343,-0.00301641,0.00007644,-0.00550375,0.00045378,-0.00023486,-0.00
 088504,0.00116603,0.00100052,0.00017076,0.00506318,0.01198714,0.037390
 75,0.10711995,0.16543883,0.16432465\\-0.00000608,0.00000090,0.00003409
 ,0.00000293,0.00001732,0.00001578,0.00000310,-0.00001808,0.00001603,0.
 00001672,-0.00000019,0.00000377,-0.00008723,0.00012657,0.00014130,-0.0
 0008723,-0.00012648,0.00014135,0.00007143,0.00010881,-0.00014998,0.000
 07140,-0.00010871,-0.00015011,0.00000820,-0.00000013,-0.00001779,-0.00
 002282,0.00000021,-0.00002325,0.00000023,-0.00009607,-0.00007686,0.000
 00023,0.00009605,-0.00007687,0.00008555,0.00000084,-0.00005830,0.00008
 555,-0.00000084,-0.00005830,0.00000469,-0.00009542,0.00007899,0.000004
 69,0.00009543,0.00007901,-0.00008607,0.00000271,0.00005826,-0.00008606
 ,-0.00000271,0.00005825,0.00001041,0.00001069,-0.00000765,0.00001036,-
 0.00001088,-0.00000773\\\@
 Job cpu time:       0 days 21 hours  7 minutes 47.0 seconds.
 File lengths (MBytes):  RWF= 111086 Int=      0 D2E=      0 Chk=    110 Scr=      1
 Normal termination of Gaussian 09 at Fri Aug 27 16:58:58 2021.
