 Entering Gaussian System, Link 0=g09
 Input=G4.ZZZLYS01.gjf
 Output=G4.ZZZLYS01.log
 Initial command:
 /public/home/users/caep010/software/Gaussian09/g09/l1.exe "/public/home/users/caep010/.cache/gau_scr/Gau-198976.inp" -scrdir="/public/home/users/caep010/.cache/gau_scr/"
 Entering Link 1 = /public/home/users/caep010/software/Gaussian09/g09/l1.exe PID=    198977.
  
 Copyright (c) 1988,1990,1992,1993,1995,1998,2003,2009,2015,
            Gaussian, Inc.  All Rights Reserved.
  
 This is part of the Gaussian(R) 09 program.  It is based on
 the Gaussian(R) 03 system (copyright 2003, Gaussian, Inc.),
 the Gaussian(R) 98 system (copyright 1998, Gaussian, Inc.),
 the Gaussian(R) 94 system (copyright 1995, Gaussian, Inc.),
 the Gaussian 92(TM) system (copyright 1992, Gaussian, Inc.),
 the Gaussian 90(TM) system (copyright 1990, Gaussian, Inc.),
 the Gaussian 88(TM) system (copyright 1988, Gaussian, Inc.),
 the Gaussian 86(TM) system (copyright 1986, Carnegie Mellon
 University), and the Gaussian 82(TM) system (copyright 1983,
 Carnegie Mellon University). Gaussian is a federally registered
 trademark of Gaussian, Inc.
  
 This software contains proprietary and confidential information,
 including trade secrets, belonging to Gaussian, Inc.
  
 This software is provided under written license and may be
 used, copied, transmitted, or stored only in accord with that
 written license.
  
 The following legend is applicable only to US Government
 contracts under FAR:
  
                    RESTRICTED RIGHTS LEGEND
  
 Use, reproduction and disclosure by the US Government is
 subject to restrictions as set forth in subparagraphs (a)
 and (c) of the Commercial Computer Software - Restricted
 Rights clause in FAR 52.227-19.
  
 Gaussian, Inc.
 340 Quinnipiac St., Bldg. 40, Wallingford CT 06492
  
  
 ---------------------------------------------------------------
 Warning -- This program may not be used in any manner that
 competes with the business of Gaussian, Inc. or will provide
 assistance to any competitor of Gaussian, Inc.  The licensee
 of this program is prohibited from giving any competitor of
 Gaussian, Inc. access to this program.  By using this program,
 the user acknowledges that Gaussian, Inc. is engaged in the
 business of creating and licensing software in the field of
 computational chemistry and represents and warrants to the
 licensee that it is not a competitor of Gaussian, Inc. and that
 it will not use this program in any manner prohibited above.
 ---------------------------------------------------------------
  

 Cite this work as:
 Gaussian 09, Revision E.01,
 M. J. Frisch, G. W. Trucks, H. B. Schlegel, G. E. Scuseria, 
 M. A. Robb, J. R. Cheeseman, G. Scalmani, V. Barone, B. Mennucci, 
 G. A. Petersson, H. Nakatsuji, M. Caricato, X. Li, H. P. Hratchian, 
 A. F. Izmaylov, J. Bloino, G. Zheng, J. L. Sonnenberg, M. Hada, 
 M. Ehara, K. Toyota, R. Fukuda, J. Hasegawa, M. Ishida, T. Nakajima, 
 Y. Honda, O. Kitao, H. Nakai, T. Vreven, J. A. Montgomery, Jr., 
 J. E. Peralta, F. Ogliaro, M. Bearpark, J. J. Heyd, E. Brothers, 
 K. N. Kudin, V. N. Staroverov, T. Keith, R. Kobayashi, J. Normand, 
 K. Raghavachari, A. Rendell, J. C. Burant, S. S. Iyengar, J. Tomasi, 
 M. Cossi, N. Rega, J. M. Millam, M. Klene, J. E. Knox, J. B. Cross, 
 V. Bakken, C. Adamo, J. Jaramillo, R. Gomperts, R. E. Stratmann, 
 O. Yazyev, A. J. Austin, R. Cammi, C. Pomelli, J. W. Ochterski, 
 R. L. Martin, K. Morokuma, V. G. Zakrzewski, G. A. Voth, 
 P. Salvador, J. J. Dannenberg, S. Dapprich, A. D. Daniels, 
 O. Farkas, J. B. Foresman, J. V. Ortiz, J. Cioslowski, 
 and D. J. Fox, Gaussian, Inc., Wallingford CT, 2013.
 
 ******************************************
 Gaussian 09:  ES64L-G09RevE.01 30-Nov-2015
                27-Aug-2021 
 ******************************************
 %nproc=32
 Will use up to   32 processors via shared memory.
 %mem=180GB
 ----------------
 #P G4 OPT=calcfc
 ----------------
 1/10=4,14=-1,18=20,19=15,26=3,38=1/1,3;
 2/9=110,12=2,17=6,18=5,40=1/2;
 3/5=35,7=104,11=2,16=1,25=1,30=1,71=2,74=-5,140=1/1,2,3;
 4//1;
 5/5=2,38=5/2;
 8/6=4,10=90,11=11/1;
 11/6=1,8=1,9=11,15=111,16=1/1,2,10;
 10/6=1,13=1/2;
 6/7=2,8=2,9=2,10=2,28=1/1;
 7/10=1,18=20,25=1/1,2,3,16;
 1/10=4,14=-1,18=20,19=15,26=3/3(2);
 2/9=110/2;
 99//99;
 2/9=110/2;
 3/5=35,7=104,11=2,16=1,25=1,30=1,71=1,74=-5/1,2,3;
 4/5=5,16=3,69=1/1;
 5/5=2,38=5/2;
 7//1,2,3,16;
 1/14=-1,18=20,19=15,26=3/3(-5);
 2/9=110/2;
 6/7=2,8=2,9=2,10=2,19=2,28=1/1;
 99/9=1/99;
 Leave Link    1 at Fri Aug 27 10:17:56 2021, MaxMem= 24159191040 cpu:         2.5
 (Enter /public/home/users/caep010/software/Gaussian09/g09/l101.exe)
 --------
 ZZZLYS01
 --------
 Symbolic Z-matrix:
 Charge =  0 Multiplicity = 1
 C                     9.3325   -0.6901   -0.5073 
 H                     9.8179   -1.3682   -0.8445 
 C                     8.1731   -0.2943   -1.1271 
 C                     7.4225    0.7912   -0.6162 
 N                     7.7507   -1.0236   -2.3038 
 O                     8.4099   -1.9642   -2.6895 
 O                     6.2846    1.2374   -1.1595 
 H                     6.1574    0.7595   -1.8987 
 C                     7.8861    1.4386    0.5064 
 C                     9.0692    1.0804    1.13 
 C                     9.7859   -0.0257    0.6084 
 O                     9.4559    1.8173    2.1755 
 O                     6.7139   -0.6574   -2.8766 
 H                     7.4205    2.1428    0.8487 
 N                     11.032   -0.4658    1.1911 
 O                     11.6129  -1.42      0.7123 
 O                     11.4859   0.1675    2.154 
 H                     10.1644   1.5291    2.4469 
 
 NAtoms=     18 NQM=       18 NQMF=       0 NMMI=      0 NMMIF=      0
                NMic=       0 NMicF=      0.
                    Isotopes and Nuclear Properties:
 (Nuclear quadrupole moments (NQMom) in fm**2, nuclear magnetic moments (NMagM)
  in nuclear magnetons)

  Atom         1           2           3           4           5           6           7           8           9          10
 IAtWgt=          12           1          12          12          14          16          16           1          12          12
 AtmWgt=  12.0000000   1.0078250  12.0000000  12.0000000  14.0030740  15.9949146  15.9949146   1.0078250  12.0000000  12.0000000
 NucSpn=           0           1           0           0           2           0           0           1           0           0
 AtZEff=   0.0000000   0.0000000   0.0000000   0.0000000   0.0000000   0.0000000   0.0000000   0.0000000   0.0000000   0.0000000
 NQMom=    0.0000000   0.0000000   0.0000000   0.0000000   2.0440000   0.0000000   0.0000000   0.0000000   0.0000000   0.0000000
 NMagM=    0.0000000   2.7928460   0.0000000   0.0000000   0.4037610   0.0000000   0.0000000   2.7928460   0.0000000   0.0000000
 AtZNuc=   6.0000000   1.0000000   6.0000000   6.0000000   7.0000000   8.0000000   8.0000000   1.0000000   6.0000000   6.0000000

  Atom        11          12          13          14          15          16          17          18
 IAtWgt=          12          16          16           1          14          16          16           1
 AtmWgt=  12.0000000  15.9949146  15.9949146   1.0078250  14.0030740  15.9949146  15.9949146   1.0078250
 NucSpn=           0           0           0           1           2           0           0           1
 AtZEff=   0.0000000   0.0000000   0.0000000   0.0000000   0.0000000   0.0000000   0.0000000   0.0000000
 NQMom=    0.0000000   0.0000000   0.0000000   0.0000000   2.0440000   0.0000000   0.0000000   0.0000000
 NMagM=    0.0000000   0.0000000   0.0000000   2.7928460   0.4037610   0.0000000   0.0000000   2.7928460
 AtZNuc=   6.0000000   8.0000000   8.0000000   1.0000000   7.0000000   8.0000000   8.0000000   1.0000000
 Leave Link  101 at Fri Aug 27 10:17:57 2021, MaxMem= 24159191040 cpu:        10.2
 (Enter /public/home/users/caep010/software/Gaussian09/g09/l103.exe)

 GradGradGradGradGradGradGradGradGradGradGradGradGradGradGradGradGradGrad
 Berny optimization.
 Initialization pass.
                           ----------------------------
                           !    Initial Parameters    !
                           ! (Angstroms and Degrees)  !
 --------------------------                            --------------------------
 ! Name  Definition              Value          Derivative Info.                !
 --------------------------------------------------------------------------------
 ! R1    R(1,2)                  0.8995         calculate D2E/DX2 analytically  !
 ! R2    R(1,3)                  1.373          calculate D2E/DX2 analytically  !
 ! R3    R(1,11)                 1.3754         calculate D2E/DX2 analytically  !
 ! R4    R(3,4)                  1.4152         calculate D2E/DX2 analytically  !
 ! R5    R(3,5)                  1.4474         calculate D2E/DX2 analytically  !
 ! R6    R(4,7)                  1.3376         calculate D2E/DX2 analytically  !
 ! R7    R(4,9)                  1.3763         calculate D2E/DX2 analytically  !
 ! R8    R(5,6)                  1.2116         calculate D2E/DX2 analytically  !
 ! R9    R(5,13)                 1.2398         calculate D2E/DX2 analytically  !
 ! R10   R(7,8)                  0.8894         calculate D2E/DX2 analytically  !
 ! R11   R(9,10)                 1.3845         calculate D2E/DX2 analytically  !
 ! R12   R(9,14)                 0.911          calculate D2E/DX2 analytically  !
 ! R13   R(10,11)                1.4175         calculate D2E/DX2 analytically  !
 ! R14   R(10,12)                1.3363         calculate D2E/DX2 analytically  !
 ! R15   R(11,15)                1.4443         calculate D2E/DX2 analytically  !
 ! R16   R(12,18)                0.8116         calculate D2E/DX2 analytically  !
 ! R17   R(15,16)                1.2154         calculate D2E/DX2 analytically  !
 ! R18   R(15,17)                1.2387         calculate D2E/DX2 analytically  !
 ! A1    A(2,1,3)              120.2503         calculate D2E/DX2 analytically  !
 ! A2    A(2,1,11)             119.3632         calculate D2E/DX2 analytically  !
 ! A3    A(3,1,11)             120.3515         calculate D2E/DX2 analytically  !
 ! A4    A(1,3,4)              120.4005         calculate D2E/DX2 analytically  !
 ! A5    A(1,3,5)              117.917          calculate D2E/DX2 analytically  !
 ! A6    A(4,3,5)              121.6819         calculate D2E/DX2 analytically  !
 ! A7    A(3,4,7)              124.0874         calculate D2E/DX2 analytically  !
 ! A8    A(3,4,9)              118.464          calculate D2E/DX2 analytically  !
 ! A9    A(7,4,9)              117.4481         calculate D2E/DX2 analytically  !
 ! A10   A(3,5,6)              119.4185         calculate D2E/DX2 analytically  !
 ! A11   A(3,5,13)             118.0876         calculate D2E/DX2 analytically  !
 ! A12   A(6,5,13)             122.493          calculate D2E/DX2 analytically  !
 ! A13   A(4,7,8)              106.2613         calculate D2E/DX2 analytically  !
 ! A14   A(4,9,10)             122.243          calculate D2E/DX2 analytically  !
 ! A15   A(4,9,14)             119.864          calculate D2E/DX2 analytically  !
 ! A16   A(10,9,14)            117.8723         calculate D2E/DX2 analytically  !
 ! A17   A(9,10,11)            117.9181         calculate D2E/DX2 analytically  !
 ! A18   A(9,10,12)            117.1945         calculate D2E/DX2 analytically  !
 ! A19   A(11,10,12)           124.8839         calculate D2E/DX2 analytically  !
 ! A20   A(1,11,10)            120.5817         calculate D2E/DX2 analytically  !
 ! A21   A(1,11,15)            117.6766         calculate D2E/DX2 analytically  !
 ! A22   A(10,11,15)           121.7059         calculate D2E/DX2 analytically  !
 ! A23   A(10,12,18)           108.5685         calculate D2E/DX2 analytically  !
 ! A24   A(11,15,16)           119.5153         calculate D2E/DX2 analytically  !
 ! A25   A(11,15,17)           118.2939         calculate D2E/DX2 analytically  !
 ! A26   A(16,15,17)           122.1747         calculate D2E/DX2 analytically  !
 ! D1    D(2,1,3,4)           -178.6009         calculate D2E/DX2 analytically  !
 ! D2    D(2,1,3,5)              1.6545         calculate D2E/DX2 analytically  !
 ! D3    D(11,1,3,4)            -0.7689         calculate D2E/DX2 analytically  !
 ! D4    D(11,1,3,5)           179.4865         calculate D2E/DX2 analytically  !
 ! D5    D(2,1,11,10)          177.4785         calculate D2E/DX2 analytically  !
 ! D6    D(2,1,11,15)           -0.3791         calculate D2E/DX2 analytically  !
 ! D7    D(3,1,11,10)           -0.3727         calculate D2E/DX2 analytically  !
 ! D8    D(3,1,11,15)         -178.2302         calculate D2E/DX2 analytically  !
 ! D9    D(1,3,4,7)           -179.9557         calculate D2E/DX2 analytically  !
 ! D10   D(1,3,4,9)              0.3109         calculate D2E/DX2 analytically  !
 ! D11   D(5,3,4,7)             -0.2208         calculate D2E/DX2 analytically  !
 ! D12   D(5,3,4,9)           -179.9543         calculate D2E/DX2 analytically  !
 ! D13   D(1,3,5,6)              1.2794         calculate D2E/DX2 analytically  !
 ! D14   D(1,3,5,13)          -179.0368         calculate D2E/DX2 analytically  !
 ! D15   D(4,3,5,6)           -178.4618         calculate D2E/DX2 analytically  !
 ! D16   D(4,3,5,13)             1.222          calculate D2E/DX2 analytically  !
 ! D17   D(3,4,7,8)             -3.802          calculate D2E/DX2 analytically  !
 ! D18   D(9,4,7,8)            175.9339         calculate D2E/DX2 analytically  !
 ! D19   D(3,4,9,10)             1.3393         calculate D2E/DX2 analytically  !
 ! D20   D(3,4,9,14)           179.6526         calculate D2E/DX2 analytically  !
 ! D21   D(7,4,9,10)          -178.4119         calculate D2E/DX2 analytically  !
 ! D22   D(7,4,9,14)            -0.0986         calculate D2E/DX2 analytically  !
 ! D23   D(4,9,10,11)           -2.4308         calculate D2E/DX2 analytically  !
 ! D24   D(4,9,10,12)          176.9213         calculate D2E/DX2 analytically  !
 ! D25   D(14,9,10,11)         179.2238         calculate D2E/DX2 analytically  !
 ! D26   D(14,9,10,12)          -1.424          calculate D2E/DX2 analytically  !
 ! D27   D(9,10,11,1)            1.9316         calculate D2E/DX2 analytically  !
 ! D28   D(9,10,11,15)         179.7014         calculate D2E/DX2 analytically  !
 ! D29   D(12,10,11,1)        -177.3659         calculate D2E/DX2 analytically  !
 ! D30   D(12,10,11,15)          0.4039         calculate D2E/DX2 analytically  !
 ! D31   D(9,10,12,18)        -178.655          calculate D2E/DX2 analytically  !
 ! D32   D(11,10,12,18)          0.6471         calculate D2E/DX2 analytically  !
 ! D33   D(1,11,15,16)          -2.231          calculate D2E/DX2 analytically  !
 ! D34   D(1,11,15,17)         176.3421         calculate D2E/DX2 analytically  !
 ! D35   D(10,11,15,16)        179.937          calculate D2E/DX2 analytically  !
 ! D36   D(10,11,15,17)         -1.4898         calculate D2E/DX2 analytically  !
 --------------------------------------------------------------------------------
 Trust Radius=3.00D-01 FncErr=1.00D-07 GrdErr=1.00D-06
 Number of steps in this run=     90 maximum allowed number of steps=    108.
 GradGradGradGradGradGradGradGradGradGradGradGradGradGradGradGradGradGrad

 Leave Link  103 at Fri Aug 27 10:17:57 2021, MaxMem= 24159191040 cpu:         0.6
 (Enter /public/home/users/caep010/software/Gaussian09/g09/l202.exe)
                          Input orientation:                          
 ---------------------------------------------------------------------
 Center     Atomic      Atomic             Coordinates (Angstroms)
 Number     Number       Type             X           Y           Z
 ---------------------------------------------------------------------
      1          6           0        9.332500   -0.690100   -0.507300
      2          1           0        9.817900   -1.368200   -0.844500
      3          6           0        8.173100   -0.294300   -1.127100
      4          6           0        7.422500    0.791200   -0.616200
      5          7           0        7.750700   -1.023600   -2.303800
      6          8           0        8.409900   -1.964200   -2.689500
      7          8           0        6.284600    1.237400   -1.159500
      8          1           0        6.157400    0.759500   -1.898700
      9          6           0        7.886100    1.438600    0.506400
     10          6           0        9.069200    1.080400    1.130000
     11          6           0        9.785900   -0.025700    0.608400
     12          8           0        9.455900    1.817300    2.175500
     13          8           0        6.713900   -0.657400   -2.876600
     14          1           0        7.420500    2.142800    0.848700
     15          7           0       11.032000   -0.465800    1.191100
     16          8           0       11.612900   -1.420000    0.712300
     17          8           0       11.485900    0.167500    2.154000
     18          1           0       10.164400    1.529100    2.446900
 ---------------------------------------------------------------------
                    Distance matrix (angstroms):
                    1          2          3          4          5
     1  C    0.000000
     2  H    0.899520   0.000000
     3  C    1.372960   1.984563   0.000000
     4  C    2.419547   3.233121   1.415178   0.000000
     5  N    2.416759   2.553747   1.447385   2.499842   0.000000
     6  O    2.690078   2.396186   2.299072   3.586887   1.211626
     7  O    3.664739   4.401430   2.431787   1.337567   2.927626
     8  H    3.757472   4.363222   2.401855   1.801746   2.425316
     9  C    2.766049   3.665366   2.398673   1.376329   3.738714
    10  C    2.425850   3.233395   2.790573   2.417534   4.237480
    11  C    1.375422   1.978446   2.384372   2.784355   3.690359
    12  O    3.674194   4.404413   4.124512   3.602941   5.571584
    13  O    3.531532   3.777497   2.306915   2.776682   1.239821
    14  H    3.676928   4.576196   3.226399   1.993178   4.480332
    15  N    2.413125   2.536145   3.684667   4.227869   4.826220
    16  O    2.687081   2.376622   4.059904   4.920749   4.916359
    17  O    3.529182   3.759202   4.685458   4.957240   5.936533
    18  H    3.787374   4.398605   4.479234   4.176732   5.908585
                    6          7          8          9         10
     6  O    0.000000
     7  O    4.136187   0.000000
     8  H    3.621831   0.889373   0.000000
     9  C    4.697573   2.319592   3.038764   0.000000
    10  C    4.928777   3.608387   4.213618   1.384525   0.000000
    11  C    4.065379   4.120679   4.479743   2.400795   1.417456
    12  O    6.249967   4.638497   5.347724   2.322408   1.336274
    13  O    2.149220   2.592874   1.809305   4.148730   4.961878
    14  H    5.510465   2.478484   3.325229   0.910961   1.981423
    15  N    4.917283   5.564532   5.899996   3.740620   2.499410
    16  O    4.703999   6.241489   6.428843   4.701386   3.591223
    17  O    6.120900   6.259192   6.720696   4.157985   2.778921
    18  H    6.454767   5.305097   5.960920   2.994058   1.770599
                   11         12         13         14         15
    11  C    0.000000
    12  O    2.441588   0.000000
    13  O    4.688438   6.258308   0.000000
    14  H    3.217958   2.451367   4.713625   0.000000
    15  N    1.444297   2.943753   5.935392   4.468217   0.000000
    16  O    2.300608   4.156166   6.120618   5.503487   1.215398
    17  O    2.305690   2.615952   6.982792   4.704582   1.238657
    18  H    2.437365   0.811597   6.710170   3.234170   2.511850
                   16         17         18
    16  O    0.000000
    17  O    2.148205   0.000000
    18  H    3.715398   1.919924   0.000000
 Stoichiometry    C6H4N2O6
 Framework group  C1[X(C6H4N2O6)]
 Deg. of freedom    48
 Full point group                 C1      NOp   1
 Largest Abelian subgroup         C1      NOp   1
 Largest concise Abelian subgroup C1      NOp   1
                         Standard orientation:                         
 ---------------------------------------------------------------------
 Center     Atomic      Atomic             Coordinates (Angstroms)
 Number     Number       Type             X           Y           Z
 ---------------------------------------------------------------------
      1          6           0       -0.000180   -0.873218   -0.022624
      2          1           0       -0.006743   -1.772347    0.003070
      3          6           0        1.190349   -0.189520   -0.007906
      4          6           0        1.203706    1.225556   -0.018428
      5          7           0        2.414721   -0.961150    0.012726
      6          8           0        2.355994   -2.171188   -0.007183
      7          8           0        2.318342    1.964828   -0.006259
      8          1           0        2.995694    1.392962    0.065504
      9          6           0        0.000074    1.892793   -0.037055
     10          6           0       -1.213828    1.227208   -0.018372
     11          6           0       -1.193903   -0.190045   -0.031843
     12          8           0       -2.320039    1.975592    0.024585
     13          8           0        3.491286   -0.347018    0.044438
     14          1           0       -0.013647    2.803648   -0.039290
     15          7           0       -2.411453   -0.966564   -0.007704
     16          8           0       -2.347974   -2.180223   -0.021594
     17          8           0       -3.491480   -0.363226    0.053893
     18          1           0       -2.964527    1.482963    0.049907
 ---------------------------------------------------------------------
 Rotational constants (GHZ):      1.2323273      0.5108545      0.3612225
 Leave Link  202 at Fri Aug 27 10:17:57 2021, MaxMem= 24159191040 cpu:         0.4
 (Enter /public/home/users/caep010/software/Gaussian09/g09/l301.exe)
 Standard basis: GTBas3 (6D, 7F)
 Ernie: Thresh=  0.10000D-02 Tol=  0.10000D-05 Strict=F.
 There are   454 symmetry adapted cartesian basis functions of A   symmetry.
 There are   412 symmetry adapted basis functions of A   symmetry.
   412 basis functions,   644 primitive gaussians,   454 cartesian basis functions
    51 alpha electrons       51 beta electrons
       nuclear repulsion energy       907.3291707382 Hartrees.
 IExCor=  402 DFT=T Ex+Corr=B3LYP ExCW=0 ScaHFX=  0.200000
 ScaDFX=  0.800000  0.720000  1.000000  0.810000 ScalE2=  1.000000  1.000000
 IRadAn=      0 IRanWt=     -1 IRanGd=            0 ICorTp=0 IEmpDi=  4
 NAtoms=   18 NActive=   18 NUniq=   18 SFac= 1.00D+00 NAtFMM=   60 NAOKFM=F Big=F
 Integral buffers will be    131072 words long.
 Raffenetti 2 integral format.
 Two-electron integral symmetry is turned on.
 Leave Link  301 at Fri Aug 27 10:17:57 2021, MaxMem= 24159191040 cpu:         2.0
 (Enter /public/home/users/caep010/software/Gaussian09/g09/l302.exe)
 NPDir=0 NMtPBC=     1 NCelOv=     1 NCel=       1 NClECP=     1 NCelD=      1
         NCelK=      1 NCelE2=     1 NClLst=     1 CellRange=     0.0.
 One-electron integrals computed using PRISM.
 NBasis=   412 RedAO= T EigKep=  8.81D-05  NBF=   412
 NBsUse=   412 1.00D-06 EigRej= -1.00D+00 NBFU=   412
 Precomputing XC quadrature grid using
 IXCGrd= 4 IRadAn=           0 IRanWt=          -1 IRanGd=           0 AccXCQ= 0.00D+00.
 Generated NRdTot=       0 NPtTot=           0 NUsed=           0 NTot=          32
 NSgBfM=   453   453   453   453   453 MxSgAt=    18 MxSgA2=    18.
 Leave Link  302 at Fri Aug 27 10:17:58 2021, MaxMem= 24159191040 cpu:        19.4
 (Enter /public/home/users/caep010/software/Gaussian09/g09/l303.exe)
 DipDrv:  MaxL=1.
 Leave Link  303 at Fri Aug 27 10:17:58 2021, MaxMem= 24159191040 cpu:         1.1
 (Enter /public/home/users/caep010/software/Gaussian09/g09/l401.exe)
 ExpMin= 1.61D-01 ExpMax= 5.48D+03 ExpMxC= 8.25D+02 IAcc=1 IRadAn=         1 AccDes= 0.00D+00
 Harris functional with IExCor=  402 and IRadAn=       1 diagonalized for initial guess.
 HarFok:  IExCor=  402 AccDes= 0.00D+00 IRadAn=         1 IDoV= 1 UseB2=F ITyADJ=14
 ICtDFT=  3500011 ScaDFX=  1.000000  1.000000  1.000000  1.000000
 FoFCou: FMM=F IPFlag=           0 FMFlag=      100000 FMFlg1=           0
         NFxFlg=           0 DoJE=T BraDBF=F KetDBF=T FulRan=T
         wScrn=  0.000000 ICntrl=     500 IOpCl=  0 I1Cent=   200000004 NGrid=           0
         NMat0=    1 NMatS0=      1 NMatT0=    0 NMatD0=    1 NMtDS0=    0 NMtDT0=    0
 Petite list used in FoFCou.
 Harris En= -791.741231932678    
 JPrj=0 DoOrth=F DoCkMO=F.
 Leave Link  401 at Fri Aug 27 10:17:58 2021, MaxMem= 24159191040 cpu:        19.1
 (Enter /public/home/users/caep010/software/Gaussian09/g09/l502.exe)
 Closed shell SCF:
 Using DIIS extrapolation, IDIIS=  1040.
 Integral symmetry usage will be decided dynamically.
 Keep R1 ints in memory in canonical form, NReq=3666928235.
 IVT=      654694 IEndB=      654694 NGot= 24159191040 MDV= 20539360766
 LenX= 20539360766 LenY= 20539154196
 Requested convergence on RMS density matrix=1.00D-08 within 128 cycles.
 Requested convergence on MAX density matrix=1.00D-06.
 Requested convergence on             energy=1.00D-06.
 No special actions if energy rises.
 FoFCou: FMM=F IPFlag=           0 FMFlag=           0 FMFlg1=           0
         NFxFlg=           0 DoJE=F BraDBF=F KetDBF=F FulRan=T
         wScrn=  0.000000 ICntrl=     600 IOpCl=  0 I1Cent=           0 NGrid=           0
         NMat0=    1 NMatS0=  85078 NMatT0=    0 NMatD0=    1 NMtDS0=    0 NMtDT0=    0
 Symmetry not used in FoFCou.
 Integral accuracy reduced to 1.0D-05 until final iterations.

 Cycle   1  Pass 0  IDiag  1:
 E= -791.188635968652    
 DIIS: error= 3.77D-02 at cycle   1 NSaved=   1.
 NSaved= 1 IEnMin= 1 EnMin= -791.188635968652     IErMin= 1 ErrMin= 3.77D-02
 ErrMax= 3.77D-02  0.00D+00 EMaxC= 1.00D-01 BMatC= 6.66D-01 BMatP= 6.66D-01
 IDIUse=3 WtCom= 6.23D-01 WtEn= 3.77D-01
 Coeff-Com:  0.100D+01
 Coeff-En:   0.100D+01
 Coeff:      0.100D+01
 Gap=     0.182 Goal=   None    Shift=    0.000
 GapD=    0.182 DampG=1.000 DampE=0.500 DampFc=0.5000 IDamp=-1.
 Damping current iteration by 5.00D-01
 RMSDP=3.83D-03 MaxDP=2.48D-01              OVMax= 3.41D-01

 Cycle   2  Pass 0  IDiag  1:
 E= -791.274211000141     Delta-E=       -0.085575031489 Rises=F Damp=T
 DIIS: error= 1.57D-02 at cycle   2 NSaved=   2.
 NSaved= 2 IEnMin= 2 EnMin= -791.274211000141     IErMin= 2 ErrMin= 1.57D-02
 ErrMax= 1.57D-02  0.00D+00 EMaxC= 1.00D-01 BMatC= 1.30D-01 BMatP= 6.66D-01
 IDIUse=3 WtCom= 8.43D-01 WtEn= 1.57D-01
 Coeff-Com:  0.271D+00 0.729D+00
 Coeff-En:   0.419D+00 0.581D+00
 Coeff:      0.294D+00 0.706D+00
 Gap=     0.154 Goal=   None    Shift=    0.000
 RMSDP=1.05D-03 MaxDP=6.54D-02 DE=-8.56D-02 OVMax= 2.33D-01

 Cycle   3  Pass 0  IDiag  1:
 E= -791.641210872407     Delta-E=       -0.366999872266 Rises=F Damp=F
 DIIS: error= 5.67D-03 at cycle   3 NSaved=   3.
 NSaved= 3 IEnMin= 3 EnMin= -791.641210872407     IErMin= 3 ErrMin= 5.67D-03
 ErrMax= 5.67D-03  0.00D+00 EMaxC= 1.00D-01 BMatC= 2.73D-02 BMatP= 1.30D-01
 IDIUse=3 WtCom= 9.43D-01 WtEn= 5.67D-02
 Coeff-Com:  0.100D+00 0.322D+00 0.578D+00
 Coeff-En:   0.000D+00 0.000D+00 0.100D+01
 Coeff:      0.946D-01 0.304D+00 0.602D+00
 Gap=     0.180 Goal=   None    Shift=    0.000
 RMSDP=6.69D-04 MaxDP=4.25D-02 DE=-3.67D-01 OVMax= 6.98D-02

 Cycle   4  Pass 0  IDiag  1:
 E= -791.653090363863     Delta-E=       -0.011879491455 Rises=F Damp=F
 DIIS: error= 6.73D-03 at cycle   4 NSaved=   4.
 NSaved= 4 IEnMin= 4 EnMin= -791.653090363863     IErMin= 3 ErrMin= 5.67D-03
 ErrMax= 6.73D-03  0.00D+00 EMaxC= 1.00D-01 BMatC= 1.63D-02 BMatP= 2.73D-02
 IDIUse=3 WtCom= 9.33D-01 WtEn= 6.73D-02
 Coeff-Com:  0.368D-01 0.111D+00 0.422D+00 0.430D+00
 Coeff-En:   0.000D+00 0.000D+00 0.366D+00 0.634D+00
 Coeff:      0.343D-01 0.104D+00 0.418D+00 0.444D+00
 Gap=     0.173 Goal=   None    Shift=    0.000
 RMSDP=4.05D-04 MaxDP=3.18D-02 DE=-1.19D-02 OVMax= 6.30D-02

 Cycle   5  Pass 0  IDiag  1:
 E= -791.663081958170     Delta-E=       -0.009991594307 Rises=F Damp=F
 DIIS: error= 3.79D-03 at cycle   5 NSaved=   5.
 NSaved= 5 IEnMin= 5 EnMin= -791.663081958170     IErMin= 5 ErrMin= 3.79D-03
 ErrMax= 3.79D-03  0.00D+00 EMaxC= 1.00D-01 BMatC= 4.10D-03 BMatP= 1.63D-02
 IDIUse=3 WtCom= 9.62D-01 WtEn= 3.79D-02
 Coeff-Com:  0.117D-01 0.228D-01 0.218D+00 0.348D+00 0.399D+00
 Coeff-En:   0.000D+00 0.000D+00 0.000D+00 0.223D+00 0.777D+00
 Coeff:      0.113D-01 0.220D-01 0.210D+00 0.343D+00 0.414D+00
 Gap=     0.171 Goal=   None    Shift=    0.000
 RMSDP=1.57D-04 MaxDP=1.30D-02 DE=-9.99D-03 OVMax= 2.50D-02

 Cycle   6  Pass 0  IDiag  1:
 E= -791.666151192335     Delta-E=       -0.003069234165 Rises=F Damp=F
 DIIS: error= 8.01D-04 at cycle   6 NSaved=   6.
 NSaved= 6 IEnMin= 6 EnMin= -791.666151192335     IErMin= 6 ErrMin= 8.01D-04
 ErrMax= 8.01D-04  0.00D+00 EMaxC= 1.00D-01 BMatC= 3.10D-04 BMatP= 4.10D-03
 IDIUse=3 WtCom= 9.92D-01 WtEn= 8.01D-03
 Coeff-Com:  0.217D-02-0.298D-03 0.762D-01 0.152D+00 0.267D+00 0.503D+00
 Coeff-En:   0.000D+00 0.000D+00 0.000D+00 0.000D+00 0.767D-01 0.923D+00
 Coeff:      0.215D-02-0.296D-03 0.756D-01 0.151D+00 0.266D+00 0.506D+00
 Gap=     0.172 Goal=   None    Shift=    0.000
 RMSDP=4.79D-05 MaxDP=2.83D-03 DE=-3.07D-03 OVMax= 4.51D-03

 Cycle   7  Pass 0  IDiag  1:
 E= -791.666411883638     Delta-E=       -0.000260691303 Rises=F Damp=F
 DIIS: error= 1.18D-04 at cycle   7 NSaved=   7.
 NSaved= 7 IEnMin= 7 EnMin= -791.666411883638     IErMin= 7 ErrMin= 1.18D-04
 ErrMax= 1.18D-04  0.00D+00 EMaxC= 1.00D-01 BMatC= 7.11D-06 BMatP= 3.10D-04
 IDIUse=3 WtCom= 9.99D-01 WtEn= 1.18D-03
 Coeff-Com:  0.217D-03-0.124D-02 0.212D-01 0.474D-01 0.979D-01 0.230D+00
 Coeff-Com:  0.605D+00
 Coeff-En:   0.000D+00 0.000D+00 0.000D+00 0.000D+00 0.000D+00 0.000D+00
 Coeff-En:   0.100D+01
 Coeff:      0.217D-03-0.123D-02 0.211D-01 0.474D-01 0.978D-01 0.230D+00
 Coeff:      0.605D+00
 Gap=     0.172 Goal=   None    Shift=    0.000
 RMSDP=8.58D-06 MaxDP=6.20D-04 DE=-2.61D-04 OVMax= 1.18D-03

 Initial convergence to 1.0D-05 achieved.  Increase integral accuracy.
 Cycle   8  Pass 1  IDiag  1:
 E= -791.666441898156     Delta-E=       -0.000030014519 Rises=F Damp=F
 DIIS: error= 6.99D-05 at cycle   1 NSaved=   1.
 NSaved= 1 IEnMin= 1 EnMin= -791.666441898156     IErMin= 1 ErrMin= 6.99D-05
 ErrMax= 6.99D-05  0.00D+00 EMaxC= 1.00D-01 BMatC= 2.30D-06 BMatP= 2.30D-06
 IDIUse=1 WtCom= 1.00D+00 WtEn= 0.00D+00
 Coeff-Com:  0.100D+01
 Coeff:      0.100D+01
 Gap=     0.172 Goal=   None    Shift=    0.000
 RMSDP=8.58D-06 MaxDP=6.20D-04 DE=-3.00D-05 OVMax= 1.67D-03

 Cycle   9  Pass 1  IDiag  1:
 E= -791.666433454714     Delta-E=        0.000008443443 Rises=F Damp=F
 DIIS: error= 2.12D-04 at cycle   2 NSaved=   2.
 NSaved= 2 IEnMin= 1 EnMin= -791.666441898156     IErMin= 1 ErrMin= 6.99D-05
 ErrMax= 2.12D-04  0.00D+00 EMaxC= 1.00D-01 BMatC= 1.27D-05 BMatP= 2.30D-06
 IDIUse=3 WtCom= 4.07D-01 WtEn= 5.93D-01
 Coeff-Com:  0.712D+00 0.288D+00
 Coeff-En:   0.794D+00 0.206D+00
 Coeff:      0.760D+00 0.240D+00
 Gap=     0.172 Goal=   None    Shift=    0.000
 RMSDP=7.04D-06 MaxDP=5.80D-04 DE= 8.44D-06 OVMax= 1.23D-03

 Cycle  10  Pass 1  IDiag  1:
 E= -791.666443575351     Delta-E=       -0.000010120637 Rises=F Damp=F
 DIIS: error= 2.42D-05 at cycle   3 NSaved=   3.
 NSaved= 3 IEnMin= 3 EnMin= -791.666443575351     IErMin= 3 ErrMin= 2.42D-05
 ErrMax= 2.42D-05  0.00D+00 EMaxC= 1.00D-01 BMatC= 2.95D-07 BMatP= 2.30D-06
 IDIUse=1 WtCom= 1.00D+00 WtEn= 0.00D+00
 Coeff-Com:  0.350D+00 0.864D-01 0.563D+00
 Coeff:      0.350D+00 0.864D-01 0.563D+00
 Gap=     0.172 Goal=   None    Shift=    0.000
 RMSDP=1.58D-06 MaxDP=1.37D-04 DE=-1.01D-05 OVMax= 2.83D-04

 Cycle  11  Pass 1  IDiag  1:
 E= -791.666443808914     Delta-E=       -0.000000233563 Rises=F Damp=F
 DIIS: error= 7.87D-06 at cycle   4 NSaved=   4.
 NSaved= 4 IEnMin= 4 EnMin= -791.666443808914     IErMin= 4 ErrMin= 7.87D-06
 ErrMax= 7.87D-06  0.00D+00 EMaxC= 1.00D-01 BMatC= 4.55D-08 BMatP= 2.95D-07
 IDIUse=1 WtCom= 1.00D+00 WtEn= 0.00D+00
 Coeff-Com:  0.191D-01-0.239D-01 0.331D+00 0.674D+00
 Coeff:      0.191D-01-0.239D-01 0.331D+00 0.674D+00
 Gap=     0.172 Goal=   None    Shift=    0.000
 RMSDP=5.82D-07 MaxDP=3.31D-05 DE=-2.34D-07 OVMax= 7.41D-05

 Cycle  12  Pass 1  IDiag  1:
 E= -791.666443845020     Delta-E=       -0.000000036106 Rises=F Damp=F
 DIIS: error= 2.49D-06 at cycle   5 NSaved=   5.
 NSaved= 5 IEnMin= 5 EnMin= -791.666443845020     IErMin= 5 ErrMin= 2.49D-06
 ErrMax= 2.49D-06  0.00D+00 EMaxC= 1.00D-01 BMatC= 5.81D-09 BMatP= 4.55D-08
 IDIUse=1 WtCom= 1.00D+00 WtEn= 0.00D+00
 Coeff-Com: -0.715D-02-0.196D-01 0.177D+00 0.419D+00 0.431D+00
 Coeff:     -0.715D-02-0.196D-01 0.177D+00 0.419D+00 0.431D+00
 Gap=     0.172 Goal=   None    Shift=    0.000
 RMSDP=2.23D-07 MaxDP=1.40D-05 DE=-3.61D-08 OVMax= 2.72D-05

 Cycle  13  Pass 1  IDiag  1:
 E= -791.666443849205     Delta-E=       -0.000000004185 Rises=F Damp=F
 DIIS: error= 1.44D-06 at cycle   6 NSaved=   6.
 NSaved= 6 IEnMin= 6 EnMin= -791.666443849205     IErMin= 6 ErrMin= 1.44D-06
 ErrMax= 1.44D-06  0.00D+00 EMaxC= 1.00D-01 BMatC= 7.50D-10 BMatP= 5.81D-09
 IDIUse=1 WtCom= 1.00D+00 WtEn= 0.00D+00
 Coeff-Com: -0.633D-02-0.120D-01 0.101D+00 0.246D+00 0.304D+00 0.367D+00
 Coeff:     -0.633D-02-0.120D-01 0.101D+00 0.246D+00 0.304D+00 0.367D+00
 Gap=     0.172 Goal=   None    Shift=    0.000
 RMSDP=6.91D-08 MaxDP=6.18D-06 DE=-4.19D-09 OVMax= 1.32D-05

 Cycle  14  Pass 1  IDiag  1:
 E= -791.666443849689     Delta-E=       -0.000000000484 Rises=F Damp=F
 DIIS: error= 4.32D-07 at cycle   7 NSaved=   7.
 NSaved= 7 IEnMin= 7 EnMin= -791.666443849689     IErMin= 7 ErrMin= 4.32D-07
 ErrMax= 4.32D-07  0.00D+00 EMaxC= 1.00D-01 BMatC= 7.64D-11 BMatP= 7.50D-10
 IDIUse=1 WtCom= 1.00D+00 WtEn= 0.00D+00
 Coeff-Com: -0.307D-02-0.505D-02 0.411D-01 0.101D+00 0.138D+00 0.261D+00
 Coeff-Com:  0.467D+00
 Coeff:     -0.307D-02-0.505D-02 0.411D-01 0.101D+00 0.138D+00 0.261D+00
 Coeff:      0.467D+00
 Gap=     0.172 Goal=   None    Shift=    0.000
 RMSDP=2.20D-08 MaxDP=1.53D-06 DE=-4.84D-10 OVMax= 3.41D-06

 Cycle  15  Pass 1  IDiag  1:
 E= -791.666443849783     Delta-E=       -0.000000000093 Rises=F Damp=F
 DIIS: error= 1.07D-07 at cycle   8 NSaved=   8.
 NSaved= 8 IEnMin= 8 EnMin= -791.666443849783     IErMin= 8 ErrMin= 1.07D-07
 ErrMax= 1.07D-07  0.00D+00 EMaxC= 1.00D-01 BMatC= 7.05D-12 BMatP= 7.64D-11
 IDIUse=1 WtCom= 1.00D+00 WtEn= 0.00D+00
 Coeff-Com: -0.112D-02-0.158D-02 0.126D-01 0.310D-01 0.445D-01 0.115D+00
 Coeff-Com:  0.287D+00 0.513D+00
 Coeff:     -0.112D-02-0.158D-02 0.126D-01 0.310D-01 0.445D-01 0.115D+00
 Coeff:      0.287D+00 0.513D+00
 Gap=     0.172 Goal=   None    Shift=    0.000
 RMSDP=6.07D-09 MaxDP=5.53D-07 DE=-9.35D-11 OVMax= 6.92D-07

 SCF Done:  E(RB3LYP) =  -791.666443850     A.U. after   15 cycles
            NFock= 15  Conv=0.61D-08     -V/T= 2.0043
 KE= 7.882526733428D+02 PE=-3.670067414616D+03 EE= 1.182819126685D+03
 Leave Link  502 at Fri Aug 27 10:19:45 2021, MaxMem= 24159191040 cpu:       522.5
 (Enter /public/home/users/caep010/software/Gaussian09/g09/l801.exe)
 DoSCS=F DFT=T ScalE2(SS,OS)=  1.000000  1.000000
 Range of M.O.s used for correlation:     1   412
 NBasis=   412 NAE=    51 NBE=    51 NFC=     0 NFV=     0
 NROrb=    412 NOA=    51 NOB=    51 NVA=   361 NVB=   361

 **** Warning!!: The largest alpha MO coefficient is  0.31836838D+02

 Leave Link  801 at Fri Aug 27 10:19:45 2021, MaxMem= 24159191040 cpu:         0.6
 (Enter /public/home/users/caep010/software/Gaussian09/g09/l1101.exe)
 Using compressed storage, NAtomX=    18.
 Will process     19 centers per pass.
 Leave Link 1101 at Fri Aug 27 10:19:46 2021, MaxMem= 24159191040 cpu:        23.0
 (Enter /public/home/users/caep010/software/Gaussian09/g09/l1102.exe)
 Symmetrizing basis deriv contribution to polar:
 IMax=3 JMax=2 DiffMx= 0.00D+00
 Leave Link 1102 at Fri Aug 27 10:19:47 2021, MaxMem= 24159191040 cpu:         1.4
 (Enter /public/home/users/caep010/software/Gaussian09/g09/l1110.exe)
 Forming Gx(P) for the SCF density, NAtomX=    18.
 Integral derivatives from FoFJK, PRISM(SPDF).
 Do as many integral derivatives as possible in FoFJK.
 G2DrvN: MDV=   24159190792.
 G2DrvN: will do    19 centers at a time, making    1 passes.
 Calling FoFCou, ICntrl=  3107 FMM=F I1Cent=   0 AccDes= 0.00D+00.
 FoFJK:  IHMeth= 1 ICntrl=    3107 DoSepK=F KAlg= 0 I1Cent=   0 FoldK=F
 IRaf=         0 NMat=   1 IRICut=       1 DoRegI=T DoRafI=F ISym2E= 0.
 FoFCou: FMM=F IPFlag=           0 FMFlag=      100000 FMFlg1=           0
         NFxFlg=           0 DoJE=F BraDBF=F KetDBF=F FulRan=T
         wScrn=  0.000000 ICntrl=    3107 IOpCl=  0 I1Cent=           0 NGrid=           0
         NMat0=    1 NMatS0=      1 NMatT0=    0 NMatD0=    1 NMtDS0=    0 NMtDT0=    0
 Symmetry not used in FoFCou.
 End of G2Drv F.D. properties file   721 does not exist.
 End of G2Drv F.D. properties file   722 does not exist.
 End of G2Drv F.D. properties file   788 does not exist.
 Leave Link 1110 at Fri Aug 27 10:20:16 2021, MaxMem= 24159191040 cpu:       936.3
 (Enter /public/home/users/caep010/software/Gaussian09/g09/l1002.exe)
 Minotr:  Closed shell wavefunction.
          IDoAtm=111111111111111111
          Direct CPHF calculation.
          Differentiating once with respect to nuclear coordinates.
          Requested convergence is 1.0D-08 RMS, and 1.0D-07 maximum.
          Secondary convergence is 1.0D-12 RMS, and 1.0D-12 maximum.
          NewPWx=T KeepS1=F KeepF1=F KeepIn=T MapXYZ=F SortEE=F KeepMc=T.
          MDV=   24159190444 using IRadAn=       2.
 Generate precomputed XC quadrature information.
 Keep R1 ints in memory in canonical form, NReq=3666280457.
 FoFCou: FMM=F IPFlag=           0 FMFlag=           0 FMFlg1=           0
         NFxFlg=           0 DoJE=F BraDBF=F KetDBF=F FulRan=T
         wScrn=  0.000000 ICntrl=     600 IOpCl=  0 I1Cent=           0 NGrid=           0
         NMat0=    1 NMatS0=  85078 NMatT0=    0 NMatD0=    1 NMtDS0=    0 NMtDT0=    0
 Symmetry not used in FoFCou.
          Solving linear equations simultaneously, MaxMat=       0.
          There are    57 degrees of freedom in the 1st order CPHF.  IDoFFX=6 NUNeed=     0.
     51 vectors produced by pass  0 Test12= 3.23D-14 1.75D-09 XBig12= 2.38D-01 1.93D-01.
 AX will form    51 AO Fock derivatives at one time.
     51 vectors produced by pass  1 Test12= 3.23D-14 1.75D-09 XBig12= 5.17D-02 6.34D-02.
     51 vectors produced by pass  2 Test12= 3.23D-14 1.75D-09 XBig12= 1.45D-03 5.00D-03.
     51 vectors produced by pass  3 Test12= 3.23D-14 1.75D-09 XBig12= 1.09D-05 3.18D-04.
     51 vectors produced by pass  4 Test12= 3.23D-14 1.75D-09 XBig12= 4.91D-08 2.42D-05.
     51 vectors produced by pass  5 Test12= 3.23D-14 1.75D-09 XBig12= 1.10D-10 1.47D-06.
     39 vectors produced by pass  6 Test12= 3.23D-14 1.75D-09 XBig12= 1.54D-13 5.81D-08.
      3 vectors produced by pass  7 Test12= 3.23D-14 1.75D-09 XBig12= 5.37D-16 2.52D-09.
 InvSVY:  IOpt=1 It=  1 EMax= 6.66D-16
 Solved reduced A of dimension   348 with    57 vectors.
 End of Minotr F.D. properties file   721 does not exist.
 End of Minotr F.D. properties file   722 does not exist.
 End of Minotr F.D. properties file   788 does not exist.
 Leave Link 1002 at Fri Aug 27 10:21:20 2021, MaxMem= 24159191040 cpu:      2002.3
 (Enter /public/home/users/caep010/software/Gaussian09/g09/l601.exe)
 Copying SCF densities to generalized density rwf, IOpCl= 0 IROHF=0.

 **********************************************************************

            Population analysis using the SCF density.

 **********************************************************************

 Orbital symmetries:
       Occupied  (A) (A) (A) (A) (A) (A) (A) (A) (A) (A) (A) (A)
                 (A) (A) (A) (A) (A) (A) (A) (A) (A) (A) (A) (A)
                 (A) (A) (A) (A) (A) (A) (A) (A) (A) (A) (A) (A)
                 (A) (A) (A) (A) (A) (A) (A) (A) (A) (A) (A) (A)
                 (A) (A) (A)
       Virtual   (A) (A) (A) (A) (A) (A) (A) (A) (A) (A) (A) (A)
                 (A) (A) (A) (A) (A) (A) (A) (A) (A) (A) (A) (A)
                 (A) (A) (A) (A) (A) (A) (A) (A) (A) (A) (A) (A)
                 (A) (A) (A) (A) (A) (A) (A) (A) (A) (A) (A) (A)
                 (A) (A) (A) (A) (A) (A) (A) (A) (A) (A) (A) (A)
                 (A) (A) (A) (A) (A) (A) (A) (A) (A) (A) (A) (A)
                 (A) (A) (A) (A) (A) (A) (A) (A) (A) (A) (A) (A)
                 (A) (A) (A) (A) (A) (A) (A) (A) (A) (A) (A) (A)
                 (A) (A) (A) (A) (A) (A) (A) (A) (A) (A) (A) (A)
                 (A) (A) (A) (A) (A) (A) (A) (A) (A) (A) (A) (A)
                 (A) (A) (A) (A) (A) (A) (A) (A) (A) (A) (A) (A)
                 (A) (A) (A) (A) (A) (A) (A) (A) (A) (A) (A) (A)
                 (A) (A) (A) (A) (A) (A) (A) (A) (A) (A) (A) (A)
                 (A) (A) (A) (A) (A) (A) (A) (A) (A) (A) (A) (A)
                 (A) (A) (A) (A) (A) (A) (A) (A) (A) (A) (A) (A)
                 (A) (A) (A) (A) (A) (A) (A) (A) (A) (A) (A) (A)
                 (A) (A) (A) (A) (A) (A) (A) (A) (A) (A) (A) (A)
                 (A) (A) (A) (A) (A) (A) (A) (A) (A) (A) (A) (A)
                 (A) (A) (A) (A) (A) (A) (A) (A) (A) (A) (A) (A)
                 (A) (A) (A) (A) (A) (A) (A) (A) (A) (A) (A) (A)
                 (A) (A) (A) (A) (A) (A) (A) (A) (A) (A) (A) (A)
                 (A) (A) (A) (A) (A) (A) (A) (A) (A) (A) (A) (A)
                 (A) (A) (A) (A) (A) (A) (A) (A) (A) (A) (A) (A)
                 (A) (A) (A) (A) (A) (A) (A) (A) (A) (A) (A) (A)
                 (A) (A) (A) (A) (A) (A) (A) (A) (A) (A) (A) (A)
                 (A) (A) (A) (A) (A) (A) (A) (A) (A) (A) (A) (A)
                 (A) (A) (A) (A) (A) (A) (A) (A) (A) (A) (A) (A)
                 (A) (A) (A) (A) (A) (A) (A) (A) (A) (A) (A) (A)
                 (A) (A) (A) (A) (A) (A) (A) (A) (A) (A) (A) (A)
                 (A) (A) (A) (A) (A) (A) (A) (A) (A) (A) (A) (A)
                 (A)
 The electronic state is 1-A.
 Alpha  occ. eigenvalues --  -19.20638 -19.20492 -19.19792 -19.19740 -19.19372
 Alpha  occ. eigenvalues --  -19.19321 -14.59359 -14.59008 -10.31486 -10.31230
 Alpha  occ. eigenvalues --  -10.27558 -10.27549 -10.23936 -10.20987  -1.25700
 Alpha  occ. eigenvalues --   -1.25230  -1.14886  -1.12821  -1.07634  -1.07166
 Alpha  occ. eigenvalues --   -0.93382  -0.85826  -0.84220  -0.75344  -0.74055
 Alpha  occ. eigenvalues --   -0.68558  -0.65196  -0.62748  -0.59102  -0.58342
 Alpha  occ. eigenvalues --   -0.56499  -0.55935  -0.55509  -0.53475  -0.52226
 Alpha  occ. eigenvalues --   -0.51848  -0.49705  -0.49346  -0.47363  -0.44123
 Alpha  occ. eigenvalues --   -0.42536  -0.41421  -0.37876  -0.33926  -0.33587
 Alpha  occ. eigenvalues --   -0.33187  -0.33151  -0.31941  -0.31492  -0.28978
 Alpha  occ. eigenvalues --   -0.28504
 Alpha virt. eigenvalues --   -0.11322  -0.10322  -0.03152  -0.00292   0.07973
 Alpha virt. eigenvalues --    0.10484   0.13200   0.13762   0.16180   0.16646
 Alpha virt. eigenvalues --    0.19132   0.20634   0.23372   0.24873   0.25920
 Alpha virt. eigenvalues --    0.26666   0.28766   0.30910   0.31194   0.32907
 Alpha virt. eigenvalues --    0.34132   0.35390   0.36804   0.41651   0.41819
 Alpha virt. eigenvalues --    0.43676   0.44229   0.45324   0.47806   0.48289
 Alpha virt. eigenvalues --    0.50637   0.52210   0.52701   0.53610   0.55344
 Alpha virt. eigenvalues --    0.56349   0.57063   0.57280   0.58154   0.58255
 Alpha virt. eigenvalues --    0.59951   0.62221   0.64099   0.65834   0.67681
 Alpha virt. eigenvalues --    0.68995   0.69518   0.71661   0.73723   0.73925
 Alpha virt. eigenvalues --    0.74158   0.74503   0.75438   0.77127   0.78928
 Alpha virt. eigenvalues --    0.79267   0.79872   0.81388   0.82600   0.82794
 Alpha virt. eigenvalues --    0.84275   0.85197   0.86761   0.87693   0.87942
 Alpha virt. eigenvalues --    0.88358   0.91002   0.91070   0.92320   0.93214
 Alpha virt. eigenvalues --    0.93982   0.94838   0.95365   0.96725   0.97392
 Alpha virt. eigenvalues --    0.98773   0.99311   1.00422   1.01853   1.02437
 Alpha virt. eigenvalues --    1.03566   1.03973   1.04848   1.05846   1.07856
 Alpha virt. eigenvalues --    1.12058   1.12278   1.13073   1.15399   1.16691
 Alpha virt. eigenvalues --    1.17143   1.21537   1.24011   1.25052   1.26301
 Alpha virt. eigenvalues --    1.26628   1.29051   1.32941   1.33895   1.33987
 Alpha virt. eigenvalues --    1.35042   1.35327   1.36599   1.37444   1.40231
 Alpha virt. eigenvalues --    1.41246   1.41450   1.42166   1.43476   1.44651
 Alpha virt. eigenvalues --    1.45864   1.47691   1.47841   1.51863   1.52682
 Alpha virt. eigenvalues --    1.54014   1.54443   1.55886   1.57283   1.58891
 Alpha virt. eigenvalues --    1.61661   1.63133   1.63978   1.66329   1.66653
 Alpha virt. eigenvalues --    1.69831   1.73857   1.75545   1.77224   1.77833
 Alpha virt. eigenvalues --    1.79239   1.85332   1.85802   1.86225   1.88546
 Alpha virt. eigenvalues --    1.89384   1.97083   1.97711   1.99887   2.00332
 Alpha virt. eigenvalues --    2.06095   2.10326   2.12484   2.16683   2.21120
 Alpha virt. eigenvalues --    2.22841   2.26001   2.28735   2.29197   2.34431
 Alpha virt. eigenvalues --    2.37682   2.41814   2.51013   2.52616   2.54634
 Alpha virt. eigenvalues --    2.54762   2.63056   2.64227   2.65042   2.69499
 Alpha virt. eigenvalues --    2.72631   2.82577   2.87467   2.88019   2.94383
 Alpha virt. eigenvalues --    2.95054   2.96719   2.97665   2.97811   3.02916
 Alpha virt. eigenvalues --    3.03036   3.05541   3.06512   3.08218   3.08937
 Alpha virt. eigenvalues --    3.13239   3.14753   3.16606   3.23939   3.24318
 Alpha virt. eigenvalues --    3.27145   3.27423   3.28151   3.29167   3.29250
 Alpha virt. eigenvalues --    3.32102   3.34237   3.39979   3.41454   3.43039
 Alpha virt. eigenvalues --    3.43146   3.45226   3.46407   3.47092   3.49988
 Alpha virt. eigenvalues --    3.52735   3.55313   3.60197   3.60626   3.61215
 Alpha virt. eigenvalues --    3.61989   3.62878   3.63479   3.65705   3.66158
 Alpha virt. eigenvalues --    3.67719   3.68795   3.70601   3.77961   3.78958
 Alpha virt. eigenvalues --    3.82213   3.87361   3.90305   3.93241   3.94302
 Alpha virt. eigenvalues --    3.97239   4.00820   4.01857   4.02943   4.04040
 Alpha virt. eigenvalues --    4.05399   4.06430   4.08955   4.09958   4.10217
 Alpha virt. eigenvalues --    4.14880   4.17042   4.19887   4.21322   4.22305
 Alpha virt. eigenvalues --    4.23667   4.25320   4.25844   4.27973   4.28711
 Alpha virt. eigenvalues --    4.29814   4.30429   4.33158   4.35660   4.36901
 Alpha virt. eigenvalues --    4.37553   4.38607   4.39489   4.40215   4.40868
 Alpha virt. eigenvalues --    4.41619   4.44230   4.46105   4.46682   4.48645
 Alpha virt. eigenvalues --    4.48684   4.49541   4.50229   4.52297   4.53790
 Alpha virt. eigenvalues --    4.55289   4.57323   4.57470   4.57737   4.59114
 Alpha virt. eigenvalues --    4.59995   4.61059   4.61757   4.64885   4.69062
 Alpha virt. eigenvalues --    4.72874   4.73409   4.75154   4.79466   4.83546
 Alpha virt. eigenvalues --    4.84265   4.87011   4.91342   4.94341   4.97152
 Alpha virt. eigenvalues --    4.98041   5.00223   5.00382   5.00833   5.01086
 Alpha virt. eigenvalues --    5.04744   5.05110   5.05365   5.05999   5.06708
 Alpha virt. eigenvalues --    5.08708   5.14177   5.14870   5.17573   5.20005
 Alpha virt. eigenvalues --    5.20567   5.21223   5.22450   5.22496   5.24505
 Alpha virt. eigenvalues --    5.31131   5.33036   5.36147   5.36703   5.43027
 Alpha virt. eigenvalues --    5.44133   5.51427   5.53625   5.56284   5.58520
 Alpha virt. eigenvalues --    5.59087   5.60799   5.61017   5.66354   5.68569
 Alpha virt. eigenvalues --    5.69312   5.72004   5.78663   5.82519   5.84973
 Alpha virt. eigenvalues --    5.85597   5.87386   5.89472   5.94500   5.97478
 Alpha virt. eigenvalues --    5.99774   6.01376   6.03019   6.07428   6.10432
 Alpha virt. eigenvalues --    6.15211   6.21187   6.22412   6.22684   6.23303
 Alpha virt. eigenvalues --    6.28541   6.32516   6.45313   6.50264   6.57581
 Alpha virt. eigenvalues --    6.61637   6.72941   6.75016   6.92951   6.94108
 Alpha virt. eigenvalues --    7.04928   7.06051   7.26229   7.36604   9.35553
 Alpha virt. eigenvalues --    9.63421  10.70835  10.72856  11.28237  11.29618
 Alpha virt. eigenvalues --   11.58825  11.98430  12.80913  12.94784  13.01377
 Alpha virt. eigenvalues --   13.20862  13.27944  13.53620  13.65163  16.59434
 Alpha virt. eigenvalues --   19.14835
          Condensed to atoms (all electrons):
               1          2          3          4          5          6
     1  C    5.192434   0.293658   0.324508   0.014990  -0.006601   0.001275
     2  H    0.293658   0.558807  -0.011386   0.005412  -0.017569   0.031268
     3  C    0.324508  -0.011386   5.170867   0.342033   0.360332  -0.125437
     4  C    0.014990   0.005412   0.342033   4.567302  -0.039328   0.003906
     5  N   -0.006601  -0.017569   0.360332  -0.039328   5.264642   0.554179
     6  O    0.001275   0.031268  -0.125437   0.003906   0.554179   7.955444
     7  O    0.002617  -0.000010  -0.059429   0.470367  -0.005264  -0.000019
     8  H   -0.001111  -0.000044  -0.005222  -0.063290  -0.005084   0.000897
     9  C   -0.097661   0.000046   0.052143   0.461883  -0.000473  -0.000002
    10  C    0.011147   0.005428  -0.052258   0.023594   0.000173   0.000030
    11  C    0.333964  -0.012208  -0.014978  -0.052187   0.002142   0.001663
    12  O    0.002176  -0.000011   0.000010   0.001301  -0.000000  -0.000000
    13  O    0.007569   0.000688  -0.105499  -0.008785   0.477253  -0.086137
    14  H    0.001217   0.000069   0.005348  -0.019161  -0.000015   0.000001
    15  N   -0.003637  -0.017791   0.002086   0.000221  -0.000026  -0.000016
    16  O   -0.000240   0.033037   0.001679   0.000031  -0.000017   0.000003
    17  O    0.007689   0.000747   0.000060  -0.000025  -0.000000   0.000000
    18  H   -0.001052  -0.000037  -0.000006  -0.000180   0.000000  -0.000000
               7          8          9         10         11         12
     1  C    0.002617  -0.001111  -0.097661   0.011147   0.333964   0.002176
     2  H   -0.000010  -0.000044   0.000046   0.005428  -0.012208  -0.000011
     3  C   -0.059429  -0.005222   0.052143  -0.052258  -0.014978   0.000010
     4  C    0.470367  -0.063290   0.461883   0.023594  -0.052187   0.001301
     5  N   -0.005264  -0.005084  -0.000473   0.000173   0.002142  -0.000000
     6  O   -0.000019   0.000897  -0.000002   0.000030   0.001663  -0.000000
     7  O    7.650226   0.345487  -0.018226   0.001411   0.000011   0.000001
     8  H    0.345487   0.381191   0.008907  -0.000203  -0.000000   0.000000
     9  C   -0.018226   0.008907   4.920625   0.454764   0.042760  -0.015751
    10  C    0.001411  -0.000203   0.454764   4.592536   0.344939   0.473176
    11  C    0.000011  -0.000000   0.042760   0.344939   5.167243  -0.065022
    12  O    0.000001   0.000000  -0.015751   0.473176  -0.065022   7.569207
    13  O   -0.024609   0.057510   0.000794  -0.000023   0.000059   0.000000
    14  H   -0.003160  -0.000172   0.320564  -0.019808   0.005519  -0.002731
    15  N   -0.000000   0.000000  -0.000704  -0.039974   0.358722  -0.004162
    16  O   -0.000000  -0.000000   0.000002   0.004026  -0.123999  -0.000005
    17  O    0.000000  -0.000000   0.000771  -0.009697  -0.105060  -0.018809
    18  H    0.000000  -0.000000   0.010588  -0.065176  -0.008786   0.377315
              13         14         15         16         17         18
     1  C    0.007569   0.001217  -0.003637  -0.000240   0.007689  -0.001052
     2  H    0.000688   0.000069  -0.017791   0.033037   0.000747  -0.000037
     3  C   -0.105499   0.005348   0.002086   0.001679   0.000060  -0.000006
     4  C   -0.008785  -0.019161   0.000221   0.000031  -0.000025  -0.000180
     5  N    0.477253  -0.000015  -0.000026  -0.000017  -0.000000   0.000000
     6  O   -0.086137   0.000001  -0.000016   0.000003   0.000000  -0.000000
     7  O   -0.024609  -0.003160  -0.000000  -0.000000   0.000000   0.000000
     8  H    0.057510  -0.000172   0.000000  -0.000000  -0.000000  -0.000000
     9  C    0.000794   0.320564  -0.000704   0.000002   0.000771   0.010588
    10  C   -0.000023  -0.019808  -0.039974   0.004026  -0.009697  -0.065176
    11  C    0.000059   0.005519   0.358722  -0.123999  -0.105060  -0.008786
    12  O    0.000000  -0.002731  -0.004162  -0.000005  -0.018809   0.377315
    13  O    8.095757   0.000020  -0.000000   0.000000  -0.000000  -0.000000
    14  H    0.000020   0.594211  -0.000022   0.000001   0.000019  -0.000198
    15  N   -0.000000  -0.000022   5.257164   0.550968   0.490099  -0.003094
    16  O    0.000000   0.000001   0.550968   7.966864  -0.090013   0.000771
    17  O   -0.000000   0.000019   0.490099  -0.090013   8.081033   0.051895
    18  H   -0.000000  -0.000198  -0.003094   0.000771   0.051895   0.397775
 Mulliken charges:
               1
     1  C   -0.082943
     2  H    0.129898
     3  C    0.115151
     4  C    0.291916
     5  N    0.415656
     6  O   -0.337054
     7  O   -0.359402
     8  H    0.281133
     9  C   -0.141031
    10  C    0.275915
    11  C    0.125220
    12  O   -0.316695
    13  O   -0.414597
    14  H    0.118299
    15  N    0.410166
    16  O   -0.343107
    17  O   -0.408709
    18  H    0.240184
 Sum of Mulliken charges =  -0.00000
 Mulliken charges with hydrogens summed into heavy atoms:
               1
     1  C    0.046955
     3  C    0.115151
     4  C    0.291916
     5  N    0.415656
     6  O   -0.337054
     7  O   -0.078269
     9  C   -0.022732
    10  C    0.275915
    11  C    0.125220
    12  O   -0.076511
    13  O   -0.414597
    15  N    0.410166
    16  O   -0.343107
    17  O   -0.408709
 APT charges:
               1
     1  C   -0.190741
     2  H    0.292075
     3  C   -0.158177
     4  C   -0.528178
     5  N   -1.117754
     6  O    0.473951
     7  O    0.087662
     8  H    0.476782
     9  C   -0.119907
    10  C   -0.531143
    11  C   -0.134800
    12  O    0.082907
    13  O    0.531813
    14  H    0.480307
    15  N   -1.149226
    16  O    0.468158
    17  O    0.564552
    18  H    0.471718
 Sum of APT charges =  -0.00000
 APT charges with hydrogens summed into heavy atoms:
               1
     1  C    0.101334
     3  C   -0.158177
     4  C   -0.528178
     5  N   -1.117754
     6  O    0.473951
     7  O    0.564444
     9  C    0.360400
    10  C   -0.531143
    11  C   -0.134800
    12  O    0.554625
    13  O    0.531813
    15  N   -1.149226
    16  O    0.468158
    17  O    0.564552
 Electronic spatial extent (au):  <R**2>=           2741.2756
 Charge=             -0.0000 electrons
 Dipole moment (field-independent basis, Debye):
    X=              0.0621    Y=              2.5546    Z=              0.0275  Tot=              2.5555
 Quadrupole moment (field-independent basis, Debye-Ang):
   XX=            -89.7863   YY=            -83.9548   ZZ=            -73.6891
   XY=             -0.6435   XZ=              0.3032   YZ=              0.0309
 Traceless Quadrupole moment (field-independent basis, Debye-Ang):
   XX=             -7.3096   YY=             -1.4780   ZZ=              8.7876
   XY=             -0.6435   XZ=              0.3032   YZ=              0.0309
 Octapole moment (field-independent basis, Debye-Ang**2):
  XXX=              0.8237  YYY=              8.0767  ZZZ=              0.6518  XYY=             -0.7247
  XXY=             27.7596  XXZ=             -0.0390  XZZ=             -0.1228  YZZ=             -4.6761
  YYZ=              0.4365  XYZ=              0.3390
 Hexadecapole moment (field-independent basis, Debye-Ang**3):
 XXXX=          -2320.8703 YYYY=          -1004.3626 ZZZZ=            -61.3431 XXXY=             -5.8578
 XXXZ=              2.3931 YYYX=             -4.1048 YYYZ=             -0.6714 ZZZX=             -0.1047
 ZZZY=              0.4449 XXYY=           -575.3088 XXZZ=           -349.7753 YYZZ=           -167.2731
 XXYZ=              2.9304 YYXZ=              0.4082 ZZXY=             -0.4263
 N-N= 9.073291707382D+02 E-N=-3.670067398721D+03  KE= 7.882526733428D+02
  Exact polarizability:   0.000   0.000   0.000   0.000   0.000   0.000
 Approx polarizability: 274.985  -0.702 229.800  -0.079   1.472  71.020
 No NMR shielding tensors so no spin-rotation constants.
 Leave Link  601 at Fri Aug 27 10:21:20 2021, MaxMem= 24159191040 cpu:        18.6
 (Enter /public/home/users/caep010/software/Gaussian09/g09/l701.exe)
 Compute integral second derivatives.
 ... and contract with generalized density number  0.
 Leave Link  701 at Fri Aug 27 10:21:21 2021, MaxMem= 24159191040 cpu:        18.6
 (Enter /public/home/users/caep010/software/Gaussian09/g09/l702.exe)
 L702 exits ... SP integral derivatives will be done elsewhere.
 Leave Link  702 at Fri Aug 27 10:21:21 2021, MaxMem= 24159191040 cpu:         0.8
 (Enter /public/home/users/caep010/software/Gaussian09/g09/l703.exe)
 Compute integral second derivatives, UseDBF=F ICtDFT=           0.
 Integral derivatives from FoFJK, PRISM(SPDF).
 Calling FoFJK, ICntrl=    100147 FMM=F ISym2X=0 I1Cent= 0 IOpClX= 0 NMat=1 NMatS=1 NMatT=0.
 FoFJK:  IHMeth= 1 ICntrl=  100147 DoSepK=F KAlg= 0 I1Cent=   0 FoldK=F
 IRaf=         0 NMat=   1 IRICut=       1 DoRegI=T DoRafI=F ISym2E= 0.
 FoFCou: FMM=F IPFlag=           0 FMFlag=      100000 FMFlg1=         800
         NFxFlg=           0 DoJE=F BraDBF=F KetDBF=F FulRan=T
         wScrn=  0.000000 ICntrl=  100147 IOpCl=  0 I1Cent=           0 NGrid=           0
         NMat0=    1 NMatS0=      1 NMatT0=    0 NMatD0=    1 NMtDS0=    0 NMtDT0=    0
 Symmetry not used in FoFCou.
 Leave Link  703 at Fri Aug 27 10:22:20 2021, MaxMem= 24159191040 cpu:      1869.1
 (Enter /public/home/users/caep010/software/Gaussian09/g09/l716.exe)
 Dipole        = 2.44445113D-02 1.00504394D+00 1.08198614D-02
 Polarizability= 0.00000000D+00 0.00000000D+00 0.00000000D+00
                 0.00000000D+00 0.00000000D+00 0.00000000D+00
 ***** Axes restored to original set *****
 -------------------------------------------------------------------
 Center     Atomic                   Forces (Hartrees/Bohr)
 Number     Number              X              Y              Z
 -------------------------------------------------------------------
      1        6          -0.108839317    0.156435532    0.077290188
      2        1           0.117256045   -0.167145584   -0.081864880
      3        6          -0.007142744   -0.000001574   -0.005281503
      4        6          -0.010096840    0.001130971   -0.006696465
      5        7          -0.006476483    0.001761833   -0.003046547
      6        8           0.009841624   -0.007228228    0.000928498
      7        8           0.024887139    0.052199352    0.088879499
      8        1          -0.021957832   -0.057271329   -0.091194893
      9        6           0.099594003   -0.140057416   -0.062424182
     10        6           0.000963986    0.001019491    0.001692115
     11        6           0.003788417    0.004879092    0.007382912
     12        8          -0.235336238    0.088011135   -0.096212144
     13        8          -0.003420032    0.005869983    0.001860707
     14        1          -0.102910853    0.153655001    0.072862864
     15        7           0.010766726    0.003244380    0.006003746
     16        8          -0.002648454   -0.007822081   -0.007610096
     17        8          -0.006890304    0.005635544    0.002481658
     18        1           0.238621158   -0.094316102    0.094948524
 -------------------------------------------------------------------
 Cartesian Forces:  Max     0.238621158 RMS     0.078779239
 FormGI is forming the generalized inverse of G from B-inverse, IUseBI=4.
 Leave Link  716 at Fri Aug 27 10:22:21 2021, MaxMem= 24159191040 cpu:         2.6
 (Enter /public/home/users/caep010/software/Gaussian09/g09/l103.exe)

 GradGradGradGradGradGradGradGradGradGradGradGradGradGradGradGradGradGrad
 Berny optimization.
 Red2BG is reusing G-inverse.
 Internal  Forces:  Max     0.273552806 RMS     0.046934776
 Search for a local minimum.
 Step number   1 out of a maximum of   90
 All quantities printed in internal units (Hartrees-Bohrs-Radians)
 RMS Force = .46935D-01 SwitMx=.10000D-02 MixMth= 1
 Mixed Optimization -- RFO/linear search
 Second derivative matrix not updated -- analytic derivatives used.
 ITU=  0
     Eigenvalues ---    0.00658   0.00720   0.01267   0.01331   0.01677
     Eigenvalues ---    0.01734   0.02041   0.02222   0.02740   0.03151
     Eigenvalues ---    0.03279   0.03794   0.04268   0.11074   0.11472
     Eigenvalues ---    0.11570   0.11761   0.17786   0.18547   0.19060
     Eigenvalues ---    0.19986   0.21169   0.21275   0.22822   0.23476
     Eigenvalues ---    0.24164   0.25117   0.26114   0.30544   0.36331
     Eigenvalues ---    0.37049   0.41099   0.41697   0.44127   0.49531
     Eigenvalues ---    0.51588   0.54015   0.55967   0.58512   0.59015
     Eigenvalues ---    0.68294   0.76208   0.79515   0.80813   0.85387
     Eigenvalues ---    0.94870   1.01388   1.45637
 RFO step:  Lambda=-1.39598460D-01 EMin= 6.58090979D-03
 Linear search not attempted -- first point.
 Maximum step size (   0.300) exceeded in Quadratic search.
    -- Step size scaled by   0.884
 Iteration  1 RMS(Cart)=  0.03809917 RMS(Int)=  0.00017893
 Iteration  2 RMS(Cart)=  0.00021562 RMS(Int)=  0.00000519
 Iteration  3 RMS(Cart)=  0.00000007 RMS(Int)=  0.00000519
 ITry= 1 IFail=0 DXMaxC= 1.52D-01 DCOld= 1.00D+10 DXMaxT= 3.00D-01 DXLimC= 3.00D+00 Rises=F
 Variable       Old X    -DE/DX   Delta X   Delta X   Delta X     New X
                                 (Linear)    (Quad)   (Total)
    R1        1.69985   0.21996   0.00000   0.16864   0.16864   1.86849
    R2        2.59452   0.01171   0.00000   0.01583   0.01583   2.61034
    R3        2.59917   0.01000   0.00000   0.01277   0.01277   2.61194
    R4        2.67430   0.00584   0.00000   0.01175   0.01175   2.68604
    R5        2.73516   0.00002   0.00000  -0.00002  -0.00002   2.73514
    R6        2.52764  -0.00324   0.00000  -0.01246  -0.01246   2.51517
    R7        2.60089   0.01433   0.00000   0.02038   0.02038   2.62126
    R8        2.28964   0.01067   0.00000   0.00914   0.00914   2.29878
    R9        2.34292   0.00373   0.00000   0.00573   0.00573   2.34865
   R10        1.68067   0.10971   0.00000   0.09835   0.09835   1.77902
   R11        2.61637   0.00788   0.00000   0.01027   0.01027   2.62664
   R12        1.72147   0.19876   0.00000   0.16145   0.16145   1.88292
   R13        2.67860   0.00142   0.00000   0.00777   0.00777   2.68637
   R14        2.52519  -0.00352   0.00000  -0.00937  -0.00937   2.51582
   R15        2.72932   0.00109   0.00000   0.00489   0.00489   2.73422
   R16        1.53370   0.27355   0.00000   0.15166   0.15166   1.68536
   R17        2.29677   0.00787   0.00000   0.00560   0.00560   2.30237
   R18        2.34072   0.00229   0.00000   0.00360   0.00360   2.34432
    A1        2.09876   0.00106   0.00000  -0.00024  -0.00024   2.09852
    A2        2.08328   0.00223   0.00000   0.00466   0.00466   2.08794
    A3        2.10053  -0.00327   0.00000  -0.00426  -0.00427   2.09626
    A4        2.10139   0.00153   0.00000   0.00302   0.00302   2.10441
    A5        2.05804  -0.00028   0.00000   0.00020   0.00020   2.05824
    A6        2.12375  -0.00125   0.00000  -0.00322  -0.00322   2.12053
    A7        2.16573  -0.00199   0.00000  -0.00579  -0.00580   2.15994
    A8        2.06759   0.00060   0.00000   0.00072   0.00072   2.06831
    A9        2.04986   0.00140   0.00000   0.00508   0.00508   2.05493
   A10        2.08425  -0.00452   0.00000  -0.00551  -0.00551   2.07874
   A11        2.06102  -0.00468   0.00000  -0.00444  -0.00445   2.05657
   A12        2.13791   0.00921   0.00000   0.00997   0.00997   2.14788
   A13        1.85461   0.01032   0.00000   0.01334   0.01334   1.86795
   A14        2.13354  -0.00465   0.00000  -0.00764  -0.00763   2.12591
   A15        2.09202   0.00043   0.00000  -0.00290  -0.00290   2.08912
   A16        2.05726   0.00424   0.00000   0.01062   0.01062   2.06788
   A17        2.05806   0.00449   0.00000   0.00789   0.00789   2.06595
   A18        2.04543   0.00212   0.00000   0.00415   0.00415   2.04958
   A19        2.17963  -0.00659   0.00000  -0.01201  -0.01201   2.16762
   A20        2.10455   0.00132   0.00000   0.00039   0.00039   2.10494
   A21        2.05384   0.00240   0.00000   0.00263   0.00263   2.05647
   A22        2.12417  -0.00370   0.00000  -0.00291  -0.00291   2.12126
   A23        1.89488   0.00683   0.00000   0.00322   0.00322   1.89810
   A24        2.08594  -0.00517   0.00000  -0.00817  -0.00818   2.07775
   A25        2.06462  -0.00768   0.00000  -0.00752  -0.00754   2.05708
   A26        2.13235   0.01291   0.00000   0.01592   0.01590   2.14825
    D1       -3.11717  -0.00064   0.00000  -0.00349  -0.00348  -3.12066
    D2        0.02888  -0.00090   0.00000  -0.00480  -0.00480   0.02408
    D3       -0.01342   0.00034   0.00000   0.00161   0.00160  -0.01182
    D4        3.13263   0.00009   0.00000   0.00029   0.00029   3.13292
    D5        3.09758   0.00087   0.00000   0.00463   0.00463   3.10222
    D6       -0.00662   0.00037   0.00000   0.00135   0.00134  -0.00527
    D7       -0.00650  -0.00008   0.00000  -0.00032  -0.00032  -0.00683
    D8       -3.11070  -0.00058   0.00000  -0.00360  -0.00361  -3.11431
    D9       -3.14082   0.00036   0.00000   0.00192   0.00192  -3.13890
   D10        0.00543  -0.00007   0.00000  -0.00012  -0.00011   0.00531
   D11       -0.00385   0.00063   0.00000   0.00330   0.00329  -0.00056
   D12       -3.14079   0.00020   0.00000   0.00126   0.00126  -3.13953
   D13        0.02233  -0.00019   0.00000  -0.00014  -0.00014   0.02218
   D14       -3.12478   0.00086   0.00000   0.00351   0.00351  -3.12127
   D15       -3.11475  -0.00046   0.00000  -0.00149  -0.00149  -3.11624
   D16        0.02133   0.00059   0.00000   0.00216   0.00216   0.02349
   D17       -0.06636   0.00148   0.00000   0.00869   0.00869  -0.05767
   D18        3.07063   0.00190   0.00000   0.01070   0.01070   3.08133
   D19        0.02338  -0.00059   0.00000  -0.00287  -0.00286   0.02052
   D20        3.13553   0.00018   0.00000   0.00091   0.00091   3.13644
   D21       -3.11387  -0.00099   0.00000  -0.00474  -0.00474  -3.11861
   D22       -0.00172  -0.00021   0.00000  -0.00096  -0.00097  -0.00269
   D23       -0.04243   0.00076   0.00000   0.00394   0.00393  -0.03849
   D24        3.08786   0.00127   0.00000   0.00663   0.00664   3.09450
   D25        3.12805   0.00006   0.00000   0.00044   0.00042   3.12847
   D26       -0.02485   0.00057   0.00000   0.00313   0.00313  -0.02172
   D27        0.03371  -0.00035   0.00000  -0.00220  -0.00221   0.03150
   D28        3.13638   0.00030   0.00000   0.00134   0.00133   3.13771
   D29       -3.09562  -0.00098   0.00000  -0.00525  -0.00524  -3.10086
   D30        0.00705  -0.00032   0.00000  -0.00171  -0.00171   0.00534
   D31       -3.11812  -0.00067   0.00000  -0.00353  -0.00352  -3.12163
   D32        0.01129  -0.00004   0.00000  -0.00047  -0.00048   0.01081
   D33       -0.03894  -0.00101   0.00000  -0.00270  -0.00270  -0.04164
   D34        3.07775   0.00189   0.00000   0.00763   0.00762   3.08538
   D35        3.14049  -0.00163   0.00000  -0.00609  -0.00609   3.13440
   D36       -0.02600   0.00127   0.00000   0.00423   0.00423  -0.02177
         Item               Value     Threshold  Converged?
 Maximum Force            0.273553     0.000450     NO 
 RMS     Force            0.046935     0.000300     NO 
 Maximum Displacement     0.152098     0.001800     NO 
 RMS     Displacement     0.038097     0.001200     NO 
 Predicted change in Energy=-7.518897D-02
 Lowest energy point so far.  Saving SCF results.
 GradGradGradGradGradGradGradGradGradGradGradGradGradGradGradGradGradGrad

 Leave Link  103 at Fri Aug 27 10:22:21 2021, MaxMem= 24159191040 cpu:         8.5
 (Enter /public/home/users/caep010/software/Gaussian09/g09/l202.exe)
                          Input orientation:                          
 ---------------------------------------------------------------------
 Center     Atomic      Atomic             Coordinates (Angstroms)
 Number     Number       Type             X           Y           Z
 ---------------------------------------------------------------------
      1          6           0        9.336121   -0.690623   -0.510239
      2          1           0        9.866851   -1.438283   -0.880346
      3          6           0        8.168172   -0.292456   -1.131081
      4          6           0        7.412976    0.797776   -0.619778
      5          7           0        7.743261   -1.021061   -2.307296
      6          8           0        8.408809   -1.963954   -2.691715
      7          8           0        6.279107    1.232184   -1.164865
      8          1           0        6.133844    0.721819   -1.942484
      9          6           0        7.879083    1.453873    0.509985
     10          6           0        9.067333    1.088199    1.131543
     11          6           0        9.789113   -0.020018    0.610254
     12          8           0        9.460469    1.812071    2.177420
     13          8           0        6.703983   -0.647418   -2.877364
     14          1           0        7.366031    2.223287    0.880915
     15          7           0       11.035783   -0.456645    1.200723
     16          8           0       11.612892   -1.416823    0.721758
     17          8           0       11.473955    0.182925    2.169201
     18          1           0       10.237515    1.489645    2.473468
 ---------------------------------------------------------------------
                    Distance matrix (angstroms):
                    1          2          3          4          5
     1  C    0.000000
     2  H    0.988762   0.000000
     3  C    1.381335   2.064291   0.000000
     4  C    2.434300   3.330069   1.421394   0.000000
     5  N    2.424006   2.592277   1.447376   2.502993   0.000000
     6  O    2.690746   2.383962   2.299432   3.593294   1.216462
     7  O    3.670294   4.481546   2.427805   1.330973   2.919933
     8  H    3.781653   4.441793   2.413633   1.841603   2.400197
     9  C    2.786158   3.774759   2.413781   1.387113   3.752442
    10  C    2.435550   3.327167   2.798959   2.426596   4.245911
    11  C    1.382179   2.058982   2.394561   2.797819   3.701311
    12  O    3.674568   4.481057   4.128589   3.611833   5.575672
    13  O    3.540240   3.823256   2.306372   2.772716   1.242854
    14  H    3.782517   4.771084   3.319718   2.070354   4.564295
    15  N    2.423012   2.580864   3.699657   4.244116   4.844117
    16  O    2.688656   2.369779   4.069805   4.933910   4.930096
    17  O    3.537346   3.809309   4.695322   4.964674   5.950352
    18  H    3.803760   4.467463   4.522261   4.245571   5.948164
                    6          7          8          9         10
     6  O    0.000000
     7  O    4.133062   0.000000
     8  H    3.598638   0.941417   0.000000
     9  C    4.713070   2.326842   3.097801   0.000000
    10  C    4.936253   3.615028   4.264884   1.389960   0.000000
    11  C    4.072730   4.127857   4.519711   2.414668   1.421567
    12  O    6.250826   4.650613   5.406357   2.325817   1.331317
    13  O    2.161982   2.577998   1.753245   4.155769   4.966802
    14  H    5.602148   2.519703   3.426992   0.996399   2.060502
    15  N    4.931941   5.574416   5.941173   3.753924   2.503222
    16  O    4.713523   6.247067   6.456930   4.714560   3.594848
    17  O    6.134551   6.261261   6.761150   4.158294   2.772739
    18  H    6.476931   5.382634   6.077032   3.068998   1.825171
                   11         12         13         14         15
    11  C    0.000000
    12  O    2.433221   0.000000
    13  O    4.698419   6.260842   0.000000
    14  H    3.313156   2.497338   4.775344   0.000000
    15  N    1.446887   2.929611   5.952451   4.555370   0.000000
    16  O    2.299928   4.144591   6.135394   5.595674   1.218362
    17  O    2.304385   2.590040   6.993563   4.764221   1.240562
    18  H    2.439613   0.891854   6.759016   3.364503   2.458690
                   16         17         18
    16  O    0.000000
    17  O    2.161849   0.000000
    18  H    3.661654   1.824522   0.000000
 Stoichiometry    C6H4N2O6
 Framework group  C1[X(C6H4N2O6)]
 Deg. of freedom    48
 Full point group                 C1      NOp   1
 RotChk:  IX=0 Diff= 8.36D-04
 Largest Abelian subgroup         C1      NOp   1
 Largest concise Abelian subgroup C1      NOp   1
                         Standard orientation:                         
 ---------------------------------------------------------------------
 Center     Atomic      Atomic             Coordinates (Angstroms)
 Number     Number       Type             X           Y           Z
 ---------------------------------------------------------------------
      1          6           0       -0.000373   -0.881378   -0.019452
      2          1           0       -0.005298   -1.869810    0.005612
      3          6           0        1.196123   -0.191205   -0.007470
      4          6           0        1.211067    1.230073   -0.017681
      5          7           0        2.422152   -0.960221    0.011618
      6          8           0        2.359027   -2.174899   -0.007158
      7          8           0        2.325302    1.958024   -0.010131
      8          1           0        3.046883    1.356849    0.054482
      9          6           0       -0.000813    1.904745   -0.033417
     10          6           0       -1.215528    1.229376   -0.015111
     11          6           0       -1.198354   -0.192034   -0.027444
     12          8           0       -2.325188    1.963945    0.023177
     13          8           0        3.497257   -0.337534    0.044706
     14          1           0       -0.011117    2.901086   -0.036301
     15          7           0       -2.421935   -0.963932   -0.004987
     16          8           0       -2.354461   -2.180269   -0.024453
     17          8           0       -3.496299   -0.346058    0.049490
     18          1           0       -3.029839    1.417828    0.048194
 ---------------------------------------------------------------------
 Rotational constants (GHZ):      1.2315754      0.5081424      0.3597916
 Leave Link  202 at Fri Aug 27 10:22:21 2021, MaxMem= 24159191040 cpu:         0.3
 (Enter /public/home/users/caep010/software/Gaussian09/g09/l301.exe)
 Standard basis: GTBas3 (6D, 7F)
 Ernie: Thresh=  0.10000D-02 Tol=  0.10000D-05 Strict=F.
 There are   454 symmetry adapted cartesian basis functions of A   symmetry.
 There are   412 symmetry adapted basis functions of A   symmetry.
   412 basis functions,   644 primitive gaussians,   454 cartesian basis functions
    51 alpha electrons       51 beta electrons
       nuclear repulsion energy       904.0230072864 Hartrees.
 IExCor=  402 DFT=T Ex+Corr=B3LYP ExCW=0 ScaHFX=  0.200000
 ScaDFX=  0.800000  0.720000  1.000000  0.810000 ScalE2=  1.000000  1.000000
 IRadAn=      0 IRanWt=     -1 IRanGd=            0 ICorTp=0 IEmpDi=  4
 NAtoms=   18 NActive=   18 NUniq=   18 SFac= 1.00D+00 NAtFMM=   60 NAOKFM=F Big=F
 Integral buffers will be    131072 words long.
 Raffenetti 2 integral format.
 Two-electron integral symmetry is turned on.
 Leave Link  301 at Fri Aug 27 10:22:21 2021, MaxMem= 24159191040 cpu:         1.8
 (Enter /public/home/users/caep010/software/Gaussian09/g09/l302.exe)
 NPDir=0 NMtPBC=     1 NCelOv=     1 NCel=       1 NClECP=     1 NCelD=      1
         NCelK=      1 NCelE2=     1 NClLst=     1 CellRange=     0.0.
 One-electron integrals computed using PRISM.
 NBasis=   412 RedAO= T EigKep=  9.32D-05  NBF=   412
 NBsUse=   412 1.00D-06 EigRej= -1.00D+00 NBFU=   412
 Precomputing XC quadrature grid using
 IXCGrd= 4 IRadAn=           0 IRanWt=          -1 IRanGd=           0 AccXCQ= 0.00D+00.
 Generated NRdTot=       0 NPtTot=           0 NUsed=           0 NTot=          32
 NSgBfM=   453   453   453   453   453 MxSgAt=    18 MxSgA2=    18.
 Leave Link  302 at Fri Aug 27 10:22:22 2021, MaxMem= 24159191040 cpu:        21.8
 (Enter /public/home/users/caep010/software/Gaussian09/g09/l303.exe)
 DipDrv:  MaxL=1.
 Leave Link  303 at Fri Aug 27 10:22:22 2021, MaxMem= 24159191040 cpu:         1.2
 (Enter /public/home/users/caep010/software/Gaussian09/g09/l401.exe)
 Initial guess from the checkpoint file:  "/public/home/users/caep010/.cache/gau_scr/Gau-198977.chk"
 B after Tr=    -0.000000   -0.000000    0.000000
         Rot=    1.000000   -0.000011   -0.000001    0.000164 Ang=  -0.02 deg.
 Guess basis will be translated and rotated to current coordinates.
 JPrj=2 DoOrth=T DoCkMO=T.
 Generating alternative initial guess.
 ExpMin= 1.61D-01 ExpMax= 5.48D+03 ExpMxC= 8.25D+02 IAcc=1 IRadAn=         1 AccDes= 0.00D+00
 Harris functional with IExCor=  402 and IRadAn=       1 diagonalized for initial guess.
 HarFok:  IExCor=  402 AccDes= 0.00D+00 IRadAn=         1 IDoV= 1 UseB2=F ITyADJ=14
 ICtDFT=  3500011 ScaDFX=  1.000000  1.000000  1.000000  1.000000
 FoFCou: FMM=F IPFlag=           0 FMFlag=      100000 FMFlg1=           0
         NFxFlg=           0 DoJE=T BraDBF=F KetDBF=T FulRan=T
         wScrn=  0.000000 ICntrl=     500 IOpCl=  0 I1Cent=   200000004 NGrid=           0
         NMat0=    1 NMatS0=      1 NMatT0=    0 NMatD0=    1 NMtDS0=    0 NMtDT0=    0
 Petite list used in FoFCou.
 Harris En= -791.793842059210    
 Leave Link  401 at Fri Aug 27 10:22:23 2021, MaxMem= 24159191040 cpu:        24.6
 (Enter /public/home/users/caep010/software/Gaussian09/g09/l502.exe)
 Closed shell SCF:
 Using DIIS extrapolation, IDIIS=  1040.
 Integral symmetry usage will be decided dynamically.
 Keep R1 ints in memory in canonical form, NReq=3666928235.
 IVT=      654694 IEndB=      654694 NGot= 24159191040 MDV= 20539360766
 LenX= 20539360766 LenY= 20539154196
 Requested convergence on RMS density matrix=1.00D-08 within 128 cycles.
 Requested convergence on MAX density matrix=1.00D-06.
 Requested convergence on             energy=1.00D-06.
 No special actions if energy rises.
 FoFCou: FMM=F IPFlag=           0 FMFlag=           0 FMFlg1=           0
         NFxFlg=           0 DoJE=F BraDBF=F KetDBF=F FulRan=T
         wScrn=  0.000000 ICntrl=     600 IOpCl=  0 I1Cent=           0 NGrid=           0
         NMat0=    1 NMatS0=  85078 NMatT0=    0 NMatD0=    1 NMtDS0=    0 NMtDT0=    0
 Symmetry not used in FoFCou.
 Integral accuracy reduced to 1.0D-05 until final iterations.

 Cycle   1  Pass 0  IDiag  1:
 E= -791.740961228809    
 DIIS: error= 3.18D-03 at cycle   1 NSaved=   1.
 NSaved= 1 IEnMin= 1 EnMin= -791.740961228809     IErMin= 1 ErrMin= 3.18D-03
 ErrMax= 3.18D-03  0.00D+00 EMaxC= 1.00D-01 BMatC= 9.05D-03 BMatP= 9.05D-03
 IDIUse=3 WtCom= 9.68D-01 WtEn= 3.18D-02
 Coeff-Com:  0.100D+01
 Coeff-En:   0.100D+01
 Coeff:      0.100D+01
 Gap=     0.992 Goal=   None    Shift=    0.000
 GapD=    0.992 DampG=2.000 DampE=1.000 DampFc=2.0000 IDamp=-1.
 RMSDP=5.90D-04 MaxDP=4.07D-02              OVMax= 2.65D-02

 Cycle   2  Pass 0  IDiag  1:
 E= -791.747008221548     Delta-E=       -0.006046992739 Rises=F Damp=F
 DIIS: error= 1.56D-03 at cycle   2 NSaved=   2.
 NSaved= 2 IEnMin= 2 EnMin= -791.747008221548     IErMin= 2 ErrMin= 1.56D-03
 ErrMax= 1.56D-03  0.00D+00 EMaxC= 1.00D-01 BMatC= 2.02D-03 BMatP= 9.05D-03
 IDIUse=3 WtCom= 9.84D-01 WtEn= 1.56D-02
 Coeff-Com:  0.249D+00 0.751D+00
 Coeff-En:   0.000D+00 0.100D+01
 Coeff:      0.245D+00 0.755D+00
 Gap=     0.175 Goal=   None    Shift=    0.000
 RMSDP=1.98D-04 MaxDP=1.37D-02 DE=-6.05D-03 OVMax= 1.74D-02

 Cycle   3  Pass 0  IDiag  1:
 E= -791.746908331988     Delta-E=        0.000099889559 Rises=F Damp=F
 DIIS: error= 1.84D-03 at cycle   3 NSaved=   3.
 NSaved= 3 IEnMin= 2 EnMin= -791.747008221548     IErMin= 2 ErrMin= 1.56D-03
[...]
 77640481\C,0,9.8003091615,0.0052134924,0.597479133\O,0,9.459524849,1.7
 917535867,2.1924010989\O,0,6.6696431383,-0.6611657891,-2.850090202\H,0
 ,7.3227044327,2.3254094129,0.8855516659\N,0,11.0325876864,-0.437358148
 3,1.2082879612\O,0,11.6294404266,-1.3835642891,0.7282075405\O,0,11.436
 3768156,0.1789589046,2.2156425663\H,0,10.3044554758,1.3761505566,2.492
 270532\\Version=ES64L-G09RevE.01\State=1-A\MP2/GTBas1=-789.5500501\MP4
 /GTBas1=-789.6766814\CCSD(T)/G3Bas1=-789.6499618\MP2/GTBas2=-789.60230
 09\MP4/GTBas2=-789.7331656\MP2/GTBas3=-790.0704974\MP4/GTBas3=-790.228
 0367\HF/GTLargeXP=-787.6455662\MP2/GTLargeXP=-791.0694136\HF/GFHFB1=-7
 87.7099639\HF/GFHFB2=-787.7226846\G4=-791.4281534\FreqCoord=17.6581694
 324,-1.2704451058,-0.982349283,18.7228841401,-2.8492951146,-1.72247626
 74,15.4360539619,-0.5335147622,-2.1480718035,14.0063755896,1.550045179
 8,-1.1927930265,14.6099860766,-1.9258016776,-4.3467469964,15.878336962
 1,-3.6889192562,-5.1051254544,11.8727374321,2.3288407958,-2.2369195841
 ,11.561025836,1.2077754099,-3.6966667944,14.9036529977,2.8140267124,0.
 9325068494,17.1340681409,2.1010297021,2.1311651935,18.5199003328,0.009
 8520728,1.1290719315,17.8759113119,3.3859235766,4.1430376503,12.603798
 9356,-1.2494222699,-5.3858899358,13.8379059298,4.3943869373,1.67345012
 52,20.8485692644,-0.8264871222,2.2833333364,21.976457485,-2.6145575937
 ,1.3761128194,21.6116201339,0.3381833188,4.1869576588,19.4725987978,2.
 6005476696,4.7097087545\PG=C01 [X(C6H4N2O6)]\NImag=0\\0.56535669,-0.19
 808748,0.51008771,0.16259004,0.21842067,0.51402495,-0.12989916,0.12319
 254,0.05321697,0.13253979,0.12319356,-0.22568131,-0.08706786,-0.136590
 46,0.23394477,0.05321648,-0.08706798,-0.08727776,-0.05332075,0.0983357
 0,0.08567961,-0.26516233,0.09835088,-0.07877345,-0.00863590,0.00530042
 ,-0.00810542,0.56350285,0.07340325,-0.11452126,0.00258808,0.02036482,-
 0.00049366,0.00986995,-0.21475869,0.42705479,-0.10520379,0.02444178,-0
 .12254670,0.00785444,-0.00332874,0.01038735,0.16274478,0.13943711,0.40
 821373,-0.02334386,0.02470823,0.00454339,-0.00150612,0.00200672,-0.003
 54420,-0.14215910,0.07902968,0.01295684,0.57928843,0.04432714,-0.00539
 849,0.03167725,0.00102631,0.00233122,-0.00189509,0.05760740,-0.1721438
 3,-0.06692921,-0.14516517,0.46250661,0.02533399,0.01448922,0.03889938,
 -0.00458328,-0.00103520,-0.00014423,-0.00975152,-0.04815648,-0.1209028
 2,0.20296383,0.18059002,0.54115014,-0.01517866,-0.02095004,-0.03230060
 ,-0.00291187,-0.00106601,0.00127783,-0.10480535,0.00889351,-0.01477809
 ,0.03695553,-0.01052221,0.02608961,0.69956916,-0.02269283,0.00731426,-
 0.00826823,0.00164848,-0.00332206,0.00392092,0.01300002,-0.10793518,-0
 .02119346,-0.01169156,-0.02003265,-0.02557897,-0.27567455,0.61892745,-
 0.03415196,-0.00674725,-0.04070002,0.00415742,0.00154400,-0.00038593,-
 0.01042655,-0.02478456,-0.11258003,0.02483940,-0.02454715,-0.00981305,
 0.11197161,0.16249614,0.50812732,-0.00777715,-0.00147977,-0.00929938,0
 .00210345,-0.00231855,-0.00067226,0.01835143,0.01124173,0.01057013,-0.
 00484667,0.00251878,-0.00615823,-0.23398060,0.18501025,0.06285395,0.28
 071758,0.00993115,-0.00018844,0.00738869,-0.00211440,-0.00048396,-0.00
 243446,0.01545319,-0.03570515,-0.04539438,-0.00212546,0.00473916,-0.00
 238163,0.19330526,-0.36909677,-0.13528823,-0.27126602,0.42396066,0.002
 79648,-0.00260400,0.00073392,-0.00045560,-0.00261254,-0.00310383,0.015
 03403,-0.04908158,-0.01896639,-0.01107602,0.00168662,-0.00268777,0.071
 64126,-0.14255201,-0.17015144,-0.06955309,0.17823891,0.15976225,-0.000
 39731,0.00326675,-0.00158270,-0.00088812,-0.00030812,-0.00097206,-0.02
 654019,0.02881315,-0.00329161,-0.28394484,0.09977822,-0.09590659,-0.01
 921366,-0.00446703,-0.02048104,0.00414560,-0.00047264,0.00421935,0.382
 42506,-0.00113996,-0.00146653,-0.00823198,0.00074076,-0.00008147,0.000
 72292,0.03685657,-0.00681588,0.01229475,0.08269357,-0.11924756,0.00313
 175,-0.01039339,0.00395127,-0.00361374,0.00396888,-0.00351413,0.001068
 82,-0.09710928,0.29632434,-0.00625502,-0.00437355,-0.00475076,0.000139
 82,-0.00019581,-0.00023711,0.00524113,0.00523895,0.02219938,-0.1139872
 6,0.01809972,-0.13448758,-0.02676574,0.00156908,-0.02298460,0.00892531
 ,-0.00281445,0.00357949,0.19442951,0.18316168,0.40719577,-0.00123262,-
 0.00070127,-0.00136389,0.00008553,0.00005465,0.00003975,-0.00050205,0.
 00016564,0.00201101,-0.01572886,-0.02429789,-0.03998210,-0.01146625,0.
 00821653,-0.00020276,0.00209130,-0.00057204,-0.00089175,-0.04971146,-0
 .00973854,-0.03677271,0.08088492,0.00293207,-0.00132745,0.00171646,0.0
 0060987,0.00011884,0.00054811,-0.00051545,-0.00586046,-0.00390957,-0.0
 1586640,0.01818046,0.00477335,0.02916007,-0.00477988,0.02182233,-0.008
 29195,0.00535486,-0.00413828,-0.02456424,-0.16705308,-0.17772807,0.032
 42697,0.14904086,0.00248524,-0.00146345,0.00010062,0.00062756,0.000061
 21,0.00072146,0.00128867,-0.00331092,-0.00497566,-0.03107001,-0.002607
 67,-0.02942188,0.02197166,0.00349356,0.02164112,-0.00906227,0.00261022
 ,-0.00274740,-0.05245496,-0.16474528,-0.23982576,0.08427347,0.16092420
 ,0.26800320,-0.02243837,-0.00329387,-0.02302263,-0.00026375,-0.0004819
 3,-0.00017632,0.03402612,-0.01195435,0.01060110,-0.11319511,0.00299820
 ,-0.04097190,-0.00292500,0.00595703,-0.00087633,0.00111599,-0.00087477
 ,0.00128357,-0.03412350,-0.01973117,-0.05886064,-0.00429844,0.00980342
 ,0.00339963,0.56304838,-0.00329521,-0.00166227,-0.00449812,-0.00048195
 ,0.00008400,0.00035070,0.00106855,-0.01462527,-0.02246225,-0.02875774,
 -0.16114372,-0.12940161,0.00548908,-0.00142157,-0.00229551,-0.00110559
 ,-0.00159651,-0.00116860,0.00206167,0.01779752,0.01090892,0.00435862,0
 .00038498,0.00033564,-0.20380542,0.49509564,-0.02302360,-0.00449608,-0
 .02507520,-0.00017682,0.00035043,-0.00042807,0.02440763,-0.03387622,-0
 .00705947,-0.07463021,-0.10158475,-0.23579028,-0.00137085,-0.00188469,
 0.00208594,0.00103926,-0.00096515,-0.00152148,-0.03576813,-0.00817981,
 -0.03080581,-0.00236558,0.00510506,0.00700832,0.18046357,0.22890323,0.
 51122709,0.04176734,0.00178586,0.03729586,0.00000074,0.00004180,-0.004
 30649,-0.03297741,0.01832189,-0.00837908,-0.02137164,-0.04152368,-0.05
 366085,0.00139571,0.00257891,0.00491916,-0.00025067,0.00077790,0.00056
 568,0.01746457,0.00361006,0.01400704,0.00160028,-0.00491638,-0.0061289
 4,-0.26138953,0.09984777,-0.06820334,0.57108357,-0.01783072,-0.0224041
 6,-0.04079622,0.00102303,0.00193829,-0.00231390,0.02431253,-0.00945928
 ,0.01259250,-0.01492323,0.02364732,0.02295112,-0.00368315,-0.00677717,
 -0.00923518,-0.00112586,0.00211502,0.00120572,-0.00685236,-0.00194917,
 -0.01426714,-0.00111802,0.00568824,0.00223963,0.06810065,-0.12241539,-
 0.00351058,-0.13984489,0.46457989,0.01651491,-0.02360988,-0.00919630,-
 0.00326720,-0.00317311,-0.00125711,-0.00203829,0.00735152,0.00475753,-
 0.02546935,-0.00035538,-0.03304221,-0.00171399,-0.00375168,-0.00658089
 ,-0.00145217,0.00287350,0.00181952,0.00291583,-0.00510143,0.00300203,-
 0.00210509,-0.00108518,-0.00034604,-0.10184202,0.02429801,-0.12627386,
 0.20143454,0.18750649,0.54726596,-0.10741231,-0.02964494,-0.07620455,0
 .01074945,0.00770186,0.01141650,-0.02378768,-0.00345004,-0.02860893,0.
 00761572,-0.00820316,-0.00092688,-0.00388242,0.01043328,0.00090008,0.0
 0313226,-0.00307948,0.00012299,-0.00880111,0.00169281,-0.00541434,0.00
 024854,0.00168749,0.00220170,-0.01849206,0.02235212,0.00095612,-0.1427
 5013,0.07941584,0.01284449,0.43577421,-0.00470391,-0.15573621,-0.10949
 922,-0.00736420,-0.00555798,-0.01978767,-0.02782906,0.01769806,-0.0106
 0317,-0.00220430,-0.02006078,-0.02186853,0.01052850,0.00737951,0.00886
 829,0.00008104,-0.00256645,-0.00187134,0.00745036,0.00104204,0.0082433
 0,0.00072746,-0.00372118,-0.00306926,0.03537665,-0.00090471,0.02212558
 ,0.05800432,-0.17197366,-0.06642048,-0.13135013,0.46042394,-0.04978550
 ,-0.13135402,-0.23906019,-0.00454402,-0.00659058,-0.00393577,-0.054439
 41,0.01074754,-0.03160050,0.00542683,-0.02712147,-0.02522999,0.0010009
 2,0.00878981,0.01790024,0.00347375,-0.00463980,-0.00260802,0.00068977,
 0.00319615,0.00341774,0.00118408,-0.00222937,-0.00154716,0.01474997,0.
 01072440,0.03174306,-0.00984161,-0.04765660,-0.12049368,0.13928951,0.2
 4788558,0.50264611,-0.00611803,0.00259211,-0.00731010,-0.00009680,0.00
 022321,0.00028442,0.00536259,-0.00756333,-0.00281306,-0.00135643,0.015
 91700,0.01055299,0.00090923,0.00167372,0.00292208,0.00072347,-0.001683
 60,-0.00121269,-0.00270687,-0.00227513,-0.00464987,-0.00048779,0.00101
 317,0.00101358,-0.02196481,-0.02766682,-0.05662884,-0.11838321,-0.0254
 4400,-0.08352777,0.02305149,0.00446233,0.01435359,0.43614361,0.0070030
 3,0.00002947,0.00048396,-0.00082527,-0.00028863,-0.00086775,-0.0017989
 3,-0.00265242,-0.00377691,0.00544496,0.00296196,0.00171089,0.00170063,
 0.00210021,0.00413920,0.00005173,-0.00102365,-0.00111409,-0.00014762,0
 .00076532,0.00084044,0.00047480,-0.00090915,-0.00010212,-0.00587801,0.
 01462560,0.00059844,-0.00841129,-0.16246151,-0.12250535,-0.00357745,-0
 .01976350,-0.03686767,-0.13247495,0.28189337,-0.00263555,-0.00338016,-
 0.00053087,-0.00082681,0.00005023,-0.00082215,0.00329641,-0.00882823,-
 0.00704191,-0.00054281,0.01088629,0.01691048,0.00295035,0.00411691,0.0
 0654527,0.00062659,-0.00263451,-0.00217279,-0.00239639,-0.00102252,-0.
 00333421,0.00044390,0.00036922,0.00035966,-0.03353618,-0.01849366,-0.0
 3978383,-0.06547894,-0.13742845,-0.25686134,0.00583554,-0.02982361,-0.
 01443420,0.20395629,0.13696569,0.36702281,0.00849406,-0.00196242,0.002
 00402,0.00147590,0.00039714,0.00114985,-0.02803306,-0.00238536,-0.0443
 4034,-0.02230472,0.01199870,-0.00584165,-0.34440385,0.08956240,-0.1399
 8309,-0.06398668,0.06065323,-0.01367335,0.01993745,0.01244292,0.025520
 51,-0.00106779,-0.02264747,-0.01811812,0.00355249,-0.00039884,0.002920
 43,-0.00467210,0.00553850,0.00144887,-0.00039444,-0.00492981,-0.004724
 51,0.00000766,-0.00179906,-0.00186570,0.43068653,-0.00055408,-0.000138
 39,-0.00469218,-0.00066742,0.00012300,-0.00114076,-0.00562394,0.023344
 39,-0.00110326,0.01698898,-0.00795160,0.00764965,0.07184937,-0.1293954
 2,0.00634681,0.08241018,-0.02080341,0.02350661,-0.00597815,-0.01922922
 ,-0.03179111,-0.00985914,0.00566248,0.00559192,-0.00366191,0.00024023,
 -0.00266990,0.00327973,-0.00194195,0.00041977,-0.00228533,0.00242138,0
 .00158895,-0.00076358,0.00023849,-0.00037538,-0.14506588,0.14763654,0.
 00349450,-0.00592409,0.00062013,0.00001794,-0.00020742,0.00044380,-0.0
 4777709,0.00172993,-0.02025198,-0.00054915,0.00327159,0.00186129,-0.15
 874149,0.02185678,-0.19182439,0.00937790,0.00446063,0.03801771,0.00600
 233,-0.01566021,-0.00547966,-0.00457626,-0.00560265,-0.01770842,-0.000
 53340,0.00018737,-0.00053507,-0.00094518,0.00239745,0.00208650,-0.0019
 2023,-0.00072767,-0.00342247,-0.00076788,-0.00128132,-0.00206954,0.195
 60240,-0.00398042,0.19853747,-0.00070835,-0.00063223,-0.00069646,0.000
 04153,0.00005222,0.00001700,0.00052425,0.00078477,-0.00278355,0.009269
 01,-0.00912235,-0.00530322,0.00057262,-0.00030636,-0.00060372,-0.00012
 875,-0.00033698,-0.00014715,-0.00043243,-0.00078984,0.00218628,-0.0000
 5823,-0.00037722,0.00018167,-0.12835538,0.12449953,0.04758138,-0.01009
 176,0.02195666,0.01066860,-0.00165500,0.00125741,-0.00419321,0.0016325
 5,-0.00218240,0.00252020,0.00000599,-0.00003220,0.00003612,0.13015440,
 -0.00063190,0.00014064,0.00031386,0.00005219,0.00000562,-0.00003867,-0
 .00016757,0.00166941,-0.00330560,0.00930752,-0.00785168,-0.00471046,0.
 00109082,0.00008704,0.00010308,-0.00021820,-0.00031947,-0.00013932,-0.
 00083182,-0.00050200,0.00285419,-0.00023062,-0.00043613,0.00010083,0.1
 2449861,-0.21991152,-0.08996198,0.00352618,-0.00279494,-0.00441754,0.0
 0220938,0.00223819,-0.00062081,-0.00213825,-0.00104113,0.00113853,-0.0
 0032319,0.00024974,0.00006028,-0.13584932,0.22858199,-0.00069692,0.000
 31279,-0.00095687,0.00001703,-0.00003863,0.00005918,-0.00379209,-0.002
 47163,-0.00128954,0.01422530,-0.02085372,-0.00534711,0.00087678,-0.001
 12092,0.00047172,-0.00002124,-0.00024307,-0.00064475,0.00214126,0.0028
 9107,0.00105525,0.00033720,-0.00002806,-0.00045546,0.04758026,-0.08996
 346,-0.08572798,-0.00885970,0.01172842,0.00895575,-0.00318399,-0.00145
 403,0.00032017,0.00256641,0.00110029,-0.00046883,-0.00027211,0.0003151
 7,0.00002119,-0.05017113,0.09871473,0.08375709,-0.03631815,-0.00888615
 ,-0.03804371,-0.00000442,-0.00025033,0.00469067,0.01995057,-0.00513653
 ,0.00527723,-0.00884841,0.00927891,0.00304465,0.00003515,-0.00687616,-
 0.01050513,-0.00213935,0.00431298,0.00297858,0.00725175,-0.00247136,0.
 00408685,-0.00087706,-0.00082515,-0.00160730,0.00131215,0.00318952,-0.
 00010167,-0.02132948,0.02638416,0.01414435,-0.11824653,0.02177155,-0.0
 1290437,-0.01898141,-0.00461778,-0.02045773,0.00186599,0.00045472,0.00
 320842,0.00026851,-0.00010840,-0.00065957,0.55463391,-0.00714549,0.012
 83435,0.01120010,-0.00296515,-0.00408125,-0.00092477,-0.00503613,0.001
 15618,-0.01135656,0.00300807,-0.00410179,-0.00054087,-0.00008320,0.007
 29548,0.00372745,0.00178058,-0.00309649,-0.00138163,-0.00244265,0.0004
 4395,-0.00124458,0.00030193,0.00022187,0.00054285,0.00272050,-0.002529
 83,-0.00589776,0.02755250,-0.00481204,0.02493316,0.01766873,-0.1044399
 3,-0.01339970,-0.01056046,0.00389747,-0.00382888,-0.00141310,-0.001295
 40,-0.00128999,0.00128917,0.00016568,0.00036125,-0.18130166,0.65682806
 ,-0.03619038,0.00967707,-0.02510229,0.00181193,0.00145323,-0.00253200,
 0.00538549,-0.01144473,0.00030148,-0.00359766,0.00495197,0.00099139,-0
 .00330783,-0.00222468,-0.00154418,0.00029381,0.00083770,0.00082397,0.0
 0411597,-0.00127005,0.00185950,-0.00041298,-0.00044431,-0.00087325,-0.
 00059645,-0.00548804,-0.00105714,0.01538226,0.02391146,0.03326950,-0.0
 1726108,-0.00980375,-0.10269799,-0.02676315,0.00137986,-0.02321095,0.0
 0122936,0.00034601,0.00019694,0.00082179,-0.00086316,0.00069553,0.0853
 8097,0.28524106,0.61513595,0.00180938,0.00367242,0.00456195,-0.0036761
 5,0.00166020,-0.00151763,-0.00384858,0.00148112,-0.00115983,0.00254006
 ,-0.00104635,0.00107706,0.00030290,0.00271820,0.00342725,0.00068723,-0
 .00171562,-0.00131141,-0.00266548,0.00053043,-0.00183518,0.00027467,0.
 00049735,0.00072790,-0.00199630,0.00115773,0.00071274,-0.00135664,-0.0
 0440390,-0.01043879,-0.03656044,0.05131877,0.00493254,0.00211616,0.000
 85099,0.00384996,-0.00058503,-0.00046071,-0.00111405,-0.00067554,0.000
 02052,-0.00024768,-0.23479907,0.19388555,0.07145081,0.24139922,-0.0077
 3947,-0.00269118,-0.01074049,0.00145776,0.00102673,0.00229557,0.004642
 38,-0.00074499,0.00405468,-0.00294843,0.00138820,-0.00116145,0.0001848
 7,-0.00373487,-0.00345557,-0.00121134,0.00217137,0.00112556,0.00226565
 ,-0.00013966,0.00176231,-0.00013993,-0.00053745,-0.00073991,0.00092629
 ,-0.00078271,0.00147546,0.00023910,0.00382909,-0.00127557,0.04711237,-
 0.02137082,-0.00245667,0.00529627,-0.00299156,0.00279364,0.00032365,0.
 00068383,0.00087090,0.00013895,-0.00017647,0.00032496,0.18559202,-0.36
 895723,-0.14179784,-0.24567752,0.43432239,-0.00753442,-0.00074289,-0.0
 0634091,-0.00173298,0.00247349,0.00116855,0.00219106,0.00128549,0.0025
 4656,-0.00093946,0.00050546,-0.00024202,0.00074278,-0.00123624,-0.0009
 8064,-0.00077650,0.00068340,0.00015237,0.00000419,0.00024200,0.0003307
 9,0.00005277,-0.00018185,-0.00010134,0.00046778,0.00167859,0.00077973,
 -0.00551919,-0.00534433,-0.00527029,0.00047130,0.00123090,0.02161012,0
 .00856484,-0.00110324,0.00508853,-0.00028333,0.00018378,0.00007663,-0.
 00012214,0.00022111,-0.00024078,0.06266250,-0.13453022,-0.16949783,-0.
 07672269,0.21149779,0.18873206,-0.00143089,0.00593093,0.00166801,0.000
 14214,0.00020289,-0.00022695,-0.00253690,-0.00088631,-0.00231336,0.002
 25014,-0.00124053,0.00032996,-0.00029779,0.00186723,0.00281030,0.00036
 205,-0.00107896,-0.00094007,-0.00203939,0.00057379,-0.00114491,0.00028
 174,0.00015378,0.00042428,-0.00101842,-0.00067856,-0.00137816,0.003339
 95,0.00025510,0.00418203,-0.01220049,-0.01592071,-0.04486947,-0.015760
 71,0.01734780,-0.00055998,-0.00077297,-0.00024152,-0.00122293,0.000109
 66,-0.00009977,0.00005525,-0.16660451,-0.04403489,-0.12607078,0.038955
 71,0.01520828,0.02829283,0.17218650,0.00453088,0.00246019,0.00251244,0
 .00126883,0.00047092,0.00092502,-0.00353740,0.00298643,0.00109088,0.00
 101726,-0.00375915,-0.00348775,0.00000005,-0.00072928,0.00054768,-0.00
 029488,0.00043636,0.00006686,-0.00046102,0.00077449,0.00045781,0.00018
 113,-0.00021748,-0.00005413,0.00259204,0.00143708,0.00407668,-0.004760
 09,-0.01467247,-0.01853044,-0.01269645,0.01922669,-0.01167000,0.035813
 74,-0.00994710,0.01463516,-0.00022929,0.00034984,-0.00018104,-0.000391
 10,0.00022319,-0.00002753,-0.02631878,-0.17576773,-0.12880392,-0.00654
 096,-0.04771015,-0.08290011,0.02344236,0.21512154,0.00018389,0.0037408
 0,0.00795903,0.00090388,-0.00000795,0.00142841,-0.00512326,0.00341235,
 -0.00183817,0.00272259,-0.00546591,-0.00303296,0.00083137,0.00218412,0
 .00179589,-0.00010913,-0.00062036,-0.00062329,-0.00224184,0.00136479,-
 0.00055697,0.00045340,-0.00007818,0.00029792,0.00208666,0.00121022,0.0
 0284596,-0.00113081,-0.01413580,-0.01709823,-0.04144802,-0.01449669,-0
 .03195940,0.01901032,-0.00154457,0.02087713,-0.00121039,-0.00019178,-0
 .00093216,-0.00025346,0.00022766,-0.00005486,-0.10729611,-0.14433233,-
 0.32309950,0.00523727,-0.06383711,-0.03802196,0.14810611,0.21514894,0.
 38949441,-0.00001028,0.00213845,0.00271722,0.00074375,0.00018073,0.000
 74961,-0.00272927,0.00363502,0.00165612,0.00068685,-0.00432932,-0.0063
 0588,-0.00067486,-0.00095754,-0.00157068,-0.00032051,0.00088625,0.0006
 1919,0.00023994,0.00053889,0.00114921,-0.00003644,-0.00027994,-0.00015
 377,0.00740554,0.00216555,0.00556607,-0.02207958,-0.01176033,-0.032298
 96,-0.00638905,0.00332374,0.00020114,-0.28409071,0.12883881,-0.0951791
 7,0.00019456,0.00021088,0.00040806,-0.00047307,-0.00010616,0.00010496,
 0.02283036,0.00677569,0.02832792,-0.00192208,-0.00567089,-0.00981935,-
 0.01496580,-0.01361631,-0.02072248,0.30159066,-0.00150001,-0.00165091,
 -0.00250719,-0.00037573,-0.00005307,-0.00049784,0.00267522,-0.00295187
 ,-0.00054861,-0.00052269,0.00593633,0.00302694,0.00017041,0.00016962,0
 .00037220,0.00024898,-0.00038299,-0.00023570,-0.00000086,-0.00110024,-
 0.00072166,-0.00025030,0.00018966,0.00019270,-0.00329194,-0.00267157,-
 0.00960796,-0.02010969,0.01986391,0.00284359,0.00401308,-0.00433458,0.
 00167425,0.14357858,-0.10543323,0.03485971,0.00023787,-0.00019451,0.00
 001988,0.00004129,-0.00032817,0.00045236,-0.01419157,-0.01376136,-0.02
 565790,0.00205180,0.00641546,0.00603686,-0.00080089,0.00931662,0.01742
 180,-0.11197353,0.09097089,-0.00113839,0.00068101,-0.00080016,0.000160
 47,-0.00001043,0.00023559,0.00063788,0.00029342,0.00064713,-0.00227204
 ,-0.00030858,0.00032921,-0.00037555,-0.00061644,-0.00102234,-0.0000564
 3,0.00032299,0.00033792,0.00057712,-0.00024891,-0.00017750,-0.00012245
 ,0.00016679,-0.00012993,-0.00021668,-0.00482581,-0.00163189,-0.0411504
 3,0.01015539,-0.02473684,0.00092979,0.00107177,-0.00064808,-0.07955116
 ,0.02194424,-0.06607326,0.00043714,-0.00000389,0.00036204,0.00026099,0
 .00032328,-0.00014971,0.00610137,-0.00727859,-0.00365913,-0.00163024,-
 0.00073626,0.00021041,-0.00714216,0.00619346,-0.00748125,0.12455078,-0
 .02712344,0.10438777\\-0.00011772,0.00016406,0.00007937,0.00010057,-0.
 00014934,-0.00006775,0.00001145,0.00000501,0.00001149,0.00000471,-0.00
 000302,0.00001074,0.00000672,-0.00000706,-0.00000421,-0.00000813,0.000
 00951,-0.00000025,-0.00003720,-0.00016748,-0.00022611,0.00003876,0.000
 17714,0.00023152,-0.00000406,-0.00000948,-0.00001562,-0.00000885,-0.00
 000736,-0.00001336,0.00000019,0.00000137,-0.00001912,0.00006823,-0.000
 03481,0.00003293,0.00000723,-0.00000787,0.00000374,0.00001162,-0.00001
 145,-0.00000314,-0.00000199,0.00000026,0.00000128,0.00000129,0.0000060
 6,0.00000553,-0.00002081,0.00000417,-0.00000719,-0.00005199,0.00003029
 ,-0.00001986\\\@
 Job cpu time:       1 days  0 hours 48 minutes 48.7 seconds.
 File lengths (MBytes):  RWF= 177158 Int=      0 D2E=      0 Chk=    127 Scr=      1
 Normal termination of Gaussian 09 at Fri Aug 27 19:53:46 2021.
