 Entering Gaussian System, Link 0=g09
 Input=G4.ZEVQUM.gjf
 Output=G4.ZEVQUM.log
 Initial command:
 /public/home/users/caep010/software/Gaussian09/g09/l1.exe "/public/home/users/caep010/.cache/gau_scr/Gau-44368.inp" -scrdir="/public/home/users/caep010/.cache/gau_scr/"
 Entering Link 1 = /public/home/users/caep010/software/Gaussian09/g09/l1.exe PID=     44369.
  
 Copyright (c) 1988,1990,1992,1993,1995,1998,2003,2009,2015,
            Gaussian, Inc.  All Rights Reserved.
  
 This is part of the Gaussian(R) 09 program.  It is based on
 the Gaussian(R) 03 system (copyright 2003, Gaussian, Inc.),
 the Gaussian(R) 98 system (copyright 1998, Gaussian, Inc.),
 the Gaussian(R) 94 system (copyright 1995, Gaussian, Inc.),
 the Gaussian 92(TM) system (copyright 1992, Gaussian, Inc.),
 the Gaussian 90(TM) system (copyright 1990, Gaussian, Inc.),
 the Gaussian 88(TM) system (copyright 1988, Gaussian, Inc.),
 the Gaussian 86(TM) system (copyright 1986, Carnegie Mellon
 University), and the Gaussian 82(TM) system (copyright 1983,
 Carnegie Mellon University). Gaussian is a federally registered
 trademark of Gaussian, Inc.
  
 This software contains proprietary and confidential information,
 including trade secrets, belonging to Gaussian, Inc.
  
 This software is provided under written license and may be
 used, copied, transmitted, or stored only in accord with that
 written license.
  
 The following legend is applicable only to US Government
 contracts under FAR:
  
                    RESTRICTED RIGHTS LEGEND
  
 Use, reproduction and disclosure by the US Government is
 subject to restrictions as set forth in subparagraphs (a)
 and (c) of the Commercial Computer Software - Restricted
 Rights clause in FAR 52.227-19.
  
 Gaussian, Inc.
 340 Quinnipiac St., Bldg. 40, Wallingford CT 06492
  
  
 ---------------------------------------------------------------
 Warning -- This program may not be used in any manner that
 competes with the business of Gaussian, Inc. or will provide
 assistance to any competitor of Gaussian, Inc.  The licensee
 of this program is prohibited from giving any competitor of
 Gaussian, Inc. access to this program.  By using this program,
 the user acknowledges that Gaussian, Inc. is engaged in the
 business of creating and licensing software in the field of
 computational chemistry and represents and warrants to the
 licensee that it is not a competitor of Gaussian, Inc. and that
 it will not use this program in any manner prohibited above.
 ---------------------------------------------------------------
  

 Cite this work as:
 Gaussian 09, Revision E.01,
 M. J. Frisch, G. W. Trucks, H. B. Schlegel, G. E. Scuseria, 
 M. A. Robb, J. R. Cheeseman, G. Scalmani, V. Barone, B. Mennucci, 
 G. A. Petersson, H. Nakatsuji, M. Caricato, X. Li, H. P. Hratchian, 
 A. F. Izmaylov, J. Bloino, G. Zheng, J. L. Sonnenberg, M. Hada, 
 M. Ehara, K. Toyota, R. Fukuda, J. Hasegawa, M. Ishida, T. Nakajima, 
 Y. Honda, O. Kitao, H. Nakai, T. Vreven, J. A. Montgomery, Jr., 
 J. E. Peralta, F. Ogliaro, M. Bearpark, J. J. Heyd, E. Brothers, 
 K. N. Kudin, V. N. Staroverov, T. Keith, R. Kobayashi, J. Normand, 
 K. Raghavachari, A. Rendell, J. C. Burant, S. S. Iyengar, J. Tomasi, 
 M. Cossi, N. Rega, J. M. Millam, M. Klene, J. E. Knox, J. B. Cross, 
 V. Bakken, C. Adamo, J. Jaramillo, R. Gomperts, R. E. Stratmann, 
 O. Yazyev, A. J. Austin, R. Cammi, C. Pomelli, J. W. Ochterski, 
 R. L. Martin, K. Morokuma, V. G. Zakrzewski, G. A. Voth, 
 P. Salvador, J. J. Dannenberg, S. Dapprich, A. D. Daniels, 
 O. Farkas, J. B. Foresman, J. V. Ortiz, J. Cioslowski, 
 and D. J. Fox, Gaussian, Inc., Wallingford CT, 2013.
 
 ******************************************
 Gaussian 09:  ES64L-G09RevE.01 30-Nov-2015
                27-Aug-2021 
 ******************************************
 %nproc=32
 Will use up to   32 processors via shared memory.
 %mem=180GB
 ----------------
 #P G4 OPT=calcfc
 ----------------
 1/10=4,14=-1,18=20,19=15,26=3,38=1/1,3;
 2/9=110,12=2,17=6,18=5,40=1/2;
 3/5=35,7=104,11=2,16=1,25=1,30=1,71=2,74=-5,140=1/1,2,3;
 4//1;
 5/5=2,38=5/2;
 8/6=4,10=90,11=11/1;
 11/6=1,8=1,9=11,15=111,16=1/1,2,10;
 10/6=1,13=1/2;
 6/7=2,8=2,9=2,10=2,28=1/1;
 7/10=1,18=20,25=1/1,2,3,16;
 1/10=4,14=-1,18=20,19=15,26=3/3(2);
 2/9=110/2;
 99//99;
 2/9=110/2;
 3/5=35,7=104,11=2,16=1,25=1,30=1,71=1,74=-5/1,2,3;
 4/5=5,16=3,69=1/1;
 5/5=2,38=5/2;
 7//1,2,3,16;
 1/14=-1,18=20,19=15,26=3/3(-5);
 2/9=110/2;
 6/7=2,8=2,9=2,10=2,19=2,28=1/1;
 99/9=1/99;
 Leave Link    1 at Fri Aug 27 09:59:56 2021, MaxMem= 24159191040 cpu:         4.3
 (Enter /public/home/users/caep010/software/Gaussian09/g09/l101.exe)
 ------
 ZEVQUM
 ------
 Symbolic Z-matrix:
 Charge =  0 Multiplicity = 1
 N                     5.8493    1.7036    4.8096 
 N                     5.4859    1.7036    3.4831 
 C                     6.2416    1.7036    1.5499 
 C                     5.9609    2.7885    2.5921 
 C                     5.9609    0.6188    2.5921 
 H                     7.0558    1.7036    1.0612 
 H                     5.2944    3.4175    2.3411 
 H                     5.2944   -0.0102    2.3411 
 H                     6.7314    3.2492    2.9021 
 H                     6.7314    0.1581    2.9021 
 N                     5.2312    1.7036    0.4326 
 O                     4.0601    1.7036    0.7303 
 O                     5.6328    1.7036   -0.7017 
 O                     5.9767    0.6092    5.3363 
 O                     5.9767    2.798     5.3363 
 
 NAtoms=     15 NQM=       15 NQMF=       0 NMMI=      0 NMMIF=      0
                NMic=       0 NMicF=      0.
                    Isotopes and Nuclear Properties:
 (Nuclear quadrupole moments (NQMom) in fm**2, nuclear magnetic moments (NMagM)
  in nuclear magnetons)

  Atom         1           2           3           4           5           6           7           8           9          10
 IAtWgt=          14          14          12          12          12           1           1           1           1           1
 AtmWgt=  14.0030740  14.0030740  12.0000000  12.0000000  12.0000000   1.0078250   1.0078250   1.0078250   1.0078250   1.0078250
 NucSpn=           2           2           0           0           0           1           1           1           1           1
 AtZEff=   0.0000000   0.0000000   0.0000000   0.0000000   0.0000000   0.0000000   0.0000000   0.0000000   0.0000000   0.0000000
 NQMom=    2.0440000   2.0440000   0.0000000   0.0000000   0.0000000   0.0000000   0.0000000   0.0000000   0.0000000   0.0000000
 NMagM=    0.4037610   0.4037610   0.0000000   0.0000000   0.0000000   2.7928460   2.7928460   2.7928460   2.7928460   2.7928460
 AtZNuc=   7.0000000   7.0000000   6.0000000   6.0000000   6.0000000   1.0000000   1.0000000   1.0000000   1.0000000   1.0000000

  Atom        11          12          13          14          15
 IAtWgt=          14          16          16          16          16
 AtmWgt=  14.0030740  15.9949146  15.9949146  15.9949146  15.9949146
 NucSpn=           2           0           0           0           0
 AtZEff=   0.0000000   0.0000000   0.0000000   0.0000000   0.0000000
 NQMom=    2.0440000   0.0000000   0.0000000   0.0000000   0.0000000
 NMagM=    0.4037610   0.0000000   0.0000000   0.0000000   0.0000000
 AtZNuc=   7.0000000   8.0000000   8.0000000   8.0000000   8.0000000
 Leave Link  101 at Fri Aug 27 09:59:57 2021, MaxMem= 24159191040 cpu:        10.1
 (Enter /public/home/users/caep010/software/Gaussian09/g09/l103.exe)

 GradGradGradGradGradGradGradGradGradGradGradGradGradGradGradGradGradGrad
 Berny optimization.
 Initialization pass.
                           ----------------------------
                           !    Initial Parameters    !
                           ! (Angstroms and Degrees)  !
 --------------------------                            --------------------------
 ! Name  Definition              Value          Derivative Info.                !
 --------------------------------------------------------------------------------
 ! R1    R(1,2)                  1.3754         calculate D2E/DX2 analytically  !
 ! R2    R(1,14)                 1.2212         calculate D2E/DX2 analytically  !
 ! R3    R(1,15)                 1.2212         calculate D2E/DX2 analytically  !
 ! R4    R(2,4)                  1.4821         calculate D2E/DX2 analytically  !
 ! R5    R(2,5)                  1.482          calculate D2E/DX2 analytically  !
 ! R6    R(3,4)                  1.5304         calculate D2E/DX2 analytically  !
 ! R7    R(3,5)                  1.5303         calculate D2E/DX2 analytically  !
 ! R8    R(3,6)                  0.9496         calculate D2E/DX2 analytically  !
 ! R9    R(3,11)                 1.5064         calculate D2E/DX2 analytically  !
 ! R10   R(4,7)                  0.9502         calculate D2E/DX2 analytically  !
 ! R11   R(4,9)                  0.9497         calculate D2E/DX2 analytically  !
 ! R12   R(5,8)                  0.9502         calculate D2E/DX2 analytically  !
 ! R13   R(5,10)                 0.9497         calculate D2E/DX2 analytically  !
 ! R14   R(11,12)                1.2083         calculate D2E/DX2 analytically  !
 ! R15   R(11,13)                1.2033         calculate D2E/DX2 analytically  !
 ! A1    A(2,1,14)             116.3294         calculate D2E/DX2 analytically  !
 ! A2    A(2,1,15)             116.3294         calculate D2E/DX2 analytically  !
 ! A3    A(14,1,15)            127.3156         calculate D2E/DX2 analytically  !
 ! A4    A(1,2,4)              119.6791         calculate D2E/DX2 analytically  !
 ! A5    A(1,2,5)              119.6807         calculate D2E/DX2 analytically  !
 ! A6    A(4,2,5)               94.1093         calculate D2E/DX2 analytically  !
 ! A7    A(4,3,5)               90.2918         calculate D2E/DX2 analytically  !
 ! A8    A(4,3,6)              120.5137         calculate D2E/DX2 analytically  !
 ! A9    A(4,3,11)             112.4628         calculate D2E/DX2 analytically  !
 ! A10   A(5,3,6)              120.5152         calculate D2E/DX2 analytically  !
 ! A11   A(5,3,11)             112.4639         calculate D2E/DX2 analytically  !
 ! A12   A(6,3,11)             101.1507         calculate D2E/DX2 analytically  !
 ! A13   A(2,4,3)               87.0917         calculate D2E/DX2 analytically  !
 ! A14   A(2,4,7)              114.7446         calculate D2E/DX2 analytically  !
 ! A15   A(2,4,9)              114.7631         calculate D2E/DX2 analytically  !
 ! A16   A(3,4,7)              114.7114         calculate D2E/DX2 analytically  !
 ! A17   A(3,4,9)              114.6683         calculate D2E/DX2 analytically  !
 ! A18   A(7,4,9)              109.5221         calculate D2E/DX2 analytically  !
 ! A19   A(2,5,3)               87.097          calculate D2E/DX2 analytically  !
 ! A20   A(2,5,8)              114.7431         calculate D2E/DX2 analytically  !
 ! A21   A(2,5,10)             114.7624         calculate D2E/DX2 analytically  !
 ! A22   A(3,5,8)              114.7099         calculate D2E/DX2 analytically  !
 ! A23   A(3,5,10)             114.6675         calculate D2E/DX2 analytically  !
 ! A24   A(8,5,10)             109.5221         calculate D2E/DX2 analytically  !
 ! A25   A(3,11,12)            117.861          calculate D2E/DX2 analytically  !
 ! A26   A(3,11,13)            118.3797         calculate D2E/DX2 analytically  !
 ! A27   A(12,11,13)           123.7594         calculate D2E/DX2 analytically  !
 ! D1    D(14,1,2,4)          -148.2635         calculate D2E/DX2 analytically  !
 ! D2    D(14,1,2,5)           -33.4446         calculate D2E/DX2 analytically  !
 ! D3    D(15,1,2,4)            33.4422         calculate D2E/DX2 analytically  !
 ! D4    D(15,1,2,5)           148.2611         calculate D2E/DX2 analytically  !
 ! D5    D(1,2,4,3)            136.8922         calculate D2E/DX2 analytically  !
 ! D6    D(1,2,4,7)           -107.1638         calculate D2E/DX2 analytically  !
 ! D7    D(1,2,4,9)             20.9932         calculate D2E/DX2 analytically  !
 ! D8    D(5,2,4,3)              9.1327         calculate D2E/DX2 analytically  !
 ! D9    D(5,2,4,7)            125.0767         calculate D2E/DX2 analytically  !
 ! D10   D(5,2,4,9)           -106.7664         calculate D2E/DX2 analytically  !
 ! D11   D(1,2,5,3)           -136.8914         calculate D2E/DX2 analytically  !
 ! D12   D(1,2,5,8)            107.164          calculate D2E/DX2 analytically  !
 ! D13   D(1,2,5,10)           -20.9908         calculate D2E/DX2 analytically  !
 ! D14   D(4,2,5,3)             -9.1331         calculate D2E/DX2 analytically  !
 ! D15   D(4,2,5,8)           -125.0777         calculate D2E/DX2 analytically  !
 ! D16   D(4,2,5,10)           106.7675         calculate D2E/DX2 analytically  !
 ! D17   D(5,3,4,2)             -8.8193         calculate D2E/DX2 analytically  !
 ! D18   D(5,3,4,7)           -124.7947         calculate D2E/DX2 analytically  !
 ! D19   D(5,3,4,9)            107.1694         calculate D2E/DX2 analytically  !
 ! D20   D(6,3,4,2)           -135.147          calculate D2E/DX2 analytically  !
 ! D21   D(6,3,4,7)            108.8776         calculate D2E/DX2 analytically  !
 ! D22   D(6,3,4,9)            -19.1583         calculate D2E/DX2 analytically  !
 ! D23   D(11,3,4,2)           105.7367         calculate D2E/DX2 analytically  !
 ! D24   D(11,3,4,7)           -10.2387         calculate D2E/DX2 analytically  !
 ! D25   D(11,3,4,9)          -138.2745         calculate D2E/DX2 analytically  !
 ! D26   D(4,3,5,2)              8.8197         calculate D2E/DX2 analytically  !
 ! D27   D(4,3,5,8)            124.7957         calculate D2E/DX2 analytically  !
 ! D28   D(4,3,5,10)          -107.1706         calculate D2E/DX2 analytically  !
 ! D29   D(6,3,5,2)            135.1462         calculate D2E/DX2 analytically  !
 ! D30   D(6,3,5,8)           -108.8778         calculate D2E/DX2 analytically  !
 ! D31   D(6,3,5,10)            19.1559         calculate D2E/DX2 analytically  !
 ! D32   D(11,3,5,2)          -105.7353         calculate D2E/DX2 analytically  !
 ! D33   D(11,3,5,8)            10.2407         calculate D2E/DX2 analytically  !
 ! D34   D(11,3,5,10)          138.2744         calculate D2E/DX2 analytically  !
 ! D35   D(4,3,11,12)          -50.0964         calculate D2E/DX2 analytically  !
 ! D36   D(4,3,11,13)          129.9036         calculate D2E/DX2 analytically  !
 ! D37   D(5,3,11,12)           50.0938         calculate D2E/DX2 analytically  !
 ! D38   D(5,3,11,13)         -129.9062         calculate D2E/DX2 analytically  !
 ! D39   D(6,3,11,12)          180.0            calculate D2E/DX2 analytically  !
 ! D40   D(6,3,11,13)            0.0            calculate D2E/DX2 analytically  !
 --------------------------------------------------------------------------------
 Trust Radius=3.00D-01 FncErr=1.00D-07 GrdErr=1.00D-06
 Number of steps in this run=     92 maximum allowed number of steps=    100.
 GradGradGradGradGradGradGradGradGradGradGradGradGradGradGradGradGradGrad

 Leave Link  103 at Fri Aug 27 09:59:57 2021, MaxMem= 24159191040 cpu:         0.5
 (Enter /public/home/users/caep010/software/Gaussian09/g09/l202.exe)
                          Input orientation:                          
 ---------------------------------------------------------------------
 Center     Atomic      Atomic             Coordinates (Angstroms)
 Number     Number       Type             X           Y           Z
 ---------------------------------------------------------------------
      1          7           0        5.849300    1.703600    4.809600
      2          7           0        5.485900    1.703600    3.483100
      3          6           0        6.241600    1.703600    1.549900
      4          6           0        5.960900    2.788500    2.592100
      5          6           0        5.960900    0.618800    2.592100
      6          1           0        7.055800    1.703600    1.061200
      7          1           0        5.294400    3.417500    2.341100
      8          1           0        5.294400   -0.010200    2.341100
      9          1           0        6.731400    3.249200    2.902100
     10          1           0        6.731400    0.158100    2.902100
     11          7           0        5.231200    1.703600    0.432600
     12          8           0        4.060100    1.703600    0.730300
     13          8           0        5.632800    1.703600   -0.701700
     14          8           0        5.976700    0.609200    5.336300
     15          8           0        5.976700    2.798000    5.336300
 ---------------------------------------------------------------------
                    Distance matrix (angstroms):
                    1          2          3          4          5
     1  N    0.000000
     2  N    1.375377   0.000000
     3  C    3.283221   2.075655   0.000000
     4  C    2.471188   1.482064   1.530353   0.000000
     5  C    2.471144   1.481991   1.530282   2.169700   0.000000
     6  H    3.937784   2.886206   0.949605   2.172434   2.172384
     7  H    3.055955   2.068403   2.112022   0.950192   2.887896
     8  H    3.055899   2.068320   2.111941   2.887896   0.950192
     9  H    2.608742   2.068263   2.111215   0.949745   2.758401
    10  H    2.608683   2.068188   2.111142   2.758401   0.949745
    11  N    4.420427   3.061115   1.506409   2.524462   2.524419
    12  O    4.454428   3.100131   2.330383   2.873386   2.873348
    13  O    5.515551   4.187378   2.332454   3.483357   3.483326
    14  O    1.221210   2.207475   3.950280   3.504316   2.744262
    15  O    1.221210   2.207475   3.950280   2.744262   3.504254
                    6          7          8          9         10
     6  H    0.000000
     7  H    2.770943   0.000000
     8  H    2.770882   3.427700   0.000000
     9  H    2.425495   1.551778   3.606020   0.000000
    10  H    2.425432   3.606020   1.551778   3.091100   0.000000
    11  N    1.929845   2.565895   2.565829   3.276875   3.276828
    12  O    3.013920   2.656243   2.656178   3.773783   3.773742
    13  O    2.265556   3.508646   3.508598   4.072245   4.072207
    14  O    4.542978   4.162127   3.133754   3.669401   2.588125
    15  O    4.542978   3.133774   4.162060   2.588143   3.669329
                   11         12         13         14         15
    11  N    0.000000
    12  O    1.208346   0.000000
    13  O    1.203295   2.126972   0.000000
    14  O    5.079346   5.107475   6.146009   0.000000
    15  O    5.079346   5.107475   6.146009   2.188800   0.000000
 Stoichiometry    C3H5N3O4
 Framework group  C1[X(C3H5N3O4)]
 Deg. of freedom    39
 Full point group                 C1      NOp   1
 Largest Abelian subgroup         C1      NOp   1
 Largest concise Abelian subgroup C1      NOp   1
                         Standard orientation:                         
 ---------------------------------------------------------------------
 Center     Atomic      Atomic             Coordinates (Angstroms)
 Number     Number       Type             X           Y           Z
 ---------------------------------------------------------------------
      1          7           0        2.202277   -0.000012    0.112873
      2          7           0        0.837567   -0.000015    0.283833
      3          6           0       -0.968439   -0.000000   -0.739246
      4          6           0        0.023218    1.084894   -0.313096
      5          6           0        0.023218   -1.084806   -0.313126
      6          1           0       -1.336317    0.000012   -1.614697
      7          1           0       -0.320062    1.713885    0.310918
      8          1           0       -0.320062   -1.713815    0.310870
      9          1           0        0.439695    1.545604   -1.031641
     10          1           0        0.439695   -1.545496   -1.031685
     11          7           0       -2.218137   -0.000012    0.101898
     12          8           0       -2.090097   -0.000029    1.303441
     13          8           0       -3.283754   -0.000004   -0.457011
     14          8           0        2.741745   -1.094412    0.061696
     15          8           0        2.741745    1.094388    0.061726
 ---------------------------------------------------------------------
 Rotational constants (GHZ):      4.1021393      0.7334787      0.7015170
 Leave Link  202 at Fri Aug 27 09:59:57 2021, MaxMem= 24159191040 cpu:         0.5
 (Enter /public/home/users/caep010/software/Gaussian09/g09/l301.exe)
 Standard basis: GTBas3 (6D, 7F)
 Ernie: Thresh=  0.10000D-02 Tol=  0.10000D-05 Strict=F.
 There are   335 symmetry adapted cartesian basis functions of A   symmetry.
 There are   305 symmetry adapted basis functions of A   symmetry.
   305 basis functions,   475 primitive gaussians,   335 cartesian basis functions
    38 alpha electrons       38 beta electrons
       nuclear repulsion energy       564.5161903767 Hartrees.
 IExCor=  402 DFT=T Ex+Corr=B3LYP ExCW=0 ScaHFX=  0.200000
 ScaDFX=  0.800000  0.720000  1.000000  0.810000 ScalE2=  1.000000  1.000000
 IRadAn=      0 IRanWt=     -1 IRanGd=            0 ICorTp=0 IEmpDi=  4
 NAtoms=   15 NActive=   15 NUniq=   15 SFac= 1.00D+00 NAtFMM=   60 NAOKFM=F Big=F
 Integral buffers will be    131072 words long.
 Raffenetti 2 integral format.
 Two-electron integral symmetry is turned on.
 Leave Link  301 at Fri Aug 27 09:59:57 2021, MaxMem= 24159191040 cpu:         3.4
 (Enter /public/home/users/caep010/software/Gaussian09/g09/l302.exe)
 NPDir=0 NMtPBC=     1 NCelOv=     1 NCel=       1 NClECP=     1 NCelD=      1
         NCelK=      1 NCelE2=     1 NClLst=     1 CellRange=     0.0.
 One-electron integrals computed using PRISM.
 NBasis=   305 RedAO= T EigKep=  2.41D-04  NBF=   305
 NBsUse=   305 1.00D-06 EigRej= -1.00D+00 NBFU=   305
 Precomputing XC quadrature grid using
 IXCGrd= 4 IRadAn=           0 IRanWt=          -1 IRanGd=           0 AccXCQ= 0.00D+00.
 Generated NRdTot=       0 NPtTot=           0 NUsed=           0 NTot=          32
 NSgBfM=   334   334   334   334   335 MxSgAt=    15 MxSgA2=    15.
 Leave Link  302 at Fri Aug 27 09:59:58 2021, MaxMem= 24159191040 cpu:        16.0
 (Enter /public/home/users/caep010/software/Gaussian09/g09/l303.exe)
 DipDrv:  MaxL=1.
 Leave Link  303 at Fri Aug 27 09:59:58 2021, MaxMem= 24159191040 cpu:         1.0
 (Enter /public/home/users/caep010/software/Gaussian09/g09/l401.exe)
 ExpMin= 1.61D-01 ExpMax= 5.48D+03 ExpMxC= 8.25D+02 IAcc=1 IRadAn=         1 AccDes= 0.00D+00
 Harris functional with IExCor=  402 and IRadAn=       1 diagonalized for initial guess.
 HarFok:  IExCor=  402 AccDes= 0.00D+00 IRadAn=         1 IDoV= 1 UseB2=F ITyADJ=14
 ICtDFT=  3500011 ScaDFX=  1.000000  1.000000  1.000000  1.000000
 FoFCou: FMM=F IPFlag=           0 FMFlag=      100000 FMFlg1=           0
         NFxFlg=           0 DoJE=T BraDBF=F KetDBF=T FulRan=T
         wScrn=  0.000000 ICntrl=     500 IOpCl=  0 I1Cent=   200000004 NGrid=           0
         NMat0=    1 NMatS0=      1 NMatT0=    0 NMatD0=    1 NMtDS0=    0 NMtDT0=    0
 Petite list used in FoFCou.
 Harris En= -582.271323236958    
 JPrj=0 DoOrth=F DoCkMO=F.
 Leave Link  401 at Fri Aug 27 09:59:59 2021, MaxMem= 24159191040 cpu:        20.2
 (Enter /public/home/users/caep010/software/Gaussian09/g09/l502.exe)
 Closed shell SCF:
 Using DIIS extrapolation, IDIIS=  1040.
 Integral symmetry usage will be decided dynamically.
 Keep R1 ints in memory in canonical form, NReq=1108169170.
 IVT=      368365 IEndB=      368365 NGot= 24159191040 MDV= 23069988231
 LenX= 23069988231 LenY= 23069875565
 Requested convergence on RMS density matrix=1.00D-08 within 128 cycles.
 Requested convergence on MAX density matrix=1.00D-06.
 Requested convergence on             energy=1.00D-06.
 No special actions if energy rises.
 FoFCou: FMM=F IPFlag=           0 FMFlag=           0 FMFlg1=           0
         NFxFlg=           0 DoJE=F BraDBF=F KetDBF=F FulRan=T
         wScrn=  0.000000 ICntrl=     600 IOpCl=  0 I1Cent=           0 NGrid=           0
         NMat0=    1 NMatS0=  46665 NMatT0=    0 NMatD0=    1 NMtDS0=    0 NMtDT0=    0
 Symmetry not used in FoFCou.
 Integral accuracy reduced to 1.0D-05 until final iterations.

 Cycle   1  Pass 0  IDiag  1:
 E= -581.786194589445    
 DIIS: error= 3.61D-02 at cycle   1 NSaved=   1.
 NSaved= 1 IEnMin= 1 EnMin= -581.786194589445     IErMin= 1 ErrMin= 3.61D-02
 ErrMax= 3.61D-02  0.00D+00 EMaxC= 1.00D-01 BMatC= 5.60D-01 BMatP= 5.60D-01
 IDIUse=3 WtCom= 6.39D-01 WtEn= 3.61D-01
 Coeff-Com:  0.100D+01
 Coeff-En:   0.100D+01
 Coeff:      0.100D+01
 Gap=     0.192 Goal=   None    Shift=    0.000
 GapD=    0.192 DampG=1.000 DampE=0.500 DampFc=0.5000 IDamp=-1.
 Damping current iteration by 5.00D-01
 RMSDP=4.20D-03 MaxDP=2.74D-01              OVMax= 3.27D-01

 Cycle   2  Pass 0  IDiag  1:
 E= -581.843853879998     Delta-E=       -0.057659290553 Rises=F Damp=T
 DIIS: error= 1.60D-02 at cycle   2 NSaved=   2.
 NSaved= 2 IEnMin= 2 EnMin= -581.843853879998     IErMin= 2 ErrMin= 1.60D-02
 ErrMax= 1.60D-02  0.00D+00 EMaxC= 1.00D-01 BMatC= 1.24D-01 BMatP= 5.60D-01
 IDIUse=3 WtCom= 8.40D-01 WtEn= 1.60D-01
 Coeff-Com:  0.291D+00 0.709D+00
 Coeff-En:   0.439D+00 0.561D+00
 Coeff:      0.315D+00 0.685D+00
 Gap=     0.215 Goal=   None    Shift=    0.000
 RMSDP=1.21D-03 MaxDP=6.85D-02 DE=-5.77D-02 OVMax= 2.00D-01

 Cycle   3  Pass 0  IDiag  1:
 E= -582.171463843469     Delta-E=       -0.327609963471 Rises=F Damp=F
 DIIS: error= 8.07D-03 at cycle   3 NSaved=   3.
 NSaved= 3 IEnMin= 3 EnMin= -582.171463843469     IErMin= 3 ErrMin= 8.07D-03
 ErrMax= 8.07D-03  0.00D+00 EMaxC= 1.00D-01 BMatC= 1.75D-02 BMatP= 1.24D-01
 IDIUse=3 WtCom= 9.19D-01 WtEn= 8.07D-02
 Coeff-Com:  0.108D+00 0.278D+00 0.614D+00
 Coeff-En:   0.000D+00 0.000D+00 0.100D+01
 Coeff:      0.993D-01 0.255D+00 0.645D+00
 Gap=     0.235 Goal=   None    Shift=    0.000
 RMSDP=7.30D-04 MaxDP=4.26D-02 DE=-3.28D-01 OVMax= 5.28D-02

 Cycle   4  Pass 0  IDiag  1:
 E= -582.179405572370     Delta-E=       -0.007941728901 Rises=F Damp=F
 DIIS: error= 4.51D-03 at cycle   4 NSaved=   4.
 NSaved= 4 IEnMin= 4 EnMin= -582.179405572370     IErMin= 4 ErrMin= 4.51D-03
 ErrMax= 4.51D-03  0.00D+00 EMaxC= 1.00D-01 BMatC= 1.03D-02 BMatP= 1.75D-02
 IDIUse=3 WtCom= 9.55D-01 WtEn= 4.51D-02
 Coeff-Com:  0.334D-01 0.688D-01 0.422D+00 0.476D+00
 Coeff-En:   0.000D+00 0.000D+00 0.363D+00 0.637D+00
 Coeff:      0.319D-01 0.657D-01 0.419D+00 0.483D+00
 Gap=     0.223 Goal=   None    Shift=    0.000
 RMSDP=3.35D-04 MaxDP=2.42D-02 DE=-7.94D-03 OVMax= 3.44D-02

 Cycle   5  Pass 0  IDiag  1:
 E= -582.187709207696     Delta-E=       -0.008303635326 Rises=F Damp=F
 DIIS: error= 9.54D-04 at cycle   5 NSaved=   5.
 NSaved= 5 IEnMin= 5 EnMin= -582.187709207696     IErMin= 5 ErrMin= 9.54D-04
 ErrMax= 9.54D-04  0.00D+00 EMaxC= 1.00D-01 BMatC= 5.64D-04 BMatP= 1.03D-02
 IDIUse=3 WtCom= 9.90D-01 WtEn= 9.54D-03
 Coeff-Com:  0.772D-02 0.544D-02 0.160D+00 0.253D+00 0.573D+00
 Coeff-En:   0.000D+00 0.000D+00 0.000D+00 0.000D+00 0.100D+01
 Coeff:      0.764D-02 0.539D-02 0.159D+00 0.251D+00 0.577D+00
 Gap=     0.220 Goal=   None    Shift=    0.000
 RMSDP=8.59D-05 MaxDP=5.86D-03 DE=-8.30D-03 OVMax= 9.79D-03

 Cycle   6  Pass 0  IDiag  1:
 E= -582.188016242586     Delta-E=       -0.000307034890 Rises=F Damp=F
 DIIS: error= 7.47D-04 at cycle   6 NSaved=   6.
 NSaved= 6 IEnMin= 6 EnMin= -582.188016242586     IErMin= 6 ErrMin= 7.47D-04
 ErrMax= 7.47D-04  0.00D+00 EMaxC= 1.00D-01 BMatC= 1.66D-04 BMatP= 5.64D-04
 IDIUse=3 WtCom= 9.93D-01 WtEn= 7.47D-03
 Coeff-Com:  0.245D-02-0.194D-02 0.745D-01 0.129D+00 0.397D+00 0.399D+00
 Coeff-En:   0.000D+00 0.000D+00 0.000D+00 0.000D+00 0.229D+00 0.771D+00
 Coeff:      0.243D-02-0.192D-02 0.739D-01 0.128D+00 0.396D+00 0.402D+00
 Gap=     0.221 Goal=   None    Shift=    0.000
 RMSDP=4.41D-05 MaxDP=3.83D-03 DE=-3.07D-04 OVMax= 7.13D-03

 Cycle   7  Pass 0  IDiag  1:
 E= -582.188125570928     Delta-E=       -0.000109328343 Rises=F Damp=F
 DIIS: error= 2.96D-04 at cycle   7 NSaved=   7.
 NSaved= 7 IEnMin= 7 EnMin= -582.188125570928     IErMin= 7 ErrMin= 2.96D-04
 ErrMax= 2.96D-04  0.00D+00 EMaxC= 1.00D-01 BMatC= 2.70D-05 BMatP= 1.66D-04
 IDIUse=3 WtCom= 9.97D-01 WtEn= 2.96D-03
 Coeff-Com:  0.698D-03-0.229D-02 0.327D-01 0.591D-01 0.216D+00 0.300D+00
 Coeff-Com:  0.394D+00
 Coeff-En:   0.000D+00 0.000D+00 0.000D+00 0.000D+00 0.000D+00 0.149D+00
 Coeff-En:   0.851D+00
 Coeff:      0.696D-03-0.228D-02 0.327D-01 0.589D-01 0.215D+00 0.300D+00
 Coeff:      0.395D+00
 Gap=     0.220 Goal=   None    Shift=    0.000
 RMSDP=1.53D-05 MaxDP=1.25D-03 DE=-1.09D-04 OVMax= 2.38D-03

 Cycle   8  Pass 0  IDiag  1:
 E= -582.188145279158     Delta-E=       -0.000019708230 Rises=F Damp=F
 DIIS: error= 4.24D-05 at cycle   8 NSaved=   8.
 NSaved= 8 IEnMin= 8 EnMin= -582.188145279158     IErMin= 8 ErrMin= 4.24D-05
 ErrMax= 4.24D-05  0.00D+00 EMaxC= 1.00D-01 BMatC= 1.23D-06 BMatP= 2.70D-05
 IDIUse=1 WtCom= 1.00D+00 WtEn= 0.00D+00
 Coeff-Com:  0.234D-04-0.117D-02 0.832D-02 0.152D-01 0.711D-01 0.120D+00
 Coeff-Com:  0.222D+00 0.564D+00
 Coeff:      0.234D-04-0.117D-02 0.832D-02 0.152D-01 0.711D-01 0.120D+00
 Coeff:      0.222D+00 0.564D+00
 Gap=     0.220 Goal=   None    Shift=    0.000
 RMSDP=3.96D-06 MaxDP=2.60D-04 DE=-1.97D-05 OVMax= 3.44D-04

 Initial convergence to 1.0D-05 achieved.  Increase integral accuracy.
 Cycle   9  Pass 1  IDiag  1:
 E= -582.188201905341     Delta-E=       -0.000056626183 Rises=F Damp=F
 DIIS: error= 2.56D-05 at cycle   1 NSaved=   1.
 NSaved= 1 IEnMin= 1 EnMin= -582.188201905341     IErMin= 1 ErrMin= 2.56D-05
 ErrMax= 2.56D-05  0.00D+00 EMaxC= 1.00D-01 BMatC= 3.77D-07 BMatP= 3.77D-07
 IDIUse=1 WtCom= 1.00D+00 WtEn= 0.00D+00
 Coeff-Com:  0.100D+01
 Coeff:      0.100D+01
 Gap=     0.220 Goal=   None    Shift=    0.000
 RMSDP=3.96D-06 MaxDP=2.60D-04 DE=-5.66D-05 OVMax= 2.17D-04

 Cycle  10  Pass 1  IDiag  1:
 E= -582.188201729917     Delta-E=        0.000000175424 Rises=F Damp=F
 DIIS: error= 4.37D-05 at cycle   2 NSaved=   2.
 NSaved= 2 IEnMin= 1 EnMin= -582.188201905341     IErMin= 1 ErrMin= 2.56D-05
 ErrMax= 4.37D-05  0.00D+00 EMaxC= 1.00D-01 BMatC= 6.40D-07 BMatP= 3.77D-07
 IDIUse=1 WtCom= 1.00D+00 WtEn= 0.00D+00
 Coeff-Com:  0.581D+00 0.419D+00
 Coeff:      0.581D+00 0.419D+00
 Gap=     0.221 Goal=   None    Shift=    0.000
 RMSDP=2.29D-06 MaxDP=1.88D-04 DE= 1.75D-07 OVMax= 2.80D-04

 Cycle  11  Pass 1  IDiag  1:
 E= -582.188202117930     Delta-E=       -0.000000388012 Rises=F Damp=F
 DIIS: error= 1.58D-05 at cycle   3 NSaved=   3.
 NSaved= 3 IEnMin= 3 EnMin= -582.188202117930     IErMin= 3 ErrMin= 1.58D-05
 ErrMax= 1.58D-05  0.00D+00 EMaxC= 1.00D-01 BMatC= 9.09D-08 BMatP= 3.77D-07
 IDIUse=1 WtCom= 1.00D+00 WtEn= 0.00D+00
 Coeff-Com:  0.949D-01 0.267D+00 0.638D+00
 Coeff:      0.949D-01 0.267D+00 0.638D+00
 Gap=     0.220 Goal=   None    Shift=    0.000
 RMSDP=1.27D-06 MaxDP=1.02D-04 DE=-3.88D-07 OVMax= 2.08D-04

 Cycle  12  Pass 1  IDiag  1:
 E= -582.188202141825     Delta-E=       -0.000000023895 Rises=F Damp=F
 DIIS: error= 1.42D-05 at cycle   4 NSaved=   4.
 NSaved= 4 IEnMin= 4 EnMin= -582.188202141825     IErMin= 4 ErrMin= 1.42D-05
 ErrMax= 1.42D-05  0.00D+00 EMaxC= 1.00D-01 BMatC= 5.65D-08 BMatP= 9.09D-08
 IDIUse=1 WtCom= 1.00D+00 WtEn= 0.00D+00
 Coeff-Com: -0.109D-01 0.153D+00 0.510D+00 0.349D+00
 Coeff:     -0.109D-01 0.153D+00 0.510D+00 0.349D+00
 Gap=     0.220 Goal=   None    Shift=    0.000
 RMSDP=6.55D-07 MaxDP=5.71D-05 DE=-2.39D-08 OVMax= 1.07D-04

 Cycle  13  Pass 1  IDiag  1:
 E= -582.188202184048     Delta-E=       -0.000000042223 Rises=F Damp=F
 DIIS: error= 1.29D-06 at cycle   5 NSaved=   5.
 NSaved= 5 IEnMin= 5 EnMin= -582.188202184048     IErMin= 5 ErrMin= 1.29D-06
 ErrMax= 1.29D-06  0.00D+00 EMaxC= 1.00D-01 BMatC= 8.83D-10 BMatP= 5.65D-08
 IDIUse=1 WtCom= 1.00D+00 WtEn= 0.00D+00
 Coeff-Com: -0.103D-01 0.746D-01 0.257D+00 0.202D+00 0.477D+00
 Coeff:     -0.103D-01 0.746D-01 0.257D+00 0.202D+00 0.477D+00
 Gap=     0.220 Goal=   None    Shift=    0.000
 RMSDP=9.25D-08 MaxDP=4.76D-06 DE=-4.22D-08 OVMax= 8.56D-06

 Cycle  14  Pass 1  IDiag  1:
 E= -582.188202184701     Delta-E=       -0.000000000653 Rises=F Damp=F
 DIIS: error= 3.31D-07 at cycle   6 NSaved=   6.
 NSaved= 6 IEnMin= 6 EnMin= -582.188202184701     IErMin= 6 ErrMin= 3.31D-07
 ErrMax= 3.31D-07  0.00D+00 EMaxC= 1.00D-01 BMatC= 6.13D-11 BMatP= 8.83D-10
 IDIUse=1 WtCom= 1.00D+00 WtEn= 0.00D+00
 Coeff-Com: -0.521D-02 0.312D-01 0.107D+00 0.914D-01 0.272D+00 0.504D+00
 Coeff:     -0.521D-02 0.312D-01 0.107D+00 0.914D-01 0.272D+00 0.504D+00
 Gap=     0.220 Goal=   None    Shift=    0.000
 RMSDP=2.81D-08 MaxDP=2.27D-06 DE=-6.53D-10 OVMax= 2.58D-06

 Cycle  15  Pass 1  IDiag  1:
 E= -582.188202184720     Delta-E=       -0.000000000019 Rises=F Damp=F
 DIIS: error= 1.18D-07 at cycle   7 NSaved=   7.
 NSaved= 7 IEnMin= 7 EnMin= -582.188202184720     IErMin= 7 ErrMin= 1.18D-07
 ErrMax= 1.18D-07  0.00D+00 EMaxC= 1.00D-01 BMatC= 5.85D-12 BMatP= 6.13D-11
 IDIUse=1 WtCom= 1.00D+00 WtEn= 0.00D+00
 Coeff-Com: -0.826D-03 0.394D-02 0.128D-01 0.148D-01 0.618D-01 0.263D+00
 Coeff-Com:  0.645D+00
 Coeff:     -0.826D-03 0.394D-02 0.128D-01 0.148D-01 0.618D-01 0.263D+00
 Coeff:      0.645D+00
 Gap=     0.220 Goal=   None    Shift=    0.000
 RMSDP=9.21D-09 MaxDP=6.33D-07 DE=-1.91D-11 OVMax= 1.14D-06

 SCF Done:  E(RB3LYP) =  -582.188202185     A.U. after   15 cycles
            NFock= 15  Conv=0.92D-08     -V/T= 2.0038
 KE= 5.799864063657D+02 PE=-2.493820703543D+03 EE= 7.671299046155D+02
 Leave Link  502 at Fri Aug 27 10:00:32 2021, MaxMem= 24159191040 cpu:       225.1
 (Enter /public/home/users/caep010/software/Gaussian09/g09/l801.exe)
 DoSCS=F DFT=T ScalE2(SS,OS)=  1.000000  1.000000
 Range of M.O.s used for correlation:     1   305
 NBasis=   305 NAE=    38 NBE=    38 NFC=     0 NFV=     0
 NROrb=    305 NOA=    38 NOB=    38 NVA=   267 NVB=   267

 **** Warning!!: The largest alpha MO coefficient is  0.45529853D+02

 Leave Link  801 at Fri Aug 27 10:00:33 2021, MaxMem= 24159191040 cpu:         0.6
 (Enter /public/home/users/caep010/software/Gaussian09/g09/l1101.exe)
 Using compressed storage, NAtomX=    15.
 Will process     16 centers per pass.
 Leave Link 1101 at Fri Aug 27 10:00:33 2021, MaxMem= 24159191040 cpu:        19.8
 (Enter /public/home/users/caep010/software/Gaussian09/g09/l1102.exe)
 Symmetrizing basis deriv contribution to polar:
 IMax=3 JMax=2 DiffMx= 0.00D+00
 Leave Link 1102 at Fri Aug 27 10:00:34 2021, MaxMem= 24159191040 cpu:         1.1
 (Enter /public/home/users/caep010/software/Gaussian09/g09/l1110.exe)
 Forming Gx(P) for the SCF density, NAtomX=    15.
 Integral derivatives from FoFJK, PRISM(SPDF).
 Do as many integral derivatives as possible in FoFJK.
 G2DrvN: MDV=   24159190816.
 G2DrvN: will do    16 centers at a time, making    1 passes.
 Calling FoFCou, ICntrl=  3107 FMM=F I1Cent=   0 AccDes= 0.00D+00.
 FoFJK:  IHMeth= 1 ICntrl=    3107 DoSepK=F KAlg= 0 I1Cent=   0 FoldK=F
 IRaf=         0 NMat=   1 IRICut=       1 DoRegI=T DoRafI=F ISym2E= 0.
 FoFCou: FMM=F IPFlag=           0 FMFlag=      100000 FMFlg1=           0
         NFxFlg=           0 DoJE=F BraDBF=F KetDBF=F FulRan=T
         wScrn=  0.000000 ICntrl=    3107 IOpCl=  0 I1Cent=           0 NGrid=           0
         NMat0=    1 NMatS0=      1 NMatT0=    0 NMatD0=    1 NMtDS0=    0 NMtDT0=    0
 Symmetry not used in FoFCou.
 End of G2Drv F.D. properties file   721 does not exist.
 End of G2Drv F.D. properties file   722 does not exist.
 End of G2Drv F.D. properties file   788 does not exist.
 Leave Link 1110 at Fri Aug 27 10:00:47 2021, MaxMem= 24159191040 cpu:       426.8
 (Enter /public/home/users/caep010/software/Gaussian09/g09/l1002.exe)
 Minotr:  Closed shell wavefunction.
          IDoAtm=111111111111111
          Direct CPHF calculation.
          Differentiating once with respect to nuclear coordinates.
          Requested convergence is 1.0D-08 RMS, and 1.0D-07 maximum.
          Secondary convergence is 1.0D-12 RMS, and 1.0D-12 maximum.
          NewPWx=T KeepS1=F KeepF1=F KeepIn=T MapXYZ=F SortEE=F KeepMc=T.
          MDV=   24159190581 using IRadAn=       2.
 Generate precomputed XC quadrature information.
 Keep R1 ints in memory in canonical form, NReq=1107806393.
 FoFCou: FMM=F IPFlag=           0 FMFlag=           0 FMFlg1=           0
         NFxFlg=           0 DoJE=F BraDBF=F KetDBF=F FulRan=T
         wScrn=  0.000000 ICntrl=     600 IOpCl=  0 I1Cent=           0 NGrid=           0
         NMat0=    1 NMatS0=  46665 NMatT0=    0 NMatD0=    1 NMtDS0=    0 NMtDT0=    0
 Symmetry not used in FoFCou.
          Solving linear equations simultaneously, MaxMat=       0.
          There are    48 degrees of freedom in the 1st order CPHF.  IDoFFX=6 NUNeed=     0.
     42 vectors produced by pass  0 Test12= 2.11D-14 2.08D-09 XBig12= 3.11D-01 1.80D-01.
 AX will form    42 AO Fock derivatives at one time.
     42 vectors produced by pass  1 Test12= 2.11D-14 2.08D-09 XBig12= 5.17D-01 5.31D-01.
     42 vectors produced by pass  2 Test12= 2.11D-14 2.08D-09 XBig12= 4.00D-03 1.05D-02.
     42 vectors produced by pass  3 Test12= 2.11D-14 2.08D-09 XBig12= 2.85D-05 1.23D-03.
     42 vectors produced by pass  4 Test12= 2.11D-14 2.08D-09 XBig12= 1.75D-07 6.59D-05.
     42 vectors produced by pass  5 Test12= 2.11D-14 2.08D-09 XBig12= 3.37D-10 3.05D-06.
     20 vectors produced by pass  6 Test12= 2.11D-14 2.08D-09 XBig12= 4.46D-13 1.26D-07.
      2 vectors produced by pass  7 Test12= 2.11D-14 2.08D-09 XBig12= 6.86D-16 3.52D-09.
 InvSVY:  IOpt=1 It=  1 EMax= 2.22D-15
 Solved reduced A of dimension   274 with    42 vectors.
 End of Minotr F.D. properties file   721 does not exist.
 End of Minotr F.D. properties file   722 does not exist.
 End of Minotr F.D. properties file   788 does not exist.
 Leave Link 1002 at Fri Aug 27 10:01:10 2021, MaxMem= 24159191040 cpu:       695.6
 (Enter /public/home/users/caep010/software/Gaussian09/g09/l601.exe)
 Copying SCF densities to generalized density rwf, IOpCl= 0 IROHF=0.

 **********************************************************************

            Population analysis using the SCF density.

 **********************************************************************

 Orbital symmetries:
       Occupied  (A) (A) (A) (A) (A) (A) (A) (A) (A) (A) (A) (A)
                 (A) (A) (A) (A) (A) (A) (A) (A) (A) (A) (A) (A)
                 (A) (A) (A) (A) (A) (A) (A) (A) (A) (A) (A) (A)
                 (A) (A)
       Virtual   (A) (A) (A) (A) (A) (A) (A) (A) (A) (A) (A) (A)
                 (A) (A) (A) (A) (A) (A) (A) (A) (A) (A) (A) (A)
                 (A) (A) (A) (A) (A) (A) (A) (A) (A) (A) (A) (A)
                 (A) (A) (A) (A) (A) (A) (A) (A) (A) (A) (A) (A)
                 (A) (A) (A) (A) (A) (A) (A) (A) (A) (A) (A) (A)
                 (A) (A) (A) (A) (A) (A) (A) (A) (A) (A) (A) (A)
                 (A) (A) (A) (A) (A) (A) (A) (A) (A) (A) (A) (A)
                 (A) (A) (A) (A) (A) (A) (A) (A) (A) (A) (A) (A)
                 (A) (A) (A) (A) (A) (A) (A) (A) (A) (A) (A) (A)
                 (A) (A) (A) (A) (A) (A) (A) (A) (A) (A) (A) (A)
                 (A) (A) (A) (A) (A) (A) (A) (A) (A) (A) (A) (A)
                 (A) (A) (A) (A) (A) (A) (A) (A) (A) (A) (A) (A)
                 (A) (A) (A) (A) (A) (A) (A) (A) (A) (A) (A) (A)
                 (A) (A) (A) (A) (A) (A) (A) (A) (A) (A) (A) (A)
                 (A) (A) (A) (A) (A) (A) (A) (A) (A) (A) (A) (A)
                 (A) (A) (A) (A) (A) (A) (A) (A) (A) (A) (A) (A)
                 (A) (A) (A) (A) (A) (A) (A) (A) (A) (A) (A) (A)
                 (A) (A) (A) (A) (A) (A) (A) (A) (A) (A) (A) (A)
                 (A) (A) (A) (A) (A) (A) (A) (A) (A) (A) (A) (A)
                 (A) (A) (A) (A) (A) (A) (A) (A) (A) (A) (A) (A)
                 (A) (A) (A) (A) (A) (A) (A) (A) (A) (A) (A) (A)
                 (A) (A) (A) (A) (A) (A) (A) (A) (A) (A) (A) (A)
                 (A) (A) (A)
 The electronic state is 1-A.
 Alpha  occ. eigenvalues --  -19.19445 -19.19050 -19.18093 -19.18092 -14.60015
 Alpha  occ. eigenvalues --  -14.58178 -14.42189 -10.27232 -10.24906 -10.24904
 Alpha  occ. eigenvalues --   -1.26269  -1.25532  -1.08306  -1.07246  -1.02222
 Alpha  occ. eigenvalues --   -0.87464  -0.78343  -0.76788  -0.64959  -0.62712
 Alpha  occ. eigenvalues --   -0.58932  -0.58230  -0.56857  -0.55816  -0.53364
 Alpha  occ. eigenvalues --   -0.53315  -0.49237  -0.49008  -0.47389  -0.46868
 Alpha  occ. eigenvalues --   -0.41079  -0.33538  -0.33243  -0.32365  -0.32113
 Alpha  occ. eigenvalues --   -0.31405  -0.30261  -0.30053
 Alpha virt. eigenvalues --   -0.08004  -0.05742   0.05126   0.06786   0.08883
 Alpha virt. eigenvalues --    0.09906   0.15676   0.16262   0.16669   0.16858
 Alpha virt. eigenvalues --    0.18615   0.19819   0.23253   0.25967   0.27254
 Alpha virt. eigenvalues --    0.32194   0.33440   0.38149   0.39540   0.43783
 Alpha virt. eigenvalues --    0.43854   0.43883   0.46146   0.49705   0.50762
 Alpha virt. eigenvalues --    0.51828   0.53607   0.54830   0.55697   0.58322
 Alpha virt. eigenvalues --    0.62649   0.63039   0.65720   0.67900   0.69015
 Alpha virt. eigenvalues --    0.69430   0.72477   0.74186   0.74487   0.75935
 Alpha virt. eigenvalues --    0.76587   0.78335   0.79527   0.80700   0.82268
 Alpha virt. eigenvalues --    0.84597   0.86129   0.86864   0.88528   0.88855
 Alpha virt. eigenvalues --    0.89796   0.92545   0.95080   0.96038   0.96262
 Alpha virt. eigenvalues --    0.96404   0.97828   0.99165   0.99684   1.01336
 Alpha virt. eigenvalues --    1.02921   1.06070   1.08811   1.10242   1.11168
 Alpha virt. eigenvalues --    1.13097   1.16287   1.18473   1.20191   1.21880
 Alpha virt. eigenvalues --    1.24234   1.25877   1.30022   1.30747   1.31462
 Alpha virt. eigenvalues --    1.33846   1.34962   1.39725   1.40347   1.42767
 Alpha virt. eigenvalues --    1.45402   1.46007   1.48414   1.49443   1.50865
 Alpha virt. eigenvalues --    1.51095   1.54311   1.59808   1.60166   1.60812
 Alpha virt. eigenvalues --    1.65129   1.67282   1.68579   1.70097   1.70164
 Alpha virt. eigenvalues --    1.74289   1.77808   1.81181   1.81215   1.86847
 Alpha virt. eigenvalues --    1.88856   1.93828   1.95290   1.96457   1.99384
 Alpha virt. eigenvalues --    2.01328   2.10583   2.14787   2.21401   2.23358
 Alpha virt. eigenvalues --    2.23600   2.27916   2.30277   2.44077   2.48246
 Alpha virt. eigenvalues --    2.52263   2.55265   2.61120   2.65749   2.70229
 Alpha virt. eigenvalues --    2.82293   2.87393   2.92456   2.92745   3.01408
 Alpha virt. eigenvalues --    3.04349   3.06362   3.12851   3.18811   3.18916
 Alpha virt. eigenvalues --    3.22778   3.22852   3.24710   3.30867   3.31320
 Alpha virt. eigenvalues --    3.36399   3.38186   3.40054   3.42272   3.46665
 Alpha virt. eigenvalues --    3.47112   3.49633   3.51741   3.52373   3.55637
 Alpha virt. eigenvalues --    3.58266   3.61272   3.62710   3.63583   3.65547
 Alpha virt. eigenvalues --    3.70902   3.72302   3.74223   3.78061   3.79041
 Alpha virt. eigenvalues --    3.84950   3.87389   3.97155   3.99166   4.00319
 Alpha virt. eigenvalues --    4.03662   4.04762   4.06560   4.08944   4.10113
 Alpha virt. eigenvalues --    4.11379   4.12100   4.13257   4.15986   4.20454
 Alpha virt. eigenvalues --    4.20760   4.26808   4.27243   4.29745   4.30144
 Alpha virt. eigenvalues --    4.31971   4.32396   4.35970   4.36478   4.37286
 Alpha virt. eigenvalues --    4.41171   4.42231   4.43895   4.46834   4.48109
 Alpha virt. eigenvalues --    4.53035   4.53086   4.56349   4.56680   4.61815
 Alpha virt. eigenvalues --    4.63507   4.65489   4.66274   4.70550   4.71841
 Alpha virt. eigenvalues --    4.72325   4.77281   4.77932   4.79740   4.80253
 Alpha virt. eigenvalues --    4.86072   4.87219   4.87296   4.90643   4.93830
 Alpha virt. eigenvalues --    4.98742   4.99483   5.00440   5.01393   5.01818
 Alpha virt. eigenvalues --    5.02089   5.05728   5.06195   5.07214   5.07477
 Alpha virt. eigenvalues --    5.10016   5.13042   5.14916   5.18912   5.19839
 Alpha virt. eigenvalues --    5.25883   5.31578   5.32977   5.34929   5.37219
 Alpha virt. eigenvalues --    5.38671   5.44248   5.45247   5.52169   5.53953
 Alpha virt. eigenvalues --    5.62547   5.62943   5.63424   5.73789   5.80498
 Alpha virt. eigenvalues --    5.82978   5.91585   5.97512   6.03242   6.08568
 Alpha virt. eigenvalues --    6.18916   6.20737   6.24316   6.25598   6.27542
 Alpha virt. eigenvalues --    6.31379   6.38444   6.60456   6.73044   6.74957
 Alpha virt. eigenvalues --    6.85069   6.89315   7.01292   7.06483   9.33472
 Alpha virt. eigenvalues --   10.91452  11.25095  11.36589  11.41433  11.93272
 Alpha virt. eigenvalues --   12.30813  12.91494  13.07691  13.12746  13.20395
 Alpha virt. eigenvalues --   15.56282  19.60287
          Condensed to atoms (all electrons):
               1          2          3          4          5          6
     1  N    5.045139   0.312271   0.001705  -0.036006  -0.036010  -0.000216
     2  N    0.312271   6.546323  -0.055657   0.318653   0.318665   0.006012
     3  C    0.001705  -0.055657   4.978851   0.332509   0.332521   0.357915
     4  C   -0.036006   0.318653   0.332509   4.845383  -0.119408  -0.033503
     5  C   -0.036010   0.318665   0.332521  -0.119408   4.845349  -0.033508
     6  H   -0.000216   0.006012   0.357915  -0.033503  -0.033508   0.618853
     7  H    0.001113  -0.016374  -0.026804   0.383679   0.005181   0.004756
     8  H    0.001113  -0.016378  -0.026808   0.005183   0.383672   0.004758
     9  H    0.001007  -0.032414  -0.012892   0.371002   0.006133  -0.006385
    10  H    0.001006  -0.032419  -0.012892   0.006134   0.370998  -0.006386
    11  N    0.000141   0.001041   0.363956  -0.018615  -0.018617  -0.031860
    12  O    0.000215   0.001070  -0.148935   0.007865   0.007866   0.007603
    13  O    0.000002   0.000083  -0.111718   0.003477   0.003478   0.015140
    14  O    0.571839  -0.129474   0.001312   0.005089   0.009850   0.000019
    15  O    0.571839  -0.129475   0.001312   0.009849   0.005090   0.000019
               7          8          9         10         11         12
     1  N    0.001113   0.001113   0.001007   0.001006   0.000141   0.000215
     2  N   -0.016374  -0.016378  -0.032414  -0.032419   0.001041   0.001070
     3  C   -0.026804  -0.026808  -0.012892  -0.012892   0.363956  -0.148935
     4  C    0.383679   0.005183   0.371002   0.006134  -0.018615   0.007865
     5  C    0.005181   0.383672   0.006133   0.370998  -0.018617   0.007866
     6  H    0.004756   0.004758  -0.006385  -0.006386  -0.031860   0.007603
     7  H    0.555838  -0.000160  -0.053517  -0.000783  -0.005756   0.008660
     8  H   -0.000160   0.555861  -0.000783  -0.053517  -0.005758   0.008662
     9  H   -0.053517  -0.000783   0.577298   0.001404   0.002396   0.000428
    10  H   -0.000783  -0.053517   0.001404   0.577318   0.002396   0.000428
    11  N   -0.005756  -0.005758   0.002396   0.002396   5.167620   0.523013
    12  O    0.008660   0.008662   0.000428   0.000428   0.523013   8.024881
    13  O    0.000506   0.000507  -0.000205  -0.000205   0.558153  -0.099405
    14  O   -0.000118  -0.000127   0.000303   0.009504  -0.000005  -0.000001
    15  O   -0.000127  -0.000118   0.009503   0.000303  -0.000005  -0.000001
              13         14         15
     1  N    0.000002   0.571839   0.571839
     2  N    0.000083  -0.129474  -0.129475
     3  C   -0.111718   0.001312   0.001312
     4  C    0.003477   0.005089   0.009849
     5  C    0.003478   0.009850   0.005090
     6  H    0.015140   0.000019   0.000019
     7  H    0.000506  -0.000118  -0.000127
     8  H    0.000507  -0.000127  -0.000118
     9  H   -0.000205   0.000303   0.009503
    10  H   -0.000205   0.009504   0.000303
    11  N    0.558153  -0.000005  -0.000005
    12  O   -0.099405  -0.000001  -0.000001
    13  O    7.979362  -0.000000  -0.000000
    14  O   -0.000000   7.991324  -0.077327
    15  O   -0.000000  -0.077327   7.991326
 Mulliken charges:
               1
     1  N    0.564843
     2  N   -0.091927
     3  C    0.025625
     4  C   -0.081290
     5  C   -0.081261
     6  H    0.096782
     7  H    0.143904
     8  H    0.143893
     9  H    0.136722
    10  H    0.136712
    11  N    0.461899
    12  O   -0.342348
    13  O   -0.349175
    14  O   -0.382189
    15  O   -0.382190
 Sum of Mulliken charges =  -0.00000
 Mulliken charges with hydrogens summed into heavy atoms:
               1
     1  N    0.564843
     2  N   -0.091927
     3  C    0.122407
     4  C    0.199336
     5  C    0.199344
    11  N    0.461899
    12  O   -0.342348
    13  O   -0.349175
    14  O   -0.382189
    15  O   -0.382190
 APT charges:
               1
     1  N   -1.019029
     2  N   -0.156780
     3  C   -0.426917
     4  C   -0.491262
     5  C   -0.491208
     6  H    0.382160
     7  H    0.363979
     8  H    0.363948
     9  H    0.384996
    10  H    0.384970
    11  N   -1.041752
    12  O    0.096685
    13  O    0.822745
    14  O    0.413738
    15  O    0.413727
 Sum of APT charges =  -0.00000
 APT charges with hydrogens summed into heavy atoms:
               1
     1  N   -1.019029
     2  N   -0.156780
     3  C   -0.044757
     4  C    0.257713
     5  C    0.257710
    11  N   -1.041752
    12  O    0.096685
    13  O    0.822745
    14  O    0.413738
    15  O    0.413727
 Electronic spatial extent (au):  <R**2>=           1537.7637
 Charge=             -0.0000 electrons
 Dipole moment (field-independent basis, Debye):
    X=             -1.1734    Y=              0.0002    Z=             -2.6101  Tot=              2.8617
 Quadrupole moment (field-independent basis, Debye-Ang):
   XX=            -77.1913   YY=            -52.5950   ZZ=            -54.8773
   XY=             -0.0000   XZ=              1.4751   YZ=              0.0000
 Traceless Quadrupole moment (field-independent basis, Debye-Ang):
   XX=            -15.6368   YY=              8.9596   ZZ=              6.6772
   XY=             -0.0000   XZ=              1.4751   YZ=              0.0000
 Octapole moment (field-independent basis, Debye-Ang**2):
  XXX=              1.4740  YYY=              0.0009  ZZZ=             -2.9971  XYY=            -11.9122
  XXY=              0.0000  XXZ=              0.5525  XZZ=              7.0875  YZZ=              0.0000
  YYZ=              0.0228  XYZ=             -0.0004
 Hexadecapole moment (field-independent basis, Debye-Ang**3):
 XXXX=          -1609.9629 YYYY=           -220.4270 ZZZZ=           -147.4380 XXXY=             -0.0001
 XXXZ=             -6.9199 YYYX=              0.0005 YYYZ=             -0.0003 ZZZX=              5.2270
 ZZZY=              0.0001 XXYY=           -282.9866 XXZZ=           -258.3291 YYZZ=            -59.4429
 XXYZ=             -0.0002 YYXZ=             -3.0390 ZZXY=             -0.0002
 N-N= 5.645161903767D+02 E-N=-2.493820733309D+03  KE= 5.799864063657D+02
  Exact polarizability:   0.000   0.000   0.000   0.000   0.000   0.000
 Approx polarizability: 121.429  -0.000 106.367  12.588  -0.000  89.601
 No NMR shielding tensors so no spin-rotation constants.
 Leave Link  601 at Fri Aug 27 10:01:11 2021, MaxMem= 24159191040 cpu:        15.1
 (Enter /public/home/users/caep010/software/Gaussian09/g09/l701.exe)
 Compute integral second derivatives.
 ... and contract with generalized density number  0.
 Leave Link  701 at Fri Aug 27 10:01:12 2021, MaxMem= 24159191040 cpu:        17.1
 (Enter /public/home/users/caep010/software/Gaussian09/g09/l702.exe)
 L702 exits ... SP integral derivatives will be done elsewhere.
 Leave Link  702 at Fri Aug 27 10:01:12 2021, MaxMem= 24159191040 cpu:         0.7
 (Enter /public/home/users/caep010/software/Gaussian09/g09/l703.exe)
 Compute integral second derivatives, UseDBF=F ICtDFT=           0.
 Integral derivatives from FoFJK, PRISM(SPDF).
 Calling FoFJK, ICntrl=    100147 FMM=F ISym2X=0 I1Cent= 0 IOpClX= 0 NMat=1 NMatS=1 NMatT=0.
 FoFJK:  IHMeth= 1 ICntrl=  100147 DoSepK=F KAlg= 0 I1Cent=   0 FoldK=F
 IRaf=         0 NMat=   1 IRICut=       1 DoRegI=T DoRafI=F ISym2E= 0.
 FoFCou: FMM=F IPFlag=           0 FMFlag=      100000 FMFlg1=         800
         NFxFlg=           0 DoJE=F BraDBF=F KetDBF=F FulRan=T
         wScrn=  0.000000 ICntrl=  100147 IOpCl=  0 I1Cent=           0 NGrid=           0
         NMat0=    1 NMatS0=      1 NMatT0=    0 NMatD0=    1 NMtDS0=    0 NMtDT0=    0
 Symmetry not used in FoFCou.
 Leave Link  703 at Fri Aug 27 10:01:39 2021, MaxMem= 24159191040 cpu:       857.8
 (Enter /public/home/users/caep010/software/Gaussian09/g09/l716.exe)
 Dipole        =-4.61655316D-01 6.96471549D-05-1.02687790D+00
 Polarizability= 0.00000000D+00 0.00000000D+00 0.00000000D+00
                 0.00000000D+00 0.00000000D+00 0.00000000D+00
 ***** Axes restored to original set *****
 -------------------------------------------------------------------
 Center     Atomic                   Forces (Hartrees/Bohr)
 Number     Number              X              Y              Z
 -------------------------------------------------------------------
      1        7           0.001843143    0.000000226    0.003821323
      2        7          -0.000977508    0.000033979    0.002112694
      3        6          -0.106720980    0.000025001    0.039392227
      4        6          -0.019440482   -0.150003186   -0.008402872
      5        6          -0.019436948    0.149954888   -0.008401444
      6        1           0.124892413   -0.000000397   -0.060624822
      7        1          -0.102924532    0.089376335   -0.034465462
      8        1          -0.102921248   -0.089381720   -0.034465291
      9        1           0.118011086    0.062858621    0.049444236
     10        1           0.118010321   -0.062863141    0.049442652
     11        7          -0.009883100    0.000000159    0.008981304
     12        8          -0.021660759   -0.000000191    0.014782975
     13        8           0.021538464    0.000000271   -0.021461132
     14        8          -0.000164614   -0.002190682   -0.000078562
     15        8          -0.000165258    0.002189837   -0.000077828
 -------------------------------------------------------------------
 Cartesian Forces:  Max     0.150003186 RMS     0.059648434
 FormGI is forming the generalized inverse of G from B-inverse, IUseBI=4.
 Leave Link  716 at Fri Aug 27 10:01:39 2021, MaxMem= 24159191040 cpu:         2.6
 (Enter /public/home/users/caep010/software/Gaussian09/g09/l103.exe)

 GradGradGradGradGradGradGradGradGradGradGradGradGradGradGradGradGradGrad
 Berny optimization.
 Red2BG is reusing G-inverse.
 Internal  Forces:  Max     0.142370037 RMS     0.035175082
 Search for a local minimum.
 Step number   1 out of a maximum of   92
 All quantities printed in internal units (Hartrees-Bohrs-Radians)
 RMS Force = .35175D-01 SwitMx=.10000D-02 MixMth= 1
 Mixed Optimization -- RFO/linear search
 Second derivative matrix not updated -- analytic derivatives used.
 ITU=  0
     Eigenvalues ---    0.00034   0.00292   0.00825   0.01400   0.01781
     Eigenvalues ---    0.02568   0.04051   0.04818   0.04833   0.05426
     Eigenvalues ---    0.05792   0.06216   0.06303   0.06470   0.07459
     Eigenvalues ---    0.08986   0.10192   0.11941   0.14145   0.19561
     Eigenvalues ---    0.22335   0.23541   0.23604   0.24403   0.26937
     Eigenvalues ---    0.27758   0.31706   0.31875   0.39333   0.41061
     Eigenvalues ---    0.63445   0.69423   0.75977   0.76006   0.76280
     Eigenvalues ---    0.76285   0.76376   0.78504   0.90304
 RFO step:  Lambda=-1.16520745D-01 EMin= 3.41330412D-04
 Linear search not attempted -- first point.
 Maximum step size (   0.300) exceeded in Quadratic search.
    -- Step size scaled by   0.819
 Iteration  1 RMS(Cart)=  0.03389958 RMS(Int)=  0.00045326
 Iteration  2 RMS(Cart)=  0.00035681 RMS(Int)=  0.00003552
 Iteration  3 RMS(Cart)=  0.00000017 RMS(Int)=  0.00003552
 ITry= 1 IFail=0 DXMaxC= 1.17D-01 DCOld= 1.00D+10 DXMaxT= 3.00D-01 DXLimC= 3.00D+00 Rises=F
 Variable       Old X    -DE/DX   Delta X   Delta X   Delta X     New X
                                 (Linear)    (Quad)   (Total)
    R1        2.59909   0.00393   0.00000   0.00889   0.00889   2.60797
    R2        2.30775   0.00191   0.00000   0.00081   0.00081   2.30857
    R3        2.30775   0.00191   0.00000   0.00081   0.00081   2.30857
    R4        2.80070   0.00167   0.00000  -0.00183  -0.00189   2.79881
    R5        2.80056   0.00170   0.00000  -0.00175  -0.00181   2.79874
    R6        2.89195   0.00876   0.00000   0.01993   0.01999   2.91194
    R7        2.89181   0.00879   0.00000   0.01999   0.02005   2.91186
    R8        1.79449   0.13829   0.00000   0.12826   0.12826   1.92276
    R9        2.84670   0.00500   0.00000   0.00659   0.00659   2.85329
   R10        1.79560   0.14046   0.00000   0.13094   0.13094   1.92654
   R11        1.79476   0.14237   0.00000   0.13248   0.13248   1.92724
   R12        1.79560   0.14047   0.00000   0.13094   0.13094   1.92654
   R13        1.79476   0.14237   0.00000   0.13248   0.13248   1.92724
   R14        2.28344   0.02463   0.00000   0.01721   0.01721   2.30066
   R15        2.27390   0.02742   0.00000   0.02133   0.02133   2.29523
    A1        2.03033  -0.00084   0.00000  -0.00185  -0.00185   2.02848
    A2        2.03033  -0.00083   0.00000  -0.00185  -0.00185   2.02848
    A3        2.22208   0.00166   0.00000   0.00368   0.00368   2.22576
    A4        2.08879  -0.00018   0.00000  -0.00124  -0.00120   2.08760
    A5        2.08882  -0.00018   0.00000  -0.00124  -0.00121   2.08762
    A6        1.64252  -0.00022   0.00000   0.00008   0.00001   1.64253
    A7        1.57589  -0.00509   0.00000  -0.01508  -0.01507   1.56082
    A8        2.10336   0.00038   0.00000  -0.00331  -0.00347   2.09989
    A9        1.96285   0.00018   0.00000   0.00026   0.00023   1.96307
   A10        2.10339   0.00038   0.00000  -0.00332  -0.00347   2.09991
   A11        1.96286   0.00018   0.00000   0.00026   0.00023   1.96309
   A12        1.76541   0.00335   0.00000   0.01818   0.01821   1.78362
   A13        1.52004   0.00279   0.00000   0.00791   0.00794   1.52798
   A14        2.00267  -0.00198   0.00000  -0.00527  -0.00534   1.99733
   A15        2.00299  -0.00353   0.00000  -0.01288  -0.01289   1.99011
   A16        2.00209   0.00051   0.00000   0.00518   0.00521   2.00730
   A17        2.00134  -0.00212   0.00000  -0.00576  -0.00577   1.99557
   A18        1.91152   0.00361   0.00000   0.00908   0.00904   1.92056
   A19        1.52013   0.00277   0.00000   0.00787   0.00789   1.52802
   A20        2.00265  -0.00198   0.00000  -0.00526  -0.00532   1.99732
   A21        2.00298  -0.00353   0.00000  -0.01287  -0.01288   1.99010
   A22        2.00207   0.00051   0.00000   0.00519   0.00522   2.00728
   A23        2.00133  -0.00212   0.00000  -0.00575  -0.00576   1.99557
   A24        1.91152   0.00360   0.00000   0.00907   0.00903   1.92055
   A25        2.05706  -0.00372   0.00000  -0.00431  -0.00431   2.05275
   A26        2.06612  -0.01309   0.00000  -0.02044  -0.02044   2.04568
   A27        2.16001   0.01681   0.00000   0.02475   0.02475   2.18476
    D1       -2.58769   0.00018   0.00000   0.00063   0.00064  -2.58705
    D2       -0.58372  -0.00046   0.00000  -0.00147  -0.00148  -0.58520
    D3        0.58368   0.00046   0.00000   0.00147   0.00149   0.58516
    D4        2.58764  -0.00017   0.00000  -0.00062  -0.00064   2.58701
    D5        2.38922  -0.00108   0.00000  -0.00410  -0.00411   2.38511
    D6       -1.87036   0.00051   0.00000   0.00465   0.00463  -1.86573
    D7        0.36640   0.00051   0.00000   0.00061   0.00063   0.36703
    D8        0.15940  -0.00059   0.00000  -0.00192  -0.00195   0.15744
    D9        2.18300   0.00099   0.00000   0.00682   0.00678   2.18978
   D10       -1.86342   0.00100   0.00000   0.00279   0.00278  -1.86064
   D11       -2.38921   0.00108   0.00000   0.00409   0.00410  -2.38510
   D12        1.87036  -0.00050   0.00000  -0.00464  -0.00463   1.86574
   D13       -0.36636  -0.00052   0.00000  -0.00062  -0.00064  -0.36700
   D14       -0.15940   0.00060   0.00000   0.00193   0.00196  -0.15745
   D15       -2.18302  -0.00099   0.00000  -0.00681  -0.00678  -2.18979
   D16        1.86345  -0.00100   0.00000  -0.00279  -0.00279   1.86066
   D17       -0.15393   0.00095   0.00000   0.00304   0.00303  -0.15089
   D18       -2.17808   0.00172   0.00000   0.00419   0.00418  -2.17390
   D19        1.87046  -0.00198   0.00000  -0.00842  -0.00842   1.86204
   D20       -2.35876   0.00406   0.00000   0.01971   0.01967  -2.33909
   D21        1.90027   0.00483   0.00000   0.02086   0.02081   1.92109
   D22       -0.33437   0.00113   0.00000   0.00825   0.00822  -0.32616
   D23        1.84545  -0.00114   0.00000  -0.00352  -0.00350   1.84195
   D24       -0.17870  -0.00037   0.00000  -0.00237  -0.00236  -0.18106
   D25       -2.41335  -0.00407   0.00000  -0.01497  -0.01496  -2.42830
   D26        0.15393  -0.00095   0.00000  -0.00304  -0.00304   0.15090
   D27        2.17810  -0.00172   0.00000  -0.00419  -0.00418   2.17391
   D28       -1.87048   0.00198   0.00000   0.00842   0.00842  -1.86206
   D29        2.35875  -0.00406   0.00000  -0.01971  -0.01967   2.33908
   D30       -1.90028  -0.00483   0.00000  -0.02086  -0.02082  -1.92109
   D31        0.33433  -0.00113   0.00000  -0.00824  -0.00821   0.32612
   D32       -1.84543   0.00113   0.00000   0.00351   0.00350  -1.84193
   D33        0.17873   0.00037   0.00000   0.00236   0.00235   0.18109
   D34        2.41334   0.00407   0.00000   0.01498   0.01496   2.42830
   D35       -0.87435   0.00294   0.00000   0.00884   0.00884  -0.86551
   D36        2.26725   0.00294   0.00000   0.00884   0.00884   2.27609
   D37        0.87430  -0.00294   0.00000  -0.00884  -0.00884   0.86546
   D38       -2.26729  -0.00294   0.00000  -0.00884  -0.00884  -2.27613
   D39        3.14159  -0.00000   0.00000  -0.00000  -0.00000   3.14159
   D40        0.00000  -0.00000   0.00000  -0.00000  -0.00000  -0.00000
         Item               Value     Threshold  Converged?
 Maximum Force            0.142370     0.000450     NO 
 RMS     Force            0.035175     0.000300     NO 
 Maximum Displacement     0.116660     0.001800     NO 
 RMS     Displacement     0.033911     0.001200     NO 
 Predicted change in Energy=-6.177368D-02
 Lowest energy point so far.  Saving SCF results.
 GradGradGradGradGradGradGradGradGradGradGradGradGradGradGradGradGradGrad

 Leave Link  103 at Fri Aug 27 10:01:40 2021, MaxMem= 24159191040 cpu:         4.2
 (Enter /public/home/users/caep010/software/Gaussian09/g09/l202.exe)
                          Input orientation:                          
 ---------------------------------------------------------------------
 Center     Atomic      Atomic             Coordinates (Angstroms)
 Number     Number       Type             X           Y           Z
 ---------------------------------------------------------------------
      1          7           0        5.852119    1.703614    4.815461
      2          7           0        5.479587    1.703609    3.486611
      3          6           0        6.236499    1.703606    1.537323
      4          6           0        5.950963    2.787772    2.594451
      5          6           0        5.950967    0.619493    2.594451
      6          1           0        7.116374    1.703613    1.026361
      7          1           0        5.232666    3.463405    2.335782
      8          1           0        5.232675   -0.056145    2.335781
      9          1           0        6.781326    3.273092    2.933654
     10          1           0        6.781329    0.134169    2.933653
     11          7           0        5.219565    1.703611    0.421243
     12          8           0        4.042094    1.703603    0.730693
     13          8           0        5.643981    1.703624   -0.716773
     14          8           0        5.981673    0.607836    5.339761
     15          8           0        5.981684    2.799397    5.339750
 ---------------------------------------------------------------------
                    Distance matrix (angstroms):
                    1          2          3          4          5
     1  N    0.000000
     2  N    1.380080   0.000000
     3  C    3.300596   2.091085   0.000000
     4  C    2.473470   1.481065   1.540930   0.000000
     5  C    2.473454   1.481032   1.540892   2.168279   0.000000
     6  H    3.994449   2.954979   1.017478   2.234388   2.234367
     7  H    3.103126   2.117135   2.177638   1.019480   2.944605
     8  H    3.103107   2.117099   2.177595   2.944607   1.019481
     9  H    2.620665   2.112714   2.170222   1.019851   2.801096
    10  H    2.620647   2.112684   2.170186   2.801102   1.019852
    11  N    4.439513   3.076376   1.509897   2.536371   2.536354
    12  O    4.467832   3.108291   2.337962   2.879722   2.879702
    13  O    5.536148   4.206597   2.330671   3.497688   3.497683
    14  O    1.221640   2.210650   3.965373   3.505680   2.745507
    15  O    1.221640   2.210651   3.965367   2.745496   3.505651
                    6          7          8          9         10
     6  H    0.000000
     7  H    2.891333   0.000000
     8  H    2.891306   3.519549   0.000000
     9  H    2.492647   1.670933   3.720160   0.000000
    10  H    2.492623   3.720163   1.670928   3.138923   0.000000
    11  N    1.990993   2.600481   2.600455   3.348817   3.348799
    12  O    3.088465   2.662832   2.662800   3.849640   3.849619
    13  O    2.281766   3.547407   3.547400   4.133086   4.133081
    14  O    4.592788   4.211790   3.166349   3.678640   2.579374
    15  O    4.592776   3.166348   4.211764   2.579363   3.678610
                   11         12         13         14         15
    11  N    0.000000
    12  O    1.217455   0.000000
    13  O    1.214583   2.158982   0.000000
    14  O    5.096406   5.119198   6.164122   0.000000
    15  O    5.096399   5.119197   6.164108   2.191560   0.000000
 Stoichiometry    C3H5N3O4
 Framework group  C1[X(C3H5N3O4)]
 Deg. of freedom    39
 Full point group                 C1      NOp   1
 RotChk:  IX=0 Diff= 1.24D-03
 Largest Abelian subgroup         C1      NOp   1
 Largest concise Abelian subgroup C1      NOp   1
                         Standard orientation:                         
 ---------------------------------------------------------------------
 Center     Atomic      Atomic             Coordinates (Angstroms)
 Number     Number       Type             X           Y           Z
 ---------------------------------------------------------------------
      1          7           0        2.210122   -0.000004    0.110529
      2          7           0        0.841629   -0.000013    0.288994
      3          6           0       -0.979227    0.000001   -0.739170
      4          6           0        0.026137    1.084160   -0.305226
      5          6           0        0.026138   -1.084119   -0.305264
      6          1           0       -1.358969    0.000022   -1.683128
      7          1           0       -0.332694    1.759782    0.368654
      8          1           0       -0.332694   -1.759767    0.368590
      9          1           0        0.480716    1.569492   -1.078471
     10          1           0        0.480715   -1.569431   -1.078523
     11          7           0       -2.229389   -0.000007    0.107520
     12          8           0       -2.091687   -0.000035    1.317162
     13          8           0       -3.294928    0.000015   -0.475437
     14          8           0        2.747569   -1.095782    0.057348
     15          8           0        2.747559    1.095779    0.057370
 ---------------------------------------------------------------------
 Rotational constants (GHZ):      4.0430298      0.7279165      0.6971366
 Leave Link  202 at Fri Aug 27 10:01:40 2021, MaxMem= 24159191040 cpu:         0.2
 (Enter /public/home/users/caep010/software/Gaussian09/g09/l301.exe)
 Standard basis: GTBas3 (6D, 7F)
 Ernie: Thresh=  0.10000D-02 Tol=  0.10000D-05 Strict=F.
 There are   335 symmetry adapted cartesian basis functions of A   symmetry.
 There are   305 symmetry adapted basis functions of A   symmetry.
   305 basis functions,   475 primitive gaussians,   335 cartesian basis functions
    38 alpha electrons       38 beta electrons
       nuclear repulsion energy       560.6997940997 Hartrees.
 IExCor=  402 DFT=T Ex+Corr=B3LYP ExCW=0 ScaHFX=  0.200000
 ScaDFX=  0.800000  0.720000  1.000000  0.810000 ScalE2=  1.000000  1.000000
 IRadAn=      0 IRanWt=     -1 IRanGd=            0 ICorTp=0 IEmpDi=  4
 NAtoms=   15 NActive=   15 NUniq=   15 SFac= 1.00D+00 NAtFMM=   60 NAOKFM=F Big=F
 Integral buffers will be    131072 words long.
 Raffenetti 2 integral format.
 Two-electron integral symmetry is turned on.
 Leave Link  301 at Fri Aug 27 10:01:40 2021, MaxMem= 24159191040 cpu:         1.6
 (Enter /public/home/users/caep010/software/Gaussian09/g09/l302.exe)
 NPDir=0 NMtPBC=     1 NCelOv=     1 NCel=       1 NClECP=     1 NCelD=      1
         NCelK=      1 NCelE2=     1 NClLst=     1 CellRange=     0.0.
 One-electron integrals computed using PRISM.
 NBasis=   305 RedAO= T EigKep=  2.44D-04  NBF=   305
 NBsUse=   305 1.00D-06 EigRej= -1.00D+00 NBFU=   305
 Precomputing XC quadrature grid using
 IXCGrd= 4 IRadAn=           0 IRanWt=          -1 IRanGd=           0 AccXCQ= 0.00D+00.
 Generated NRdTot=       0 NPtTot=           0 NUsed=           0 NTot=          32
 NSgBfM=   334   334   334   334   335 MxSgAt=    15 MxSgA2=    15.
 Leave Link  302 at Fri Aug 27 10:01:40 2021, MaxMem= 24159191040 cpu:        16.1
 (Enter /public/home/users/caep010/software/Gaussian09/g09/l303.exe)
 DipDrv:  MaxL=1.
 Leave Link  303 at Fri Aug 27 10:01:41 2021, MaxMem= 24159191040 cpu:         4.2
 (Enter /public/home/users/caep010/software/Gaussian09/g09/l401.exe)
 Initial guess from the checkpoint file:  "/public/home/users/caep010/.cache/gau_scr/Gau-44369.chk"
 B after Tr=     0.000000    0.000000    0.000000
         Rot=    1.000000   -0.000000   -0.000045   -0.000000 Ang=  -0.01 deg.
 Guess basis will be translated and rotated to current coordinates.
 JPrj=2 DoOrth=T DoCkMO=T.
 Generating alternative initial guess.
 ExpMin= 1.61D-01 ExpMax= 5.48D+03 ExpMxC= 8.25D+02 IAcc=1 IRadAn=         1 AccDes= 0.00D+00
 Harris functional with IExCor=  402 and IRadAn=       1 diagonalized for initial guess.
 HarFok:  IExCor=  402 AccDes= 0.00D+00 IRadAn=         1 IDoV= 1 UseB2=F ITyADJ=14
 ICtDFT=  3500011 ScaDFX=  1.000000  1.000000  1.000000  1.000000
 FoFCou: FMM=F IPFlag=           0 FMFlag=      100000 FMFlg1=           0
         NFxFlg=           0 DoJE=T BraDBF=F KetDBF=T FulRan=T
         wScrn=  0.000000 ICntrl=     500 IOpCl=  0 I1Cent=   200000004 NGrid=           0
         NMat0=    1 NMatS0=      1 NMatT0=    0 NMatD0=    1 NMtDS0=    0 NMtDT0=    0
 Petite list used in FoFCou.
 Harris En= -582.305099066025    
 Leave Link  401 at Fri Aug 27 10:01:41 2021, MaxMem= 24159191040 cpu:        19.0
 (Enter /public/home/users/caep010/software/Gaussian09/g09/l502.exe)
 Closed shell SCF:
 Using DIIS extrapolation, IDIIS=  1040.
 Integral symmetry usage will be decided dynamically.
 Keep R1 ints in memory in canonical form, NReq=1108169170.
 IVT=      368365 IEndB=      368365 NGot= 24159191040 MDV= 23069988231
 LenX= 23069988231 LenY= 23069875565
 Requested convergence on RMS density matrix=1.00D-08 within 128 cycles.
 Requested convergence on MAX density matrix=1.00D-06.
 Requested convergence on             energy=1.00D-06.
 No special actions if energy rises.
 FoFCou: FMM=F IPFlag=           0 FMFlag=           0 FMFlg1=           0
         NFxFlg=           0 DoJE=F BraDBF=F KetDBF=F FulRan=T
         wScrn=  0.000000 ICntrl=     600 IOpCl=  0 I1Cent=           0 NGrid=           0
         NMat0=    1 NMatS0=  46665 NMatT0=    0 NMatD0=    1 NMtDS0=    0 NMtDT0=    0
 Symmetry not used in FoFCou.
 Integral accuracy reduced to 1.0D-05 until final iterations.

 Cycle   1  Pass 0  IDiag  1:
 E= -582.248840891502    
 DIIS: error= 5.28D-03 at cycle   1 NSaved=   1.
 NSaved= 1 IEnMin= 1 EnMin= -582.248840891502     IErMin= 1 ErrMin= 5.28D-03
 ErrMax= 5.28D-03  0.00D+00 EMaxC= 1.00D-01 BMatC= 5.11D-03 BMatP= 5.11D-03
 IDIUse=3 WtCom= 9.47D-01 WtEn= 5.28D-02
 Coeff-Com:  0.100D+01
 Coeff-En:   0.100D+01
 Coeff:      0.100D+01
 Gap=     1.141 Goal=   None    Shift=    0.000
 GapD=    1.141 DampG=2.000 DampE=1.000 DampFc=2.0000 IDamp=-1.
 RMSDP=3.63D-04 MaxDP=1.41D-02              OVMax= 1.81D-02

 Cycle   2  Pass 0  IDiag  1:
 E= -582.252827630361     Delta-E=       -0.003986738860 Rises=F Damp=F
 DIIS: error= 2.46D-03 at cycle   2 NSaved=   2.
 NSaved= 2 IEnMin= 2 EnMin= -582.252827630361     IErMin= 2 ErrMin= 2.46D-03
 ErrMax= 2.46D-03  0.00D+00 EMaxC= 1.00D-01 BMatC= 9.16D-04 BMatP= 5.11D-03
 IDIUse=3 WtCom= 9.75D-01 WtEn= 2.46D-02
 Coeff-Com:  0.225D+00 0.775D+00
 Coeff-En:   0.000D+00 0.100D+01
 Coeff:      0.220D+00 0.780D+00
 Gap=     0.216 Goal=   None    Shift=    0.000
 RMSDP=1.73D-04 MaxDP=8.67D-03 DE=-3.99D-03 OVMax= 1.20D-02

 Cycle   3  Pass 0  IDiag  1:
 E= -582.253189555648     Delta-E=       -0.000361925287 Rises=F Damp=F
 DIIS: error= 1.56D-03 at cycle   3 NSaved=   3.
 NSaved= 3 IEnMin= 3 EnMin= -582.253189555648     IErMin= 3 ErrMin= 1.56D-03
 ErrMax= 1.56D-03  0.00D+00 EMaxC= 1.00D-01 BMatC= 6.23D-04 BMatP= 9.16D-04
 IDIUse=3 WtCom= 9.84D-01 WtEn= 1.56D-02
 Coeff-Com:  0.349D-01 0.448D+00 0.517D+00
 Coeff-En:   0.000D+00 0.384D+00 0.616D+00
 Coeff:      0.343D-01 0.447D+00 0.518D+00
 Gap=     0.216 Goal=   None    Shift=    0.000
 RMSDP=8.15D-05 MaxDP=3.80D-03 DE=-3.62D-04 OVMax= 5.63D-03

 Cycle   4  Pass 0  IDiag  1:
 E= -582.253725875997     Delta-E=       -0.000536320350 Rises=F Damp=F
 DIIS: error= 3.26D-04 at cycle   4 NSaved=   4.
 NSaved= 4 IEnMin= 4 EnMin= -582.253725875997     IErMin= 4 ErrMin= 3.26D-04
 ErrMax= 3.26D-04  0.00D+00 EMaxC= 1.00D-01 BMatC= 4.09D-05 BMatP= 6.23D-04
 IDIUse=3 WtCom= 9.97D-01 WtEn= 3.26D-03
 Coeff-Com:  0.671D-02 0.207D+00 0.282D+00 0.504D+00
 Coeff-En:   0.000D+00 0.000D+00 0.000D+00 0.100D+01
 Coeff:      0.669D-02 0.207D+00 0.281D+00 0.506D+00
 Gap=     0.216 Goal=   None    Shift=    0.000
 RMSDP=2.52D-05 MaxDP=2.36D-03 DE=-5.36D-04 OVMax= 3.75D-03

 Cycle   5  Pass 0  IDiag  1:
 E= -582.253741315235     Delta-E=       -0.000015439237 Rises=F Damp=F
 DIIS: error= 3.01D-04 at cycle   5 NSaved=   5.
 NSaved= 5 IEnMin= 5 EnMin= -582.253741315235     IErMin= 5 ErrMin= 3.01D-04
 ErrMax= 3.01D-04  0.00D+00 EMaxC= 1.00D-01 BMatC= 1.87D-05 BMatP= 4.09D-05
 IDIUse=3 WtCom= 9.97D-01 WtEn= 3.01D-03
 Coeff-Com: -0.128D-02 0.801D-01 0.123D+00 0.390D+00 0.408D+00
 Coeff-En:   0.000D+00 0.000D+00 0.000D+00 0.357D+00 0.643D+00
 Coeff:     -0.128D-02 0.799D-01 0.123D+00 0.390D+00 0.409D+00
 Gap=     0.216 Goal=   None    Shift=    0.000
 RMSDP=1.37D-05 MaxDP=1.11D-03 DE=-1.54D-05 OVMax= 2.34D-03

 Cycle   6  Pass 0  IDiag  1:
 E= -582.253754338879     Delta-E=       -0.000013023644 Rises=F Damp=F
 DIIS: error= 8.79D-05 at cycle   6 NSaved=   6.
 NSaved= 6 IEnMin= 6 EnMin= -582.253754338879     IErMin= 6 ErrMin= 8.79D-05
 ErrMax= 8.79D-05  0.00D+00 EMaxC= 1.00D-01 BMatC= 1.86D-06 BMatP= 1.87D-05
 IDIUse=1 WtCom= 1.00D+00 WtEn= 0.00D+00
 Coeff-Com: -0.171D-02 0.322D-01 0.541D-01 0.215D+00 0.289D+00 0.411D+00
 Coeff:     -0.171D-02 0.322D-01 0.541D-01 0.215D+00 0.289D+00 0.411D+00
 Gap=     0.216 Goal=   None    Shift=    0.000
 RMSDP=4.08D-06 MaxDP=3.73D-04 DE=-1.30D-05 OVMax= 5.87D-04

 Initial convergence to 1.0D-05 achieved.  Increase integral accuracy.
 Cycle   7  Pass 1  IDiag  1:
 E= -582.253780246994     Delta-E=       -0.000025908116 Rises=F Damp=F
 DIIS: error= 2.21D-05 at cycle   1 NSaved=   1.
 NSaved= 1 IEnMin= 1 EnMin= -582.253780246994     IErMin= 1 ErrMin= 2.21D-05
 ErrMax= 2.21D-05  0.00D+00 EMaxC= 1.00D-01 BMatC= 3.29D-07 BMatP= 3.29D-07
 IDIUse=1 WtCom= 1.00D+00 WtEn= 0.00D+00
 Coeff-Com:  0.100D+01
 Coeff:      0.100D+01
 Gap=     0.216 Goal=   None    Shift=    0.000
 RMSDP=4.08D-06 MaxDP=3.73D-04 DE=-2.59D-05 OVMax= 2.66D-04

 Cycle   8  Pass 1  IDiag  1:
 E= -582.253780098117     Delta-E=        0.000000148877 Rises=F Damp=F
 DIIS: error= 3.72D-05 at cycle   2 NSaved=   2.
 NSaved= 2 IEnMin= 1 EnMin= -582.253780246994     IErMin= 1 ErrMin= 2.21D-05
 ErrMax= 3.72D-05  0.00D+00 EMaxC= 1.00D-01 BMatC= 5.58D-07 BMatP= 3.29D-07
 IDIUse=1 WtCom= 1.00D+00 WtEn= 0.00D+00
 Coeff-Com:  0.584D+00 0.416D+00
 Coeff:      0.584D+00 0.416D+00
 Gap=     0.216 Goal=   None    Shift=    0.000
 RMSDP=2.49D-06 MaxDP=2.21D-04 DE= 1.49D-07 OVMax= 3.39D-04

 Cycle   9  Pass 1  IDiag  1:
 E= -582.253780416592     Delta-E=       -0.000000318475 Rises=F Damp=F
 DIIS: error= 2.42D-05 at cycle   3 NSaved=   3.
 NSaved= 3 IEnMin= 3 EnMin= -582.253780416592     IErMin= 1 ErrMin= 2.21D-05
 ErrMax= 2.42D-05  0.00D+00 EMaxC= 1.00D-01 BMatC= 1.19D-07 BMatP= 3.29D-07
 IDIUse=1 WtCom= 1.00D+00 WtEn= 0.00D+00
 Coeff-Com:  0.878D-01 0.304D+00 0.608D+00
 Coeff:      0.878D-01 0.304D+00 0.608D+00
 Gap=     0.216 Goal=   None    Shift=    0.000
 RMSDP=1.39D-06 MaxDP=1.15D-04 DE=-3.18D-07 OVMax= 2.36D-04

 Cycle  10  Pass 1  IDiag  1:
 E= -582.253780465397     Delta-E=       -0.000000048805 Rises=F Damp=F
 DIIS: error= 1.52D-05 at cycle   4 NSaved=   4.
 NSaved= 4 IEnMin= 4 EnMin= -582.253780465397     IErMin= 4 ErrMin= 1.52D-05
 ErrMax= 1.52D-05  0.00D+00 EMaxC= 1.00D-01 BMatC= 5.59D-08 BMatP= 1.19D-07
 IDIUse=1 WtCom= 1.00D+00 WtEn= 0.00D+00
 Coeff-Com: -0.115D-01 0.183D+00 0.485D+00 0.343D+00
 Coeff:     -0.115D-01 0.183D+00 0.485D+00 0.343D+00
 Gap=     0.216 Goal=   None    Shift=    0.000
 RMSDP=5.99D-07 MaxDP=5.56D-05 DE=-4.88D-08 OVMax= 9.65D-05

 Cycle  11  Pass 1  IDiag  1:
 E= -582.253780507372     Delta-E=       -0.000000041975 Rises=F Damp=F
 DIIS: error= 1.07D-06 at cycle   5 NSaved=   5.
 NSaved= 5 IEnMin= 5 EnMin= -582.253780507372     IErMin= 5 ErrMin= 1.07D-06
 ErrMax= 1.07D-06  0.00D+00 EMaxC= 1.00D-01 BMatC= 5.54D-10 BMatP= 5.59D-08
 IDIUse=1 WtCom= 1.00D+00 WtEn= 0.00D+00
 Coeff-Com: -0.102D-01 0.827D-01 0.229D+00 0.175D+00 0.524D+00
 Coeff:     -0.102D-01 0.827D-01 0.229D+00 0.175D+00 0.524D+00
 Gap=     0.216 Goal=   None    Shift=    0.000
 RMSDP=9.41D-08 MaxDP=4.67D-06 DE=-4.20D-08 OVMax= 4.73D-06

 Cycle  12  Pass 1  IDiag  1:
 E= -582.253780507742     Delta-E=       -0.000000000370 Rises=F Damp=F
 DIIS: error= 2.47D-07 at cycle   6 NSaved=   6.
 NSaved= 6 IEnMin= 6 EnMin= -582.253780507742     IErMin= 6 ErrMin= 2.47D-07
 ErrMax= 2.47D-07  0.00D+00 EMaxC= 1.00D-01 BMatC= 4.35D-11 BMatP= 5.54D-10
 IDIUse=1 WtCom= 1.00D+00 WtEn= 0.00D+00
 Coeff-Com: -0.429D-02 0.304D-01 0.861D-01 0.654D-01 0.279D+00 0.543D+00
 Coeff:     -0.429D-02 0.304D-01 0.861D-01 0.654D-01 0.279D+00 0.543D+00
 Gap=     0.216 Goal=   None    Shift=    0.000
 RMSDP=2.39D-08 MaxDP=1.03D-06 DE=-3.70D-10 OVMax= 2.35D-06

 Cycle  13  Pass 1  IDiag  1:
 E= -582.253780507787     Delta-E=       -0.000000000045 Rises=F Damp=F
 DIIS: error= 1.23D-07 at cycle   7 NSaved=   7.
 NSaved= 7 IEnMin= 7 EnMin= -582.253780507787     IErMin= 7 ErrMin= 1.23D-07
 ErrMax= 1.23D-07  0.00D+00 EMaxC= 1.00D-01 BMatC= 7.55D-12 BMatP= 4.35D-11
 IDIUse=1 WtCom= 1.00D+00 WtEn= 0.00D+00
 Coeff-Com: -0.128D-02 0.705D-02 0.215D-01 0.156D-01 0.955D-01 0.332D+00
 Coeff-Com:  0.529D+00
 Coeff:     -0.128D-02 0.705D-02 0.215D-01 0.156D-01 0.955D-01 0.332D+00
 Coeff:      0.529D+00
 Gap=     0.216 Goal=   None    Shift=    0.000
 RMSDP=8.74D-09 MaxDP=5.91D-07 DE=-4.52D-11 OVMax= 7.48D-07

 SCF Done:  E(RB3LYP) =  -582.253780508     A.U. after   13 cycles
            NFock= 13  Conv=0.87D-08     -V/T= 2.0052
 KE= 5.792432942144D+02 PE=-2.485859989047D+03 EE= 7.636631202250D+02
 Leave Link  502 at Fri Aug 27 10:02:12 2021, MaxMem= 24159191040 cpu:       202.4
 (Enter /public/home/users/caep010/software/Gaussian09/g09/l701.exe)
 Compute integral first derivatives.
 ... and contract with generalized density number  0.
[...]
    11  N   -0.000815  -0.000815   0.002135   0.002135   5.603200   0.325323
    12  O    0.002020   0.002020   0.000998   0.000998   0.325323   8.235465
    13  O   -0.000614  -0.000614  -0.000238  -0.000238   0.312168  -0.089242
    14  O   -0.000384  -0.000707   0.000367  -0.001663   0.000567   0.000099
    15  O   -0.000706  -0.000384  -0.001663   0.000367   0.000567   0.000099
              13         14         15
     1  N    0.000347   0.374798   0.374798
     2  N   -0.003731  -0.097507  -0.097507
     3  C   -0.042373   0.002672   0.002672
     4  C    0.004116   0.003584   0.004735
     5  C    0.004116   0.004736   0.003584
     6  H   -0.002966  -0.000176  -0.000176
     7  H   -0.000614  -0.000384  -0.000706
     8  H   -0.000614  -0.000707  -0.000384
     9  H   -0.000238   0.000367  -0.001663
    10  H   -0.000238  -0.001663   0.000367
    11  N    0.312168   0.000567   0.000567
    12  O   -0.089242   0.000099   0.000099
    13  O    8.221221  -0.000073  -0.000073
    14  O   -0.000073   8.239290  -0.094456
    15  O   -0.000073  -0.094456   8.239290
 Mulliken charges:
               1
     1  N    0.560350
     2  N    0.063894
     3  C   -0.025704
     4  C   -0.297056
     5  C   -0.297057
     6  H    0.251608
     7  H    0.224445
     8  H    0.224444
     9  H    0.227475
    10  H    0.227475
    11  N    0.520454
    12  O   -0.416225
    13  O   -0.401805
    14  O   -0.431149
    15  O   -0.431148
 Sum of Mulliken charges =  -0.00000
 Mulliken charges with hydrogens summed into heavy atoms:
               1
     1  N    0.560350
     2  N    0.063894
     3  C    0.225904
     4  C    0.154863
     5  C    0.154862
    11  N    0.520454
    12  O   -0.416225
    13  O   -0.401805
    14  O   -0.431149
    15  O   -0.431148
 Electronic spatial extent (au):  <R**2>=           1578.4581
 Charge=             -0.0000 electrons
 Dipole moment (field-independent basis, Debye):
    X=             -0.9975    Y=             -0.0000    Z=             -2.7924  Tot=              2.9652
 Quadrupole moment (field-independent basis, Debye-Ang):
   XX=            -83.6483   YY=            -54.3863   ZZ=            -56.5622
   XY=             -0.0000   XZ=              1.7140   YZ=             -0.0001
 Traceless Quadrupole moment (field-independent basis, Debye-Ang):
   XX=            -18.7827   YY=             10.4793   ZZ=              8.3034
   XY=             -0.0000   XZ=              1.7140   YZ=             -0.0001
 Octapole moment (field-independent basis, Debye-Ang**2):
  XXX=              4.1982  YYY=              0.0001  ZZZ=             -5.4322  XYY=            -12.3775
  XXY=              0.0003  XXZ=              0.7563  XZZ=              8.1478  YZZ=             -0.0002
  YYZ=              0.5598  XYZ=              0.0007
 Hexadecapole moment (field-independent basis, Debye-Ang**3):
 XXXX=          -1758.3591 YYYY=           -235.7151 ZZZZ=           -156.9432 XXXY=             -0.0012
 XXXZ=             -4.5776 YYYX=             -0.0002 YYYZ=              0.0002 ZZZX=              7.5551
 ZZZY=             -0.0002 XXYY=           -304.6952 XXZZ=           -280.0262 YYZZ=            -63.1980
 XXYZ=             -0.0004 YYXZ=             -4.2935 ZZXY=              0.0004
 N-N= 5.571622073485D+02 E-N=-2.476230151775D+03  KE= 5.783365709506D+02
 No NMR shielding tensors so no spin-rotation constants.
 Leave Link  601 at Fri Aug 27 11:55:45 2021, MaxMem= 24159191040 cpu:        39.0
 (Enter /public/home/users/caep010/software/Gaussian09/g09/l9999.exe)
 1\1\GINC-B1566\SP\RHF\GFHFB2\C3H5N3O4\ROOT\27-Aug-2021\0\\#P Geom=AllC
 heck Guess=TCheck SCRF=Check HF/GFHFB2 SCF=Tight\\ZEVQUM\\0,1\N,0,5.89
 73530427,1.7036192716,4.8209638843\N,0,5.4818158659,1.7036188626,3.501
 8183851\C,0,6.2104625973,1.7036226693,1.5224256622\C,0,5.9088771343,2.
 7846450148,2.5948874886\C,0,5.9088844051,0.6225965896,2.594886517\H,0,
 7.199280307,1.7036250633,1.0754268046\H,0,5.1141086229,3.4900178185,2.
 3507254024\H,0,5.114121428,-0.0827824736,2.3507243993\H,0,6.7949992107
 ,3.3144574751,2.9520151878\H,0,6.7950106301,0.092790321,2.9520130566\N
 ,0,5.2310469916,1.7036184585,0.3835135119\O,0,4.0446276931,1.703639221
 6,0.6741355174\O,0,5.6970098755,1.7035930177,-0.7435298811\O,0,6.04295
 49755,0.6070035776,5.339096132\O,0,6.0429472203,2.8002351123,5.3390979
 318\\Version=ES64L-G09RevE.01\State=1-A\HF=-579.2734646\RMSD=9.201e-09
 \Dipole=1.0273405,0.0000066,-0.5527827\Quadrupole=5.3426034,7.791083,-
 13.1336864,0.0000551,-4.2028373,-0.0000745\PG=C01 [X(C3H5N3O4)]\\@


 YOU KNOW YOU'VE SPOKEN TOO LONG WHEN THE AUDIENCE STOPS LOOKING AT
 THEIR WATCHES AND STARTS SHAKING THEM.
 Diagonal vibrational polarizability:
        0.0000000       0.0000000       0.0000000

 Temperature=              298.150000 Pressure=                      1.000000
 E(ZPE)=                     0.103641 E(Thermal)=                    0.112335
 E(CCSD(T))=              -580.713369 E(Empiric)=                   -0.194516
 DE(Plus)=                  -0.044906 DE(2DF)=                      -0.413898
 E(Delta-G3XP)=             -0.686637 DE(HF)=                       -0.058751
 G4(0 K)=                 -582.008436 G4 Energy=                  -581.999742
 G4 Enthalpy=             -581.998798 G4 Free Energy=             -582.043851
 1\1\GINC-B1566\Mixed\G4\G4\C3H5N3O4\ROOT\27-Aug-2021\0\\#P Geom=AllChe
 ck Guess=TCheck SCRF=Check HF/GFHFB2 SCF=Tight\\ZEVQUM\\0,1\N,0,5.8973
 530427,1.7036192716,4.8209638843\N,0,5.4818158659,1.7036188626,3.50181
 83851\C,0,6.2104625973,1.7036226693,1.5224256622\C,0,5.9088771343,2.78
 46450148,2.5948874886\C,0,5.9088844051,0.6225965896,2.594886517\H,0,7.
 199280307,1.7036250633,1.0754268046\H,0,5.1141086229,3.4900178185,2.35
 07254024\H,0,5.114121428,-0.0827824736,2.3507243993\H,0,6.7949992107,3
 .3144574751,2.9520151878\H,0,6.7950106301,0.092790321,2.9520130566\N,0
 ,5.2310469916,1.7036184585,0.3835135119\O,0,4.0446276931,1.7036392216,
 0.6741355174\O,0,5.6970098755,1.7035930177,-0.7435298811\O,0,6.0429549
 755,0.6070035776,5.339096132\O,0,6.0429472203,2.8002351123,5.339097931
 8\\Version=ES64L-G09RevE.01\State=1-A\MP2/GTBas1=-580.6344898\MP4/GTBa
 s1=-580.7330835\CCSD(T)/G3Bas1=-580.7133691\MP2/GTBas2=-580.6754544\MP
 4/GTBas2=-580.7779896\MP2/GTBas3=-581.0228966\MP4/GTBas3=-581.1469812\
 HF/GTLargeXP=-579.2170377\MP2/GTLargeXP=-581.750498\HF/GFHFB1=-579.263
 9255\HF/GFHFB2=-579.2734646\G4=-582.0084359\FreqCoord=11.1443821596,3.
 219373858,9.1103014379,10.3591306975,3.2193730851,6.617477715,11.73607
 34675,3.2193802788,2.8769675593,11.1661595367,5.2622164553,4.903626699
 ,11.1661732765,1.1765370455,4.9036248631,13.6046681341,3.2193848028,2.
 0322621367,9.6642647111,6.5951778759,4.4422272241,9.6642889093,-0.1564
 362037,4.4422253285,12.8406875813,6.2634169069,5.578500245,12.84070916
 09,0.1753482944,5.5784962178,9.8852462023,3.2193723216,0.7247355057,7.
 6432386495,3.2194115581,1.2739315044,10.7657884411,3.2193242454,-1.405
 0678468,11.419529937,1.1470705234,10.0894294867,11.4195152818,5.291677
 47,10.0894328877\PG=C01 [X(C3H5N3O4)]\NImag=0\\0.27457803,-0.00000267,
 1.02561932,0.07265067,0.00000069,0.62883882,-0.06097450,0.00000022,0.0
 0546479,0.15177732,0.00000025,-0.13419505,0.00000006,-0.00000135,0.547
 13326,-0.04442110,-0.00000010,-0.15039476,-0.01250109,-0.00000002,0.55
 921925,-0.00520752,-0.00000002,0.00048100,0.00237966,0.,0.03367321,0.5
 9981451,-0.00000006,-0.00132003,-0.00000002,0.00000002,-0.01082426,0.0
 0000026,-0.00000014,0.34456239,0.01016119,0.00000008,-0.00699174,0.025
 32107,0.00000010,-0.08535758,-0.12882344,0.00000081,0.51113449,-0.0070
 1772,0.01878274,-0.00581191,-0.06743700,-0.06527251,0.02504774,-0.0894
 0770,0.02487212,0.00679940,0.58429801,0.00820462,0.00399866,0.01203843
 ,-0.02601726,-0.14924230,0.04956992,0.01932125,-0.09743224,-0.04549495
 ,-0.01631591,0.58344235,0.01149202,0.02420412,-0.03157354,0.00086288,0
 .06798544,-0.10040910,0.00932676,-0.06054211,-0.09161539,0.09524341,-0
 .00046920,0.39295322,-0.00701755,-0.01878278,-0.00581187,-0.06743780,0
 .06527308,0.02504819,-0.08940687,-0.02487176,0.00679878,0.00847623,-0.
 00727163,0.00710495,0.58429783,-0.00820466,0.00399851,-0.01203846,0.02
 601772,-0.14924159,-0.04956996,-0.01932112,-0.09743223,0.04549488,0.00
 727214,-0.07856992,-0.00314945,0.01631576,0.58344222,0.01149218,-0.024
 20407,-0.03157364,0.00086347,-0.06798549,-0.10040941,0.00932646,0.0605
 4197,-0.09161483,0.00710490,0.00314942,0.00346688,0.09524330,0.0004707
 7,0.39295277,0.00005349,0.,-0.00015705,0.00005207,0.,-0.00021105,-0.28
 549316,-0.00000069,0.10362356,0.00092311,-0.00126505,-0.00019339,0.000
 92318,0.00126503,-0.00019342,0.30699940,0.,0.00085347,0.,0.,-0.0011665
 2,0.00000002,-0.00000056,-0.05065490,0.00000009,0.02221298,0.00121058,
 -0.00435410,-0.02221307,0.00121042,0.00435422,0.00000061,0.04716218,0.
 00211442,0.,0.00082970,-0.00102906,0.,-0.00374035,0.11967743,0.0000001
 9,-0.09665599,0.01269258,-0.00013092,-0.00407270,0.01269260,0.00013100
 ,-0.00407276,-0.11048489,-0.00000027,0.10680811,0.00075062,-0.00194639
 ,-0.00005534,0.01341634,-0.00851919,0.00333706,-0.00429215,0.00049452,
 -0.00109357,-0.20408632,0.13361243,-0.04486797,-0.00040506,-0.00125145
 ,0.00035716,0.00027456,0.00085588,0.00039370,0.21085098,0.00072012,-0.
 00299278,-0.00343370,0.00910149,-0.01597141,0.00995119,0.01130939,-0.0
 0885215,0.00087759,0.12745022,-0.15321331,0.03581704,-0.00088946,-0.00
 225832,0.00171858,-0.00024962,-0.00169651,-0.00049339,-0.13791759,0.17
 190180,-0.00206879,0.00496698,0.00217012,-0.01294715,0.01494140,-0.006
 69028,0.01843398,-0.01345498,0.00443988,-0.04203079,0.03345496,-0.0615
 6611,-0.00115540,-0.00008486,-0.00239596,0.00003566,-0.00258135,-0.001
 57380,0.04649507,-0.04420660,0.06483612,0.00075061,0.00194641,-0.00005
 534,0.01341636,0.00851935,0.00333710,-0.00429209,-0.00049439,-0.001093
 63,-0.00040504,0.00125149,0.00035716,-0.20408440,-0.13361264,-0.044867
 81,0.00027457,-0.00085585,0.00039371,0.00004044,0.00025375,-0.00010179
 ,0.21084882,-0.00072009,-0.00299278,0.00343370,-0.00910124,-0.01597137
 ,-0.00995114,-0.01130930,-0.00885233,-0.00087751,0.00088946,-0.0022583
 2,-0.00171857,-0.12745045,-0.15321503,-0.03581760,0.00024963,-0.001696
 51,0.00049339,-0.00025375,-0.00057831,-0.00008298,0.13791777,0.1719038
 1,-0.00206875,-0.00496700,0.00217014,-0.01294703,-0.01494149,-0.006690
 31,0.01843382,0.01345522,0.00443979,-0.00115538,0.00008488,-0.00239597
 ,-0.04203076,-0.03345545,-0.06156611,0.00003567,0.00258134,-0.00157379
 ,-0.00010180,0.00008298,0.00060026,0.04649486,0.04420699,0.06483611,0.
 00089203,-0.00269677,-0.00532084,-0.00545854,-0.00759281,0.00395301,0.
 00938282,0.00528699,0.00394069,-0.22971934,-0.10152891,-0.07462275,-0.
 00179050,0.00080099,0.00034672,0.00095427,-0.00079550,-0.00018309,-0.0
 1651463,-0.01163990,-0.00852371,0.00012098,-0.00032078,-0.00028245,0.2
 4239609,-0.00133388,-0.00108194,-0.00562310,-0.01916954,-0.01739377,-0
 .00007362,-0.01160642,-0.00744102,-0.00656329,-0.10038503,-0.10652528,
 -0.03846359,-0.00007613,-0.00050133,0.00142503,0.00000476,0.00173730,-
 0.00004023,0.01609886,0.01162003,0.00631266,0.00016714,-0.00064544,-0.
 00032163,0.11381805,0.11962233,0.00371618,0.00202085,0.00732163,0.0196
 2062,0.01568423,0.00199996,-0.02005935,-0.00824940,-0.00640449,-0.0775
 7763,-0.04215254,-0.07861482,0.00150613,-0.00112935,-0.00239524,-0.000
 01851,0.00126080,0.00092992,-0.00441012,-0.00396039,0.00000942,-0.0002
 4250,0.00016562,0.00059463,0.07920965,0.04154909,0.07948720,0.00089201
 ,0.00269679,-0.00532087,-0.00545868,0.00759290,0.00395303,0.00938272,-
 0.00528688,0.00394064,-0.00179050,-0.00080100,0.00034674,-0.22972104,0
 .10152818,-0.07462285,0.00095428,0.00079549,-0.00018307,0.00012098,0.0
 0032079,-0.00028245,-0.01651465,0.01163968,-0.00852366,0.00011008,-0.0
 0011595,-0.00007302,0.24239795,0.00133387,-0.00108191,0.00562305,0.019
 16965,-0.01739354,0.00007361,0.01160652,-0.00744101,0.00656331,0.00007
 608,-0.00050131,-0.00142504,0.10038429,-0.10652395,0.03846287,-0.00000
 475,0.00173732,0.00004025,-0.00016712,-0.00064543,0.00032163,-0.016099
 12,0.01161998,-0.00631274,0.00011595,-0.00054309,-0.00002153,-0.113817
 28,0.11962082,0.00371618,-0.00202084,0.00732165,0.01962075,-0.01568411
 ,0.00199993,-0.02005936,0.00824937,-0.00640461,0.00150612,0.00112937,-
 0.00239524,-0.07757776,0.04215176,-0.07861457,-0.00001851,-0.00126081,
 0.00092992,-0.00024250,-0.00016563,0.00059462,-0.00441018,0.00396036,0
 .00000943,-0.00007302,0.00002153,0.00025507,0.07920972,-0.04154834,0.0
 7948700,-0.00252104,-0.00000003,0.00140373,-0.00261619,0.00000004,0.00
 295856,-0.10276003,-0.00000045,-0.00944440,0.00815769,-0.00841061,-0.0
 0569232,0.00815741,0.00841053,-0.00569274,-0.02637335,0.00000003,-0.02
 716440,-0.00042469,0.00439720,0.00334280,-0.00042450,-0.00439709,0.003
 34275,-0.00218030,0.00230129,0.00061030,-0.00218021,-0.00230122,0.0006
 1035,0.85284156,-0.00000002,-0.00144883,-0.00000006,0.00000005,-0.0017
 3150,0.00000004,-0.00000050,-0.09994971,0.00000024,-0.02570585,0.00127
 717,-0.01874418,0.02570603,0.00127738,0.01874431,0.00000005,-0.0008851
 0,-0.00000016,-0.00008770,0.00149810,0.00087496,0.00008774,0.00149821,
 -0.00087502,0.00279291,-0.00219394,-0.00415118,-0.00279286,-0.00219396
 ,0.00415128,-0.00001090,0.25439878,-0.00059395,0.,-0.00704243,0.001550
 91,-0.00000004,-0.00044431,-0.02708634,0.00000022,-0.08864582,-0.00949
 999,-0.00396936,-0.02442321,-0.00950023,0.00396937,-0.02442340,0.01355
 089,0.00000014,0.00742961,-0.00089487,0.00023891,0.00201102,-0.0008949
 1,-0.00023903,0.00201119,0.00047071,0.00073643,0.00026978,0.00047070,-
 0.00073642,0.00026977,-0.16483903,0.00001132,0.80407249,0.00043283,0.0
 0000002,-0.00061242,0.00071710,-0.00000002,0.00007425,-0.05595683,0.00
 000092,-0.00233745,-0.00307202,0.00210286,0.00382835,-0.00307206,-0.00
 210285,0.00382840,-0.00385741,0.00000002,-0.00703621,0.00052726,-0.002
 01718,-0.00164470,0.00052725,0.00201706,-0.00164459,0.00128242,-0.0006
 2300,-0.00005061,0.00128246,0.00062302,-0.00005065,-0.55346404,0.00000
 750,0.06851599,0.65997935,0.00000001,0.00005256,0.00000003,0.00000001,
 0.00027917,-0.00000002,0.00000068,0.01809554,-0.00000021,0.00149258,-0
 .00139839,0.00134216,-0.00149281,-0.00139824,-0.00134239,0.,0.00201067
 ,0.00000008,-0.00049641,0.00092053,0.00038622,0.00049628,0.00092036,-0
 .00038614,-0.00094377,0.00078952,0.00011813,0.00094371,0.00078948,-0.0
 0011818,0.00000755,-0.07888685,-0.00000202,-0.00001045,0.03078696,0.00
 012300,0.,0.00317826,-0.00171471,-0.00000001,-0.00142230,-0.02119380,0
 .00000011,0.01425686,-0.00134712,-0.00086805,-0.00018074,-0.00134692,0
 .00086789,-0.00018068,-0.00572052,0.,-0.00407726,-0.00067157,0.0010935
 2,0.00006389,-0.00067144,-0.00109345,0.00006393,-0.00051127,0.00054397
 ,-0.00068076,-0.00051122,-0.00054393,-0.00068072,0.06811872,-0.0000020
 8,-0.14368874,-0.13057370,0.00000408,0.15591143,0.00085745,0.,-0.00030
 101,0.00060348,-0.00000002,-0.00144025,0.01244313,-0.00000024,-0.01437
 290,-0.00119119,0.00153126,-0.00152733,-0.00119116,-0.00153119,-0.0015
 2724,0.00458632,-0.00000002,-0.00092154,0.00002019,-0.00086739,-0.0004
 0379,0.00002017,0.00086733,-0.00040374,0.00044015,-0.00031263,0.000012
 24,0.00044012,0.00031262,0.00001224,-0.17745880,0.00000356,0.12807219,
 -0.04519063,0.00000262,0.09609674,0.20601414,0.00000004,0.00022741,0.0
 0000005,-0.00000002,0.00040352,-0.00000008,0.00000021,0.02698793,-0.00
 000108,0.00309457,-0.00131972,0.00075685,-0.00309466,-0.00131991,-0.00
 075700,0.00000003,-0.00035685,0.00000005,-0.00021557,-0.00043303,-0.00
 019209,0.00021558,-0.00043307,0.00019208,-0.00041066,0.00023506,0.0006
 0703,0.00041065,0.00023505,-0.00060708,0.00000358,-0.07529045,-0.00000
 950,0.00000214,0.02676042,-0.00000206,-0.00000589,0.02495961,0.0018199
 9,-0.00000001,0.00310363,-0.00054729,0.,-0.00289730,0.00964469,-0.0000
 0167,-0.05934507,-0.00383930,0.00299650,-0.00029509,-0.00383894,-0.002
 99655,-0.00029487,-0.00000204,-0.00000008,-0.00041131,0.00032827,0.000
 34090,-0.00007534,0.00032830,-0.00034078,-0.00007543,0.00041646,-0.000
 24112,-0.00130465,0.00041644,0.00024112,-0.00130459,0.13045480,-0.0000
 0951,-0.53191173,0.06839467,-0.00000173,-0.02060717,-0.20272070,0.0000
 1287,0.61817072,-0.09823459,0.04293961,-0.02827727,0.01351004,0.023222
 87,-0.02140449,0.00170676,0.00014959,-0.00170997,0.00306800,-0.0035331
 0,-0.00089934,-0.00079620,0.00088047,-0.00075916,-0.00013567,-0.000094
 45,-0.00048108,-0.00035606,-0.00011654,0.00038126,0.00007755,-0.000144
 74,0.00046981,-0.00013680,0.00029458,-0.00108532,0.00022128,-0.0009379
 2,-0.00115808,0.00062323,-0.00048380,0.00033898,-0.00006784,-0.0000060
 0,-0.00003810,-0.00019669,0.00011064,-0.00042769,0.05023755,0.03820628
 ,-0.44481818,0.15306166,0.02220775,-0.01734224,0.04741358,-0.00158950,
 0.00027699,0.00055143,0.00044187,0.00328170,-0.00379645,-0.00109454,-0
 .00274970,-0.00255709,0.00020162,0.00026722,0.00058767,-0.00026862,-0.
 00011888,0.00035621,-0.00006211,0.00081968,0.00101219,0.00033382,0.000
 07567,0.00084392,-0.00278039,0.00224587,0.00258525,-0.00025254,0.00131
 534,-0.00140749,0.00002221,0.00013914,0.00059337,0.00010432,-0.0003279
 7,0.00074123,-0.05887616,0.56020208,-0.03406714,0.16095722,-0.21367863
 ,-0.01580929,0.06305727,-0.05238163,-0.00088753,0.00145420,-0.00061774
 ,-0.00722695,-0.00290776,-0.00162869,0.00009490,0.00643069,0.00275051,
 -0.00012319,-0.00042804,-0.00037464,0.00108868,0.00135380,-0.00234507,
 0.00033780,-0.00078519,-0.00007877,0.00068249,0.00034224,-0.00050857,0
 .00049738,-0.00039561,-0.00095908,0.00099542,0.00017196,0.00225789,-0.
 00034566,-0.00021845,-0.00097801,-0.00028746,0.00002139,-0.00137590,0.
 05190455,-0.21451950,0.22888139,-0.09823416,-0.04293713,-0.02827627,0.
 01351035,-0.02322260,-0.02140418,0.00170675,-0.00014956,-0.00170998,-0
 .00079620,-0.00088045,-0.00075918,0.00306798,0.00353309,-0.00089937,-0
 .00013567,0.00009445,-0.00048107,0.00007754,0.00014474,0.00046981,-0.0
 0035607,0.00011654,0.00038126,0.00022126,0.00093790,-0.00115806,-0.000
 13679,-0.00029458,-0.00108532,0.00062324,0.00048380,0.00033896,-0.0000
 6784,0.00000600,-0.00003809,-0.00019669,-0.00011065,-0.00042767,0.0304
 7944,0.00340600,0.00314602,0.05023685,-0.03820380,-0.44481842,-0.15306
 233,-0.02220750,-0.01734240,-0.04741367,0.00158951,0.00027702,-0.00055
 150,0.00109453,-0.00274968,0.00255708,-0.00044186,0.00328170,0.0037964
 6,-0.00020162,0.00026722,-0.00058767,0.00006211,0.00081968,-0.00101218
 ,0.00026861,-0.00011887,-0.00035621,0.00278038,0.00224590,-0.00258525,
 -0.00033382,0.00007567,-0.00084393,0.00025262,0.00131537,0.00140747,-0
 .00002225,0.00013914,-0.00059335,-0.00010433,-0.00032800,-0.00074117,-
 0.00340505,-0.10326673,-0.01453424,0.05887247,0.56020240,-0.03406608,-
 0.16095791,-0.21367921,-0.01580888,-0.06305735,-0.05238180,-0.00088752
 ,-0.00145416,-0.00061775,0.00009493,-0.00643070,0.00275051,-0.00722697
 ,0.00290771,-0.00162868,-0.00012319,0.00042803,-0.00037464,0.00033779,
 0.00078519,-0.00007877,0.00108868,-0.00135379,-0.00234508,0.00049739,0
 .00039563,-0.00095909,0.00068249,-0.00034224,-0.00050857,0.00099546,-0
 .00017192,0.00225788,-0.00034567,0.00021843,-0.00097799,-0.00028747,-0
 .00002143,-0.00137589,0.00314591,0.01453403,0.04103695,0.05190314,0.21
 452048,0.22888214\\-0.00000459,-0.00000001,0.00000030,0.00000064,0.,-0
 .00000216,-0.00003754,-0.00000013,0.00001329,-0.00000743,0.00000491,-0
 .00000503,-0.00000743,-0.00000491,-0.00000499,0.00003555,0.00000001,-0
 .00001180,0.00000985,-0.00000846,0.00000316,0.00000989,0.00000849,0.00
 000317,-0.00000332,-0.00000288,0.00000226,-0.00000328,0.00000290,0.000
 00223,0.00000960,-0.00000008,-0.00000272,0.00000638,0.00000011,-0.0000
 0331,0.00000173,0.00000003,0.00000650,-0.00000503,-0.00000012,-0.00000
 045,-0.00000503,0.00000013,-0.00000044\\\@
 Job cpu time:       0 days 10 hours 13 minutes 45.9 seconds.
 File lengths (MBytes):  RWF=  41275 Int=      0 D2E=      0 Chk=     72 Scr=      1
 Normal termination of Gaussian 09 at Fri Aug 27 11:55:46 2021.
