 Entering Gaussian System, Link 0=g09
 Input=G4.ZUGPOG.gjf
 Output=G4.ZUGPOG.log
 Initial command:
 /public/home/users/caep010/software/Gaussian09/g09/l1.exe "/public/home/users/caep010/.cache/gau_scr/Gau-127357.inp" -scrdir="/public/home/users/caep010/.cache/gau_scr/"
 Entering Link 1 = /public/home/users/caep010/software/Gaussian09/g09/l1.exe PID=    127358.
  
 Copyright (c) 1988,1990,1992,1993,1995,1998,2003,2009,2015,
            Gaussian, Inc.  All Rights Reserved.
  
 This is part of the Gaussian(R) 09 program.  It is based on
 the Gaussian(R) 03 system (copyright 2003, Gaussian, Inc.),
 the Gaussian(R) 98 system (copyright 1998, Gaussian, Inc.),
 the Gaussian(R) 94 system (copyright 1995, Gaussian, Inc.),
 the Gaussian 92(TM) system (copyright 1992, Gaussian, Inc.),
 the Gaussian 90(TM) system (copyright 1990, Gaussian, Inc.),
 the Gaussian 88(TM) system (copyright 1988, Gaussian, Inc.),
 the Gaussian 86(TM) system (copyright 1986, Carnegie Mellon
 University), and the Gaussian 82(TM) system (copyright 1983,
 Carnegie Mellon University). Gaussian is a federally registered
 trademark of Gaussian, Inc.
  
 This software contains proprietary and confidential information,
 including trade secrets, belonging to Gaussian, Inc.
  
 This software is provided under written license and may be
 used, copied, transmitted, or stored only in accord with that
 written license.
  
 The following legend is applicable only to US Government
 contracts under FAR:
  
                    RESTRICTED RIGHTS LEGEND
  
 Use, reproduction and disclosure by the US Government is
 subject to restrictions as set forth in subparagraphs (a)
 and (c) of the Commercial Computer Software - Restricted
 Rights clause in FAR 52.227-19.
  
 Gaussian, Inc.
 340 Quinnipiac St., Bldg. 40, Wallingford CT 06492
  
  
 ---------------------------------------------------------------
 Warning -- This program may not be used in any manner that
 competes with the business of Gaussian, Inc. or will provide
 assistance to any competitor of Gaussian, Inc.  The licensee
 of this program is prohibited from giving any competitor of
 Gaussian, Inc. access to this program.  By using this program,
 the user acknowledges that Gaussian, Inc. is engaged in the
 business of creating and licensing software in the field of
 computational chemistry and represents and warrants to the
 licensee that it is not a competitor of Gaussian, Inc. and that
 it will not use this program in any manner prohibited above.
 ---------------------------------------------------------------
  

 Cite this work as:
 Gaussian 09, Revision E.01,
 M. J. Frisch, G. W. Trucks, H. B. Schlegel, G. E. Scuseria, 
 M. A. Robb, J. R. Cheeseman, G. Scalmani, V. Barone, B. Mennucci, 
 G. A. Petersson, H. Nakatsuji, M. Caricato, X. Li, H. P. Hratchian, 
 A. F. Izmaylov, J. Bloino, G. Zheng, J. L. Sonnenberg, M. Hada, 
 M. Ehara, K. Toyota, R. Fukuda, J. Hasegawa, M. Ishida, T. Nakajima, 
 Y. Honda, O. Kitao, H. Nakai, T. Vreven, J. A. Montgomery, Jr., 
 J. E. Peralta, F. Ogliaro, M. Bearpark, J. J. Heyd, E. Brothers, 
 K. N. Kudin, V. N. Staroverov, T. Keith, R. Kobayashi, J. Normand, 
 K. Raghavachari, A. Rendell, J. C. Burant, S. S. Iyengar, J. Tomasi, 
 M. Cossi, N. Rega, J. M. Millam, M. Klene, J. E. Knox, J. B. Cross, 
 V. Bakken, C. Adamo, J. Jaramillo, R. Gomperts, R. E. Stratmann, 
 O. Yazyev, A. J. Austin, R. Cammi, C. Pomelli, J. W. Ochterski, 
 R. L. Martin, K. Morokuma, V. G. Zakrzewski, G. A. Voth, 
 P. Salvador, J. J. Dannenberg, S. Dapprich, A. D. Daniels, 
 O. Farkas, J. B. Foresman, J. V. Ortiz, J. Cioslowski, 
 and D. J. Fox, Gaussian, Inc., Wallingford CT, 2013.
 
 ******************************************
 Gaussian 09:  ES64L-G09RevE.01 30-Nov-2015
                26-Aug-2021 
 ******************************************
 %nproc=32
 Will use up to   32 processors via shared memory.
 %mem=180GB
 ----------------
 #P G4 OPT=calcfc
 ----------------
 1/10=4,14=-1,18=20,19=15,26=3,38=1/1,3;
 2/9=110,12=2,17=6,18=5,40=1/2;
 3/5=35,7=104,11=2,16=1,25=1,30=1,71=2,74=-5,140=1/1,2,3;
 4//1;
 5/5=2,38=5/2;
 8/6=4,10=90,11=11/1;
 11/6=1,8=1,9=11,15=111,16=1/1,2,10;
 10/6=1,13=1/2;
 6/7=2,8=2,9=2,10=2,28=1/1;
 7/10=1,18=20,25=1/1,2,3,16;
 1/10=4,14=-1,18=20,19=15,26=3/3(2);
 2/9=110/2;
 99//99;
 2/9=110/2;
 3/5=35,7=104,11=2,16=1,25=1,30=1,71=1,74=-5/1,2,3;
 4/5=5,16=3,69=1/1;
 5/5=2,38=5/2;
 7//1,2,3,16;
 1/14=-1,18=20,19=15,26=3/3(-5);
 2/9=110/2;
 6/7=2,8=2,9=2,10=2,19=2,28=1/1;
 99/9=1/99;
 Leave Link    1 at Thu Aug 26 06:01:40 2021, MaxMem= 24159191040 cpu:         6.5
 (Enter /public/home/users/caep010/software/Gaussian09/g09/l101.exe)
 ------
 ZUGPOG
 ------
 Symbolic Z-matrix:
 Charge =  0 Multiplicity = 1
 C                     4.1521    4.8278    1.5187 
 C                     3.3147    4.4361    0.4764 
 C                     2.6547    5.3301   -0.341 
 C                     2.8182    6.6747   -0.0926 
 H                     2.263     7.3345   -0.6413 
 C                     3.6347    7.0989    0.9283 
 H                     3.7384    7.9237    1.0586 
 C                     4.3116    6.2064    1.7467 
 C                     4.8559    3.9176    2.3778 
 N                     5.471     3.3197    3.13 
 N                     3.1313    3.0045    0.1802 
 O                     3.7035    2.1945    0.8917 
 O                     2.4215    2.682    -0.7563 
 C                     5.2138    6.6791    2.8389 
 H                     4.8649    6.3183    3.7357 
 H                     5.1938    7.688     2.8705 
 H                     6.1409    6.3183    2.728 
 H                     2.0536    5.0959   -1.0688 
 
 NAtoms=     18 NQM=       18 NQMF=       0 NMMI=      0 NMMIF=      0
                NMic=       0 NMicF=      0.
                    Isotopes and Nuclear Properties:
 (Nuclear quadrupole moments (NQMom) in fm**2, nuclear magnetic moments (NMagM)
  in nuclear magnetons)

  Atom         1           2           3           4           5           6           7           8           9          10
 IAtWgt=          12          12          12          12           1          12           1          12          12          14
 AtmWgt=  12.0000000  12.0000000  12.0000000  12.0000000   1.0078250  12.0000000   1.0078250  12.0000000  12.0000000  14.0030740
 NucSpn=           0           0           0           0           1           0           1           0           0           2
 AtZEff=   0.0000000   0.0000000   0.0000000   0.0000000   0.0000000   0.0000000   0.0000000   0.0000000   0.0000000   0.0000000
 NQMom=    0.0000000   0.0000000   0.0000000   0.0000000   0.0000000   0.0000000   0.0000000   0.0000000   0.0000000   2.0440000
 NMagM=    0.0000000   0.0000000   0.0000000   0.0000000   2.7928460   0.0000000   2.7928460   0.0000000   0.0000000   0.4037610
 AtZNuc=   6.0000000   6.0000000   6.0000000   6.0000000   1.0000000   6.0000000   1.0000000   6.0000000   6.0000000   7.0000000

  Atom        11          12          13          14          15          16          17          18
 IAtWgt=          14          16          16          12           1           1           1           1
 AtmWgt=  14.0030740  15.9949146  15.9949146  12.0000000   1.0078250   1.0078250   1.0078250   1.0078250
 NucSpn=           2           0           0           0           1           1           1           1
 AtZEff=   0.0000000   0.0000000   0.0000000   0.0000000   0.0000000   0.0000000   0.0000000   0.0000000
 NQMom=    2.0440000   0.0000000   0.0000000   0.0000000   0.0000000   0.0000000   0.0000000   0.0000000
 NMagM=    0.4037610   0.0000000   0.0000000   0.0000000   2.7928460   2.7928460   2.7928460   2.7928460
 AtZNuc=   7.0000000   8.0000000   8.0000000   6.0000000   1.0000000   1.0000000   1.0000000   1.0000000
 Leave Link  101 at Thu Aug 26 06:01:40 2021, MaxMem= 24159191040 cpu:        10.1
 (Enter /public/home/users/caep010/software/Gaussian09/g09/l103.exe)

 GradGradGradGradGradGradGradGradGradGradGradGradGradGradGradGradGradGrad
 Berny optimization.
 Initialization pass.
                           ----------------------------
                           !    Initial Parameters    !
                           ! (Angstroms and Degrees)  !
 --------------------------                            --------------------------
 ! Name  Definition              Value          Derivative Info.                !
 --------------------------------------------------------------------------------
 ! R1    R(1,2)                  1.3932         calculate D2E/DX2 analytically  !
 ! R2    R(1,8)                  1.4064         calculate D2E/DX2 analytically  !
 ! R3    R(1,9)                  1.4359         calculate D2E/DX2 analytically  !
 ! R4    R(2,3)                  1.3795         calculate D2E/DX2 analytically  !
 ! R5    R(2,11)                 1.4734         calculate D2E/DX2 analytically  !
 ! R6    R(3,4)                  1.3771         calculate D2E/DX2 analytically  !
 ! R7    R(3,18)                 0.9726         calculate D2E/DX2 analytically  !
 ! R8    R(4,5)                  1.0221         calculate D2E/DX2 analytically  !
 ! R9    R(4,6)                  1.3744         calculate D2E/DX2 analytically  !
 ! R10   R(6,7)                  0.8414         calculate D2E/DX2 analytically  !
 ! R11   R(6,8)                  1.3873         calculate D2E/DX2 analytically  !
 ! R12   R(8,14)                 1.4934         calculate D2E/DX2 analytically  !
 ! R13   R(9,10)                 1.1409         calculate D2E/DX2 analytically  !
 ! R14   R(11,12)                1.2206         calculate D2E/DX2 analytically  !
 ! R15   R(11,13)                1.2185         calculate D2E/DX2 analytically  !
 ! R16   R(14,15)                1.0277         calculate D2E/DX2 analytically  !
 ! R17   R(14,16)                1.0096         calculate D2E/DX2 analytically  !
 ! R18   R(14,17)                1.001          calculate D2E/DX2 analytically  !
 ! A1    A(2,1,8)              117.7127         calculate D2E/DX2 analytically  !
 ! A2    A(2,1,9)              124.3319         calculate D2E/DX2 analytically  !
 ! A3    A(8,1,9)              117.9546         calculate D2E/DX2 analytically  !
 ! A4    A(1,2,3)              123.275          calculate D2E/DX2 analytically  !
 ! A5    A(1,2,11)             119.8936         calculate D2E/DX2 analytically  !
 ! A6    A(3,2,11)             116.8089         calculate D2E/DX2 analytically  !
 ! A7    A(2,3,4)              117.9752         calculate D2E/DX2 analytically  !
 ! A8    A(2,3,18)             125.6664         calculate D2E/DX2 analytically  !
 ! A9    A(4,3,18)             116.327          calculate D2E/DX2 analytically  !
 ! A10   A(3,4,5)              117.9683         calculate D2E/DX2 analytically  !
 ! A11   A(3,4,6)              120.3909         calculate D2E/DX2 analytically  !
 ! A12   A(5,4,6)              121.483          calculate D2E/DX2 analytically  !
 ! A13   A(4,6,7)              119.3927         calculate D2E/DX2 analytically  !
 ! A14   A(4,6,8)              121.9733         calculate D2E/DX2 analytically  !
 ! A15   A(7,6,8)              118.629          calculate D2E/DX2 analytically  !
 ! A16   A(1,8,6)              118.663          calculate D2E/DX2 analytically  !
 ! A17   A(1,8,14)             119.8241         calculate D2E/DX2 analytically  !
 ! A18   A(6,8,14)             121.5054         calculate D2E/DX2 analytically  !
 ! A19   A(2,11,12)            117.987          calculate D2E/DX2 analytically  !
 ! A20   A(2,11,13)            118.9577         calculate D2E/DX2 analytically  !
 ! A21   A(12,11,13)           123.0552         calculate D2E/DX2 analytically  !
 ! A22   A(8,14,15)            108.7822         calculate D2E/DX2 analytically  !
 ! A23   A(8,14,16)            109.1006         calculate D2E/DX2 analytically  !
 ! A24   A(8,14,17)            111.3711         calculate D2E/DX2 analytically  !
 ! A25   A(15,14,16)           108.4693         calculate D2E/DX2 analytically  !
 ! A26   A(15,14,17)           106.5332         calculate D2E/DX2 analytically  !
 ! A27   A(16,14,17)           112.4582         calculate D2E/DX2 analytically  !
 ! A28   L(1,9,10,12,-1)       187.7312         calculate D2E/DX2 analytically  !
 ! A29   L(1,9,10,12,-2)       179.8857         calculate D2E/DX2 analytically  !
 ! D1    D(8,1,2,3)              0.7221         calculate D2E/DX2 analytically  !
 ! D2    D(8,1,2,11)           178.9409         calculate D2E/DX2 analytically  !
 ! D3    D(9,1,2,3)           -179.6156         calculate D2E/DX2 analytically  !
 ! D4    D(9,1,2,11)            -1.3968         calculate D2E/DX2 analytically  !
 ! D5    D(2,1,8,6)             -0.0948         calculate D2E/DX2 analytically  !
 ! D6    D(2,1,8,14)          -179.1119         calculate D2E/DX2 analytically  !
 ! D7    D(9,1,8,6)           -179.7791         calculate D2E/DX2 analytically  !
 ! D8    D(9,1,8,14)             1.2038         calculate D2E/DX2 analytically  !
 ! D9    D(1,2,3,4)             -1.1984         calculate D2E/DX2 analytically  !
 ! D10   D(1,2,3,18)          -179.0809         calculate D2E/DX2 analytically  !
 ! D11   D(11,2,3,4)          -179.4681         calculate D2E/DX2 analytically  !
 ! D12   D(11,2,3,18)            2.6493         calculate D2E/DX2 analytically  !
 ! D13   D(1,2,11,12)            1.8074         calculate D2E/DX2 analytically  !
 ! D14   D(1,2,11,13)         -178.179          calculate D2E/DX2 analytically  !
 ! D15   D(3,2,11,12)         -179.8611         calculate D2E/DX2 analytically  !
 ! D16   D(3,2,11,13)            0.1525         calculate D2E/DX2 analytically  !
 ! D17   D(2,3,4,5)           -174.4539         calculate D2E/DX2 analytically  !
 ! D18   D(2,3,4,6)              1.0475         calculate D2E/DX2 analytically  !
 ! D19   D(18,3,4,5)             3.6268         calculate D2E/DX2 analytically  !
 ! D20   D(18,3,4,6)           179.1282         calculate D2E/DX2 analytically  !
 ! D21   D(3,4,6,7)            178.7065         calculate D2E/DX2 analytically  !
 ! D22   D(3,4,6,8)             -0.4747         calculate D2E/DX2 analytically  !
 ! D23   D(5,4,6,7)             -5.9529         calculate D2E/DX2 analytically  !
 ! D24   D(5,4,6,8)            174.8659         calculate D2E/DX2 analytically  !
 ! D25   D(4,6,8,1)             -0.0158         calculate D2E/DX2 analytically  !
 ! D26   D(4,6,8,14)           178.9841         calculate D2E/DX2 analytically  !
 ! D27   D(7,6,8,1)           -179.203          calculate D2E/DX2 analytically  !
 ! D28   D(7,6,8,14)            -0.2031         calculate D2E/DX2 analytically  !
 ! D29   D(1,8,14,15)          -60.7526         calculate D2E/DX2 analytically  !
 ! D30   D(1,8,14,16)         -178.9089         calculate D2E/DX2 analytically  !
 ! D31   D(1,8,14,17)           56.3671         calculate D2E/DX2 analytically  !
 ! D32   D(6,8,14,15)          120.2591         calculate D2E/DX2 analytically  !
 ! D33   D(6,8,14,16)            2.1027         calculate D2E/DX2 analytically  !
 ! D34   D(6,8,14,17)         -122.6213         calculate D2E/DX2 analytically  !
 --------------------------------------------------------------------------------
 Trust Radius=3.00D-01 FncErr=1.00D-07 GrdErr=1.00D-06
 Number of steps in this run=     91 maximum allowed number of steps=    108.
 GradGradGradGradGradGradGradGradGradGradGradGradGradGradGradGradGradGrad

 Leave Link  103 at Thu Aug 26 06:01:41 2021, MaxMem= 24159191040 cpu:         0.6
 (Enter /public/home/users/caep010/software/Gaussian09/g09/l202.exe)
                          Input orientation:                          
 ---------------------------------------------------------------------
 Center     Atomic      Atomic             Coordinates (Angstroms)
 Number     Number       Type             X           Y           Z
 ---------------------------------------------------------------------
      1          6           0        4.152100    4.827800    1.518700
      2          6           0        3.314700    4.436100    0.476400
      3          6           0        2.654700    5.330100   -0.341000
      4          6           0        2.818200    6.674700   -0.092600
      5          1           0        2.263000    7.334500   -0.641300
      6          6           0        3.634700    7.098900    0.928300
      7          1           0        3.738400    7.923700    1.058600
      8          6           0        4.311600    6.206400    1.746700
      9          6           0        4.855900    3.917600    2.377800
     10          7           0        5.471000    3.319700    3.130000
     11          7           0        3.131300    3.004500    0.180200
     12          8           0        3.703500    2.194500    0.891700
     13          8           0        2.421500    2.682000   -0.756300
     14          6           0        5.213800    6.679100    2.838900
     15          1           0        4.864900    6.318300    3.735700
     16          1           0        5.193800    7.688000    2.870500
     17          1           0        6.140900    6.318300    2.728000
     18          1           0        2.053600    5.095900   -1.068800
 ---------------------------------------------------------------------
                    Distance matrix (angstroms):
                    1          2          3          4          5
     1  C    0.000000
     2  C    1.393218   0.000000
     3  C    2.439876   1.379485   0.000000
     4  C    2.790451   2.362542   1.377093   0.000000
     5  H    3.810229   3.279642   2.064274   1.022084   0.000000
     6  C    2.402950   2.719764   2.387504   1.374356   2.097788
     7  H    3.157125   3.561156   3.140071   1.931846   2.326719
     8  C    1.406400   2.396129   2.805657   2.415072   3.342442
     9  C    1.435915   2.501892   3.772574   4.225719   5.245312
    10  N    2.571021   3.596884   4.901132   5.355233   6.374370
    11  N    2.481539   1.473380   2.430476   3.693619   4.491960
    12  O    2.743837   2.312663   3.528671   4.671701   5.553803
    13  O    3.574221   2.322547   2.690593   4.066881   4.656619
    14  C    2.509471   3.770814   4.298902   3.785843   4.609616
    15  H    2.764916   4.070483   4.741414   4.355672   5.192367
    16  H    3.330653   4.453940   4.724453   3.930676   4.587733
    17  H    2.763932   4.074283   4.748567   4.373001   5.236693
    18  H    3.342265   2.100798   0.972555   2.007533   2.288653
                    6          7          8          9         10
     6  C    0.000000
     7  H    0.841443   0.000000
     8  C    1.387274   1.936791   0.000000
     9  C    3.703113   4.363248   2.435807   0.000000
    10  N    4.743610   5.337548   3.404521   1.140893   0.000000
    11  N    4.192514   5.033755   3.754889   2.938953   3.778210
    12  O    4.905019   5.731737   4.146824   2.550606   3.065961
    13  O    4.880444   5.701185   4.717932   4.156392   4.980907
    14  C    2.513997   2.625891   1.493423   2.822514   3.381783
    15  H    3.162945   3.318611   2.067555   2.758140   3.118627
    16  H    2.559291   2.335963   2.058238   3.817440   4.384772
    17  H    3.182655   3.337096   2.078896   2.745401   3.098705
    18  H    3.240416   3.919290   3.776085   4.595686   5.697669
                   11         12         13         14         15
    11  N    0.000000
    12  O    1.220551   0.000000
    13  O    1.218546   2.144081   0.000000
    14  C    4.990809   5.117053   6.057987   0.000000
    15  H    5.160254   5.142267   6.274627   1.027696   0.000000
    16  H    5.781591   6.026208   6.774907   1.009593   1.653126
    17  H    5.150752   5.130170   6.260748   1.000994   1.625926
    18  H    2.663718   3.870898   2.461690   5.269109   5.699201
                   16         17         18
    16  H    0.000000
    17  H    1.671342   0.000000
    18  H    5.665503   5.711040   0.000000
 Stoichiometry    C8H6N2O2
 Framework group  C1[X(C8H6N2O2)]
 Deg. of freedom    48
 Full point group                 C1      NOp   1
 Largest Abelian subgroup         C1      NOp   1
 Largest concise Abelian subgroup C1      NOp   1
                         Standard orientation:                         
 ---------------------------------------------------------------------
 Center     Atomic      Atomic             Coordinates (Angstroms)
 Number     Number       Type             X           Y           Z
 ---------------------------------------------------------------------
      1          6           0        0.436730    0.390736   -0.005375
      2          6           0       -0.662890   -0.464729   -0.013839
      3          6           0       -0.552242   -1.839717   -0.001772
      4          6           0        0.711802   -2.386124   -0.005736
      5          1           0        0.794710   -3.401823   -0.084081
      6          6           0        1.820411   -1.573842    0.000381
      7          1           0        2.586733   -1.921089    0.014409
      8          6           0        1.717437   -0.190395    0.000899
      9          6           0        0.347879    1.823893   -0.009634
     10          7           0        0.431109    2.961745   -0.010716
     11          7           0       -2.026791    0.092354    0.002949
     12          8           0       -2.149726    1.306630   -0.009907
     13          8           0       -2.975812   -0.671537    0.029099
     14          6           0        2.928946    0.682360    0.030149
     15          1           0        2.929940    1.275315   -0.809232
     16          1           0        3.754784    0.101874    0.012652
     17          1           0        2.913459    1.301686    0.816397
     18          1           0       -1.293992   -2.468483   -0.019761
 ---------------------------------------------------------------------
 Rotational constants (GHZ):      1.3566172      0.9839198      0.5720679
 Leave Link  202 at Thu Aug 26 06:01:41 2021, MaxMem= 24159191040 cpu:         1.1
 (Enter /public/home/users/caep010/software/Gaussian09/g09/l301.exe)
 Standard basis: GTBas3 (6D, 7F)
 Ernie: Thresh=  0.10000D-02 Tol=  0.10000D-05 Strict=F.
 There are   402 symmetry adapted cartesian basis functions of A   symmetry.
 There are   366 symmetry adapted basis functions of A   symmetry.
   366 basis functions,   570 primitive gaussians,   402 cartesian basis functions
    42 alpha electrons       42 beta electrons
       nuclear repulsion energy       652.9872985391 Hartrees.
 IExCor=  402 DFT=T Ex+Corr=B3LYP ExCW=0 ScaHFX=  0.200000
 ScaDFX=  0.800000  0.720000  1.000000  0.810000 ScalE2=  1.000000  1.000000
 IRadAn=      0 IRanWt=     -1 IRanGd=            0 ICorTp=0 IEmpDi=  4
 NAtoms=   18 NActive=   18 NUniq=   18 SFac= 1.00D+00 NAtFMM=   60 NAOKFM=F Big=F
 Integral buffers will be    131072 words long.
 Raffenetti 2 integral format.
 Two-electron integral symmetry is turned on.
 Leave Link  301 at Thu Aug 26 06:01:41 2021, MaxMem= 24159191040 cpu:         2.1
 (Enter /public/home/users/caep010/software/Gaussian09/g09/l302.exe)
 NPDir=0 NMtPBC=     1 NCelOv=     1 NCel=       1 NClECP=     1 NCelD=      1
         NCelK=      1 NCelE2=     1 NClLst=     1 CellRange=     0.0.
 One-electron integrals computed using PRISM.
 NBasis=   366 RedAO= T EigKep=  7.53D-05  NBF=   366
 NBsUse=   366 1.00D-06 EigRej= -1.00D+00 NBFU=   366
 Precomputing XC quadrature grid using
 IXCGrd= 4 IRadAn=           0 IRanWt=          -1 IRanGd=           0 AccXCQ= 0.00D+00.
 Generated NRdTot=       0 NPtTot=           0 NUsed=           0 NTot=          32
 NSgBfM=   401   401   401   401   401 MxSgAt=    18 MxSgA2=    18.
 Leave Link  302 at Thu Aug 26 06:01:42 2021, MaxMem= 24159191040 cpu:        18.0
 (Enter /public/home/users/caep010/software/Gaussian09/g09/l303.exe)
 DipDrv:  MaxL=1.
 Leave Link  303 at Thu Aug 26 06:01:42 2021, MaxMem= 24159191040 cpu:         1.2
 (Enter /public/home/users/caep010/software/Gaussian09/g09/l401.exe)
 ExpMin= 1.61D-01 ExpMax= 5.48D+03 ExpMxC= 8.25D+02 IAcc=1 IRadAn=         1 AccDes= 0.00D+00
 Harris functional with IExCor=  402 and IRadAn=       1 diagonalized for initial guess.
 HarFok:  IExCor=  402 AccDes= 0.00D+00 IRadAn=         1 IDoV= 1 UseB2=F ITyADJ=14
 ICtDFT=  3500011 ScaDFX=  1.000000  1.000000  1.000000  1.000000
 FoFCou: FMM=F IPFlag=           0 FMFlag=      100000 FMFlg1=           0
         NFxFlg=           0 DoJE=T BraDBF=F KetDBF=T FulRan=T
         wScrn=  0.000000 ICntrl=     500 IOpCl=  0 I1Cent=   200000004 NGrid=           0
         NMat0=    1 NMatS0=      1 NMatT0=    0 NMatD0=    1 NMtDS0=    0 NMtDT0=    0
 Petite list used in FoFCou.
 Harris En= -568.348269794293    
 JPrj=0 DoOrth=F DoCkMO=F.
 Leave Link  401 at Thu Aug 26 06:01:42 2021, MaxMem= 24159191040 cpu:        18.2
 (Enter /public/home/users/caep010/software/Gaussian09/g09/l502.exe)
 Closed shell SCF:
 Using DIIS extrapolation, IDIIS=  1040.
 Integral symmetry usage will be decided dynamically.
 Keep R1 ints in memory in canonical form, NReq=2288577883.
 IVT=      519130 IEndB=      519130 NGot= 24159191040 MDV= 21903338370
 LenX= 21903338370 LenY= 21903176325
 Requested convergence on RMS density matrix=1.00D-08 within 128 cycles.
 Requested convergence on MAX density matrix=1.00D-06.
 Requested convergence on             energy=1.00D-06.
 No special actions if energy rises.
 FoFCou: FMM=F IPFlag=           0 FMFlag=           0 FMFlg1=           0
         NFxFlg=           0 DoJE=F BraDBF=F KetDBF=F FulRan=T
         wScrn=  0.000000 ICntrl=     600 IOpCl=  0 I1Cent=           0 NGrid=           0
         NMat0=    1 NMatS0=  67161 NMatT0=    0 NMatD0=    1 NMtDS0=    0 NMtDT0=    0
 Symmetry not used in FoFCou.
 Integral accuracy reduced to 1.0D-05 until final iterations.

 Cycle   1  Pass 0  IDiag  1:
 E= -567.838075295694    
 DIIS: error= 3.14D-02 at cycle   1 NSaved=   1.
 NSaved= 1 IEnMin= 1 EnMin= -567.838075295694     IErMin= 1 ErrMin= 3.14D-02
 ErrMax= 3.14D-02  0.00D+00 EMaxC= 1.00D-01 BMatC= 4.79D-01 BMatP= 4.79D-01
 IDIUse=3 WtCom= 6.86D-01 WtEn= 3.14D-01
 Coeff-Com:  0.100D+01
 Coeff-En:   0.100D+01
 Coeff:      0.100D+01
 Gap=     0.167 Goal=   None    Shift=    0.000
 GapD=    0.167 DampG=1.000 DampE=0.500 DampFc=0.5000 IDamp=-1.
 Damping current iteration by 5.00D-01
 RMSDP=4.08D-03 MaxDP=2.56D-01              OVMax= 3.53D-01

 Cycle   2  Pass 0  IDiag  1:
 E= -567.911278848741     Delta-E=       -0.073203553047 Rises=F Damp=T
 DIIS: error= 1.47D-02 at cycle   2 NSaved=   2.
 NSaved= 2 IEnMin= 2 EnMin= -567.911278848741     IErMin= 2 ErrMin= 1.47D-02
 ErrMax= 1.47D-02  0.00D+00 EMaxC= 1.00D-01 BMatC= 1.10D-01 BMatP= 4.79D-01
 IDIUse=3 WtCom= 8.53D-01 WtEn= 1.47D-01
 Coeff-Com:  0.274D+00 0.726D+00
 Coeff-En:   0.414D+00 0.586D+00
 Coeff:      0.295D+00 0.705D+00
 Gap=     0.178 Goal=   None    Shift=    0.000
 RMSDP=1.45D-03 MaxDP=7.46D-02 DE=-7.32D-02 OVMax= 2.86D-01

 Cycle   3  Pass 0  IDiag  1:
 E= -568.193127729891     Delta-E=       -0.281848881149 Rises=F Damp=F
 DIIS: error= 1.16D-02 at cycle   3 NSaved=   3.
 NSaved= 3 IEnMin= 3 EnMin= -568.193127729891     IErMin= 3 ErrMin= 1.16D-02
 ErrMax= 1.16D-02  0.00D+00 EMaxC= 1.00D-01 BMatC= 5.29D-02 BMatP= 1.10D-01
 IDIUse=3 WtCom= 8.84D-01 WtEn= 1.16D-01
 Coeff-Com:  0.879D-01 0.403D+00 0.509D+00
 Coeff-En:   0.000D+00 0.000D+00 0.100D+01
 Coeff:      0.778D-01 0.356D+00 0.566D+00
 Gap=     0.182 Goal=   None    Shift=    0.000
 RMSDP=8.76D-04 MaxDP=4.97D-02 DE=-2.82D-01 OVMax= 8.69D-02

 Cycle   4  Pass 0  IDiag  1:
 E= -568.224176731269     Delta-E=       -0.031049001378 Rises=F Damp=F
 DIIS: error= 8.02D-03 at cycle   4 NSaved=   4.
 NSaved= 4 IEnMin= 4 EnMin= -568.224176731269     IErMin= 4 ErrMin= 8.02D-03
 ErrMax= 8.02D-03  0.00D+00 EMaxC= 1.00D-01 BMatC= 2.28D-02 BMatP= 5.29D-02
 IDIUse=3 WtCom= 9.20D-01 WtEn= 8.02D-02
 Coeff-Com:  0.367D-01 0.152D+00 0.393D+00 0.419D+00
 Coeff-En:   0.000D+00 0.000D+00 0.318D+00 0.682D+00
 Coeff:      0.338D-01 0.139D+00 0.387D+00 0.440D+00
 Gap=     0.180 Goal=   None    Shift=    0.000
 RMSDP=4.32D-04 MaxDP=3.20D-02 DE=-3.10D-02 OVMax= 4.52D-02

 Cycle   5  Pass 0  IDiag  1:
 E= -568.241872615454     Delta-E=       -0.017695884186 Rises=F Damp=F
 DIIS: error= 2.53D-03 at cycle   5 NSaved=   5.
 NSaved= 5 IEnMin= 5 EnMin= -568.241872615454     IErMin= 5 ErrMin= 2.53D-03
 ErrMax= 2.53D-03  0.00D+00 EMaxC= 1.00D-01 BMatC= 3.17D-03 BMatP= 2.28D-02
 IDIUse=3 WtCom= 9.75D-01 WtEn= 2.53D-02
 Coeff-Com:  0.110D-01 0.235D-01 0.182D+00 0.322D+00 0.461D+00
 Coeff-En:   0.000D+00 0.000D+00 0.000D+00 0.105D+00 0.895D+00
 Coeff:      0.107D-01 0.229D-01 0.178D+00 0.317D+00 0.472D+00
 Gap=     0.179 Goal=   None    Shift=    0.000
 RMSDP=1.58D-04 MaxDP=1.38D-02 DE=-1.77D-02 OVMax= 2.50D-02

 Cycle   6  Pass 0  IDiag  1:
 E= -568.244034568794     Delta-E=       -0.002161953340 Rises=F Damp=F
 DIIS: error= 1.42D-03 at cycle   6 NSaved=   6.
 NSaved= 6 IEnMin= 6 EnMin= -568.244034568794     IErMin= 6 ErrMin= 1.42D-03
 ErrMax= 1.42D-03  0.00D+00 EMaxC= 1.00D-01 BMatC= 4.63D-04 BMatP= 3.17D-03
 IDIUse=3 WtCom= 9.86D-01 WtEn= 1.42D-02
 Coeff-Com:  0.405D-02 0.105D-02 0.863D-01 0.179D+00 0.336D+00 0.393D+00
 Coeff-En:   0.000D+00 0.000D+00 0.000D+00 0.000D+00 0.129D+00 0.871D+00
 Coeff:      0.399D-02 0.103D-02 0.850D-01 0.177D+00 0.333D+00 0.400D+00
 Gap=     0.180 Goal=   None    Shift=    0.000
 RMSDP=6.40D-05 MaxDP=5.77D-03 DE=-2.16D-03 OVMax= 1.24D-02

 Cycle   7  Pass 0  IDiag  1:
 E= -568.244358969283     Delta-E=       -0.000324400488 Rises=F Damp=F
 DIIS: error= 5.08D-04 at cycle   7 NSaved=   7.
 NSaved= 7 IEnMin= 7 EnMin= -568.244358969283     IErMin= 7 ErrMin= 5.08D-04
 ErrMax= 5.08D-04  0.00D+00 EMaxC= 1.00D-01 BMatC= 7.13D-05 BMatP= 4.63D-04
 IDIUse=3 WtCom= 9.95D-01 WtEn= 5.08D-03
 Coeff-Com:  0.126D-02-0.320D-02 0.333D-01 0.779D-01 0.169D+00 0.299D+00
 Coeff-Com:  0.422D+00
 Coeff-En:   0.000D+00 0.000D+00 0.000D+00 0.000D+00 0.000D+00 0.152D+00
 Coeff-En:   0.848D+00
 Coeff:      0.126D-02-0.318D-02 0.332D-01 0.775D-01 0.169D+00 0.298D+00
 Coeff:      0.424D+00
 Gap=     0.180 Goal=   None    Shift=    0.000
 RMSDP=2.40D-05 MaxDP=2.06D-03 DE=-3.24D-04 OVMax= 3.71D-03

 Cycle   8  Pass 0  IDiag  1:
 E= -568.244413274822     Delta-E=       -0.000054305540 Rises=F Damp=F
 DIIS: error= 7.29D-05 at cycle   8 NSaved=   8.
 NSaved= 8 IEnMin= 8 EnMin= -568.244413274822     IErMin= 8 ErrMin= 7.29D-05
 ErrMax= 7.29D-05  0.00D+00 EMaxC= 1.00D-01 BMatC= 3.61D-06 BMatP= 7.13D-05
 IDIUse=1 WtCom= 1.00D+00 WtEn= 0.00D+00
 Coeff-Com:  0.316D-03-0.192D-02 0.971D-02 0.251D-01 0.598D-01 0.129D+00
 Coeff-Com:  0.250D+00 0.527D+00
 Coeff:      0.316D-03-0.192D-02 0.971D-02 0.251D-01 0.598D-01 0.129D+00
 Coeff:      0.250D+00 0.527D+00
 Gap=     0.180 Goal=   None    Shift=    0.000
 RMSDP=6.19D-06 MaxDP=3.76D-04 DE=-5.43D-05 OVMax= 8.01D-04

 Initial convergence to 1.0D-05 achieved.  Increase integral accuracy.
 Cycle   9  Pass 1  IDiag  1:
 E= -568.244433393037     Delta-E=       -0.000020118215 Rises=F Damp=F
 DIIS: error= 3.09D-05 at cycle   1 NSaved=   1.
 NSaved= 1 IEnMin= 1 EnMin= -568.244433393037     IErMin= 1 ErrMin= 3.09D-05
 ErrMax= 3.09D-05  0.00D+00 EMaxC= 1.00D-01 BMatC= 5.01D-07 BMatP= 5.01D-07
 IDIUse=1 WtCom= 1.00D+00 WtEn= 0.00D+00
 Coeff-Com:  0.100D+01
 Coeff:      0.100D+01
 Gap=     0.180 Goal=   None    Shift=    0.000
 RMSDP=6.19D-06 MaxDP=3.76D-04 DE=-2.01D-05 OVMax= 6.70D-04

 Cycle  10  Pass 1  IDiag  1:
 E= -568.244432789566     Delta-E=        0.000000603471 Rises=F Damp=F
 DIIS: error= 5.80D-05 at cycle   2 NSaved=   2.
 NSaved= 2 IEnMin= 1 EnMin= -568.244433393037     IErMin= 1 ErrMin= 3.09D-05
 ErrMax= 5.80D-05  0.00D+00 EMaxC= 1.00D-01 BMatC= 9.93D-07 BMatP= 5.01D-07
 IDIUse=1 WtCom= 1.00D+00 WtEn= 0.00D+00
 Coeff-Com:  0.598D+00 0.402D+00
 Coeff:      0.598D+00 0.402D+00
 Gap=     0.180 Goal=   None    Shift=    0.000
 RMSDP=3.27D-06 MaxDP=1.64D-04 DE= 6.03D-07 OVMax= 5.09D-04

 Cycle  11  Pass 1  IDiag  1:
 E= -568.244433834671     Delta-E=       -0.000001045106 Rises=F Damp=F
 DIIS: error= 1.26D-05 at cycle   3 NSaved=   3.
 NSaved= 3 IEnMin= 3 EnMin= -568.244433834671     IErMin= 3 ErrMin= 1.26D-05
 ErrMax= 1.26D-05  0.00D+00 EMaxC= 1.00D-01 BMatC= 5.16D-08 BMatP= 5.01D-07
 IDIUse=1 WtCom= 1.00D+00 WtEn= 0.00D+00
 Coeff-Com:  0.819D-01 0.189D+00 0.729D+00
 Coeff:      0.819D-01 0.189D+00 0.729D+00
 Gap=     0.180 Goal=   None    Shift=    0.000
 RMSDP=8.89D-07 MaxDP=4.98D-05 DE=-1.05D-06 OVMax= 8.93D-05

 Cycle  12  Pass 1  IDiag  1:
 E= -568.244433863257     Delta-E=       -0.000000028586 Rises=F Damp=F
 DIIS: error= 6.85D-06 at cycle   4 NSaved=   4.
 NSaved= 4 IEnMin= 4 EnMin= -568.244433863257     IErMin= 4 ErrMin= 6.85D-06
 ErrMax= 6.85D-06  0.00D+00 EMaxC= 1.00D-01 BMatC= 2.93D-08 BMatP= 5.16D-08
 IDIUse=1 WtCom= 1.00D+00 WtEn= 0.00D+00
 Coeff-Com: -0.579D-02 0.935D-01 0.523D+00 0.389D+00
 Coeff:     -0.579D-02 0.935D-01 0.523D+00 0.389D+00
 Gap=     0.180 Goal=   None    Shift=    0.000
 RMSDP=4.71D-07 MaxDP=3.82D-05 DE=-2.86D-08 OVMax= 6.37D-05

 Cycle  13  Pass 1  IDiag  1:
 E= -568.244433885116     Delta-E=       -0.000000021859 Rises=F Damp=F
 DIIS: error= 2.71D-06 at cycle   5 NSaved=   5.
 NSaved= 5 IEnMin= 5 EnMin= -568.244433885116     IErMin= 5 ErrMin= 2.71D-06
 ErrMax= 2.71D-06  0.00D+00 EMaxC= 1.00D-01 BMatC= 2.45D-09 BMatP= 2.93D-08
 IDIUse=1 WtCom= 1.00D+00 WtEn= 0.00D+00
 Coeff-Com: -0.105D-01 0.510D-01 0.308D+00 0.272D+00 0.380D+00
 Coeff:     -0.105D-01 0.510D-01 0.308D+00 0.272D+00 0.380D+00
 Gap=     0.180 Goal=   None    Shift=    0.000
 RMSDP=1.33D-07 MaxDP=1.15D-05 DE=-2.19D-08 OVMax= 2.24D-05

 Cycle  14  Pass 1  IDiag  1:
 E= -568.244433887069     Delta-E=       -0.000000001953 Rises=F Damp=F
 DIIS: error= 7.46D-07 at cycle   6 NSaved=   6.
 NSaved= 6 IEnMin= 6 EnMin= -568.244433887069     IErMin= 6 ErrMin= 7.46D-07
 ErrMax= 7.46D-07  0.00D+00 EMaxC= 1.00D-01 BMatC= 1.80D-10 BMatP= 2.45D-09
 IDIUse=1 WtCom= 1.00D+00 WtEn= 0.00D+00
 Coeff-Com: -0.678D-02 0.285D-01 0.175D+00 0.160D+00 0.264D+00 0.379D+00
 Coeff:     -0.678D-02 0.285D-01 0.175D+00 0.160D+00 0.264D+00 0.379D+00
 Gap=     0.180 Goal=   None    Shift=    0.000
 RMSDP=3.54D-08 MaxDP=3.38D-06 DE=-1.95D-09 OVMax= 5.89D-06

 Cycle  15  Pass 1  IDiag  1:
 E= -568.244433887156     Delta-E=       -0.000000000087 Rises=F Damp=F
 DIIS: error= 1.76D-07 at cycle   7 NSaved=   7.
 NSaved= 7 IEnMin= 7 EnMin= -568.244433887156     IErMin= 7 ErrMin= 1.76D-07
 ErrMax= 1.76D-07  0.00D+00 EMaxC= 1.00D-01 BMatC= 1.56D-11 BMatP= 1.80D-10
 IDIUse=1 WtCom= 1.00D+00 WtEn= 0.00D+00
 Coeff-Com: -0.209D-02 0.755D-02 0.471D-01 0.448D-01 0.911D-01 0.243D+00
 Coeff-Com:  0.568D+00
 Coeff:     -0.209D-02 0.755D-02 0.471D-01 0.448D-01 0.911D-01 0.243D+00
 Coeff:      0.568D+00
 Gap=     0.180 Goal=   None    Shift=    0.000
 RMSDP=1.32D-08 MaxDP=8.26D-07 DE=-8.73D-11 OVMax= 1.51D-06

 Cycle  16  Pass 1  IDiag  1:
 E= -568.244433887185     Delta-E=       -0.000000000029 Rises=F Damp=F
 DIIS: error= 1.47D-07 at cycle   8 NSaved=   8.
 NSaved= 8 IEnMin= 8 EnMin= -568.244433887185     IErMin= 8 ErrMin= 1.47D-07
 ErrMax= 1.47D-07  0.00D+00 EMaxC= 1.00D-01 BMatC= 6.28D-12 BMatP= 1.56D-11
 IDIUse=1 WtCom= 1.00D+00 WtEn= 0.00D+00
 Coeff-Com: -0.415D-03 0.787D-03 0.533D-02 0.616D-02 0.233D-01 0.120D+00
 Coeff-Com:  0.436D+00 0.408D+00
 Coeff:     -0.415D-03 0.787D-03 0.533D-02 0.616D-02 0.233D-01 0.120D+00
 Coeff:      0.436D+00 0.408D+00
 Gap=     0.180 Goal=   None    Shift=    0.000
 RMSDP=5.48D-09 MaxDP=3.56D-07 DE=-2.89D-11 OVMax= 4.93D-07

 SCF Done:  E(RB3LYP) =  -568.244433887     A.U. after   16 cycles
            NFock= 16  Conv=0.55D-08     -V/T= 2.0045
 KE= 5.657190317031D+02 PE=-2.631252344294D+03 EE= 8.443015801642D+02
 Leave Link  502 at Thu Aug 26 06:02:53 2021, MaxMem= 24159191040 cpu:       382.8
 (Enter /public/home/users/caep010/software/Gaussian09/g09/l801.exe)
 DoSCS=F DFT=T ScalE2(SS,OS)=  1.000000  1.000000
 Range of M.O.s used for correlation:     1   366
 NBasis=   366 NAE=    42 NBE=    42 NFC=     0 NFV=     0
 NROrb=    366 NOA=    42 NOB=    42 NVA=   324 NVB=   324

 **** Warning!!: The largest alpha MO coefficient is  0.66728888D+02

 Leave Link  801 at Thu Aug 26 06:02:53 2021, MaxMem= 24159191040 cpu:         0.6
 (Enter /public/home/users/caep010/software/Gaussian09/g09/l1101.exe)
 Using compressed storage, NAtomX=    18.
 Will process     19 centers per pass.
 Leave Link 1101 at Thu Aug 26 06:02:54 2021, MaxMem= 24159191040 cpu:        22.3
 (Enter /public/home/users/caep010/software/Gaussian09/g09/l1102.exe)
 Symmetrizing basis deriv contribution to polar:
 IMax=3 JMax=2 DiffMx= 0.00D+00
 Leave Link 1102 at Thu Aug 26 06:02:55 2021, MaxMem= 24159191040 cpu:         1.2
 (Enter /public/home/users/caep010/software/Gaussian09/g09/l1110.exe)
 Forming Gx(P) for the SCF density, NAtomX=    18.
 Integral derivatives from FoFJK, PRISM(SPDF).
 Do as many integral derivatives as possible in FoFJK.
 G2DrvN: MDV=   24159190792.
 G2DrvN: will do    19 centers at a time, making    1 passes.
 Calling FoFCou, ICntrl=  3107 FMM=F I1Cent=   0 AccDes= 0.00D+00.
 FoFJK:  IHMeth= 1 ICntrl=    3107 DoSepK=F KAlg= 0 I1Cent=   0 FoldK=F
 IRaf=         0 NMat=   1 IRICut=       1 DoRegI=T DoRafI=F ISym2E= 0.
 FoFCou: FMM=F IPFlag=           0 FMFlag=      100000 FMFlg1=           0
         NFxFlg=           0 DoJE=F BraDBF=F KetDBF=F FulRan=T
         wScrn=  0.000000 ICntrl=    3107 IOpCl=  0 I1Cent=           0 NGrid=           0
         NMat0=    1 NMatS0=      1 NMatT0=    0 NMatD0=    1 NMtDS0=    0 NMtDT0=    0
 Symmetry not used in FoFCou.
 End of G2Drv F.D. properties file   721 does not exist.
 End of G2Drv F.D. properties file   722 does not exist.
 End of G2Drv F.D. properties file   788 does not exist.
 Leave Link 1110 at Thu Aug 26 06:03:19 2021, MaxMem= 24159191040 cpu:       755.3
 (Enter /public/home/users/caep010/software/Gaussian09/g09/l1002.exe)
 Minotr:  Closed shell wavefunction.
          IDoAtm=111111111111111111
          Direct CPHF calculation.
          Differentiating once with respect to nuclear coordinates.
          Requested convergence is 1.0D-08 RMS, and 1.0D-07 maximum.
          Secondary convergence is 1.0D-12 RMS, and 1.0D-12 maximum.
          NewPWx=T KeepS1=F KeepF1=F KeepIn=T MapXYZ=F SortEE=F KeepMc=T.
          MDV=   24159190490 using IRadAn=       2.
 Generate precomputed XC quadrature information.
 Keep R1 ints in memory in canonical form, NReq=2288065405.
 FoFCou: FMM=F IPFlag=           0 FMFlag=           0 FMFlg1=           0
         NFxFlg=           0 DoJE=F BraDBF=F KetDBF=F FulRan=T
         wScrn=  0.000000 ICntrl=     600 IOpCl=  0 I1Cent=           0 NGrid=           0
         NMat0=    1 NMatS0=  67161 NMatT0=    0 NMatD0=    1 NMtDS0=    0 NMtDT0=    0
 Symmetry not used in FoFCou.
          Solving linear equations simultaneously, MaxMat=       0.
          There are    57 degrees of freedom in the 1st order CPHF.  IDoFFX=6 NUNeed=     0.
     51 vectors produced by pass  0 Test12= 2.39D-14 1.75D-09 XBig12= 2.56D-01 1.74D-01.
 AX will form    51 AO Fock derivatives at one time.
     51 vectors produced by pass  1 Test12= 2.39D-14 1.75D-09 XBig12= 6.80D-02 7.60D-02.
     51 vectors produced by pass  2 Test12= 2.39D-14 1.75D-09 XBig12= 1.12D-03 7.00D-03.
     51 vectors produced by pass  3 Test12= 2.39D-14 1.75D-09 XBig12= 1.76D-05 7.74D-04.
     51 vectors produced by pass  4 Test12= 2.39D-14 1.75D-09 XBig12= 6.19D-08 3.82D-05.
     51 vectors produced by pass  5 Test12= 2.39D-14 1.75D-09 XBig12= 7.87D-11 1.03D-06.
     24 vectors produced by pass  6 Test12= 2.39D-14 1.75D-09 XBig12= 8.57D-14 3.72D-08.
      1 vectors produced by pass  7 Test12= 2.39D-14 1.75D-09 XBig12= 3.87D-16 2.18D-09.
 InvSVY:  IOpt=1 It=  1 EMax= 7.77D-16
 Solved reduced A of dimension   331 with    57 vectors.
 End of Minotr F.D. properties file   721 does not exist.
 End of Minotr F.D. properties file   722 does not exist.
 End of Minotr F.D. properties file   788 does not exist.
 Leave Link 1002 at Thu Aug 26 06:04:03 2021, MaxMem= 24159191040 cpu:      1280.0
 (Enter /public/home/users/caep010/software/Gaussian09/g09/l601.exe)
 Copying SCF densities to generalized density rwf, IOpCl= 0 IROHF=0.

 **********************************************************************

            Population analysis using the SCF density.

 **********************************************************************

 Orbital symmetries:
       Occupied  (A) (A) (A) (A) (A) (A) (A) (A) (A) (A) (A) (A)
                 (A) (A) (A) (A) (A) (A) (A) (A) (A) (A) (A) (A)
                 (A) (A) (A) (A) (A) (A) (A) (A) (A) (A) (A) (A)
                 (A) (A) (A) (A) (A) (A)
       Virtual   (A) (A) (A) (A) (A) (A) (A) (A) (A) (A) (A) (A)
                 (A) (A) (A) (A) (A) (A) (A) (A) (A) (A) (A) (A)
                 (A) (A) (A) (A) (A) (A) (A) (A) (A) (A) (A) (A)
                 (A) (A) (A) (A) (A) (A) (A) (A) (A) (A) (A) (A)
                 (A) (A) (A) (A) (A) (A) (A) (A) (A) (A) (A) (A)
                 (A) (A) (A) (A) (A) (A) (A) (A) (A) (A) (A) (A)
                 (A) (A) (A) (A) (A) (A) (A) (A) (A) (A) (A) (A)
                 (A) (A) (A) (A) (A) (A) (A) (A) (A) (A) (A) (A)
                 (A) (A) (A) (A) (A) (A) (A) (A) (A) (A) (A) (A)
                 (A) (A) (A) (A) (A) (A) (A) (A) (A) (A) (A) (A)
                 (A) (A) (A) (A) (A) (A) (A) (A) (A) (A) (A) (A)
                 (A) (A) (A) (A) (A) (A) (A) (A) (A) (A) (A) (A)
                 (A) (A) (A) (A) (A) (A) (A) (A) (A) (A) (A) (A)
                 (A) (A) (A) (A) (A) (A) (A) (A) (A) (A) (A) (A)
                 (A) (A) (A) (A) (A) (A) (A) (A) (A) (A) (A) (A)
                 (A) (A) (A) (A) (A) (A) (A) (A) (A) (A) (A) (A)
                 (A) (A) (A) (A) (A) (A) (A) (A) (A) (A) (A) (A)
                 (A) (A) (A) (A) (A) (A) (A) (A) (A) (A) (A) (A)
                 (A) (A) (A) (A) (A) (A) (A) (A) (A) (A) (A) (A)
                 (A) (A) (A) (A) (A) (A) (A) (A) (A) (A) (A) (A)
                 (A) (A) (A) (A) (A) (A) (A) (A) (A) (A) (A) (A)
                 (A) (A) (A) (A) (A) (A) (A) (A) (A) (A) (A) (A)
                 (A) (A) (A) (A) (A) (A) (A) (A) (A) (A) (A) (A)
                 (A) (A) (A) (A) (A) (A) (A) (A) (A) (A) (A) (A)
                 (A) (A) (A) (A) (A) (A) (A) (A) (A) (A) (A) (A)
                 (A) (A) (A) (A) (A) (A) (A) (A) (A) (A) (A) (A)
                 (A) (A) (A) (A) (A) (A) (A) (A) (A) (A) (A) (A)
 The electronic state is 1-A.
 Alpha  occ. eigenvalues --  -19.17925 -19.17906 -14.57410 -14.33279 -10.27344
 Alpha  occ. eigenvalues --  -10.26023 -10.24125 -10.22790 -10.22033 -10.21850
 Alpha  occ. eigenvalues --  -10.20263 -10.18485  -1.24051  -1.06198  -0.93091
 Alpha  occ. eigenvalues --   -0.90818  -0.84336  -0.82328  -0.75128  -0.73725
 Alpha  occ. eigenvalues --   -0.66538  -0.61706  -0.60333  -0.55413  -0.54635
 Alpha  occ. eigenvalues --   -0.53628  -0.51087  -0.50569  -0.46919  -0.46471
 Alpha  occ. eigenvalues --   -0.44022  -0.41549  -0.40925  -0.39848  -0.36686
 Alpha  occ. eigenvalues --   -0.36518  -0.35056  -0.31674  -0.31386  -0.29823
 Alpha  occ. eigenvalues --   -0.29148  -0.28332
 Alpha virt. eigenvalues --   -0.10336  -0.05873  -0.01166   0.03929   0.06684
 Alpha virt. eigenvalues --    0.08862   0.11074   0.13225   0.15381   0.15577
 Alpha virt. eigenvalues --    0.17300   0.18829   0.19016   0.20417   0.22078
 Alpha virt. eigenvalues --    0.24286   0.27295   0.28602   0.31688   0.32445
 Alpha virt. eigenvalues --    0.34783   0.35954   0.38743   0.39870   0.42629
 Alpha virt. eigenvalues --    0.44321   0.45365   0.46399   0.47067   0.48627
 Alpha virt. eigenvalues --    0.49104   0.50300   0.51768   0.52673   0.53740
 Alpha virt. eigenvalues --    0.54022   0.56174   0.57634   0.58830   0.60120
 Alpha virt. eigenvalues --    0.60434   0.64661   0.64725   0.65869   0.66326
 Alpha virt. eigenvalues --    0.67761   0.70198   0.70936   0.72493   0.72735
 Alpha virt. eigenvalues --    0.72933   0.74494   0.76728   0.77070   0.77410
 Alpha virt. eigenvalues --    0.78188   0.78879   0.80420   0.80748   0.81496
 Alpha virt. eigenvalues --    0.82579   0.83383   0.86214   0.87148   0.89994
 Alpha virt. eigenvalues --    0.90062   0.90887   0.91269   0.92917   0.94375
 Alpha virt. eigenvalues --    0.95740   0.96626   0.97421   0.98336   0.99704
 Alpha virt. eigenvalues --    1.02020   1.02552   1.02746   1.06041   1.10021
 Alpha virt. eigenvalues --    1.11759   1.14816   1.15347   1.18429   1.18952
 Alpha virt. eigenvalues --    1.20066   1.21944   1.25090   1.26323   1.30392
 Alpha virt. eigenvalues --    1.31152   1.32719   1.34367   1.35427   1.36376
 Alpha virt. eigenvalues --    1.37792   1.40089   1.40614   1.43134   1.44499
 Alpha virt. eigenvalues --    1.45163   1.48772   1.49760   1.50987   1.52612
 Alpha virt. eigenvalues --    1.53121   1.54094   1.54960   1.55379   1.61920
 Alpha virt. eigenvalues --    1.63645   1.64119   1.66387   1.66621   1.66993
 Alpha virt. eigenvalues --    1.71417   1.75215   1.76064   1.81229   1.82129
 Alpha virt. eigenvalues --    1.85595   1.87925   1.90664   1.92531   1.92986
 Alpha virt. eigenvalues --    1.94110   1.94889   1.96675   2.02206   2.05386
 Alpha virt. eigenvalues --    2.09327   2.11396   2.13791   2.16985   2.17760
 Alpha virt. eigenvalues --    2.22674   2.26095   2.26929   2.29949   2.32704
 Alpha virt. eigenvalues --    2.40304   2.43455   2.44316   2.49848   2.53086
 Alpha virt. eigenvalues --    2.53307   2.60147   2.62761   2.70629   2.72216
 Alpha virt. eigenvalues --    2.75648   2.78401   2.80453   2.81110   2.84320
 Alpha virt. eigenvalues --    2.86852   2.88346   2.90967   2.91818   2.95274
 Alpha virt. eigenvalues --    2.96232   2.97098   2.99846   3.04220   3.05098
 Alpha virt. eigenvalues --    3.06891   3.07055   3.09207   3.09943   3.10834
 Alpha virt. eigenvalues --    3.12914   3.14311   3.19227   3.23073   3.24366
 Alpha virt. eigenvalues --    3.26338   3.27382   3.28971   3.30978   3.32902
 Alpha virt. eigenvalues --    3.33872   3.34644   3.37063   3.38953   3.42192
 Alpha virt. eigenvalues --    3.44135   3.45490   3.47209   3.48853   3.50569
 Alpha virt. eigenvalues --    3.52822   3.53509   3.56988   3.58428   3.61352
 Alpha virt. eigenvalues --    3.62602   3.64797   3.66475   3.66972   3.68370
 Alpha virt. eigenvalues --    3.68907   3.70396   3.71183   3.72215   3.74938
 Alpha virt. eigenvalues --    3.75177   3.76144   3.76630   3.78031   3.83071
 Alpha virt. eigenvalues --    3.84600   3.84855   3.94205   3.96782   3.98713
 Alpha virt. eigenvalues --    4.01591   4.03076   4.04958   4.06446   4.08962
 Alpha virt. eigenvalues --    4.10196   4.12141   4.14340   4.18902   4.19925
 Alpha virt. eigenvalues --    4.21903   4.23931   4.24259   4.27378   4.28350
 Alpha virt. eigenvalues --    4.28840   4.33507   4.34391   4.36611   4.37030
 Alpha virt. eigenvalues --    4.38213   4.38852   4.40789   4.45247   4.45585
 Alpha virt. eigenvalues --    4.46595   4.47757   4.48087   4.48528   4.49698
 Alpha virt. eigenvalues --    4.53009   4.54303   4.54913   4.57506   4.58890
 Alpha virt. eigenvalues --    4.59296   4.60042   4.62391   4.64871   4.65068
 Alpha virt. eigenvalues --    4.69441   4.71799   4.72777   4.76924   4.77806
 Alpha virt. eigenvalues --    4.79955   4.85028   4.91225   4.92303   4.93080
 Alpha virt. eigenvalues --    4.97645   4.98111   4.99679   5.02403   5.02897
 Alpha virt. eigenvalues --    5.03885   5.04788   5.05313   5.07696   5.08703
 Alpha virt. eigenvalues --    5.12185   5.14557   5.16275   5.22224   5.30561
 Alpha virt. eigenvalues --    5.34328   5.35797   5.39485   5.40038   5.41355
 Alpha virt. eigenvalues --    5.45293   5.47129   5.54529   5.61086   5.61614
 Alpha virt. eigenvalues --    5.64231   5.70191   5.80136   5.83390   5.84620
 Alpha virt. eigenvalues --    5.94716   6.00530   6.01055   6.02784   6.16434
 Alpha virt. eigenvalues --    6.25474   6.26085   6.32238   6.36663   6.48605
 Alpha virt. eigenvalues --    6.60349   6.75595   6.91199   7.08140   9.11718
 Alpha virt. eigenvalues --    9.57496  10.25612  10.54690  10.96634  11.31142
 Alpha virt. eigenvalues --   11.43398  11.53982  11.77389  12.00289  12.83887
 Alpha virt. eigenvalues --   12.99907  13.27356  17.40941  24.44891
          Condensed to atoms (all electrons):
               1          2          3          4          5          6
     1  C    4.840881   0.354326  -0.004797  -0.068470   0.003551   0.056950
     2  C    0.354326   5.131861   0.325231   0.041909  -0.000977  -0.110348
     3  C   -0.004797   0.325231   5.026226   0.494284  -0.024248   0.037291
     4  C   -0.068470   0.041909   0.494284   4.792451   0.348781   0.530011
     5  H    0.003551  -0.000977  -0.024248   0.348781   0.576373  -0.018540
     6  C    0.056950  -0.110348   0.037291   0.530011  -0.018540   4.775374
     7  H    0.003743   0.005602  -0.001302  -0.024763  -0.001062   0.280513
     8  C    0.488170   0.070723  -0.069933   0.049815  -0.000970   0.527029
     9  C    0.341595  -0.095443   0.010824  -0.000835   0.000023   0.011262
    10  N    0.027886  -0.008822   0.000004  -0.000019  -0.000000   0.000026
    11  N   -0.024397   0.332359  -0.038164   0.001580  -0.000076   0.000332
    12  O   -0.015047  -0.088276   0.009241   0.000009   0.000001  -0.000060
    13  O    0.002568  -0.128235   0.012298   0.001434  -0.000004  -0.000024
    14  C   -0.054145   0.010023   0.001190   0.005626  -0.000271  -0.062583
    15  H   -0.009414  -0.000405   0.000013  -0.000164   0.000005   0.001729
    16  H    0.004549   0.000021  -0.000062   0.000407  -0.000005  -0.010126
    17  H   -0.010758  -0.000275  -0.000005  -0.000125   0.000004   0.002121
    18  H    0.002972  -0.029242   0.352313  -0.029895  -0.002800   0.001566
               7          8          9         10         11         12
     1  C    0.003743   0.488170   0.341595   0.027886  -0.024397  -0.015047
     2  C    0.005602   0.070723  -0.095443  -0.008822   0.332359  -0.088276
     3  C   -0.001302  -0.069933   0.010824   0.000004  -0.038164   0.009241
     4  C   -0.024763   0.049815  -0.000835  -0.000019   0.001580   0.000009
     5  H   -0.001062  -0.000970   0.000023  -0.000000  -0.000076   0.000001
     6  C    0.280513   0.527029   0.011262   0.000026   0.000332  -0.000060
     7  H    0.665646   0.000525  -0.000373   0.000003   0.000011  -0.000000
     8  C    0.000525   4.537153  -0.077571  -0.013622   0.001173   0.000482
     9  C   -0.000373  -0.077571   4.628652   0.927675  -0.017108   0.018905
    10  N    0.000003  -0.013622   0.927675   6.423898   0.001919  -0.013189
    11  N    0.000011   0.001173  -0.017108   0.001919   5.349478   0.489367
    12  O   -0.000000   0.000482   0.018905  -0.013189   0.489367   8.040715
    13  O    0.000000  -0.000006  -0.000220  -0.000029   0.534582  -0.089511
    14  C   -0.012333   0.396941  -0.023676  -0.000135  -0.000047   0.000021
    15  H   -0.000074  -0.010638   0.008112   0.000335   0.000002   0.000000
    16  H    0.005931  -0.019382   0.000381   0.000167   0.000001   0.000000
    17  H   -0.000077  -0.008068   0.008290   0.000411   0.000003   0.000000
    18  H   -0.000754   0.002286  -0.000033   0.000001  -0.010494   0.000463
              13         14         15         16         17         18
     1  C    0.002568  -0.054145  -0.009414   0.004549  -0.010758   0.002972
     2  C   -0.128235   0.010023  -0.000405   0.000021  -0.000275  -0.029242
     3  C    0.012298   0.001190   0.000013  -0.000062  -0.000005   0.352313
     4  C    0.001434   0.005626  -0.000164   0.000407  -0.000125  -0.029895
     5  H   -0.000004  -0.000271   0.000005  -0.000005   0.000004  -0.002800
     6  C   -0.000024  -0.062583   0.001729  -0.010126   0.002121   0.001566
     7  H    0.000000  -0.012333  -0.000074   0.005931  -0.000077  -0.000754
     8  C   -0.000006   0.396941  -0.010638  -0.019382  -0.008068   0.002286
     9  C   -0.000220  -0.023676   0.008112   0.000381   0.008290  -0.000033
    10  N   -0.000029  -0.000135   0.000335   0.000167   0.000411   0.000001
    11  N    0.534582  -0.000047   0.000002   0.000001   0.000003  -0.010494
    12  O   -0.089511   0.000021   0.000000   0.000000   0.000000   0.000463
    13  O    7.992230   0.000000   0.000000  -0.000000   0.000000   0.021034
    14  C    0.000000   5.066664   0.371028   0.375080   0.378128   0.000025
    15  H    0.000000   0.371028   0.547012  -0.031494  -0.034712  -0.000000
    16  H   -0.000000   0.375080  -0.031494   0.581940  -0.030739  -0.000001
    17  H    0.000000   0.378128  -0.034712  -0.030739   0.538453  -0.000000
    18  H    0.021034   0.000025  -0.000000  -0.000001  -0.000000   0.553358
 Mulliken charges:
               1
     1  C    0.059837
     2  C    0.189967
     3  C   -0.130405
     4  C   -0.142036
     5  H    0.120217
     6  C   -0.022520
     7  H    0.078765
     8  C    0.125895
     9  C    0.259540
    10  N   -0.346510
    11  N    0.379479
    12  O   -0.353122
    13  O   -0.346116
    14  C   -0.451537
    15  H    0.158664
    16  H    0.123330
    17  H    0.157350
    18  H    0.139201
 Sum of Mulliken charges =  -0.00000
 Mulliken charges with hydrogens summed into heavy atoms:
               1
     1  C    0.059837
     2  C    0.189967
     3  C    0.008797
     4  C   -0.021819
     6  C    0.056245
     8  C    0.125895
     9  C    0.259540
    10  N   -0.346510
    11  N    0.379479
    12  O   -0.353122
    13  O   -0.346116
    14  C   -0.012193
 APT charges:
               1
     1  C   -0.592325
     2  C   -0.349324
     3  C   -0.341988
     4  C   -0.464468
     5  H    0.645647
     6  C    0.195252
     7  H    0.424125
     8  C   -0.517511
     9  C   -1.575629
    10  N    1.880674
    11  N   -1.138375
    12  O    0.298195
    13  O    0.647158
    14  C   -0.885202
    15  H    0.352387
    16  H    0.524077
    17  H    0.353026
    18  H    0.544284
 Sum of APT charges =  -0.00000
 APT charges with hydrogens summed into heavy atoms:
               1
     1  C   -0.592325
     2  C   -0.349324
     3  C    0.202296
     4  C    0.181178
     6  C    0.619376
     8  C   -0.517511
     9  C   -1.575629
    10  N    1.880674
    11  N   -1.138375
    12  O    0.298195
    13  O    0.647158
    14  C    0.344288
 Electronic spatial extent (au):  <R**2>=           1853.2581
 Charge=             -0.0000 electrons
 Dipole moment (field-independent basis, Debye):
    X=              4.4040    Y=             -5.2426    Z=             -0.0700  Tot=              6.8472
 Quadrupole moment (field-independent basis, Debye-Ang):
   XX=            -68.6071   YY=            -73.3006   ZZ=            -65.6914
   XY=             -0.6977   XZ=              0.0770   YZ=              0.3362
 Traceless Quadrupole moment (field-independent basis, Debye-Ang):
   XX=              0.5926   YY=             -4.1009   ZZ=              3.5083
   XY=             -0.6977   XZ=              0.0770   YZ=              0.3362
 Octapole moment (field-independent basis, Debye-Ang**2):
  XXX=             32.3503  YYY=            -66.3488  ZZZ=              0.0985  XYY=             -2.9268
  XXY=             -2.1731  XXZ=             -0.4966  XZZ=             -9.0569  YZZ=              4.1837
  YYZ=             -0.5224  XYZ=              0.0232
 Hexadecapole moment (field-independent basis, Debye-Ang**3):
 XXXX=          -1320.1609 YYYY=          -1082.1543 ZZZZ=            -65.5007 XXXY=            -15.8702
 XXXZ=              0.3868 YYYX=            -25.9542 YYYZ=              3.6830 ZZZX=             -0.2502
 ZZZY=              0.0831 XXYY=           -377.0665 XXZZ=           -218.2034 YYZZ=           -180.3606
 XXYZ=              0.6470 YYXZ=             -0.0684 ZZXY=              2.0735
 N-N= 6.529872985391D+02 E-N=-2.631252330530D+03  KE= 5.657190317031D+02
  Exact polarizability:   0.000   0.000   0.000   0.000   0.000   0.000
 Approx polarizability: 188.603   9.669 253.416  -0.329  -1.049  75.015
 No NMR shielding tensors so no spin-rotation constants.
 Leave Link  601 at Thu Aug 26 06:04:04 2021, MaxMem= 24159191040 cpu:        15.6
 (Enter /public/home/users/caep010/software/Gaussian09/g09/l701.exe)
 Compute integral second derivatives.
 ... and contract with generalized density number  0.
 Leave Link  701 at Thu Aug 26 06:04:05 2021, MaxMem= 24159191040 cpu:        18.2
 (Enter /public/home/users/caep010/software/Gaussian09/g09/l702.exe)
 L702 exits ... SP integral derivatives will be done elsewhere.
 Leave Link  702 at Thu Aug 26 06:04:05 2021, MaxMem= 24159191040 cpu:         0.8
 (Enter /public/home/users/caep010/software/Gaussian09/g09/l703.exe)
 Compute integral second derivatives, UseDBF=F ICtDFT=           0.
 Integral derivatives from FoFJK, PRISM(SPDF).
 Calling FoFJK, ICntrl=    100147 FMM=F ISym2X=0 I1Cent= 0 IOpClX= 0 NMat=1 NMatS=1 NMatT=0.
 FoFJK:  IHMeth= 1 ICntrl=  100147 DoSepK=F KAlg= 0 I1Cent=   0 FoldK=F
 IRaf=         0 NMat=   1 IRICut=       1 DoRegI=T DoRafI=F ISym2E= 0.
 FoFCou: FMM=F IPFlag=           0 FMFlag=      100000 FMFlg1=         800
         NFxFlg=           0 DoJE=F BraDBF=F KetDBF=F FulRan=T
         wScrn=  0.000000 ICntrl=  100147 IOpCl=  0 I1Cent=           0 NGrid=           0
         NMat0=    1 NMatS0=      1 NMatT0=    0 NMatD0=    1 NMtDS0=    0 NMtDT0=    0
 Symmetry not used in FoFCou.
 Leave Link  703 at Thu Aug 26 06:04:52 2021, MaxMem= 24159191040 cpu:      1469.7
 (Enter /public/home/users/caep010/software/Gaussian09/g09/l716.exe)
 Dipole        = 1.73264780D+00-2.06258547D+00-2.75252749D-02
 Polarizability= 0.00000000D+00 0.00000000D+00 0.00000000D+00
                 0.00000000D+00 0.00000000D+00 0.00000000D+00
 ***** Axes restored to original set *****
 -------------------------------------------------------------------
 Center     Atomic                   Forces (Hartrees/Bohr)
 Number     Number              X              Y              Z
 -------------------------------------------------------------------
      1        6           0.001137518   -0.000737172    0.003733956
      2        6          -0.002352924   -0.014494843   -0.009709860
      3        6           0.055461139    0.030271692    0.071893872
      4        6           0.017289064   -0.030031856    0.024133333
      5        1          -0.023002692    0.036059347   -0.028669853
      6        6          -0.035658180   -0.325187395   -0.047080592
      7        1           0.042983480    0.344822581    0.056511179
      8        6           0.002358989   -0.009629956   -0.004761975
      9        6          -0.023653630    0.023253084   -0.029407581
     10        7           0.022906266   -0.020010864    0.028151989
     11        7           0.001420508   -0.011649270    0.002822182
     12        8           0.004307749    0.000447728    0.005768453
     13        8          -0.006749008    0.008389558   -0.008389953
     14        6          -0.056462795   -0.018415915   -0.030449676
     15        1          -0.016821143   -0.017492416    0.047665053
     16        1           0.004294866    0.068066478    0.003168629
     17        1           0.073578245   -0.024569833   -0.010050662
     18        1          -0.061037451   -0.039090949   -0.075328493
 -------------------------------------------------------------------
 Cartesian Forces:  Max     0.344822581 RMS     0.072048206
 FormGI is forming the generalized inverse of G from B-inverse, IUseBI=4.
 Leave Link  716 at Thu Aug 26 06:04:52 2021, MaxMem= 24159191040 cpu:         1.1
 (Enter /public/home/users/caep010/software/Gaussian09/g09/l103.exe)

 GradGradGradGradGradGradGradGradGradGradGradGradGradGradGradGradGradGrad
 Berny optimization.
 Red2BG is reusing G-inverse.
 Internal  Forces:  Max     0.352051453 RMS     0.043717875
 Search for a local minimum.
 Step number   1 out of a maximum of   91
 All quantities printed in internal units (Hartrees-Bohrs-Radians)
 RMS Force = .43718D-01 SwitMx=.10000D-02 MixMth= 1
 Mixed Optimization -- RFO/linear search
 Second derivative matrix not updated -- analytic derivatives used.
 ITU=  0
     Eigenvalues ---   -0.00008   0.00101   0.01393   0.01773   0.01903
     Eigenvalues ---    0.02120   0.02198   0.02569   0.02744   0.02868
     Eigenvalues ---    0.03349   0.05842   0.06240   0.08897   0.09170
     Eigenvalues ---    0.11021   0.11348   0.11681   0.12806   0.13267
     Eigenvalues ---    0.15394   0.15476   0.17270   0.19316   0.19338
     Eigenvalues ---    0.20192   0.21876   0.23889   0.24486   0.30823
     Eigenvalues ---    0.33502   0.35881   0.39664   0.41458   0.45481
     Eigenvalues ---    0.49017   0.49388   0.49737   0.51257   0.53839
     Eigenvalues ---    0.54706   0.57461   0.59437   0.62482   0.67832
     Eigenvalues ---    0.82122   1.37526   1.39088
 Eigenvalue     1 is  -8.50D-05 should be greater than     0.000000 Eigenvector:
                          D15       D13       D16       D14       D4
   1                    0.51267   0.50754   0.48072   0.47558   0.07329
                          D3        D7        D8        D11       D9
   1                    0.06779  -0.03792  -0.03496  -0.03454  -0.02924
 RFO step:  Lambda=-1.25379352D-01 EMin=-8.49761786D-05
 Linear search not attempted -- first point.
 Maximum step size (   0.300) exceeded in Quadratic search.
    -- Step size scaled by   0.865
 Iteration  1 RMS(Cart)=  0.03910665 RMS(Int)=  0.00051973
 Iteration  2 RMS(Cart)=  0.00062580 RMS(Int)=  0.00004465
 Iteration  3 RMS(Cart)=  0.00000083 RMS(Int)=  0.00004465
 ITry= 1 IFail=0 DXMaxC= 2.02D-01 DCOld= 1.00D+10 DXMaxT= 3.00D-01 DXLimC= 3.00D+00 Rises=F
 Variable       Old X    -DE/DX   Delta X   Delta X   Delta X     New X
                                 (Linear)    (Quad)   (Total)
    R1        2.63280   0.01097   0.00000   0.01361   0.01361   2.64641
    R2        2.65771   0.00817   0.00000   0.00955   0.00955   2.66726
    R3        2.71349  -0.00317   0.00000  -0.00684  -0.00684   2.70664
    R4        2.60685   0.00435   0.00000   0.00745   0.00745   2.61430
    R5        2.78428   0.00282   0.00000   0.00525   0.00525   2.78953
    R6        2.60233   0.01772   0.00000   0.01871   0.01872   2.62104
    R7        1.83786   0.10351   0.00000   0.11171   0.11171   1.94957
    R8        1.93146   0.05116   0.00000   0.06915   0.06915   2.00061
    R9        2.59716   0.01674   0.00000   0.02246   0.02246   2.61962
   R10        1.59010   0.35205   0.00000   0.20081   0.20081   1.79091
   R11        2.62157   0.00758   0.00000   0.01211   0.01211   2.63368
   R12        2.82216   0.01273   0.00000   0.01917   0.01917   2.84133
   R13        2.15598   0.04140   0.00000   0.02405   0.02405   2.18003
   R14        2.30651   0.00508   0.00000   0.00184   0.00184   2.30835
   R15        2.30272   0.00816   0.00000   0.00704   0.00704   2.30976
   R16        1.94206   0.05345   0.00000   0.07410   0.07410   2.01617
   R17        1.90785   0.06803   0.00000   0.08756   0.08756   1.99542
   R18        1.89161   0.07812   0.00000   0.09700   0.09700   1.98860
    A1        2.05447   0.00552   0.00000   0.01118   0.01117   2.06565
    A2        2.17000   0.00151   0.00000   0.00056   0.00057   2.17057
    A3        2.05870  -0.00703   0.00000  -0.01174  -0.01174   2.04696
    A4        2.15156  -0.00483   0.00000  -0.01318  -0.01319   2.13837
    A5        2.09254   0.00888   0.00000   0.01286   0.01286   2.10540
    A6        2.03870  -0.00403   0.00000   0.00042   0.00041   2.03911
    A7        2.05906   0.00191   0.00000   0.00831   0.00831   2.06737
    A8        2.19329  -0.01432   0.00000  -0.05021  -0.05022   2.14307
    A9        2.03029   0.01244   0.00000   0.04209   0.04208   2.07237
   A10        2.05893   0.00301   0.00000   0.01156   0.01154   2.07048
   A11        2.10122   0.00098   0.00000   0.00055   0.00055   2.10177
   A12        2.12028  -0.00385   0.00000  -0.01138  -0.01141   2.10887
   A13        2.08380   0.00391   0.00000   0.00663   0.00662   2.09042
   A14        2.12884  -0.00569   0.00000  -0.00938  -0.00938   2.11946
   A15        2.07047   0.00178   0.00000   0.00277   0.00277   2.07323
   A16        2.07106   0.00213   0.00000   0.00258   0.00258   2.07364
   A17        2.09133   0.00276   0.00000   0.00729   0.00729   2.09862
   A18        2.12067  -0.00488   0.00000  -0.00984  -0.00984   2.11083
   A19        2.05926   0.00054   0.00000  -0.00075  -0.00075   2.05851
   A20        2.07620  -0.01288   0.00000  -0.02118  -0.02118   2.05503
   A21        2.14772   0.01233   0.00000   0.02193   0.02193   2.16965
   A22        1.89861   0.00311   0.00000   0.01422   0.01412   1.91273
   A23        1.90416   0.00483   0.00000   0.01405   0.01398   1.91814
   A24        1.94379  -0.00101   0.00000  -0.00095  -0.00095   1.94284
   A25        1.89315  -0.00178   0.00000  -0.00412  -0.00429   1.88886
   A26        1.85936  -0.00009   0.00000  -0.00158  -0.00160   1.85775
   A27        1.96277  -0.00499   0.00000  -0.02106  -0.02104   1.94173
   A28        3.27653   0.00426   0.00000   0.01060   0.01060   3.28713
   A29        3.13960   0.00010   0.00000   0.00041   0.00041   3.14001
    D1        0.01260  -0.00058   0.00000  -0.00298  -0.00293   0.00967
    D2        3.12311   0.00002   0.00000   0.00086   0.00091   3.12402
    D3       -3.13488  -0.00035   0.00000  -0.00190  -0.00188  -3.13677
    D4       -0.02438   0.00025   0.00000   0.00194   0.00196  -0.02241
    D5       -0.00166   0.00011   0.00000   0.00067   0.00067  -0.00099
    D6       -3.12609  -0.00021   0.00000  -0.00141  -0.00143  -3.12752
    D7       -3.13774  -0.00013   0.00000  -0.00038  -0.00034  -3.13808
    D8        0.02101  -0.00045   0.00000  -0.00245  -0.00244   0.01857
    D9       -0.02092   0.00072   0.00000   0.00370   0.00366  -0.01725
   D10       -3.12555  -0.00064   0.00000  -0.00350  -0.00339  -3.12894
   D11       -3.13231  -0.00008   0.00000  -0.00025  -0.00027  -3.13258
   D12        0.04624  -0.00144   0.00000  -0.00745  -0.00732   0.03892
   D13        0.03155  -0.00018   0.00000  -0.00148  -0.00150   0.03005
   D14       -3.10981  -0.00030   0.00000  -0.00176  -0.00178  -3.11159
   D15       -3.13917   0.00035   0.00000   0.00186   0.00188  -3.13729
   D16        0.00266   0.00024   0.00000   0.00158   0.00160   0.00426
   D17       -3.04479  -0.00202   0.00000  -0.01190  -0.01202  -3.05681
   D18        0.01828  -0.00031   0.00000  -0.00205  -0.00207   0.01622
   D19        0.06330  -0.00134   0.00000  -0.00727  -0.00719   0.05611
   D20        3.12638   0.00038   0.00000   0.00258   0.00276   3.12914
   D21        3.11902   0.00017   0.00000   0.00131   0.00133   3.12034
   D22       -0.00829  -0.00006   0.00000   0.00012   0.00014  -0.00814
   D23       -0.10390   0.00227   0.00000   0.01259   0.01256  -0.09134
   D24        3.05199   0.00204   0.00000   0.01139   0.01138   3.06336
   D25       -0.00027   0.00019   0.00000   0.00066   0.00064   0.00036
   D26        3.12386   0.00061   0.00000   0.00295   0.00293   3.12679
   D27       -3.12768  -0.00005   0.00000  -0.00056  -0.00057  -3.12825
   D28       -0.00355   0.00036   0.00000   0.00173   0.00172  -0.00182
   D29       -1.06033   0.00054   0.00000   0.00254   0.00260  -1.05773
   D30       -3.12255  -0.00186   0.00000  -0.00870  -0.00877  -3.13132
   D31        0.98379   0.00175   0.00000   0.00880   0.00882   0.99261
   D32        2.09892   0.00013   0.00000   0.00028   0.00033   2.09925
   D33        0.03670  -0.00227   0.00000  -0.01096  -0.01104   0.02566
   D34       -2.14015   0.00134   0.00000   0.00653   0.00654  -2.13360
         Item               Value     Threshold  Converged?
 Maximum Force            0.352051     0.000450     NO 
 RMS     Force            0.043718     0.000300     NO 
 Maximum Displacement     0.202003     0.001800     NO 
 RMS     Displacement     0.039252     0.001200     NO 
 Predicted change in Energy=-6.725488D-02
 Lowest energy point so far.  Saving SCF results.
 GradGradGradGradGradGradGradGradGradGradGradGradGradGradGradGradGradGrad

 Leave Link  103 at Thu Aug 26 06:04:52 2021, MaxMem= 24159191040 cpu:         4.7
 (Enter /public/home/users/caep010/software/Gaussian09/g09/l202.exe)
                          Input orientation:                          
 ---------------------------------------------------------------------
 Center     Atomic      Atomic             Coordinates (Angstroms)
 Number     Number       Type             X           Y           Z
 ---------------------------------------------------------------------
      1          6           0        4.149320    4.816538    1.516280
      2          6           0        3.310911    4.412720    0.469773
      3          6           0        2.650115    5.315217   -0.344304
      4          6           0        2.812496    6.670259   -0.096813
      5          1           0        2.248266    7.361221   -0.666913
      6          6           0        3.635063    7.102288    0.931974
      7          1           0        3.752956    8.030596    1.081973
      8          6           0        4.311747    6.199053    1.749662
      9          6           0        4.856243    3.917639    2.378663
     10          7           0        5.484857    3.331537    3.148189
     11          7           0        3.122219    2.980272    0.167232
     12          8           0        3.692781    2.165485    0.876251
     13          8           0        2.404141    2.688078   -0.777716
     14          6           0        5.216016    6.680128    2.850378
     15          1           0        4.865195    6.311823    3.788232
     16          1           0        5.208495    7.735419    2.886331
     17          1           0        6.193722    6.309461    2.731714
     18          1           0        2.023057    5.022368   -1.109405
 ---------------------------------------------------------------------
                    Distance matrix (angstroms):
                    1          2          3          4          5
     1  C    0.000000
     2  C    1.400420   0.000000
     3  C    2.440915   1.383428   0.000000
     4  C    2.797400   2.380320   1.386997   0.000000
     5  H    3.854315   3.333906   2.109903   1.058677   0.000000
     6  C    2.414648   2.748178   2.406789   1.386242   2.132297
     7  H    3.267398   3.695838   3.259418   2.030891   2.402240
     8  C    1.411452   2.414700   2.815472   2.424719   3.383552
     9  C    1.432294   2.505398   3.772900   4.228688   5.285389
    10  N    2.579151   3.615095   4.916123   5.368298   6.424086
    11  N    2.499347   1.476157   2.436497   3.712365   4.544480
    12  O    2.765167   2.315408   3.535211   4.691987   5.609247
    13  O    3.583073   2.313623   2.673988   4.060561   4.677055
    14  C    2.527969   3.799717   4.318892   3.803018   4.652178
    15  H    2.812493   4.127294   4.793502   4.408586   5.272369
    16  H    3.393929   4.525584   4.779089   3.971716   4.639884
    17  H    2.808145   4.126088   4.796620   4.423057   5.312578
    18  H    3.384905   2.126979   1.031669   2.089043   2.390973
                    6          7          8          9         10
     6  C    0.000000
     7  H    0.947709   0.000000
     8  C    1.393682   2.027956   0.000000
     9  C    3.704886   4.451411   2.428367   0.000000
    10  N    4.748886   5.417553   3.399222   1.153621   0.000000
    11  N    4.223607   5.171107   3.778837   2.962418   3.819889
    12  O    4.937455   5.869026   4.173204   2.584750   3.119763
    13  O    4.891162   5.815518   4.727954   4.181789   5.031659
    14  C    2.521489   2.662999   1.503566   2.825473   3.372540
    15  H    3.208781   3.393390   2.115369   2.778323   3.110584
    16  H    2.587674   2.336971   2.111065   3.867460   4.420307
    17  H    3.227132   3.411934   2.125664   2.763025   3.089331
    18  H    3.330444   4.104159   3.846681   4.627525   5.741958
                   11         12         13         14         15
    11  N    0.000000
    12  O    1.221526   0.000000
    13  O    1.222270   2.160857   0.000000
    14  C    5.027145   5.157463   6.083271   0.000000
    15  H    5.220041   5.200606   6.327417   1.066909   0.000000
    16  H    5.861524   6.112444   6.838516   1.055930   1.719856
    17  H    5.205208   5.183627   6.308046   1.052323   1.697416
    18  H    2.647284   3.859091   2.388337   5.350050   5.807520
                   16         17         18
    16  H    0.000000
    17  H    1.740097   0.000000
    18  H    5.785635   5.814229   0.000000
 Stoichiometry    C8H6N2O2
 Framework group  C1[X(C8H6N2O2)]
 Deg. of freedom    48
 Full point group                 C1      NOp   1
 RotChk:  IX=0 Diff= 2.28D-02
 Largest Abelian subgroup         C1      NOp   1
 Largest concise Abelian subgroup C1      NOp   1
                         Standard orientation:                         
 ---------------------------------------------------------------------
 Center     Atomic      Atomic             Coordinates (Angstroms)
 Number     Number       Type             X           Y           Z
 ---------------------------------------------------------------------
      1          6           0        0.438987    0.386778   -0.005358
      2          6           0       -0.686368   -0.446707   -0.012630
      3          6           0       -0.589824   -1.826728   -0.002854
      4          6           0        0.672771   -2.400836   -0.006218
      5          1           0        0.750841   -3.454223   -0.077473
      6          6           0        1.806565   -1.603254    0.000286
      7          1           0        2.664649   -2.005269    0.015393
      8          6           0        1.716906   -0.212458    0.000635
      9          6           0        0.385026    1.818050   -0.009277
     10          7           0        0.509201    2.964968   -0.010553
     11          7           0       -2.046724    0.126199    0.003211
     12          8           0       -2.155655    1.342790   -0.009695
     13          8           0       -2.990692   -0.649839    0.028367
     14          6           0        2.953838    0.641957    0.026813
     15          1           0        2.977638    1.263601   -0.839955
     16          1           0        3.813985    0.029542    0.017674
     17          1           0        2.954693    1.288461    0.857124
     18          1           0       -1.415771   -2.444698   -0.019128
 ---------------------------------------------------------------------
 Rotational constants (GHZ):      1.3478170      0.9698071      0.5658701
 Leave Link  202 at Thu Aug 26 06:04:52 2021, MaxMem= 24159191040 cpu:         0.8
 (Enter /public/home/users/caep010/software/Gaussian09/g09/l301.exe)
 Standard basis: GTBas3 (6D, 7F)
 Ernie: Thresh=  0.10000D-02 Tol=  0.10000D-05 Strict=F.
 There are   402 symmetry adapted cartesian basis functions of A   symmetry.
 There are   366 symmetry adapted basis functions of A   symmetry.
   366 basis functions,   570 primitive gaussians,   402 cartesian basis functions
    42 alpha electrons       42 beta electrons
       nuclear repulsion energy       648.3605461339 Hartrees.
 IExCor=  402 DFT=T Ex+Corr=B3LYP ExCW=0 ScaHFX=  0.200000
 ScaDFX=  0.800000  0.720000  1.000000  0.810000 ScalE2=  1.000000  1.000000
 IRadAn=      0 IRanWt=     -1 IRanGd=            0 ICorTp=0 IEmpDi=  4
 NAtoms=   18 NActive=   18 NUniq=   18 SFac= 1.00D+00 NAtFMM=   60 NAOKFM=F Big=F
 Integral buffers will be    131072 words long.
 Raffenetti 2 integral format.
 Two-electron integral symmetry is turned on.
 Leave Link  301 at Thu Aug 26 06:04:52 2021, MaxMem= 24159191040 cpu:         2.6
 (Enter /public/home/users/caep010/software/Gaussian09/g09/l302.exe)
 NPDir=0 NMtPBC=     1 NCelOv=     1 NCel=       1 NClECP=     1 NCelD=      1
         NCelK=      1 NCelE2=     1 NClLst=     1 CellRange=     0.0.
 One-electron integrals computed using PRISM.
 NBasis=   366 RedAO= T EigKep=  8.00D-05  NBF=   366
 NBsUse=   366 1.00D-06 EigRej= -1.00D+00 NBFU=   366
 Precomputing XC quadrature grid using
 IXCGrd= 4 IRadAn=           0 IRanWt=          -1 IRanGd=           0 AccXCQ= 0.00D+00.
 Generated NRdTot=       0 NPtTot=           0 NUsed=           0 NTot=          32
 NSgBfM=   401   401   401   401   401 MxSgAt=    18 MxSgA2=    18.
 Leave Link  302 at Thu Aug 26 06:04:53 2021, MaxMem= 24159191040 cpu:        17.5
 (Enter /public/home/users/caep010/software/Gaussian09/g09/l303.exe)
 DipDrv:  MaxL=1.
 Leave Link  303 at Thu Aug 26 06:04:53 2021, MaxMem= 24159191040 cpu:         1.0
 (Enter /public/home/users/caep010/software/Gaussian09/g09/l401.exe)
 Initial guess from the checkpoint file:  "/public/home/users/caep010/.cache/gau_scr/Gau-127358.chk"
 B after Tr=     0.000000   -0.000000    0.000000
         Rot=    0.999970   -0.000025    0.000001    0.007784 Ang=  -0.89 deg.
 Guess basis will be translated and rotated to current coordinates.
 JPrj=2 DoOrth=T DoCkMO=T.
 Generating alternative initial guess.
 ExpMin= 1.61D-01 ExpMax= 5.48D+03 ExpMxC= 8.25D+02 IAcc=1 IRadAn=         1 AccDes= 0.00D+00
 Harris functional with IExCor=  402 and IRadAn=       1 diagonalized for initial guess.
 HarFok:  IExCor=  402 AccDes= 0.00D+00 IRadAn=         1 IDoV= 1 UseB2=F ITyADJ=14
 ICtDFT=  3500011 ScaDFX=  1.000000  1.000000  1.000000  1.000000
 FoFCou: FMM=F IPFlag=           0 FMFlag=      100000 FMFlg1=           0
         NFxFlg=           0 DoJE=T BraDBF=F KetDBF=T FulRan=T
         wScrn=  0.000000 ICntrl=     500 IOpCl=  0 I1Cent=   200000004 NGrid=           0
         NMat0=    1 NMatS0=      1 NMatT0=    0 NMatD0=    1 NMtDS0=    0 NMtDT0=    0
 Petite list used in FoFCou.
 Harris En= -568.378740092820    
 Leave Link  401 at Thu Aug 26 06:04:54 2021, MaxMem= 24159191040 cpu:        28.2
 (Enter /public/home/users/caep010/software/Gaussian09/g09/l502.exe)
 Closed shell SCF:
 Using DIIS extrapolation, IDIIS=  1040.
 Integral symmetry usage will be decided dynamically.
 Keep R1 ints in memory in canonical form, NReq=2288577883.
 IVT=      519130 IEndB=      519130 NGot= 24159191040 MDV= 21903338370
 LenX= 21903338370 LenY= 21903176325
 Requested convergence on RMS density matrix=1.00D-08 within 128 cycles.
 Requested convergence on MAX density matrix=1.00D-06.
 Requested convergence on             energy=1.00D-06.
 No special actions if energy rises.
 FoFCou: FMM=F IPFlag=           0 FMFlag=           0 FMFlg1=           0
         NFxFlg=           0 DoJE=F BraDBF=F KetDBF=F FulRan=T
         wScrn=  0.000000 ICntrl=     600 IOpCl=  0 I1Cent=           0 NGrid=           0
         NMat0=    1 NMatS0=  67161 NMatT0=    0 NMatD0=    1 NMtDS0=    0 NMtDT0=    0
 Symmetry not used in FoFCou.
 Integral accuracy reduced to 1.0D-05 until final iterations.

 Cycle   1  Pass 0  IDiag  1:
 E= -568.311818326028    
 DIIS: error= 2.90D-03 at cycle   1 NSaved=   1.
 NSaved= 1 IEnMin= 1 EnMin= -568.311818326028     IErMin= 1 ErrMin= 2.90D-03
 ErrMax= 2.90D-03  0.00D+00 EMaxC= 1.00D-01 BMatC= 6.31D-03 BMatP= 6.31D-03
 IDIUse=3 WtCom= 9.71D-01 WtEn= 2.90D-02
 Coeff-Com:  0.100D+01
 Coeff-En:   0.100D+01
 Coeff:      0.100D+01
 Gap=     1.056 Goal=   None    Shift=    0.000
 GapD=    1.056 DampG=2.000 DampE=1.000 DampFc=2.0000 IDamp=-1.
 RMSDP=6.83D-04 MaxDP=4.40D-02              OVMax= 1.56D-02

 Cycle   2  Pass 0  IDiag  1:
 E= -568.316311751564     Delta-E=       -0.004493425536 Rises=F Damp=F
 DIIS: error= 1.41D-03 at cycle   2 NSaved=   2.
 NSaved= 2 IEnMin= 2 EnMin= -568.316311751564     IErMin= 2 ErrMin= 1.41D-03
 ErrMax= 1.41D-03  0.00D+00 EMaxC= 1.00D-01 BMatC= 1.08D-03 BMatP= 6.31D-03
 IDIUse=3 WtCom= 9.86D-01 WtEn= 1.41D-02
 Coeff-Com:  0.218D+00 0.782D+00
 Coeff-En:   0.000D+00 0.100D+01
 Coeff:      0.215D+00 0.785D+00
 Gap=     0.179 Goal=   None    Shift=    0.000
 RMSDP=1.75D-04 MaxDP=1.23D-02 DE=-4.49D-03 OVMax= 2.72D-02

 Cycle   3  Pass 0  IDiag  1:
 E= -568.316233602520     Delta-E=        0.000078149044 Rises=F Damp=F
 DIIS: error= 2.11D-03 at cycle   3 NSaved=   3.
[...]
 6\N,0,3.1065354248,2.9627349689,0.1630228764\O,0,3.6915677467,2.149492
 3282,0.8612673419\O,0,2.3612263139,2.6828700512,-0.7662336911\C,0,5.20
 15996533,6.6736263709,2.8648196901\H,0,4.8668995926,6.2901058302,3.833
 8636009\H,0,5.2094592084,7.76448951,2.9071272494\H,0,6.2299360518,6.32
 30288695,2.7315765427\H,0,2.0083616489,4.9381651181,-1.135485781\\Vers
 ion=ES64L-G09RevE.01\State=1-A\MP2/GTBas1=-566.6428694\MP4/GTBas1=-566
 .7661899\CCSD(T)/G3Bas1=-566.7474225\MP2/GTBas2=-566.6764451\MP4/GTBas
 2=-566.8016385\MP2/GTBas3=-567.016242\MP4/GTBas3=-567.1600262\HF/GTLar
 geXP=-565.111362\MP2/GTLargeXP=-567.7891078\HF/GFHFB1=-565.1557673\HF/
 GFHFB2=-565.1640543\G4=-568.0521588\FreqCoord=7.840949369,9.0815930629
 ,2.8489314647,6.2561214386,8.3091657429,0.8662254651,4.9906004124,10.0
 348774343,-0.6467325311,5.300374713,12.5994414394,-0.1868452509,4.3222
 038108,13.9685580982,-1.3552476235,6.8615619505,13.4063059205,1.767656
 5576,7.0955947039,15.4128378359,2.1171735054,8.1485503508,11.696129209
 5,3.3076902095,9.1932286386,7.3934113935,4.4704701882,10.4058169115,6.
 313956043,5.9376207603,5.8705011749,5.5987576955,0.3080685898,6.976052
 0423,4.0619518251,1.6275594034,4.4620710711,5.069889647,-1.44797183,9.
 8295987977,12.6113261542,5.4137246343,9.1971073463,11.886577366,7.2449
 522365,9.8444512044,14.6727587355,5.4936743348,11.7728729634,11.948792
 8938,5.1619315767,3.7952534923,9.3317796722,-2.1457571539\PG=C01 [X(C8
 H6N2O2)]\NImag=0\\0.36044039,-0.01777604,0.60008383,0.25875577,-0.0085
 0760,0.47043793,-0.14973816,-0.01339032,-0.10796177,0.37618242,-0.0416
 5207,-0.11916775,-0.05319615,-0.03957241,0.54653303,-0.10880702,-0.018
 25471,-0.19783089,0.28396518,-0.03688930,0.49551218,-0.01493646,0.0009
 2530,-0.02906080,-0.14202721,0.08492089,-0.09318099,0.37163924,0.02791
 142,0.04653426,0.03564705,0.04841198,-0.18863843,0.05614169,0.01538982
 ,0.69164772,-0.02825176,0.00228156,-0.02627306,-0.09427685,0.10128290,
 -0.17812831,0.29576450,0.03578192,0.49956417,-0.01316641,-0.01758047,-
 0.01067583,0.02181100,0.00507822,0.02050434,-0.08828663,-0.00236765,-0
 .03610929,0.35859386,-0.02088563,-0.03298013,-0.02666325,0.03636146,-0
 .05192681,0.04323941,-0.04512778,-0.33439896,-0.06404735,-0.03210659,0
 .70298558,-0.01077514,-0.02257676,-0.01895751,0.02144568,0.00456004,0.
 03199991,-0.03739265,-0.01117765,-0.10570752,0.28142416,-0.02252782,0.
 47749506,-0.00043298,-0.00064580,0.00016262,0.00487510,-0.00092406,-0.
 00332131,0.00475149,-0.00407799,0.00270503,-0.11003936,0.09056068,-0.0
 8748722,0.10767292,-0.00059587,-0.00045075,-0.00073283,-0.00171732,-0.
 00413529,-0.00247299,0.01559832,-0.01669209,0.01871210,0.09045435,-0.1
 8398744,0.10743726,-0.09704262,0.19359646,0.00016422,-0.00079472,-0.00
 040093,-0.00334536,-0.00149220,0.00335791,0.00329477,-0.00561678,0.006
 37041,-0.08749021,0.10756854,-0.14203763,0.09826446,-0.11495828,0.1438
 9782,0.02169400,0.03488031,0.01771174,-0.02849950,0.00843953,-0.026104
 75,0.00906501,-0.05200155,0.00134988,-0.16071122,-0.01608485,-0.126333
 25,-0.00525488,-0.00604632,-0.00997054,0.34815605,0.00992832,-0.044000
 37,0.01071100,0.00783721,-0.00386867,0.00978902,-0.02466352,-0.0047027
 7,-0.03083676,-0.05830398,-0.14660775,-0.07471803,0.01377867,0.0100635
 9,0.01725827,0.00729305,0.72464388,0.01696478,0.04156188,0.03043530,-0
 .02612551,0.01053437,-0.03916421,0.00217055,-0.06463897,0.00745675,-0.
 12759893,-0.02251602,-0.21736935,-0.00937623,-0.00725407,-0.00914824,0
 .26490511,0.02671988,0.46242787,0.00256286,0.00203792,-0.00465314,-0.0
 0046945,0.00036548,-0.00083423,0.00228660,-0.00067763,-0.00621325,0.00
 123046,-0.01914797,-0.00256432,-0.00171697,0.00014351,0.00222685,-0.04
 918905,-0.03137995,-0.01465263,0.04315628,0.00202279,-0.00085441,0.002
 28452,0.00039162,0.00080559,0.00050195,-0.00101869,0.00135061,-0.00143
 779,0.00063014,-0.00551016,0.00052875,-0.00014369,0.00070461,-0.000051
 17,-0.03057128,-0.32537234,-0.04641100,0.03319641,0.34575443,-0.004653
 54,0.00230277,0.00069064,-0.00083360,0.00046949,-0.00080255,-0.0062233
 4,-0.00101599,-0.00042987,-0.00197147,-0.02392570,-0.00031475,0.002218
 26,0.00030396,-0.00076264,-0.01462842,-0.04741093,-0.05760779,0.022414
 18,0.05063562,0.05506493,-0.09269634,-0.03544961,-0.02567429,0.0105209
 1,-0.02059861,0.00277758,-0.00599851,0.01356324,0.00018945,-0.01832671
 ,-0.00024432,-0.02981391,0.00290665,-0.00149640,-0.00560639,-0.1338636
 4,0.08429316,-0.08022321,0.00466015,-0.00378082,0.00075965,0.36150691,
 -0.00536866,-0.26211399,-0.01232006,-0.05070640,-0.00965833,-0.0632149
 3,0.01498044,-0.05740250,0.01697532,0.02770966,0.05950820,0.03587195,-
 0.00192902,0.00024656,-0.00259956,0.04182469,-0.20789676,0.04748834,0.
 01502496,-0.01766531,0.01792960,-0.02189177,0.62502358,-0.02477339,-0.
 04950990,-0.10490766,0.00187814,-0.02599138,0.00931441,0.00023244,0.01
 522282,-0.00507970,-0.02897543,0.00130997,-0.03000713,-0.00561947,-0.0
 0206481,0.00039486,-0.08149752,0.09999946,-0.16470907,0.00132336,-0.00
 532294,0.00543102,0.22570195,-0.01367709,0.45710498,-0.12253925,0.0617
 2355,-0.07171793,-0.01619217,0.01435706,-0.02062365,0.00303322,-0.0050
 0221,-0.00451483,-0.00132029,0.00032084,-0.00013739,-0.00065652,0.0000
 0937,0.00055688,0.00617236,-0.00210637,-0.00148393,0.00021195,-0.00022
 743,0.00022768,0.00625398,0.01631426,0.00111372,0.52719691,0.06098547,
 -0.15412563,0.07268221,0.00795476,0.01183515,0.01016552,-0.00339986,0.
 00331305,-0.00430101,-0.00058975,-0.00241766,-0.00076559,0.00000943,-0
 .00001160,0.00004451,-0.00258183,-0.00537974,-0.00357339,0.00079404,-0
 .00076082,0.00095830,0.01914417,-0.03982626,0.02230569,-0.40886041,0.5
 1787260,-0.07174243,0.07359386,-0.14954834,-0.02081380,0.01808359,-0.0
 2436029,-0.00446713,-0.00628196,0.00085176,-0.00016533,0.00035983,-0.0
 0139480,0.00055690,0.00004436,-0.00041680,-0.00149776,-0.00298600,0.00
 537992,0.00025840,-0.00030474,0.00033251,0.00119851,0.01880755,0.00779
 479,0.52846513,-0.49277084,0.72865901,0.00518780,0.01108979,-0.0143658
 2,0.00457804,0.00120526,0.00395078,-0.00113501,0.00142019,0.00002904,0
 .00022632,-0.00061090,0.00006610,0.00013062,0.00002880,-0.00011225,-0.
 00098059,0.00068059,0.00030817,-0.00012429,0.00014476,-0.00011987,-0.0
 0191638,-0.00595241,-0.00317992,-0.39602630,0.32725980,-0.43213612,0.3
 9015149,0.01469774,0.00556582,0.01782923,-0.00330332,-0.00483675,-0.00
 427174,0.00111832,-0.00044576,0.00140305,-0.00013717,0.00059810,-0.000
 15636,0.00001483,0.00000637,0.00001186,0.00094697,0.00021524,0.0012138
 5,-0.00002953,0.00008178,-0.00003340,-0.00173731,0.00586341,-0.0019875
 1,0.32342849,-0.32582974,0.39134866,-0.33304692,0.32083535,-0.01425657
 ,0.01336719,-0.00015550,0.00381572,0.00130285,0.00616917,0.00002000,0.
 00177646,-0.00104630,0.00008039,-0.00074232,0.00023515,-0.00011267,0.0
 0002917,0.00008366,0.00031615,0.00088449,-0.00079579,-0.00012513,0.000
 18217,-0.00017304,-0.00305346,-0.00719994,-0.00348069,-0.43225206,0.39
 608723,-0.56129774,0.44778352,-0.40283166,0.56163636,-0.00106378,-0.01
 891477,0.00001291,-0.09235209,-0.00160609,-0.00937849,0.00923381,0.009
 70070,0.00998289,0.00312216,0.00468972,-0.00675838,0.00050512,0.001204
 27,0.00001905,-0.00235990,0.00028117,-0.00151911,-0.00094425,-0.000022
 00,0.00041387,0.00188227,-0.00154159,-0.00704098,-0.00392014,-0.003856
 60,0.00012347,0.00066844,0.00149459,-0.00004543,0.52217412,-0.01443136
 ,-0.01482366,-0.01823957,-0.00209334,-0.11021032,-0.00334670,0.0053081
 7,-0.04349702,0.00521333,0.00418048,0.00388218,0.00502293,-0.00030811,
 0.00019195,-0.00039081,0.00122759,-0.00061662,0.00153314,-0.00001197,-
 0.00010702,0.00002069,-0.00153187,0.00926757,-0.00184352,0.00483632,0.
 00414444,0.00622955,-0.00183833,-0.00302824,-0.00238710,-0.06326494,0.
 65918395,0.00014614,-0.02379055,-0.00206603,-0.00939717,-0.00274659,-0
 .09651705,0.00985022,0.01065529,0.01389474,-0.00677414,0.00565222,0.00
 049595,-0.00002620,0.00147925,0.00053082,-0.00148901,0.00036252,-0.002
 95515,0.00041446,0.00000792,-0.00076696,-0.00704161,-0.00185078,-0.001
 22140,0.00038707,-0.00451706,-0.00377259,-0.00014681,0.00173218,0.0006
 1259,0.35421128,-0.06534195,0.66961989,-0.00231599,-0.00196607,-0.0030
 3131,0.01362899,0.01660107,-0.00807134,0.00189403,-0.00092670,-0.00042
 476,-0.00007161,0.00052260,0.00142719,-0.00022055,0.00002379,0.0001804
 8,0.00026924,-0.00034587,0.00000425,0.00012353,-0.00004131,0.00008142,
 0.00001089,0.00140200,0.00064094,0.00029228,-0.00030752,0.00074593,-0.
 00130428,-0.00246611,-0.00286607,-0.18550963,0.13355971,-0.12967944,0.
 19942020,0.00237465,-0.00112556,0.00289784,0.02650106,-0.05521036,0.03
 045750,-0.00527619,-0.00359510,-0.00669921,0.00059149,-0.00288586,0.00
 068354,-0.00012557,-0.00096413,-0.00017293,0.00042137,-0.00006229,0.00
 051151,-0.00005976,-0.00006370,-0.00007775,0.00071660,-0.00072140,0.00
 087893,-0.00160307,-0.00542088,-0.00213715,-0.00055261,0.00157974,-0.0
 0066466,0.14217624,-0.34452156,0.16759035,-0.17945868,0.37504094,-0.00
 289890,-0.00246252,-0.00357156,-0.00777194,0.01822457,0.01151691,-0.00
 055638,-0.00132361,0.00148589,0.00143112,0.00059588,0.00057217,0.00017
 588,0.00001110,-0.00014805,0.00002637,-0.00043639,0.00027715,0.0000805
 6,-0.00005473,0.00015507,0.00062155,0.00172338,0.00034523,0.00070593,-
 0.00053439,0.00053832,-0.00280841,-0.00303104,-0.00261206,-0.12942150,
 0.15694235,-0.23244676,0.20718646,-0.21121984,0.27694719,0.00380315,-0
 .00223088,0.00088687,-0.00103103,-0.02215827,-0.02637126,-0.00168014,0
 .00570864,-0.00340158,-0.00006644,-0.00147673,0.00073823,0.00003488,-0
 .00020679,-0.00004832,0.00029920,0.00051048,0.00028925,0.00019250,-0.0
 0000468,0.00010825,-0.00090716,-0.00042091,0.00040549,0.00051722,0.002
 69162,0.00001514,-0.00034149,-0.00133812,-0.00018762,-0.24698393,-0.06
 476372,-0.21036628,-0.02716323,0.01458102,-0.06710256,0.27228838,0.003
 18238,-0.00608238,0.00366265,-0.03106003,-0.01830788,-0.03952411,-0.00
 068533,-0.00714528,-0.00109453,-0.00112687,0.00136943,-0.00133171,0.00
 007212,-0.00012561,0.00008359,-0.00119259,-0.00023549,-0.00148438,-0.0
 0011996,-0.00010981,-0.00015465,-0.00091744,-0.00201659,-0.00115826,-0
 .00045413,-0.00124211,-0.00061603,0.00019635,0.00094307,0.00027796,-0.
 07064907,-0.16196067,-0.08980651,0.03463650,0.03719124,0.04308549,0.07
 023168,0.16416742,0.00104751,-0.00302859,0.00423708,-0.02663833,-0.028
 52297,-0.01399929,-0.00359226,0.00680323,-0.00302856,0.00074958,-0.001
 76215,0.00017456,-0.00004000,-0.00026150,0.00001167,0.00023722,0.00062
 154,0.00038988,0.00010471,-0.00001215,0.00023400,0.00039244,-0.0005444
 6,-0.00077872,-0.00008118,0.00327058,0.00057159,-0.00014016,-0.0016174
 5,-0.00044549,-0.21054527,-0.08253505,-0.34091582,-0.06649911,0.018305
 29,-0.05409621,0.30324638,0.09085178,0.40595414,0.00072178,-0.00679745
 ,-0.00399296,0.00369704,0.00132087,-0.00189990,-0.00098217,-0.00060636
 ,-0.00020790,0.00537027,0.00198116,-0.00309372,-0.00030706,-0.00016184
 ,-0.00003442,-0.00797742,-0.00352077,-0.01939091,-0.00205853,-0.001214
 85,0.00276288,-0.11945225,-0.02128273,-0.05886955,-0.00316710,0.001214
 71,0.00072492,0.00035622,0.00011067,0.00035112,0.00075051,0.00012137,-
 0.00021743,0.00001030,-0.00000278,-0.00001975,-0.00017627,0.00009883,0
 .00029059,0.51614782,-0.02040379,-0.01152288,-0.02568806,0.00178727,-0
 .00520166,0.00189515,0.00007602,0.00077070,0.00014193,0.00120667,-0.00
 379204,0.00114126,0.00070488,0.00036059,0.00089074,0.01224205,0.009259
 35,0.01518699,0.00119078,0.00040235,0.00161365,-0.02675110,-0.09914699
 ,-0.03388079,-0.00121391,-0.00298603,-0.00147884,-0.00092265,-0.001027
 54,-0.00117389,-0.00069314,-0.00019187,-0.00089093,-0.00009337,0.00010
 108,-0.00011298,-0.00032830,-0.00051831,-0.00040887,-0.01794974,0.5834
 2751,-0.00440111,-0.00886496,-0.00192119,-0.00188623,0.00131964,0.0029
 7346,-0.00018757,-0.00070181,-0.00108171,-0.00311644,0.00209833,0.0041
 2973,-0.00000841,-0.00018081,-0.00029897,-0.01891776,-0.00430399,-0.01
 590112,0.00283491,-0.00136037,-0.00085801,-0.05903203,-0.02711765,-0.1
 4616327,0.00065217,0.00152453,-0.00287228,0.00032026,0.00010408,0.0004
 7418,-0.00024182,0.00011660,0.00063390,-0.00002249,-0.00000146,-0.0000
 0172,0.00027779,0.00011869,-0.00006195,-0.02365052,-0.02073389,0.50496
 144,0.00082562,0.00075531,0.00045425,-0.00062643,0.00018817,0.00020016
 ,0.00000328,-0.00002154,-0.00012121,-0.00120099,0.00030646,0.00032039,
 -0.00007744,-0.00004582,-0.00019142,-0.00149565,-0.00137274,-0.0014504
 4,0.00035300,0.00002627,-0.00038143,0.00496932,0.00781711,-0.02097136,
 0.00075863,-0.00036522,0.00000153,-0.00034950,-0.00032999,-0.00015960,
 0.00002669,0.00011076,0.00012579,-0.00006257,-0.00007640,-0.00004306,-
 0.00001209,-0.00005130,-0.00008358,-0.06790336,-0.03121203,0.07390963,
 0.07568685,-0.00047887,-0.00090894,-0.00060173,-0.00025660,0.00035025,
 0.00038351,-0.00013343,-0.00022642,-0.00032351,0.00001747,0.00023760,0
 .00029177,-0.00003189,-0.00000809,-0.00003925,-0.00047430,-0.00037798,
 -0.00035925,-0.00019218,0.00028623,-0.00001231,0.00607553,0.00402934,-
 0.00903549,-0.00071929,-0.00007772,-0.00181296,0.00033252,-0.00001922,
 0.00079601,-0.00019253,0.00022067,-0.00012843,0.00010725,-0.00009417,0
 .00016088,0.00012225,-0.00006904,0.00007200,-0.03223432,-0.07947213,0.
 08181973,0.03489397,0.08239186,-0.00056808,0.00183081,0.00096306,-0.00
 100977,0.00004774,-0.00020701,0.00013769,-0.00028445,-0.00001541,-0.00
 089390,0.00036789,0.00033996,-0.00012660,-0.00006072,-0.00015727,-0.00
 069160,-0.00211245,-0.00138975,0.00029636,0.00000059,-0.00025045,0.004
 31558,0.00682744,-0.02227901,0.00046346,-0.00032747,-0.00048341,0.0001
 0576,0.00023462,0.00061475,-0.00017996,0.00038221,-0.00013278,0.000128
 41,-0.00016045,0.00015039,0.00008379,-0.00012907,0.00004409,0.07452671
 ,0.08216337,-0.25007948,-0.07768605,-0.08983294,0.27431258,-0.00175733
 ,-0.00075100,-0.00363801,0.00057760,-0.00078185,0.00011049,-0.00002633
 ,0.00004576,-0.00004698,-0.00011739,-0.00003990,0.00018509,-0.00000183
 ,0.00001673,0.00004371,0.00052589,-0.00124311,0.00078058,-0.00002160,0
 .00053218,-0.00044021,-0.00163898,-0.02055701,-0.00042284,-0.00048288,
 0.00048774,-0.00042453,0.00046343,0.00016512,0.00023558,-0.00026228,0.
 00007588,-0.00018826,0.00004521,-0.00003237,0.00003972,-0.00005288,-0.
 00015973,-0.00005580,-0.04728292,0.00210171,-0.00006887,-0.00078257,-0
 .01070980,-0.00085283,0.04863826,-0.00100349,-0.00006255,-0.00127733,0
 .00046272,-0.00030942,0.00054873,-0.00002266,0.00029798,-0.00001948,-0
 .00020890,0.00025209,-0.00024287,-0.00002263,-0.00001593,-0.00002735,0
 .00173995,0.00042947,0.00216805,-0.00033609,0.00102486,-0.00039505,0.0
 0044145,-0.00974090,0.00030823,0.00001200,0.00003015,0.00001962,-0.000
 21422,-0.00007469,-0.00027542,0.00007507,0.00005679,0.00009760,-0.0001
 0418,-0.00004280,-0.00013044,-0.00012994,-0.00010613,-0.00016338,-0.00
 126296,-0.31657655,-0.00960998,0.00069228,-0.00966496,-0.00096300,0.00
 063229,0.34315634,-0.00364567,-0.00096531,-0.00336998,0.00014791,-0.00
 099026,0.00062203,-0.00004898,0.00006515,-0.00004582,0.00018001,-0.000
 03379,-0.00004650,0.00004253,0.00002131,0.00001645,0.00087006,-0.00152
 020,0.00089459,-0.00046622,0.00067829,-0.00020872,0.00020398,-0.025657
 53,-0.00230796,-0.00043873,0.00060767,-0.00065191,0.00022413,0.0001935
 8,0.00055984,-0.00018826,0.00009879,-0.00033809,0.00003756,-0.00004168
 ,0.00005753,-0.00005497,-0.00020035,-0.00008545,-0.00016916,-0.0054491
 2,-0.04754742,-0.00123571,0.02820977,0.00272051,0.00449891,0.00968858,
 0.05086775,0.00094552,0.00169890,-0.00047724,-0.00007255,0.00001604,-0
 .00088321,-0.00000167,-0.00027050,0.00013252,0.00037289,0.00031317,-0.
 00054878,-0.00008641,-0.00004907,-0.00012903,-0.00089743,-0.00178076,-
 0.00060337,-0.00020694,-0.00002367,0.00018179,-0.01752186,0.00442900,-
 0.00053638,-0.00046924,-0.00026065,0.00021489,0.00055376,0.00030829,0.
 00029802,-0.00012250,0.00034533,-0.00019553,0.00012374,-0.00013847,0.0
 0016075,0.00004372,-0.00011428,0.00008858,-0.27736236,0.08033225,0.033
 15706,-0.01018270,0.00390245,0.00188737,0.00214518,-0.00074343,0.00006
 993,0.30276145,-0.00044483,-0.00088516,-0.00064937,0.00040843,0.000361
 97,-0.00016983,-0.00027891,-0.00023622,-0.00019975,0.00027036,0.000243
 28,0.00009724,-0.00002949,-0.00000811,-0.00003988,-0.00023721,-0.00038
 256,-0.00051959,0.00002542,0.00029069,-0.00018571,-0.01011554,0.003569
 22,0.00411330,-0.00162776,-0.00009685,-0.00109747,0.00072444,0.0000050
 1,0.00050784,-0.00009775,0.00022877,-0.00021586,0.00014136,-0.00009489
 ,0.00014195,0.00004992,-0.00007234,0.00013577,0.08022591,-0.07394078,-
 0.01420010,-0.01131190,0.00336708,0.00202383,0.03017129,-0.00871353,-0
 .00476204,-0.08795475,0.07632621,0.00044392,0.00109487,0.00082000,0.00
 032501,0.00023023,-0.00077250,-0.00012995,-0.00008973,-0.00000088,0.00
 065500,0.00043123,-0.00123936,-0.00019286,-0.00005990,-0.00014835,-0.0
 0128903,-0.00178560,-0.00198418,-0.00050094,0.00001060,0.00030516,-0.0
 2631065,0.00838865,0.00067230,-0.00029843,-0.00045463,0.00076322,0.000
 06487,-0.00026478,-0.00031287,0.00008770,0.00019605,0.00000804,0.00000
 334,-0.00010963,-0.00003511,-0.00006868,-0.00008064,-0.00000817,0.0325
 0764,-0.01314720,-0.04616159,0.02735219,-0.00966493,-0.00413117,0.0002
 6998,0.00028223,-0.00115808,-0.03286182,0.01503066,0.05331315,0.002465
 57,0.00239131,-0.00273507,-0.00486253,-0.00519921,-0.01203236,-0.14683
 255,-0.05619962,-0.13658491,0.00258010,0.00066859,-0.00070209,-0.00208
 278,-0.00011709,0.00217751,0.00504753,0.00011443,-0.00299842,-0.000046
 24,0.00010422,0.00008391,-0.00038925,0.00014838,0.00059081,0.00033733,
 -0.00031990,-0.00105774,-0.00013828,0.00010344,0.00015812,-0.00484461,
 -0.00152196,0.00038692,0.00082945,-0.00003653,0.00019417,0.00123558,-0
 .00188712,0.00151869,-0.00038449,-0.00007360,0.00038141,0.00006992,-0.
 00002823,0.00006367,0.00003141,-0.00000726,-0.00002731,-0.00002261,0.0
 0008101,-0.00005728,0.14700645,0.00193783,-0.00307976,0.00216146,0.011
 98322,0.01158565,0.01502182,-0.05771088,-0.08693377,-0.07283273,-0.017
 71747,-0.00456964,-0.02213793,0.00014026,0.00122892,0.00032542,0.00017
 443,-0.00510817,-0.00016135,-0.00082348,-0.00025756,-0.00102260,0.0002
 8063,-0.00131884,0.00033329,0.00081270,0.00097964,0.00099898,0.0000555
 4,-0.00043194,0.00006363,0.00121671,0.00178065,0.00171134,-0.00128447,
 0.00088971,-0.00157968,-0.00083729,-0.00567954,-0.00120361,-0.00003971
 ,0.00005519,-0.00002658,-0.00000339,0.00003566,-0.00000795,0.00004606,
 0.00005977,0.00005714,-0.00000984,0.00003820,-0.00000750,0.06177913,0.
 09072582,-0.00274874,0.00272268,0.00141864,-0.01151729,-0.00622657,-0.
 00968390,-0.13663011,-0.07096266,-0.20878657,-0.00125364,0.00059511,0.
 00163206,0.00218531,0.00000739,-0.00114473,-0.00299689,-0.00023583,0.0
 0376317,0.00005606,0.00012448,-0.00003856,0.00059484,0.00016978,-0.000
 12299,-0.00102390,-0.00040186,-0.00009295,0.00015672,0.00012283,-0.000
 06620,0.00046802,-0.00167093,-0.00466329,0.00015855,-0.00004021,0.0008
 6560,0.00155007,-0.00249993,0.00180264,0.00038239,-0.00006852,-0.00022
 399,-0.00004007,0.00007712,-0.00001960,-0.00002572,-0.00000873,0.00002
 124,0.00004444,-0.00001100,0.00007039,0.15063998,0.07830685,0.21526900
 \\0.00000006,-0.00000098,-0.00000040,-0.00000118,0.00000152,-0.0000016
 1,0.00000122,0.00000584,0.00000173,0.00000142,0.00000289,0.00000141,0.
 00000192,0.00000421,0.00000287,0.00000181,0.00000035,0.00000238,0.0000
 0306,0.00000089,0.00000370,0.00000074,-0.00000125,0.00000111,-0.000001
 64,-0.00000228,-0.00000165,-0.00000136,-0.00000344,-0.00000178,-0.0000
 0298,0.00000233,-0.00000290,-0.00000436,-0.00000035,-0.00000603,-0.000
 00291,0.00000223,-0.00000354,0.00000299,-0.00000338,0.00000051,0.00000
 078,-0.00000477,0.00000220,0.00000258,-0.00000365,0.00000320,-0.000000
 02,-0.00000424,0.00000138,-0.00000215,0.00000411,-0.00000258\\\@
 Job cpu time:       0 days 18 hours 39 minutes 27.6 seconds.
 File lengths (MBytes):  RWF=  76942 Int=      0 D2E=      0 Chk=    108 Scr=      1
 Normal termination of Gaussian 09 at Thu Aug 26 10:51:43 2021.
